<LesHouchesEvents version="3.0">
<header>
<!--
#*********************************************************************
#                                                                    *
#                        MadGraph5_aMC@NLO                           *
#                                                                    *
#                           Going Beyond                             *
#                                                                    *
#                   http://madgraph.hep.uiuc.edu                     *
#                   http://madgraph.phys.ucl.ac.be                   *
#                   http://amcatnlo.cern.ch                          *
#                                                                    *
#                     The MadGraph5_aMC@NLO team                     *
#                                                                    *
#....................................................................*
#                                                                    *
# This file contains all the information necessary to reproduce      *
# the events generated:                                              *
#                                                                    *
# 1. software version                                                *
# 2. proc_card          : code generation info including model       *
# 3. param_card         : model primary parameters in the LH format  *
# 4. run_card           : running parameters (collider and cuts)     *
# 5. pythia_card        : present only if pythia has been run        *
# 6. pgs_card           : present only if pgs has been run           *
# 7. delphes_cards      : present only if delphes has been run       *
#                                                                    *
#                                                                    *
#*********************************************************************
-->
<MGVersion>
#5.2.2.3
</MGVersion>
<MG5ProcCard>
#************************************************************
#*                     MadGraph5_aMC@NLO                    *
#*                                                          *
#*                *                       *                 *
#*                  *        * *        *                   *
#*                    * * * * 5 * * * *                     *
#*                  *        * *        *                   *
#*                *                       *                 *
#*                                                          *
#*                                                          *
#*         VERSION 2.2.3                 2015-02-10         *
#*                                                          *
#*    The MadGraph5_aMC@NLO Development Team - Find us at   *
#*    https://server06.fynu.ucl.ac.be/projects/madgraph     *
#*                                                          *
#************************************************************
#*                                                          *
#*               Command File for MadGraph5_aMC@NLO         *
#*                                                          *
#*     run as ./bin/mg5_aMC  filename                       *
#*                                                          *
#************************************************************
set group_subprocesses Auto
set ignore_six_quark_processes False
set loop_optimized_output True
set gauge unitary
set complex_mass_scheme False
import model sm
define p = g u c d s u~ c~ d~ s~
define j = g u c d s u~ c~ d~ s~
define l+ = e+ mu+
define l- = e- mu-
define vl = ve vm vt
define vl~ = ve~ vm~ vt~
import model Zprime_UFO
generate p p > zph, zph > j j
add process p p > zph, zph > b b~
output Dijet_signal
</MG5ProcCard>
<MGProcCard>
#*********************************************************************
#                        MadGraph/MadEvent                           *
#                   http://madgraph.hep.uiuc.edu                     *
#                                                                    *
#                          proc_card.dat                             *
#*********************************************************************
#                                                                    *
#            This Files is generated by MADGRAPH 5                   *
#                                                                    *
# WARNING: This Files is generated for MADEVENT (compatibility issue)*
#          This files is NOT a valid MG4 proc_card.dat               *
#          Running this in MG4 will NEVER reproduce the result of MG5*
#                                                                    *
#*********************************************************************
#*********************************************************************
# Process(es) requested : mg2 input                                  *
#*********************************************************************
# Begin PROCESS # This is TAG. Do not modify this line
p p > zph , zph > j j           #Process
# Be carefull the coupling are here in MG5 convention
          
end_coup           # End the couplings input

done               # this tells MG there are no more procs
# End PROCESS  # This is TAG. Do not modify this line
#*********************************************************************
# Model information                                                  *
#*********************************************************************
# Begin MODEL  # This is TAG. Do not modify this line
Zprime_UFO
# End   MODEL  # This is TAG. Do not modify this line
#*********************************************************************
# Start multiparticle definitions                                    *
#*********************************************************************
# Begin MULTIPARTICLES # This is TAG. Do not modify this line

# End  MULTIPARTICLES # This is TAG. Do not modify this line
</MGProcCard>
<MGRunCard>
#*********************************************************************
#                       MadGraph5_aMC@NLO                            *
#                                                                    *
#                     run_card.dat MadEvent                          *
#                                                                    *
#  This file is used to set the parameters of the run.               *
#                                                                    *
#  Some notation/conventions:                                        *
#                                                                    *
#   Lines starting with a '# ' are info or comments                  *
#                                                                    *
#   mind the format:   value    = variable     ! comment             *
#*********************************************************************
#
#*******************                                                 
# Running parameters
#*******************                                                 
#                                                                    
#*********************************************************************
# Tag name for the run (one word)                                    *
#*********************************************************************
  tag_1     = run_tag ! name of the run 
#*********************************************************************
# Run to generate the grid pack                                      *
#*********************************************************************
  .false.     = gridpack  !True = setting up the grid pack
#*********************************************************************
# Number of events and rnd seed                                      *
# Warning: Do not generate more than 1M events in a single run       *
# If you want to run Pythia, avoid more than 50k events in a run.    *
#*********************************************************************
  2000 = nevents ! Number of unweighted events requested 
 2316 = iseed   ! rnd seed (0=assigned automatically=default))
#*********************************************************************
# Collider type and energy                                           *
# lpp: 0=No PDF, 1=proton, -1=antiproton, 2=photon from proton,      *
#                                         3=photon from electron     *
#*********************************************************************
        1     = lpp1    ! beam 1 type 
        1     = lpp2    ! beam 2 type
     4000     = ebeam1  ! beam 1 total energy in GeV
     4000     = ebeam2  ! beam 2 total energy in GeV
#*********************************************************************
# Beam polarization from -100 (left-handed) to 100 (right-handed)    *
#*********************************************************************
        0     = polbeam1 ! beam polarization for beam 1
        0     = polbeam2 ! beam polarization for beam 2
#*********************************************************************
# PDF CHOICE: this automatically fixes also alpha_s and its evol.    *
#*********************************************************************
 'nn23lo1'    = pdlabel     ! PDF set                                     
 230000    = lhaid     ! if pdlabel=lhapdf, this is the lhapdf number
#*********************************************************************
# Renormalization and factorization scales                           *
#*********************************************************************
 F        = fixed_ren_scale  ! if .true. use fixed ren scale
 F        = fixed_fac_scale  ! if .true. use fixed fac scale
 91.1880  = scale            ! fixed ren scale
 91.1880  = dsqrt_q2fact1    ! fixed fact scale for pdf1
 91.1880  = dsqrt_q2fact2    ! fixed fact scale for pdf2
 1        = scalefact        ! scale factor for event-by-event scales
#*********************************************************************
# Matching - Warning! ickkw > 1 is still beta
#*********************************************************************
 0        = ickkw            ! 0 no matching, 1 MLM, 2 CKKW matching
 1        = highestmult      ! for ickkw=2, highest mult group
 1        = ktscheme         ! for ickkw=1, 1 Durham kT, 2 Pythia pTE
 1        = alpsfact         ! scale factor for QCD emission vx
 F        = chcluster        ! cluster only according to channel diag
 T        = pdfwgt           ! for ickkw=1, perform pdf reweighting
 5        = asrwgtflavor     ! highest quark flavor for a_s reweight
 T        = clusinfo         ! include clustering tag in output
 3.0      = lhe_version       ! Change the way clustering information pass to shower.        
#*********************************************************************
#**********************************************************
#
#**********************************************************
# Automatic ptj and mjj cuts if xqcut > 0
# (turn off for VBF and single top processes)
#**********************************************************
   T  = auto_ptj_mjj  ! Automatic setting of ptj and mjj
#**********************************************************
#                                                                    
#**********************************
# BW cutoff (M+/-bwcutoff*Gamma)
#**********************************
  15  = bwcutoff      ! (M+/-bwcutoff*Gamma)
#**********************************************************
# Apply pt/E/eta/dr/mij cuts on decay products or not
# (note that etmiss/ptll/ptheavy/ht/sorted cuts always apply)
#**********************************************************
   T  = cut_decays    ! Cut decay products 
#*************************************************************
# Number of helicities to sum per event (0 = all helicities)
# 0 gives more stable result, but longer run time (needed for
# long decay chains e.g.).
# Use >=2 if most helicities contribute, e.g. pure QCD.
#*************************************************************
   0  = nhel          ! Number of helicities used per event
#*******************                                                 
# Standard Cuts
#*******************                                                 
#                                                                    
#*********************************************************************
# Minimum and maximum pt's (for max, -1 means no cut)                *
#*********************************************************************
 20  = ptj       ! minimum pt for the jets 
  0  = ptb       ! minimum pt for the b 
 10  = pta       ! minimum pt for the photons 
 10  = ptl       ! minimum pt for the charged leptons 
  0  = misset    ! minimum missing Et (sum of neutrino's momenta)
  0  = ptheavy   ! minimum pt for one heavy final state
 1.0 = ptonium   ! minimum pt for the quarkonium states
 -1  = ptjmax    ! maximum pt for the jets
 -1  = ptbmax    ! maximum pt for the b
 -1  = ptamax    ! maximum pt for the photons
 -1  = ptlmax    ! maximum pt for the charged leptons
 -1  = missetmax ! maximum missing Et (sum of neutrino's momenta)
#*********************************************************************
# Minimum and maximum E's (in the center of mass frame)              *
#*********************************************************************
  0  = ej     ! minimum E for the jets 
  0  = eb     ! minimum E for the b 
  0  = ea     ! minimum E for the photons 
  0  = el     ! minimum E for the charged leptons 
 -1   = ejmax ! maximum E for the jets
 -1   = ebmax ! maximum E for the b
 -1   = eamax ! maximum E for the photons
 -1   = elmax ! maximum E for the charged leptons
#*********************************************************************
# Maximum and minimum absolute rapidity (for max, -1 means no cut)   *
#*********************************************************************
   5  = etaj    ! max rap for the jets 
  -1  = etab    ! max rap for the b
 2.5  = etaa    ! max rap for the photons 
 2.5  = etal    ! max rap for the charged leptons 
 0.6  = etaonium ! max rap for the quarkonium states
   0  = etajmin ! min rap for the jets
   0  = etabmin ! min rap for the b
   0  = etaamin ! min rap for the photons
   0  = etalmin ! main rap for the charged leptons
#*********************************************************************
# Minimum and maximum DeltaR distance                                *
#*********************************************************************
 0.4 = drjj    ! min distance between jets 
 0   = drbb    ! min distance between b's 
 0.4 = drll    ! min distance between leptons 
 0.4 = draa    ! min distance between gammas 
 0   = drbj    ! min distance between b and jet 
 0.4 = draj    ! min distance between gamma and jet 
 0.4 = drjl    ! min distance between jet and lepton 
 0   = drab    ! min distance between gamma and b 
 0   = drbl    ! min distance between b and lepton 
 0.4 = dral    ! min distance between gamma and lepton 
 -1  = drjjmax ! max distance between jets
 -1  = drbbmax ! max distance between b's
 -1  = drllmax ! max distance between leptons
 -1  = draamax ! max distance between gammas
 -1  = drbjmax ! max distance between b and jet
 -1  = drajmax ! max distance between gamma and jet
 -1  = drjlmax ! max distance between jet and lepton
 -1  = drabmax ! max distance between gamma and b
 -1  = drblmax ! max distance between b and lepton
 -1  = dralmax ! maxdistance between gamma and lepton
#*********************************************************************
# Minimum and maximum invariant mass for pairs                       *
# WARNING: for four lepton final state mmll cut require to have      *
#          different lepton masses for each flavor!                  *           
#*********************************************************************
 0   = mmjj    ! min invariant mass of a jet pair 
 0   = mmbb    ! min invariant mass of a b pair 
 0   = mmaa    ! min invariant mass of gamma gamma pair
 0   = mmll    ! min invariant mass of l+l- (same flavour) lepton pair
 -1  = mmjjmax ! max invariant mass of a jet pair
 -1  = mmbbmax ! max invariant mass of a b pair
 -1  = mmaamax ! max invariant mass of gamma gamma pair
 -1  = mmllmax ! max invariant mass of l+l- (same flavour) lepton pair
#*********************************************************************
# Minimum and maximum invariant mass for all letpons                 *
#*********************************************************************
 0   = mmnl    ! min invariant mass for all letpons (l+- and vl) 
 -1  = mmnlmax ! max invariant mass for all letpons (l+- and vl) 
#*********************************************************************
# Minimum and maximum pt for 4-momenta sum of leptons                *
#*********************************************************************
 0   = ptllmin  ! Minimum pt for 4-momenta sum of leptons(l and vl)
 -1  = ptllmax  ! Maximum pt for 4-momenta sum of leptons(l and vl)
#*********************************************************************
# Inclusive cuts                                                     *
#*********************************************************************
 0  = xptj ! minimum pt for at least one jet  
 0  = xptb ! minimum pt for at least one b 
 0  = xpta ! minimum pt for at least one photon 
 0  = xptl ! minimum pt for at least one charged lepton 
#*********************************************************************
# Control the pt's of the jets sorted by pt                          *
#*********************************************************************
 0   = ptj1min ! minimum pt for the leading jet in pt
 0   = ptj2min ! minimum pt for the second jet in pt
 0   = ptj3min ! minimum pt for the third jet in pt
 0   = ptj4min ! minimum pt for the fourth jet in pt
 -1  = ptj1max ! maximum pt for the leading jet in pt 
 -1  = ptj2max ! maximum pt for the second jet in pt
 -1  = ptj3max ! maximum pt for the third jet in pt
 -1  = ptj4max ! maximum pt for the fourth jet in pt
 0   = cutuse  ! reject event if fails any (0) / all (1) jet pt cuts
#*********************************************************************
# Control the pt's of leptons sorted by pt                           *
#*********************************************************************
 0   = ptl1min ! minimum pt for the leading lepton in pt
 0   = ptl2min ! minimum pt for the second lepton in pt
 0   = ptl3min ! minimum pt for the third lepton in pt
 0   = ptl4min ! minimum pt for the fourth lepton in pt
 -1  = ptl1max ! maximum pt for the leading lepton in pt 
 -1  = ptl2max ! maximum pt for the second lepton in pt
 -1  = ptl3max ! maximum pt for the third lepton in pt
 -1  = ptl4max ! maximum pt for the fourth lepton in pt
#*********************************************************************
# Control the Ht(k)=Sum of k leading jets                            *
#*********************************************************************
 0   = htjmin ! minimum jet HT=Sum(jet pt)
 -1  = htjmax ! maximum jet HT=Sum(jet pt)
 0   = ihtmin  !inclusive Ht for all partons (including b)
 -1  = ihtmax  !inclusive Ht for all partons (including b)
 0   = ht2min ! minimum Ht for the two leading jets
 0   = ht3min ! minimum Ht for the three leading jets
 0   = ht4min ! minimum Ht for the four leading jets
 -1  = ht2max ! maximum Ht for the two leading jets
 -1  = ht3max ! maximum Ht for the three leading jets
 -1  = ht4max ! maximum Ht for the four leading jets
#***********************************************************************
# Photon-isolation cuts, according to hep-ph/9801442                   *
# When ptgmin=0, all the other parameters are ignored                  *
# When ptgmin>0, pta and draj are not going to be used                 *
#***********************************************************************
   0 = ptgmin ! Min photon transverse momentum
 0.4 = R0gamma ! Radius of isolation code
 1.0 = xn ! n parameter of eq.(3.4) in hep-ph/9801442
 1.0 = epsgamma ! epsilon_gamma parameter of eq.(3.4) in hep-ph/9801442
 .true. = isoEM ! isolate photons from EM energy (photons and leptons)
#*********************************************************************
# WBF cuts                                                           *
#*********************************************************************
 0   = xetamin ! minimum rapidity for two jets in the WBF case  
 0   = deltaeta ! minimum rapidity for two jets in the WBF case 
#*********************************************************************
# KT DURHAM CUT                                                      *
#*********************************************************************
 -1    =  ktdurham        
 0.4  =  dparameter 
#*********************************************************************
# maximal pdg code for quark to be considered as a light jet         *
# (otherwise b cuts are applied)                                     *
#*********************************************************************
 4 = maxjetflavor    ! Maximum jet pdg code
#*********************************************************************
# Jet measure cuts                                                   *
#*********************************************************************
 0   = xqcut   ! minimum kt jet measure between partons
#*********************************************************************
#
#*********************************************************************
# Store info for systematics studies                                 *
# WARNING: If use_syst is T, matched Pythia output is                *
#          meaningful ONLY if plotted taking matchscale              *
#          reweighting into account!                                 *
#*********************************************************************
   F  = use_syst      ! Enable systematics studies
#
#**************************************
# Parameter of the systematics study
#  will be used by SysCalc (if installed)
#**************************************                                  
#
0.5 1 2 = sys_scalefact  # factorization/renormalization scale factor
0.5 1 2 = sys_alpsfact  # \alpha_s emission scale factors
30 50 = sys_matchscale # variation of merging scale
# PDF sets and number of members (0 or none for all members).
CT10nlo.LHgrid = sys_pdf # matching scales
# MSTW2008nlo68cl.LHgrid 1  = sys_pdf
</MGRunCard>
<slha>
######################################################################
## PARAM_CARD AUTOMATICALY GENERATED BY MG5 FOLLOWING UFO MODEL   ####
######################################################################
##                                                                  ##
##  Width set on Auto will be computed following the information    ##
##        present in the decay.py files of the model.               ##
##        See  arXiv:1402.1178 for more details.                    ##
##                                                                  ##
######################################################################

###################################
## INFORMATION FOR CKMBLOCK
###################################
Block ckmblock 
    1 2.277360e-01 # cabi 

###################################
## INFORMATION FOR FRBLOCK
###################################
Block frblock 
    1 1.200000e+00 # gz 

###################################
## INFORMATION FOR MASS
###################################
Block mass 
    1 5.040000e-03 # MD 
    2 2.550000e-03 # MU 
    3 1.010000e-01 # MS 
    4 1.270000e+00 # MC 
    5 4.700000e+00 # MB 
    6 1.720000e+02 # MT 
   11 5.110000e-04 # Me 
   13 1.056600e-01 # MM 
   15 1.777000e+00 # MTA 
   23 9.118760e+01 # MZ 
   25 1.200000e+02 # MH 
  10030 2.700000e+03 # MZph 
  10031 3.000000e+02 # MZpl 
## Dependent parameters, given by model restrictions.
## Those values should be edited following the 
## analytical expression. MG5 ignores those values 
## but they are important for interfacing the output of MG5
## to external program such as Pythia.
  12 0.000000 # ve : 0.0 
  14 0.000000 # vm : 0.0 
  16 0.000000 # vt : 0.0 
  21 0.000000 # g : 0.0 
  22 0.000000 # a : 0.0 
  24 79.824360 # w+ : cmath.sqrt(MZ__exp__2/2. + cmath.sqrt(MZ__exp__4/4. - (aEW*cmath.pi*MZ__exp__2)/(Gf*sqrt__2))) 

###################################
## INFORMATION FOR SMINPUTS
###################################
Block sminputs 
    1 1.279000e+02 # aEWM1 
    2 1.166370e-05 # Gf 
    3 1.184000e-01 # aS 

###################################
## INFORMATION FOR YUKAWA
###################################
Block yukawa 
    1 5.040000e-03 # ymdo 
    2 2.550000e-03 # ymup 
    3 1.010000e-01 # yms 
    4 1.270000e+00 # ymc 
    5 4.700000e+00 # ymb 
    6 1.720000e+02 # ymt 
   11 5.110000e-04 # yme 
   13 1.056600e-01 # ymm 
   15 1.777000e+00 # ymtau 

###################################
## INFORMATION FOR DECAY
###################################
DECAY   6 1.508336e+00 # WT 
DECAY  23 2.495200e+00 # WZ 
DECAY  24 2.085000e+00 # WW 
DECAY  25 5.753088e-03 # WH 
## Dependent parameters, given by model restrictions.
## Those values should be edited following the 
## analytical expression. MG5 ignores those values 
## but they are important for interfacing the output of MG5
## to external program such as Pythia.
DECAY  1 0.000000 # d : 0.0 
DECAY  2 0.000000 # u : 0.0 
DECAY  3 0.000000 # s : 0.0 
DECAY  4 0.000000 # c : 0.0 
DECAY  5 0.000000 # b : 0.0 
DECAY  11 0.000000 # e- : 0.0 
DECAY  12 0.000000 # ve : 0.0 
DECAY  13 0.000000 # mu- : 0.0 
DECAY  14 0.000000 # vm : 0.0 
DECAY  15 0.000000 # ta- : 0.0 
DECAY  16 0.000000 # vt : 0.0 
DECAY  21 0.000000 # g : 0.0 
DECAY  22 0.000000 # a : 0.0 
DECAY  10030 0.308725 # zph : (gz__exp__2*MZph*(5 + cmath.sqrt(1 - (4*MT__exp__2)/MZph__exp__2)))/(144.*cmath.pi) 
DECAY  10031 0.132629 # zpl : (5*gz__exp__2*MZpl)/(144.*cmath.pi) 
#===========================================================
# QUANTUM NUMBERS OF NEW STATE(S) (NON SM PDG CODE)
#===========================================================

Block QNUMBERS 10030  # zph 
        1 0  # 3 times electric charge
        2 3  # number of spin states (2S+1)
        3 1  # colour rep (1: singlet, 3: triplet, 8: octet)
        4 0  # Particle/Antiparticle distinction (0=own anti)
Block QNUMBERS 10031  # zpl 
        1 0  # 3 times electric charge
        2 3  # number of spin states (2S+1)
        3 1  # colour rep (1: singlet, 3: triplet, 8: octet)
        4 0  # Particle/Antiparticle distinction (0=own anti)
</slha>
## END BANNER##
<MGGenerationInfo>
#  Number of Events        :         3869
#  Integrated weight (pb)  :  0.49407E-02
#  Max wgt                 :  0.19311E-05
#  Average wgt             :  0.12770E-05
</MGGenerationInfo>
</header>
<init>
     2212     2212  0.40000000000E+04  0.40000000000E+04 0 0  247000  247000 2   1
  0.49439317807E-02  0.11948810774E-04  0.19311190000E-05   0
</init>
<event>
 5   0  0.1878160E-05  0.2668650E+04  0.7818609E-02  0.8345249E-01
       -2   -1    0    0    0  501  0.00000000000E+00  0.00000000000E+00  0.77997310988E+03  0.77997310989E+03  0.25500000920E-02 0. -1.
        2   -1    0    0  501    0  0.00000000000E+00  0.00000000000E+00 -0.22826724972E+04  0.22826724972E+04  0.25500000920E-02 0.  1.
    10030    2    1    2    0    0  0.00000000000E+00  0.00000000000E+00 -0.15026993873E+04  0.30626456071E+04  0.26686499707E+04 0.  0.
        1    1    3    3  502    0 -0.50921327142E+03 -0.74918677138E+03  0.37301060513E+03  0.97965089994E+03  0.50400001928E-02 0. -1.
       -1    1    3    3    0  502  0.50921327142E+03  0.74918677138E+03 -0.18757099924E+04  0.20829947071E+04  0.50400001928E-02 0.  1.
</event>
<event>
 5   0  0.1878160E-05  0.2670537E+04  0.7818609E-02  0.8344629E-01
       -2   -1    0    0    0  501  0.00000000000E+00  0.00000000000E+00  0.25215671667E+04  0.25215671667E+04  0.25500000920E-02 0.  1.
        2   -1    0    0  501    0  0.00000000000E+00  0.00000000000E+00 -0.70707676808E+03  0.70707676809E+03  0.25500000920E-02 0. -1.
    10030    2    1    2    0    0  0.00000000000E+00  0.00000000000E+00  0.18144903986E+04  0.32286439348E+04  0.26705366972E+04 0.  0.
        1    1    3    3  502    0 -0.38055703443E+03 -0.33885713855E+03 -0.58490805896E+03  0.77573529909E+03  0.50400001928E-02 0. -1.
       -1    1    3    3    0  502  0.38055703443E+03  0.33885713855E+03  0.23993984576E+04  0.24529086357E+04  0.50400001928E-02 0.  1.
</event>
<event>
 5   0  0.1931119E-05  0.2677758E+04  0.7818609E-02  0.8342258E-01
        2   -1    0    0  501    0  0.00000000000E+00  0.00000000000E+00  0.20106795039E+04  0.20106795039E+04  0.25500000920E-02 0.  1.
       -2   -1    0    0    0  501  0.00000000000E+00  0.00000000000E+00 -0.89153804583E+03  0.89153804583E+03  0.25500000920E-02 0. -1.
    10030    2    1    2    0    0  0.00000000000E+00  0.00000000000E+00  0.11191414580E+04  0.29022175497E+04  0.26777582233E+04 0.  0.
        3    1    3    3  502    0 -0.95364880346E+03  0.74253327954E+02  0.15749217965E+04  0.18426443695E+04  0.10100000352E+00 0.  1.
       -3    1    3    3    0  502  0.95364880346E+03 -0.74253327954E+02 -0.45578033849E+03  0.10595731802E+04  0.10100000352E+00 0. -1.
</event>
<event>
 5   0  0.1878160E-05  0.2680909E+04  0.7818609E-02  0.8341226E-01
        2   -1    0    0  501    0  0.00000000000E+00  0.00000000000E+00  0.32761407022E+04  0.32761407022E+04  0.25500000920E-02 0.  1.
       -2   -1    0    0    0  501  0.00000000000E+00  0.00000000000E+00 -0.54845569071E+03  0.54845569072E+03  0.25500000920E-02 0. -1.
    10030    2    1    2    0    0  0.00000000000E+00  0.00000000000E+00  0.27276850115E+04  0.38245963929E+04  0.26809088099E+04 0.  0.
        1    1    3    3  502    0 -0.10295212686E+04  0.83286824160E+02  0.25827065458E+04  0.27815865688E+04  0.50400001928E-02 0.  1.
       -1    1    3    3    0  502  0.10295212686E+04 -0.83286824160E+02  0.14497846562E+03  0.10430098241E+04  0.50400001928E-02 0. -1.
</event>
<event>
 5   0  0.1931119E-05  0.2704037E+04  0.7818609E-02  0.8333696E-01
        2   -1    0    0  501    0  0.00000000000E+00  0.00000000000E+00  0.17946821811E+04  0.17946821811E+04  0.25500000920E-02 0.  1.
       -2   -1    0    0    0  501  0.00000000000E+00  0.00000000000E+00 -0.10185390949E+04  0.10185390949E+04  0.25500000920E-02 0. -1.
    10030    2    1    2    0    0  0.00000000000E+00  0.00000000000E+00  0.77614308628E+03  0.28132212760E+04  0.27040369556E+04 0.  0.
        3    1    3    3  502    0 -0.26886090108E+03 -0.11247958063E+04  0.11167094049E+04  0.16076354360E+04  0.10100000352E+00 0.  1.
       -3    1    3    3    0  502  0.26886090108E+03  0.11247958063E+04 -0.34056631860E+03  0.12055858400E+04  0.10100000352E+00 0. -1.
</event>
<event>
 5   0  0.7348964E-06  0.2645737E+04  0.7818609E-02  0.8352829E-01
       -1   -1    0    0    0  501  0.00000000000E+00  0.00000000000E+00  0.14792509246E+04  0.14792509246E+04  0.50400001928E-02 0.  1.
        1   -1    0    0  501    0  0.00000000000E+00  0.00000000000E+00 -0.11830182770E+04  0.11830182770E+04  0.50400001928E-02 0. -1.
    10030    2    1    2    0    0  0.00000000000E+00  0.00000000000E+00  0.29623264766E+03  0.26622692016E+04  0.26457368577E+04 0.  0.
        1    1    3    3  502    0  0.34560531372E+03 -0.23824186763E+03 -0.11142260089E+04  0.11906728431E+04  0.50400001928E-02 0. -1.
       -1    1    3    3    0  502 -0.34560531372E+03  0.23824186763E+03  0.14104586566E+04  0.14715963585E+04  0.50400001928E-02 0.  1.
</event>
<event>
 5   0  0.7351590E-06  0.2507498E+04  0.7818609E-02  0.8400319E-01
        1   -1    0    0  501    0  0.00000000000E+00  0.00000000000E+00  0.16193058496E+04  0.16193058496E+04  0.50400001928E-02 0. -1.
       -1   -1    0    0    0  501  0.00000000000E+00  0.00000000000E+00 -0.97071646966E+03  0.97071646968E+03  0.50400001928E-02 0.  1.
    10030    2    1    2    0    0  0.00000000000E+00  0.00000000000E+00  0.64858937993E+03  0.25900223193E+04  0.25074982414E+04 0.  0.
        3    1    3    3  502    0 -0.66295276005E+02  0.12511040793E+04  0.37307572324E+03  0.13072268305E+04  0.10100000352E+00 0.  1.
       -3    1    3    3    0  502  0.66295276005E+02 -0.12511040793E+04  0.27551365669E+03  0.12827954888E+04  0.10100000352E+00 0. -1.
</event>
<event>
 5   0  0.1878160E-05  0.2701163E+04  0.7818609E-02  0.8334628E-01
        2   -1    0    0  501    0  0.00000000000E+00  0.00000000000E+00  0.11949452282E+04  0.11949452282E+04  0.25500000920E-02 0.  1.
       -2   -1    0    0    0  501  0.00000000000E+00  0.00000000000E+00 -0.15264885662E+04  0.15264885662E+04  0.25500000920E-02 0. -1.
    10030    2    1    2    0    0  0.00000000000E+00  0.00000000000E+00 -0.33154333805E+03  0.27214337944E+04  0.27011628815E+04 0.  0.
        1    1    3    3  502    0 -0.69563280176E+03 -0.10033299333E+03 -0.13277255907E+04  0.15022739259E+04  0.50400001928E-02 0. -1.
       -1    1    3    3    0  502  0.69563280176E+03  0.10033299333E+03  0.99618225261E+03  0.12191598685E+04  0.50400001928E-02 0.  1.
</event>
<event>
 5   0  0.6804685E-06  0.2495095E+04  0.7818609E-02  0.8404735E-01
        1   -1    0    0  501    0  0.00000000000E+00  0.00000000000E+00  0.14404505656E+04  0.14404505656E+04  0.50400001928E-02 0.  1.
       -1   -1    0    0    0  501  0.00000000000E+00  0.00000000000E+00 -0.10804774501E+04  0.10804774501E+04  0.50400001928E-02 0. -1.
    10030    2    1    2    0    0  0.00000000000E+00  0.00000000000E+00  0.35997311555E+03  0.25209280157E+04  0.24950946708E+04 0.  0.
        2    1    3    3  502    0  0.10078214219E+04 -0.73530255575E+03  0.18069174930E+03  0.12605647049E+04  0.25500000920E-02 0. -1.
       -2    1    3    3    0  502 -0.10078214219E+04  0.73530255575E+03  0.17928136625E+03  0.12603633108E+04  0.25500000920E-02 0.  1.
</event>
<event>
 5   0  0.1878160E-05  0.2625930E+04  0.7818609E-02  0.8359446E-01
       -2   -1    0    0    0  501  0.00000000000E+00  0.00000000000E+00  0.78867895948E+03  0.78867895949E+03  0.25500000920E-02 0.  1.
        2   -1    0    0  501    0  0.00000000000E+00  0.00000000000E+00 -0.21857784043E+04  0.21857784043E+04  0.25500000920E-02 0. -1.
    10030    2    1    2    0    0  0.00000000000E+00  0.00000000000E+00 -0.13970994448E+04  0.29744573638E+04  0.26259302638E+04 0.  0.
        1    1    3    3  502    0  0.98656880438E+03 -0.15586118335E+03  0.26677323001E+03  0.10338175228E+04  0.50400001928E-02 0.  1.
       -1    1    3    3    0  502 -0.98656880438E+03  0.15586118335E+03 -0.16638726749E+04  0.19406398410E+04  0.50400001928E-02 0. -1.
</event>
<event>
 5   0  0.6804685E-06  0.2561957E+04  0.7818609E-02  0.8381240E-01
       -1   -1    0    0    0  501  0.00000000000E+00  0.00000000000E+00  0.16133903902E+04  0.16133903902E+04  0.50400001928E-02 0. -1.
        1   -1    0    0  501    0  0.00000000000E+00  0.00000000000E+00 -0.10170541384E+04  0.10170541384E+04  0.50400001928E-02 0.  1.
    10030    2    1    2    0    0  0.00000000000E+00  0.00000000000E+00  0.59633625177E+03  0.26304445286E+04  0.25619565751E+04 0.  0.
        2    1    3    3  502    0  0.14810224589E+03  0.70286706851E+03 -0.79082163662E+03  0.10683422917E+04  0.25500000920E-02 0.  1.
       -2    1    3    3    0  502 -0.14810224589E+03 -0.70286706851E+03  0.13871578884E+04  0.15621022369E+04  0.25500000920E-02 0. -1.
</event>
<event>
 5   0  0.1826851E-05  0.2708904E+04  0.7818609E-02  0.8332122E-01
        2   -1    0    0  501    0  0.00000000000E+00  0.00000000000E+00  0.16746164965E+04  0.16746164965E+04  0.25500000920E-02 0. -1.
       -2   -1    0    0    0  501  0.00000000000E+00  0.00000000000E+00 -0.10954987381E+04  0.10954987381E+04  0.25500000920E-02 0.  1.
    10030    2    1    2    0    0  0.00000000000E+00  0.00000000000E+00  0.57911775836E+03  0.27701152345E+04  0.27089040283E+04 0.  0.
        5    1    3    3  502    0 -0.80252089072E+03 -0.72117614516E+03  0.11268294538E+04  0.15600966381E+04  0.46999998093E+01 0. -1.
       -5    1    3    3    0  502  0.80252089072E+03  0.72117614516E+03 -0.54771169543E+03  0.12100185964E+04  0.46999998093E+01 0.  1.
</event>
<event>
 5   0  0.7600052E-06  0.2696274E+04  0.7818609E-02  0.8336215E-01
       -1   -1    0    0    0  501  0.00000000000E+00  0.00000000000E+00  0.19290700652E+04  0.19290700652E+04  0.50400001928E-02 0.  1.
        1   -1    0    0  501    0  0.00000000000E+00  0.00000000000E+00 -0.94215020923E+03  0.94215020925E+03  0.50400001928E-02 0. -1.
    10030    2    1    2    0    0  0.00000000000E+00  0.00000000000E+00  0.98691985595E+03  0.28712202744E+04  0.26962742928E+04 0.  0.
        5    1    3    3  502    0  0.57495694620E+03  0.42847427225E+03  0.17091484135E+04  0.18534767550E+04  0.46999998093E+01 0.  1.
       -5    1    3    3    0  502 -0.57495694620E+03 -0.42847427225E+03 -0.72222855756E+03  0.10177435194E+04  0.46999998093E+01 0. -1.
</event>
<event>
 5   0  0.7348964E-06  0.2000684E+04  0.7818609E-02  0.8606301E-01
       -1   -1    0    0    0  501  0.00000000000E+00  0.00000000000E+00  0.79813346805E+03  0.79813346807E+03  0.50400001928E-02 0.  1.
        1   -1    0    0  501    0  0.00000000000E+00  0.00000000000E+00 -0.12537805571E+04  0.12537805571E+04  0.50400001928E-02 0. -1.
    10030    2    1    2    0    0  0.00000000000E+00  0.00000000000E+00 -0.45564708901E+03  0.20519140251E+04  0.20006841072E+04 0.  0.
        1    1    3    3  502    0  0.71422846572E+03  0.29488415039E+03  0.42374340520E+03  0.88127035402E+03  0.50400001928E-02 0.  1.
       -1    1    3    3    0  502 -0.71422846572E+03 -0.29488415039E+03 -0.87939049421E+03  0.11706436711E+04  0.50400001928E-02 0. -1.
</event>
<event>
 5   0  0.7351590E-06  0.2718279E+04  0.7818609E-02  0.8329098E-01
       -1   -1    0    0    0  501  0.00000000000E+00  0.00000000000E+00  0.10546887315E+04  0.10546887315E+04  0.50400001928E-02 0.  1.
        1   -1    0    0  501    0  0.00000000000E+00  0.00000000000E+00 -0.17514745763E+04  0.17514745763E+04  0.50400001928E-02 0. -1.
    10030    2    1    2    0    0  0.00000000000E+00  0.00000000000E+00 -0.69678584479E+03  0.28061633078E+04  0.27182792345E+04 0.  0.
        3    1    3    3  502    0  0.40386723713E+03 -0.35626741304E+02 -0.16875939338E+04  0.17356126600E+04  0.10100000352E+00 0. -1.
       -3    1    3    3    0  502 -0.40386723713E+03  0.35626741304E+02  0.99080808905E+03  0.10705506478E+04  0.10100000352E+00 0.  1.
</event>
<event>
 5   0  0.7351590E-06  0.2489521E+04  0.7818609E-02  0.8406728E-01
        1   -1    0    0  501    0  0.00000000000E+00  0.00000000000E+00  0.15893394972E+04  0.15893394972E+04  0.50400001928E-02 0.  1.
       -1   -1    0    0    0  501  0.00000000000E+00  0.00000000000E+00 -0.97488872912E+03  0.97488872913E+03  0.50400001928E-02 0. -1.
    10030    2    1    2    0    0  0.00000000000E+00  0.00000000000E+00  0.61445076807E+03  0.25642282263E+04  0.24895213697E+04 0.  0.
        3    1    3    3  502    0 -0.46926278117E+03  0.83720198493E+02 -0.87715566839E+03  0.99830792154E+03  0.10100000352E+00 0. -1.
       -3    1    3    3    0  502  0.46926278117E+03 -0.83720198493E+02  0.14916064365E+04  0.15659203048E+04  0.10100000352E+00 0.  1.
</event>
<event>
 5   0  0.1878160E-05  0.2741024E+04  0.7818609E-02  0.8321816E-01
       -2   -1    0    0    0  501  0.00000000000E+00  0.00000000000E+00  0.84122974698E+03  0.84122974698E+03  0.25500000920E-02 0.  1.
        2   -1    0    0  501    0  0.00000000000E+00  0.00000000000E+00 -0.22328064178E+04  0.22328064178E+04  0.25500000920E-02 0. -1.
    10030    2    1    2    0    0  0.00000000000E+00  0.00000000000E+00 -0.13915766709E+04  0.30740361648E+04  0.27410240261E+04 0.  0.
        1    1    3    3  502    0 -0.41398455877E+03 -0.45764917219E+03 -0.20681742097E+04  0.21582795327E+04  0.50400001928E-02 0. -1.
       -1    1    3    3    0  502  0.41398455877E+03  0.45764917219E+03  0.67659753881E+03  0.91575663211E+03  0.50400001928E-02 0.  1.
</event>
<event>
 5   0  0.7754912E-06  0.2695479E+04  0.7818609E-02  0.8336473E-01
       -1   -1    0    0    0  501  0.00000000000E+00  0.00000000000E+00  0.12926060948E+04  0.12926060948E+04  0.50400001928E-02 0. -1.
        1   -1    0    0  501    0  0.00000000000E+00  0.00000000000E+00 -0.14052250160E+04  0.14052250160E+04  0.50400001928E-02 0.  1.
    10030    2    1    2    0    0  0.00000000000E+00  0.00000000000E+00 -0.11261892120E+03  0.26978311108E+04  0.26954794900E+04 0.  0.
        4    1    3    3  502    0  0.48461740933E+03  0.96713073705E+03  0.74826057497E+03  0.13153293872E+04  0.12699999809E+01 0. -1.
       -4    1    3    3    0  502 -0.48461740933E+03 -0.96713073705E+03 -0.86087949616E+03  0.13825017236E+04  0.12699999809E+01 0.  1.
</event>
<event>
 5   0  0.7348964E-06  0.2751748E+04  0.7818609E-02  0.8318407E-01
       -1   -1    0    0    0  501  0.00000000000E+00  0.00000000000E+00  0.14040457083E+04  0.14040457083E+04  0.50400001928E-02 0. -1.
        1   -1    0    0  501    0  0.00000000000E+00  0.00000000000E+00 -0.13482670963E+04  0.13482670963E+04  0.50400001928E-02 0.  1.
    10030    2    1    2    0    0  0.00000000000E+00  0.00000000000E+00  0.55778612020E+02  0.27523128046E+04  0.27517475395E+04 0.  0.
        1    1    3    3  502    0 -0.12219635510E+04  0.76226288802E+02 -0.59995236240E+03  0.13634325081E+04  0.50400001928E-02 0.  1.
       -1    1    3    3    0  502  0.12219635510E+04 -0.76226288802E+02  0.65573097442E+03  0.13888802965E+04  0.50400001928E-02 0. -1.
</event>
<event>
 5   0  0.1788003E-05  0.2755613E+04  0.7818609E-02  0.8317183E-01
        2   -1    0    0  501    0  0.00000000000E+00  0.00000000000E+00  0.22095779694E+04  0.22095779694E+04  0.25500000920E-02 0.  1.
       -2   -1    0    0    0  501  0.00000000000E+00  0.00000000000E+00 -0.85914656385E+03  0.85914656385E+03  0.25500000920E-02 0. -1.
    10030    2    1    2    0    0  0.00000000000E+00  0.00000000000E+00  0.13504314056E+04  0.30687245333E+04  0.27556134126E+04 0.  0.
        2    1    3    3  502    0 -0.10793549027E+03 -0.13609480657E+04  0.46830395423E+03  0.14433081103E+04  0.25500000920E-02 0. -1.
       -2    1    3    3    0  502  0.10793549027E+03  0.13609480657E+04  0.88212745134E+03  0.16254164230E+04  0.25500000920E-02 0.  1.
</event>
<event>
 5   0  0.7351590E-06  0.2681509E+04  0.7818609E-02  0.8341030E-01
        1   -1    0    0  501    0  0.00000000000E+00  0.00000000000E+00  0.17054582522E+04  0.17054582522E+04  0.50400001928E-02 0.  1.
       -1   -1    0    0    0  501  0.00000000000E+00  0.00000000000E+00 -0.10540406900E+04  0.10540406901E+04  0.50400001928E-02 0. -1.
    10030    2    1    2    0    0  0.00000000000E+00  0.00000000000E+00  0.65141756216E+03  0.27594989423E+04  0.26815088238E+04 0.  0.
        3    1    3    3  502    0  0.32884616286E+03  0.12877378847E+04  0.50752130561E+03  0.14226688105E+04  0.10100000352E+00 0.  1.
       -3    1    3    3    0  502 -0.32884616286E+03 -0.12877378847E+04  0.14389625655E+03  0.13368301318E+04  0.10100000352E+00 0. -1.
</event>
<event>
 5   0  0.1931119E-05  0.2680386E+04  0.7818609E-02  0.8341397E-01
        2   -1    0    0  501    0  0.00000000000E+00  0.00000000000E+00  0.15079978700E+04  0.15079978700E+04  0.25500000920E-02 0. -1.
       -2   -1    0    0    0  501  0.00000000000E+00  0.00000000000E+00 -0.11910611485E+04  0.11910611485E+04  0.25500000920E-02 0.  1.
    10030    2    1    2    0    0  0.00000000000E+00  0.00000000000E+00  0.31693672152E+03  0.26990590185E+04  0.26803862968E+04 0.  0.
        3    1    3    3  502    0 -0.83922919623E+03  0.21541197845E+03 -0.87110727077E+03  0.12286316989E+04  0.10100000352E+00 0.  1.
       -3    1    3    3    0  502  0.83922919623E+03 -0.21541197845E+03  0.11880439923E+04  0.14704273195E+04  0.10100000352E+00 0. -1.
</event>
<event>
 5   0  0.7348964E-06  0.2695921E+04  0.7818609E-02  0.8336330E-01
       -1   -1    0    0    0  501  0.00000000000E+00  0.00000000000E+00  0.24081438740E+04  0.24081438740E+04  0.50400001928E-02 0.  1.
        1   -1    0    0  501    0  0.00000000000E+00  0.00000000000E+00 -0.75452187487E+03  0.75452187488E+03  0.50400001928E-02 0. -1.
    10030    2    1    2    0    0  0.00000000000E+00  0.00000000000E+00  0.16536219991E+04  0.31626657489E+04  0.26959207932E+04 0.  0.
        1    1    3    3  502    0  0.32425535915E+01 -0.13443867856E+04  0.94181896266E+03  0.16414655957E+04  0.50400001928E-02 0.  1.
       -1    1    3    3    0  502 -0.32425535915E+01  0.13443867856E+04  0.71180303644E+03  0.15212001532E+04  0.50400001928E-02 0. -1.
</event>
<event>
 5   0  0.1788003E-05  0.2853363E+04  0.7818609E-02  0.8286890E-01
        2   -1    0    0  501    0  0.00000000000E+00  0.00000000000E+00  0.12553287784E+04  0.12553287784E+04  0.25500000920E-02 0.  1.
       -2   -1    0    0    0  501  0.00000000000E+00  0.00000000000E+00 -0.16214236760E+04  0.16214236760E+04  0.25500000920E-02 0. -1.
    10030    2    1    2    0    0  0.00000000000E+00  0.00000000000E+00 -0.36609489764E+03  0.28767524544E+04  0.28533627897E+04 0.  0.
        2    1    3    3  502    0 -0.60683436649E+03  0.12402897539E+04 -0.54495118795E+03  0.14844320191E+04  0.25500000920E-02 0. -1.
       -2    1    3    3    0  502  0.60683436649E+03 -0.12402897539E+04  0.17885629031E+03  0.13923204353E+04  0.25500000920E-02 0.  1.
</event>
<event>
 5   0  0.6804685E-06  0.2674068E+04  0.7818609E-02  0.8343468E-01
       -1   -1    0    0    0  501  0.00000000000E+00  0.00000000000E+00  0.15259734236E+04  0.15259734236E+04  0.50400001928E-02 0. -1.
        1   -1    0    0  501    0  0.00000000000E+00  0.00000000000E+00 -0.11714885496E+04  0.11714885496E+04  0.50400001928E-02 0.  1.
    10030    2    1    2    0    0  0.00000000000E+00  0.00000000000E+00  0.35448487399E+03  0.26974619732E+04  0.26740683557E+04 0.  0.
        2    1    3    3  502    0  0.13121789553E+04  0.10899684559E+03  0.41158157652E+03  0.13795264830E+04  0.25500000920E-02 0.  1.
       -2    1    3    3    0  502 -0.13121789553E+04 -0.10899684559E+03 -0.57096702535E+02  0.13179354903E+04  0.25500000920E-02 0. -1.
</event>
<event>
 5   0  0.1931119E-05  0.2737750E+04  0.7818609E-02  0.8322859E-01
        2   -1    0    0  501    0  0.00000000000E+00  0.00000000000E+00  0.11545340666E+04  0.11545340666E+04  0.25500000920E-02 0.  1.
       -2   -1    0    0    0  501  0.00000000000E+00  0.00000000000E+00 -0.16230090123E+04  0.16230090123E+04  0.25500000920E-02 0. -1.
    10030    2    1    2    0    0  0.00000000000E+00  0.00000000000E+00 -0.46847494569E+03  0.27775430790E+04  0.27377503138E+04 0.  0.
        3    1    3    3  502    0 -0.13279907889E+04  0.76881171326E+02  0.93488586934E+02  0.13334955478E+04  0.10100000352E+00 0.  1.
       -3    1    3    3    0  502  0.13279907889E+04 -0.76881171326E+02 -0.56196353262E+03  0.14440475311E+04  0.10100000352E+00 0. -1.
</event>
<event>
 5   0  0.1826851E-05  0.2643275E+04  0.7818609E-02  0.8353649E-01
        2   -1    0    0  501    0  0.00000000000E+00  0.00000000000E+00  0.61299810707E+03  0.61299810707E+03  0.25500000920E-02 0. -1.
       -2   -1    0    0    0  501  0.00000000000E+00  0.00000000000E+00 -0.28494794091E+04  0.28494794091E+04  0.25500000920E-02 0.  1.
    10030    2    1    2    0    0  0.00000000000E+00  0.00000000000E+00 -0.22364813020E+04  0.34624775162E+04  0.26432748506E+04 0.  0.
        5    1    3    3  502    0  0.21953734196E+03 -0.21935223817E+03 -0.28010623634E+04  0.28182059013E+04  0.46999998093E+01 0.  1.
       -5    1    3    3    0  502 -0.21953734196E+03  0.21935223817E+03  0.56458106131E+03  0.64427161485E+03  0.46999998093E+01 0. -1.
</event>
<event>
 5   0  0.6804685E-06  0.2335387E+04  0.7818609E-02  0.8464098E-01
       -1   -1    0    0    0  501  0.00000000000E+00  0.00000000000E+00  0.11959078332E+04  0.11959078332E+04  0.50400001928E-02 0. -1.
        1   -1    0    0  501    0  0.00000000000E+00  0.00000000000E+00 -0.11401451193E+04  0.11401451193E+04  0.50400001928E-02 0.  1.
    10030    2    1    2    0    0  0.00000000000E+00  0.00000000000E+00  0.55762713891E+02  0.23360529525E+04  0.23353873162E+04 0.  0.
        2    1    3    3  502    0  0.60881791523E+03 -0.85527624438E+03  0.53925282096E+03  0.11802331605E+04  0.25500000920E-02 0. -1.
       -2    1    3    3    0  502 -0.60881791523E+03  0.85527624438E+03 -0.48349010707E+03  0.11558197921E+04  0.25500000920E-02 0.  1.
</event>
<event>
 5   0  0.1931119E-05  0.2625749E+04  0.7818609E-02  0.8359507E-01
       -2   -1    0    0    0  501  0.00000000000E+00  0.00000000000E+00  0.96819696638E+03  0.96819696639E+03  0.25500000920E-02 0.  1.
        2   -1    0    0  501    0  0.00000000000E+00  0.00000000000E+00 -0.17802575674E+04  0.17802575674E+04  0.25500000920E-02 0. -1.
    10030    2    1    2    0    0  0.00000000000E+00  0.00000000000E+00 -0.81206060102E+03  0.27484545338E+04  0.26257493987E+04 0.  0.
        3    1    3    3  502    0  0.60039770949E+03  0.88617849565E+03 -0.12017185191E+04  0.16093219519E+04  0.10100000352E+00 0. -1.
       -3    1    3    3    0  502 -0.60039770949E+03 -0.88617849565E+03  0.38965791807E+03  0.11391325818E+04  0.10100000352E+00 0.  1.
</event>
<event>
 5   0  0.1878160E-05  0.2726536E+04  0.7818609E-02  0.8326446E-01
        2   -1    0    0  501    0  0.00000000000E+00  0.00000000000E+00  0.12013478789E+04  0.12013478789E+04  0.25500000920E-02 0.  1.
       -2   -1    0    0    0  501  0.00000000000E+00  0.00000000000E+00 -0.15470125874E+04  0.15470125874E+04  0.25500000920E-02 0. -1.
    10030    2    1    2    0    0  0.00000000000E+00  0.00000000000E+00 -0.34566470857E+03  0.27483604663E+04  0.27265364773E+04 0.  0.
        1    1    3    3  502    0 -0.19488571511E+03  0.13448120678E+04 -0.62409402458E+02  0.13602922014E+04  0.50400001928E-02 0. -1.
       -1    1    3    3    0  502  0.19488571511E+03 -0.13448120678E+04 -0.28325530611E+03  0.13880682649E+04  0.50400001928E-02 0.  1.
</event>
<event>
 5   0  0.7600052E-06  0.2692320E+04  0.7818609E-02  0.8337501E-01
        1   -1    0    0  501    0  0.00000000000E+00  0.00000000000E+00  0.18132063616E+04  0.18132063616E+04  0.50400001928E-02 0. -1.
       -1   -1    0    0    0  501  0.00000000000E+00  0.00000000000E+00 -0.99941536522E+03  0.99941536523E+03  0.50400001928E-02 0.  1.
    10030    2    1    2    0    0  0.00000000000E+00  0.00000000000E+00  0.81379099640E+03  0.28126217269E+04  0.26923196676E+04 0.  0.
        5    1    3    3  502    0 -0.12558911920E+04  0.72439702409E+02 -0.93696492346E+02  0.12614718860E+04  0.46999998093E+01 0.  1.
       -5    1    3    3    0  502  0.12558911920E+04 -0.72439702409E+02  0.90748748875E+03  0.15511498408E+04  0.46999998093E+01 0. -1.
</event>
<event>
 5   0  0.1931119E-05  0.2673766E+04  0.7818609E-02  0.8343567E-01
       -2   -1    0    0    0  501  0.00000000000E+00  0.00000000000E+00  0.99867809778E+03  0.99867809779E+03  0.25500000920E-02 0.  1.
        2   -1    0    0  501    0  0.00000000000E+00  0.00000000000E+00 -0.17896218064E+04  0.17896218064E+04  0.25500000920E-02 0. -1.
    10030    2    1    2    0    0  0.00000000000E+00  0.00000000000E+00 -0.79094370857E+03  0.27882999041E+04  0.26737659593E+04 0.  0.
        3    1    3    3  502    0  0.13251481547E+04 -0.15450275972E+03 -0.48498193206E+03  0.14195408481E+04  0.10100000352E+00 0. -1.
       -3    1    3    3    0  502 -0.13251481547E+04  0.15450275972E+03 -0.30596177651E+03  0.13687590561E+04  0.10100000352E+00 0.  1.
</event>
<event>
 5   0  0.7754912E-06  0.2638268E+04  0.7818609E-02  0.8355317E-01
        1   -1    0    0  501    0  0.00000000000E+00  0.00000000000E+00  0.13433175651E+04  0.13433175651E+04  0.50400001928E-02 0.  1.
       -1   -1    0    0    0  501  0.00000000000E+00  0.00000000000E+00 -0.12953860019E+04  0.12953860020E+04  0.50400001928E-02 0. -1.
    10030    2    1    2    0    0  0.00000000000E+00  0.00000000000E+00  0.47931563178E+02  0.26387035671E+04  0.26382681972E+04 0.  0.
        4    1    3    3  502    0 -0.36377112467E+03 -0.46044227157E+03  0.12055906560E+04  0.13408157813E+04  0.12699999809E+01 0.  1.
       -4    1    3    3    0  502  0.36377112467E+03  0.46044227157E+03 -0.11576590928E+04  0.12978877858E+04  0.12699999809E+01 0. -1.
</event>
<event>
 5   0  0.7348964E-06  0.2707439E+04  0.7818609E-02  0.8332595E-01
        1   -1    0    0  501    0  0.00000000000E+00  0.00000000000E+00  0.24291524812E+04  0.24291524812E+04  0.50400001928E-02 0. -1.
       -1   -1    0    0    0  501  0.00000000000E+00  0.00000000000E+00 -0.75440144464E+03  0.75440144466E+03  0.50400001928E-02 0.  1.
    10030    2    1    2    0    0  0.00000000000E+00  0.00000000000E+00  0.16747510365E+04  0.31835539259E+04  0.27074387462E+04 0.  0.
        1    1    3    3  502    0  0.26809008372E+03 -0.34268182157E+03 -0.66994562166E+03  0.79883055765E+03  0.50400001928E-02 0.  1.
       -1    1    3    3    0  502 -0.26809008372E+03  0.34268182157E+03  0.23446966582E+04  0.23847233682E+04  0.50400001928E-02 0. -1.
</event>
<event>
 5   0  0.7351590E-06  0.2734888E+04  0.7818609E-02  0.8323773E-01
       -1   -1    0    0    0  501  0.00000000000E+00  0.00000000000E+00  0.14073548007E+04  0.14073548007E+04  0.50400001928E-02 0.  1.
        1   -1    0    0  501    0  0.00000000000E+00  0.00000000000E+00 -0.13286646734E+04  0.13286646735E+04  0.50400001928E-02 0. -1.
    10030    2    1    2    0    0  0.00000000000E+00  0.00000000000E+00  0.78690127264E+02  0.27360194742E+04  0.27348876443E+04 0.  0.
        3    1    3    3  502    0  0.93875981494E+03  0.21582894104E+03 -0.93164946199E+03  0.13400831512E+04  0.10100000352E+00 0. -1.
       -3    1    3    3    0  502 -0.93875981494E+03 -0.21582894104E+03  0.10103395893E+04  0.13959363230E+04  0.10100000352E+00 0.  1.
</event>
<event>
 5   0  0.1881699E-05  0.2633484E+04  0.7818609E-02  0.8356916E-01
        2   -1    0    0  501    0  0.00000000000E+00  0.00000000000E+00  0.18566105546E+04  0.18566105546E+04  0.25500000920E-02 0.  1.
       -2   -1    0    0    0  501  0.00000000000E+00  0.00000000000E+00 -0.93385756659E+03  0.93385756660E+03  0.25500000920E-02 0. -1.
    10030    2    1    2    0    0  0.00000000000E+00  0.00000000000E+00  0.92275298796E+03  0.27904681211E+04  0.26334842430E+04 0.  0.
        4    1    3    3  502    0  0.12723164227E+04  0.22516738861E+03  0.19264708061E+03  0.13063705229E+04  0.12699999809E+01 0. -1.
       -4    1    3    3    0  502 -0.12723164227E+04 -0.22516738861E+03  0.73010590735E+03  0.14840975983E+04  0.12699999809E+01 0.  1.
</event>
<event>
 5   0  0.1881699E-05  0.2661617E+04  0.7818609E-02  0.8347567E-01
        2   -1    0    0  501    0  0.00000000000E+00  0.00000000000E+00  0.20883964546E+04  0.20883964546E+04  0.25500000920E-02 0.  1.
       -2   -1    0    0    0  501  0.00000000000E+00  0.00000000000E+00 -0.84804349343E+03  0.84804349343E+03  0.25500000920E-02 0. -1.
    10030    2    1    2    0    0  0.00000000000E+00  0.00000000000E+00  0.12403529612E+04  0.29364399480E+04  0.26616168207E+04 0.  0.
        4    1    3    3  502    0  0.57152352601E+03 -0.85705426280E+03  0.15497087493E+04  0.18608546345E+04  0.12699999809E+01 0.  1.
       -4    1    3    3    0  502 -0.57152352601E+03  0.85705426280E+03 -0.30935578812E+03  0.10755853135E+04  0.12699999809E+01 0. -1.
</event>
<event>
 5   0  0.6804685E-06  0.2789137E+04  0.7818609E-02  0.8306649E-01
        1   -1    0    0  501    0  0.00000000000E+00  0.00000000000E+00  0.11247941598E+04  0.11247941598E+04  0.50400001928E-02 0.  1.
       -1   -1    0    0    0  501  0.00000000000E+00  0.00000000000E+00 -0.17290461275E+04  0.17290461275E+04  0.50400001928E-02 0. -1.
    10030    2    1    2    0    0  0.00000000000E+00  0.00000000000E+00 -0.60425196776E+03  0.28538402873E+04  0.27891367742E+04 0.  0.
        2    1    3    3  502    0 -0.89141979052E+03 -0.98316451421E+03  0.13627516685E+03  0.13340961832E+04  0.25500000920E-02 0.  1.
       -2    1    3    3    0  502  0.89141979052E+03  0.98316451421E+03 -0.74052713461E+03  0.15197441041E+04  0.25500000920E-02 0. -1.
</event>
<event>
 5   0  0.7600052E-06  0.2696536E+04  0.7818609E-02  0.8336130E-01
        1   -1    0    0  501    0  0.00000000000E+00  0.00000000000E+00  0.18557230082E+04  0.18557230082E+04  0.50400001928E-02 0.  1.
       -1   -1    0    0    0  501  0.00000000000E+00  0.00000000000E+00 -0.97957889749E+03  0.97957889751E+03  0.50400001928E-02 0. -1.
    10030    2    1    2    0    0  0.00000000000E+00  0.00000000000E+00  0.87614411068E+03  0.28353019057E+04  0.26965363698E+04 0.  0.
        5    1    3    3  502    0  0.10603908643E+04 -0.77676975913E+03  0.12262515781E+03  0.13201738761E+04  0.46999998093E+01 0. -1.
       -5    1    3    3    0  502 -0.10603908643E+04  0.77676975913E+03  0.75351895286E+03  0.15151280296E+04  0.46999998093E+01 0.  1.
</event>
<event>
 5   0  0.7600052E-06  0.2686486E+04  0.7818609E-02  0.8339403E-01
       -1   -1    0    0    0  501  0.00000000000E+00  0.00000000000E+00  0.94519674061E+03  0.94519674062E+03  0.50400001928E-02 0.  1.
        1   -1    0    0  501    0  0.00000000000E+00  0.00000000000E+00 -0.19089166054E+04  0.19089166054E+04  0.50400001928E-02 0. -1.
    10030    2    1    2    0    0  0.00000000000E+00  0.00000000000E+00 -0.96371986477E+03  0.28541133460E+04  0.26864859974E+04 0.  0.
        5    1    3    3  502    0  0.87187326473E+03  0.79357308845E+03  0.20201191070E+03  0.11961405179E+04  0.46999998093E+01 0.  1.
       -5    1    3    3    0  502 -0.87187326473E+03 -0.79357308845E+03 -0.11657317755E+04  0.16579728281E+04  0.46999998093E+01 0. -1.
</event>
<event>
 5   0  0.1788003E-05  0.2673215E+04  0.7818609E-02  0.8343748E-01
        2   -1    0    0  501    0  0.00000000000E+00  0.00000000000E+00  0.10597412269E+04  0.10597412269E+04  0.25500000920E-02 0.  1.
       -2   -1    0    0    0  501  0.00000000000E+00  0.00000000000E+00 -0.16858074235E+04  0.16858074235E+04  0.25500000920E-02 0. -1.
    10030    2    1    2    0    0  0.00000000000E+00  0.00000000000E+00 -0.62606619666E+03  0.27455486504E+04  0.26732150136E+04 0.  0.
        2    1    3    3  502    0 -0.29369745504E+03 -0.12112666883E+04 -0.80889553612E+03  0.14858456089E+04  0.25500000920E-02 0. -1.
       -2    1    3    3    0  502  0.29369745504E+03  0.12112666883E+04  0.18282933946E+03  0.12597030414E+04  0.25500000920E-02 0.  1.
</event>
<event>
 5   0  0.1931119E-05  0.2698703E+04  0.7818609E-02  0.8335426E-01
        2   -1    0    0  501    0  0.00000000000E+00  0.00000000000E+00  0.13505275318E+04  0.13505275318E+04  0.25500000920E-02 0.  1.
       -2   -1    0    0    0  501  0.00000000000E+00  0.00000000000E+00 -0.13481765069E+04  0.13481765069E+04  0.25500000920E-02 0. -1.
    10030    2    1    2    0    0  0.00000000000E+00  0.00000000000E+00  0.23510248897E+01  0.26987040387E+04  0.26987030146E+04 0.  0.
        3    1    3    3  502    0 -0.39220672665E+03  0.76637878684E+03  0.10402076284E+04  0.13502571910E+04  0.10100000352E+00 0.  1.
       -3    1    3    3    0  502  0.39220672665E+03 -0.76637878684E+03 -0.10378566035E+04  0.13484468477E+04  0.10100000352E+00 0. -1.
</event>
<event>
 5   0  0.1878160E-05  0.2673757E+04  0.7818609E-02  0.8343570E-01
        2   -1    0    0  501    0  0.00000000000E+00  0.00000000000E+00  0.21714726253E+04  0.21714726253E+04  0.25500000920E-02 0.  1.
       -2   -1    0    0    0  501  0.00000000000E+00  0.00000000000E+00 -0.82305621991E+03  0.82305621991E+03  0.25500000920E-02 0. -1.
    10030    2    1    2    0    0  0.00000000000E+00  0.00000000000E+00  0.13484164054E+04  0.29945288452E+04  0.26737569453E+04 0.  0.
        1    1    3    3  502    0 -0.23645773354E+03  0.73117501291E+03  0.18993939127E+04  0.20489573921E+04  0.50400001928E-02 0.  1.
       -1    1    3    3    0  502  0.23645773354E+03 -0.73117501291E+03 -0.55097750730E+03  0.94557145306E+03  0.50400001928E-02 0. -1.
</event>
<event>
 5   0  0.1788003E-05  0.2894225E+04  0.7818609E-02  0.8274598E-01
       -2   -1    0    0    0  501  0.00000000000E+00  0.00000000000E+00  0.87420881272E+03  0.87420881273E+03  0.25500000920E-02 0. -1.
        2   -1    0    0  501    0  0.00000000000E+00  0.00000000000E+00 -0.23954632303E+04  0.23954632303E+04  0.25500000920E-02 0.  1.
    10030    2    1    2    0    0  0.00000000000E+00  0.00000000000E+00 -0.15212544176E+04  0.32696720431E+04  0.28942253309E+04 0.  0.
        2    1    3    3  502    0 -0.66050953382E+03 -0.77423056565E+03 -0.19228858158E+04  0.21755908792E+04  0.25500000920E-02 0.  1.
       -2    1    3    3    0  502  0.66050953382E+03  0.77423056565E+03  0.40163139821E+03  0.10940811638E+04  0.25500000920E-02 0. -1.
</event>
<event>
 5   0  0.1931119E-05  0.2765332E+04  0.7818609E-02  0.8314113E-01
        2   -1    0    0  501    0  0.00000000000E+00  0.00000000000E+00  0.15284994266E+04  0.15284994266E+04  0.25500000920E-02 0. -1.
       -2   -1    0    0    0  501  0.00000000000E+00  0.00000000000E+00 -0.12507461099E+04  0.12507461099E+04  0.25500000920E-02 0.  1.
    10030    2    1    2    0    0  0.00000000000E+00  0.00000000000E+00  0.27775331672E+03  0.27792455365E+04  0.27653315980E+04 0.  0.
        3    1    3    3  502    0 -0.11480239675E+04 -0.47043418777E+03 -0.47451984009E+03  0.13283209114E+04  0.10100000352E+00 0.  1.
       -3    1    3    3    0  502  0.11480239675E+04  0.47043418777E+03  0.75227315681E+03  0.14509246250E+04  0.10100000352E+00 0. -1.
</event>
<event>
 5   0  0.7600052E-06  0.3004492E+04  0.7818609E-02  0.8242449E-01
       -1   -1    0    0    0  501  0.00000000000E+00  0.00000000000E+00  0.10957299498E+04  0.10957299499E+04  0.50400001928E-02 0. -1.
        1   -1    0    0  501    0  0.00000000000E+00  0.00000000000E+00 -0.20595799934E+04  0.20595799934E+04  0.50400001928E-02 0.  1.
    10030    2    1    2    0    0  0.00000000000E+00  0.00000000000E+00 -0.96385004358E+03  0.31553099433E+04  0.30044922918E+04 0.  0.
        5    1    3    3  502    0 -0.11656832981E+04 -0.55322040761E+03  0.32601130005E+03  0.13308552997E+04  0.46999998093E+01 0. -1.
       -5    1    3    3    0  502  0.11656832981E+04  0.55322040761E+03 -0.12898613436E+04  0.18244546436E+04  0.46999998093E+01 0.  1.
</event>
<event>
 5   0  0.1826851E-05  0.2705876E+04  0.7818609E-02  0.8333101E-01
       -2   -1    0    0    0  501  0.00000000000E+00  0.00000000000E+00  0.10402336028E+04  0.10402336028E+04  0.25500000920E-02 0. -1.
        2   -1    0    0  501    0  0.00000000000E+00  0.00000000000E+00 -0.17596437746E+04  0.17596437746E+04  0.25500000920E-02 0.  1.
    10030    2    1    2    0    0  0.00000000000E+00  0.00000000000E+00 -0.71941017177E+03  0.27998773774E+04  0.27058755206E+04 0.  0.
        5    1    3    3  502    0  0.85119957851E+03 -0.59614181635E+03  0.53670025522E+03  0.11696132017E+04  0.46999998093E+01 0. -1.
       -5    1    3    3    0  502 -0.85119957851E+03  0.59614181635E+03 -0.12561104270E+04  0.16302641757E+04  0.46999998093E+01 0.  1.
</event>
<event>
 5   0  0.7600052E-06  0.2745822E+04  0.7818609E-02  0.8320289E-01
        1   -1    0    0  501    0  0.00000000000E+00  0.00000000000E+00  0.21500598917E+04  0.21500598917E+04  0.50400001928E-02 0. -1.
       -1   -1    0    0    0  501  0.00000000000E+00  0.00000000000E+00 -0.87666619905E+03  0.87666619907E+03  0.50400001928E-02 0.  1.
    10030    2    1    2    0    0  0.00000000000E+00  0.00000000000E+00  0.12733936927E+04  0.30267260908E+04  0.27458221596E+04 0.  0.
        5    1    3    3  502    0  0.36502598630E+03 -0.41062937759E+03 -0.75019145865E+03  0.92987621275E+03  0.46999998093E+01 0.  1.
       -5    1    3    3    0  502 -0.36502598630E+03  0.41062937759E+03  0.20235851513E+04  0.20968498780E+04  0.46999998093E+01 0. -1.
</event>
<event>
 5   0  0.7351590E-06  0.2703856E+04  0.7818609E-02  0.8333755E-01
        1   -1    0    0  501    0  0.00000000000E+00  0.00000000000E+00  0.14585106514E+04  0.14585106514E+04  0.50400001928E-02 0. -1.
       -1   -1    0    0    0  501  0.00000000000E+00  0.00000000000E+00 -0.12531338638E+04  0.12531338638E+04  0.50400001928E-02 0.  1.
    10030    2    1    2    0    0  0.00000000000E+00  0.00000000000E+00  0.20537678760E+03  0.27116445152E+04  0.27038558305E+04 0.  0.
        3    1    3    3  502    0  0.95825922031E+03  0.92264766084E+03 -0.13919018372E+03  0.13375026567E+04  0.10100000352E+00 0.  1.
       -3    1    3    3    0  502 -0.95825922031E+03 -0.92264766084E+03  0.34456697132E+03  0.13741418585E+04  0.10100000352E+00 0. -1.
</event>
<event>
 5   0  0.1931119E-05  0.2710107E+04  0.7818609E-02  0.8331733E-01
       -2   -1    0    0    0  501  0.00000000000E+00  0.00000000000E+00  0.14035126188E+04  0.14035126188E+04  0.25500000920E-02 0.  1.
        2   -1    0    0  501    0  0.00000000000E+00  0.00000000000E+00 -0.13082678597E+04  0.13082678597E+04  0.25500000920E-02 0. -1.
    10030    2    1    2    0    0  0.00000000000E+00  0.00000000000E+00  0.95244759177E+02  0.27117804785E+04  0.27101073409E+04 0.  0.
        3    1    3    3  502    0 -0.91181820811E+03  0.68277988109E+03  0.78194848368E+03  0.13816816753E+04  0.10100000352E+00 0.  1.
       -3    1    3    3    0  502  0.91181820811E+03 -0.68277988109E+03 -0.68670372450E+03  0.13300988031E+04  0.10100000352E+00 0. -1.
</event>
<event>
 5   0  0.7348964E-06  0.2701507E+04  0.7818609E-02  0.8334516E-01
       -1   -1    0    0    0  501  0.00000000000E+00  0.00000000000E+00  0.22458573217E+04  0.22458573217E+04  0.50400001928E-02 0.  1.
        1   -1    0    0  501    0  0.00000000000E+00  0.00000000000E+00 -0.81240016249E+03  0.81240016251E+03  0.50400001928E-02 0. -1.
    10030    2    1    2    0    0  0.00000000000E+00  0.00000000000E+00  0.14334571592E+04  0.30582574842E+04  0.27015068781E+04 0.  0.
        1    1    3    3  502    0 -0.56804338944E+03  0.27952157475E+03 -0.63404225027E+03  0.89599954140E+03  0.50400001928E-02 0. -1.
       -1    1    3    3    0  502  0.56804338944E+03 -0.27952157475E+03  0.20674994095E+04  0.21622579428E+04  0.50400001928E-02 0.  1.
</event>
<event>
 5   0  0.7351590E-06  0.2685951E+04  0.7818609E-02  0.8339578E-01
        1   -1    0    0  501    0  0.00000000000E+00  0.00000000000E+00  0.23391251132E+04  0.23391251132E+04  0.50400001928E-02 0. -1.
       -1   -1    0    0    0  501  0.00000000000E+00  0.00000000000E+00 -0.77105023151E+03  0.77105023152E+03  0.50400001928E-02 0.  1.
    10030    2    1    2    0    0  0.00000000000E+00  0.00000000000E+00  0.15680748817E+04  0.31101753447E+04  0.26859508261E+04 0.  0.
        3    1    3    3  502    0 -0.50874730788E+03  0.99682055813E+03  0.16436547181E+04  0.19884858287E+04  0.10100000352E+00 0. -1.
       -3    1    3    3    0  502  0.50874730788E+03 -0.99682055813E+03 -0.75579836465E+02  0.11216895160E+04  0.10100000352E+00 0.  1.
</event>
<event>
 5   0  0.7754912E-06  0.2671561E+04  0.7818609E-02  0.8344292E-01
       -1   -1    0    0    0  501  0.00000000000E+00  0.00000000000E+00  0.13946936723E+04  0.13946936723E+04  0.50400001928E-02 0.  1.
        1   -1    0    0  501    0  0.00000000000E+00  0.00000000000E+00 -0.12793556279E+04  0.12793556279E+04  0.50400001928E-02 0. -1.
    10030    2    1    2    0    0  0.00000000000E+00  0.00000000000E+00  0.11533804444E+03  0.26740493002E+04  0.26715607415E+04 0.  0.
        4    1    3    3  502    0 -0.85635355074E+03  0.10055378700E+04 -0.14216607815E+03  0.13284052916E+04  0.12699999809E+01 0. -1.
       -4    1    3    3    0  502  0.85635355074E+03 -0.10055378700E+04  0.25750412259E+03  0.13456440087E+04  0.12699999809E+01 0.  1.
</event>
<event>
 5   0  0.7600052E-06  0.2636300E+04  0.7818609E-02  0.8355975E-01
        1   -1    0    0  501    0  0.00000000000E+00  0.00000000000E+00  0.11853263757E+04  0.11853263757E+04  0.50400001928E-02 0. -1.
       -1   -1    0    0    0  501  0.00000000000E+00  0.00000000000E+00 -0.14658571170E+04  0.14658571170E+04  0.50400001928E-02 0.  1.
    10030    2    1    2    0    0  0.00000000000E+00  0.00000000000E+00 -0.28053074125E+03  0.26511834927E+04  0.26362997582E+04 0.  0.
        5    1    3    3  502    0  0.61341620290E+03  0.27010467413E+03 -0.12816891967E+04  0.14463696830E+04  0.46999998093E+01 0.  1.
       -5    1    3    3    0  502 -0.61341620290E+03 -0.27010467413E+03  0.10011584555E+04  0.12048138097E+04  0.46999998093E+01 0. -1.
</event>
<event>
 5   0  0.1881699E-05  0.2758324E+04  0.7818609E-02  0.8316325E-01
       -2   -1    0    0    0  501  0.00000000000E+00  0.00000000000E+00  0.97915844589E+03  0.97915844589E+03  0.25500000920E-02 0.  1.
        2   -1    0    0  501    0  0.00000000000E+00  0.00000000000E+00 -0.19425734837E+04  0.19425734837E+04  0.25500000920E-02 0. -1.
    10030    2    1    2    0    0  0.00000000000E+00  0.00000000000E+00 -0.96341503781E+03  0.29217319296E+04  0.27583235730E+04 0.  0.
        4    1    3    3  502    0  0.29255219796E+03 -0.87001346711E+03 -0.15720453700E+04  0.18203951438E+04  0.12699999809E+01 0. -1.
       -4    1    3    3    0  502 -0.29255219796E+03  0.87001346711E+03  0.60863033219E+03  0.11013367858E+04  0.12699999809E+01 0.  1.
</event>
<event>
 5   0  0.1878160E-05  0.2721466E+04  0.7818609E-02  0.8328073E-01
        2   -1    0    0  501    0  0.00000000000E+00  0.00000000000E+00  0.16580286038E+04  0.16580286038E+04  0.25500000920E-02 0.  1.
       -2   -1    0    0    0  501  0.00000000000E+00  0.00000000000E+00 -0.11167445318E+04  0.11167445318E+04  0.25500000920E-02 0. -1.
    10030    2    1    2    0    0  0.00000000000E+00  0.00000000000E+00  0.54128407200E+03  0.27747731355E+04  0.27214660584E+04 0.  0.
        1    1    3    3  502    0 -0.15319057362E+03 -0.72502954513E+03 -0.89296575396E+03  0.11603977899E+04  0.50400001928E-02 0. -1.
       -1    1    3    3    0  502  0.15319057362E+03  0.72502954513E+03  0.14342498260E+04  0.16143753456E+04  0.50400001928E-02 0.  1.
</event>
<event>
 5   0  0.7754912E-06  0.2691576E+04  0.7818609E-02  0.8337744E-01
       -1   -1    0    0    0  501  0.00000000000E+00  0.00000000000E+00  0.32645443435E+04  0.32645443435E+04  0.50400001928E-02 0.  1.
        1   -1    0    0  501    0  0.00000000000E+00  0.00000000000E+00 -0.55479258730E+03  0.55479258733E+03  0.50400001928E-02 0. -1.
    10030    2    1    2    0    0  0.00000000000E+00  0.00000000000E+00  0.27097517562E+04  0.38193369308E+04  0.26915757487E+04 0.  0.
        4    1    3    3  502    0  0.11736983498E+04 -0.34264861606E+02  0.42178282100E+03  0.12476555045E+04  0.12699999809E+01 0. -1.
       -4    1    3    3    0  502 -0.11736983498E+04  0.34264861606E+02  0.22879689352E+04  0.25716814263E+04  0.12699999809E+01 0.  1.
</event>
<event>
 5   0  0.1788003E-05  0.2629735E+04  0.7818609E-02  0.8358171E-01
       -2   -1    0    0    0  501  0.00000000000E+00  0.00000000000E+00  0.14707174747E+04  0.14707174747E+04  0.25500000920E-02 0.  1.
        2   -1    0    0  501    0  0.00000000000E+00  0.00000000000E+00 -0.11755324164E+04  0.11755324164E+04  0.25500000920E-02 0. -1.
    10030    2    1    2    0    0  0.00000000000E+00  0.00000000000E+00  0.29518505828E+03  0.26462498911E+04  0.26297346383E+04 0.  0.
        2    1    3    3  502    0 -0.40296990386E+03  0.85983301531E+03  0.10627978737E+04  0.14252146779E+04  0.25500000920E-02 0.  1.
       -2    1    3    3    0  502  0.40296990386E+03 -0.85983301531E+03 -0.76761281543E+03  0.12210352133E+04  0.25500000920E-02 0. -1.
</event>
<event>
 5   0  0.7600052E-06  0.2728410E+04  0.7818609E-02  0.8325845E-01
        1   -1    0    0  501    0  0.00000000000E+00  0.00000000000E+00  0.12885494938E+04  0.12885494938E+04  0.50400001928E-02 0. -1.
       -1   -1    0    0    0  501  0.00000000000E+00  0.00000000000E+00 -0.14443021079E+04  0.14443021079E+04  0.50400001928E-02 0.  1.
    10030    2    1    2    0    0  0.00000000000E+00  0.00000000000E+00 -0.15575261406E+03  0.27328516017E+04  0.27284096101E+04 0.  0.
        5    1    3    3  502    0  0.11750013196E+04 -0.27786348324E+03 -0.71388759754E+03  0.14026738068E+04  0.46999998093E+01 0.  1.
       -5    1    3    3    0  502 -0.11750013196E+04  0.27786348324E+03  0.55813498349E+03  0.13301777949E+04  0.46999998093E+01 0. -1.
</event>
<event>
 5   0  0.1788003E-05  0.2732137E+04  0.7818609E-02  0.8324652E-01
       -2   -1    0    0    0  501  0.00000000000E+00  0.00000000000E+00  0.16836715797E+04  0.16836715797E+04  0.25500000920E-02 0.  1.
        2   -1    0    0  501    0  0.00000000000E+00  0.00000000000E+00 -0.11083770526E+04  0.11083770526E+04  0.25500000920E-02 0. -1.
    10030    2    1    2    0    0  0.00000000000E+00  0.00000000000E+00  0.57529452708E+03  0.27920486324E+04  0.27321368510E+04 0.  0.
        2    1    3    3  502    0  0.60638077346E+03  0.11728592184E+04  0.64582783052E+03  0.14698265120E+04  0.25500000920E-02 0.  1.
       -2    1    3    3    0  502 -0.60638077346E+03 -0.11728592184E+04 -0.70533303444E+02  0.13222221204E+04  0.25500000920E-02 0. -1.
</event>
<event>
 5   0  0.7754912E-06  0.2691148E+04  0.7818609E-02  0.8337883E-01
        1   -1    0    0  501    0  0.00000000000E+00  0.00000000000E+00  0.16867220440E+04  0.16867220440E+04  0.50400001928E-02 0. -1.
       -1   -1    0    0    0  501  0.00000000000E+00  0.00000000000E+00 -0.10734245309E+04  0.10734245309E+04  0.50400001928E-02 0.  1.
    10030    2    1    2    0    0  0.00000000000E+00  0.00000000000E+00  0.61329751310E+03  0.27601465749E+04  0.26911475759E+04 0.  0.
        4    1    3    3  502    0  0.11669242229E+04  0.64006882430E+03  0.10366813091E+03  0.13349715113E+04  0.12699999809E+01 0.  1.
       -4    1    3    3    0  502 -0.11669242229E+04 -0.64006882430E+03  0.50962938218E+03  0.14251750636E+04  0.12699999809E+01 0. -1.
</event>
<event>
 5   0  0.7754912E-06  0.2546489E+04  0.7818609E-02  0.8386608E-01
       -1   -1    0    0    0  501  0.00000000000E+00  0.00000000000E+00  0.16124331146E+04  0.16124331146E+04  0.50400001928E-02 0. -1.
        1   -1    0    0  501    0  0.00000000000E+00  0.00000000000E+00 -0.10054067529E+04  0.10054067529E+04  0.50400001928E-02 0.  1.
    10030    2    1    2    0    0  0.00000000000E+00  0.00000000000E+00  0.60702636167E+03  0.26178398675E+04  0.25464886742E+04 0.  0.
        4    1    3    3  502    0  0.42814345065E+02 -0.12326831892E+04  0.62829024030E+03  0.13842294434E+04  0.12699999809E+01 0. -1.
       -4    1    3    3    0  502 -0.42814345065E+02  0.12326831892E+04 -0.21263878627E+02  0.12336104241E+04  0.12699999809E+01 0.  1.
</event>
<event>
 5   0  0.6804685E-06  0.2671440E+04  0.7818609E-02  0.8344332E-01
        1   -1    0    0  501    0  0.00000000000E+00  0.00000000000E+00  0.72649623104E+03  0.72649623106E+03  0.50400001928E-02 0.  1.
       -1   -1    0    0    0  501  0.00000000000E+00  0.00000000000E+00 -0.24558246065E+04  0.24558246065E+04  0.50400001928E-02 0. -1.
    10030    2    1    2    0    0  0.00000000000E+00  0.00000000000E+00 -0.17293283755E+04  0.31823208376E+04  0.26714395526E+04 0.  0.
        2    1    3    3  502    0 -0.58917831621E+03  0.11247404541E+04 -0.13586693088E+04  0.18596113755E+04  0.25500000920E-02 0.  1.
       -2    1    3    3    0  502  0.58917831621E+03 -0.11247404541E+04 -0.37065906664E+03  0.13227094620E+04  0.25500000920E-02 0. -1.
</event>
<event>
 5   0  0.1788003E-05  0.2702300E+04  0.7818609E-02  0.8334259E-01
        2   -1    0    0  501    0  0.00000000000E+00  0.00000000000E+00  0.15192377279E+04  0.15192377279E+04  0.25500000920E-02 0. -1.
       -2   -1    0    0    0  501  0.00000000000E+00  0.00000000000E+00 -0.12016591939E+04  0.12016591939E+04  0.25500000920E-02 0.  1.
    10030    2    1    2    0    0  0.00000000000E+00  0.00000000000E+00  0.31757853393E+03  0.27208969218E+04  0.27022997491E+04 0.  0.
        2    1    3    3  502    0  0.38411141318E+03 -0.40856274368E+03 -0.10789553525E+04  0.12159809809E+04  0.25500000920E-02 0.  1.
       -2    1    3    3    0  502 -0.38411141318E+03  0.40856274368E+03  0.13965338864E+04  0.15049159409E+04  0.25500000920E-02 0. -1.
</event>
<event>
 5   0  0.6175875E-06  0.2697382E+04  0.7818609E-02  0.8335855E-01
       -3   -1    0    0    0  501  0.00000000000E+00  0.00000000000E+00  0.18222878237E+04  0.18222878265E+04  0.10100000352E+00 0. -1.
        3   -1    0    0  501    0  0.00000000000E+00  0.00000000000E+00 -0.99817765464E+03  0.99817765975E+03  0.10100000352E+00 0.  1.
    10030    2    1    2    0    0  0.00000000000E+00  0.00000000000E+00  0.82411016904E+03  0.28204654862E+04  0.26973816913E+04 0.  0.
        5    1    3    3  502    0 -0.13036125874E+04 -0.24350051876E+03  0.66870714213E+03  0.14852237585E+04  0.46999998093E+01 0. -1.
       -5    1    3    3    0  502  0.13036125874E+04  0.24350051876E+03  0.15540302691E+03  0.13352417278E+04  0.46999998093E+01 0.  1.
</event>
<event>
 5   0  0.1826851E-05  0.2715209E+04  0.7818609E-02  0.8330087E-01
        2   -1    0    0  501    0  0.00000000000E+00  0.00000000000E+00  0.15861778395E+04  0.15861778395E+04  0.25500000920E-02 0. -1.
       -2   -1    0    0    0  501  0.00000000000E+00  0.00000000000E+00 -0.11619697012E+04  0.11619697012E+04  0.25500000920E-02 0.  1.
    10030    2    1    2    0    0  0.00000000000E+00  0.00000000000E+00  0.42420813825E+03  0.27481475407E+04  0.27152094507E+04 0.  0.
        5    1    3    3  502    0  0.15454574169E+02  0.12947751127E+03  0.15798166827E+04  0.15851959219E+04  0.46999998093E+01 0. -1.
       -5    1    3    3    0  502 -0.15454574169E+02 -0.12947751127E+03 -0.11556085445E+04  0.11629516189E+04  0.46999998093E+01 0.  1.
</event>
<event>
 5   0  0.1826851E-05  0.2725564E+04  0.7818609E-02  0.8326758E-01
       -2   -1    0    0    0  501  0.00000000000E+00  0.00000000000E+00  0.98567766306E+03  0.98567766306E+03  0.25500000920E-02 0. -1.
        2   -1    0    0  501    0  0.00000000000E+00  0.00000000000E+00 -0.18841603111E+04  0.18841603111E+04  0.25500000920E-02 0.  1.
    10030    2    1    2    0    0  0.00000000000E+00  0.00000000000E+00 -0.89848264800E+03  0.28698379741E+04  0.27255639653E+04 0.  0.
        5    1    3    3  502    0 -0.90551335982E+03 -0.66120144538E+03 -0.12648475825E+04  0.16902672253E+04  0.46999998093E+01 0.  1.
       -5    1    3    3    0  502  0.90551335982E+03  0.66120144538E+03  0.36636493446E+03  0.11795707488E+04  0.46999998093E+01 0. -1.
</event>
<event>
 5   0  0.1881699E-05  0.2795512E+04  0.7818609E-02  0.8304663E-01
        2   -1    0    0  501    0  0.00000000000E+00  0.00000000000E+00  0.13320472431E+04  0.13320472431E+04  0.25500000920E-02 0. -1.
       -2   -1    0    0    0  501  0.00000000000E+00  0.00000000000E+00 -0.14667060529E+04  0.14667060529E+04  0.25500000920E-02 0.  1.
    10030    2    1    2    0    0  0.00000000000E+00  0.00000000000E+00 -0.13465880976E+03  0.27987532959E+04  0.27955119418E+04 0.  0.
        4    1    3    3  502    0  0.85915831453E+03  0.10021439881E+04  0.39284967143E+03  0.13772356587E+04  0.12699999809E+01 0. -1.
       -4    1    3    3    0  502 -0.85915831453E+03 -0.10021439881E+04 -0.52750848120E+03  0.14215176372E+04  0.12699999809E+01 0.  1.
</event>
<event>
 5   0  0.7754912E-06  0.2707798E+04  0.7818609E-02  0.8332479E-01
       -1   -1    0    0    0  501  0.00000000000E+00  0.00000000000E+00  0.83231200065E+03  0.83231200066E+03  0.50400001928E-02 0. -1.
        1   -1    0    0  501    0  0.00000000000E+00  0.00000000000E+00 -0.22023502217E+04  0.22023502217E+04  0.50400001928E-02 0.  1.
    10030    2    1    2    0    0  0.00000000000E+00  0.00000000000E+00 -0.13700382210E+04  0.30346622223E+04  0.27077980125E+04 0.  0.
        4    1    3    3  502    0 -0.16815371510E+03 -0.13203537022E+04 -0.40724672297E+03  0.13919271091E+04  0.12699999809E+01 0. -1.
       -4    1    3    3    0  502  0.16815371510E+03  0.13203537022E+04 -0.96279149805E+03  0.16427351133E+04  0.12699999809E+01 0.  1.
</event>
<event>
 5   0  0.6804685E-06  0.2695201E+04  0.7818609E-02  0.8336564E-01
       -1   -1    0    0    0  501  0.00000000000E+00  0.00000000000E+00  0.11630146609E+04  0.11630146609E+04  0.50400001928E-02 0. -1.
        1   -1    0    0  501    0  0.00000000000E+00  0.00000000000E+00 -0.15614830718E+04  0.15614830718E+04  0.50400001928E-02 0.  1.
    10030    2    1    2    0    0  0.00000000000E+00  0.00000000000E+00 -0.39846841091E+03  0.27244977328E+04  0.26952014435E+04 0.  0.
        2    1    3    3  502    0 -0.13091855703E+04 -0.35855187267E+02 -0.52013601766E+03  0.14091820070E+04  0.25500000920E-02 0. -1.
       -2    1    3    3    0  502  0.13091855703E+04  0.35855187267E+02  0.12166760675E+03  0.13153157258E+04  0.25500000920E-02 0.  1.
</event>
<event>
 5   0  0.1788003E-05  0.2733536E+04  0.7818609E-02  0.8324205E-01
       -2   -1    0    0    0  501  0.00000000000E+00  0.00000000000E+00  0.78142337024E+03  0.78142337024E+03  0.25500000920E-02 0.  1.
        2   -1    0    0  501    0  0.00000000000E+00  0.00000000000E+00 -0.23905803225E+04  0.23905803225E+04  0.25500000920E-02 0. -1.
    10030    2    1    2    0    0  0.00000000000E+00  0.00000000000E+00 -0.16091569523E+04  0.31720036928E+04  0.27335364146E+04 0.  0.
        2    1    3    3  502    0  0.10292922281E+04 -0.89661010497E+03 -0.72499850785E+03  0.15456309415E+04  0.25500000920E-02 0.  1.
       -2    1    3    3    0  502 -0.10292922281E+04  0.89661010497E+03 -0.88415844444E+03  0.16263727512E+04  0.25500000920E-02 0. -1.
</event>
<event>
 5   0  0.6804685E-06  0.2673374E+04  0.7818609E-02  0.8343696E-01
       -1   -1    0    0    0  501  0.00000000000E+00  0.00000000000E+00  0.15984277884E+04  0.15984277884E+04  0.50400001928E-02 0. -1.
        1   -1    0    0  501    0  0.00000000000E+00  0.00000000000E+00 -0.11178056714E+04  0.11178056715E+04  0.50400001928E-02 0.  1.
    10030    2    1    2    0    0  0.00000000000E+00  0.00000000000E+00  0.48062211691E+03  0.27162334598E+04  0.26733736344E+04 0.  0.
        2    1    3    3  502    0 -0.84489442456E+03 -0.44597709686E+02 -0.81112073024E+03  0.11720718337E+04  0.25500000920E-02 0.  1.
       -2    1    3    3    0  502  0.84489442456E+03  0.44597709686E+02  0.12917428472E+04  0.15441616261E+04  0.25500000920E-02 0. -1.
</event>
<event>
 5   0  0.1931119E-05  0.3368051E+04  0.7818609E-02  0.8145793E-01
        2   -1    0    0  501    0  0.00000000000E+00  0.00000000000E+00  0.17905005975E+04  0.17905005976E+04  0.25500000920E-02 0. -1.
       -2   -1    0    0    0  501  0.00000000000E+00  0.00000000000E+00 -0.15838818841E+04  0.15838818841E+04  0.25500000920E-02 0.  1.
    10030    2    1    2    0    0  0.00000000000E+00  0.00000000000E+00  0.20661871345E+03  0.33743824817E+04  0.33680507478E+04 0.  0.
        3    1    3    3  502    0  0.13647484134E+03  0.72929139342E+03 -0.14113032099E+04  0.15944491461E+04  0.10100000352E+00 0.  1.
       -3    1    3    3    0  502 -0.13647484134E+03 -0.72929139342E+03  0.16179219234E+04  0.17799333356E+04  0.10100000352E+00 0. -1.
</event>
<event>
 5   0  0.1826851E-05  0.2725194E+04  0.7818609E-02  0.8326876E-01
       -2   -1    0    0    0  501  0.00000000000E+00  0.00000000000E+00  0.85570231692E+03  0.85570231693E+03  0.25500000920E-02 0. -1.
        2   -1    0    0  501    0  0.00000000000E+00  0.00000000000E+00 -0.21697619511E+04  0.21697619511E+04  0.25500000920E-02 0.  1.
    10030    2    1    2    0    0  0.00000000000E+00  0.00000000000E+00 -0.13140596342E+04  0.30254642680E+04  0.27251938124E+04 0.  0.
        5    1    3    3  502    0  0.39384934821E+03  0.12585362581E+04 -0.27628811032E+03  0.13473633629E+04  0.46999998093E+01 0.  1.
       -5    1    3    3    0  502 -0.39384934821E+03 -0.12585362581E+04 -0.10377715239E+04  0.16781009051E+04  0.46999998093E+01 0. -1.
</event>
<event>
 5   0  0.7600052E-06  0.2676661E+04  0.7818609E-02  0.8342618E-01
       -1   -1    0    0    0  501  0.00000000000E+00  0.00000000000E+00  0.99762969649E+03  0.99762969650E+03  0.50400001928E-02 0.  1.
        1   -1    0    0  501    0  0.00000000000E+00  0.00000000000E+00 -0.17953840677E+04  0.17953840677E+04  0.50400001928E-02 0. -1.
    10030    2    1    2    0    0  0.00000000000E+00  0.00000000000E+00 -0.79775437124E+03  0.27930137642E+04  0.26766609517E+04 0.  0.
        5    1    3    3  502    0  0.10478301509E+04  0.81390478768E+03 -0.58175943058E+03  0.14487426112E+04  0.46999998093E+01 0.  1.
       -5    1    3    3    0  502 -0.10478301509E+04 -0.81390478768E+03 -0.21599494066E+03  0.13442711530E+04  0.46999998093E+01 0. -1.
</event>
<event>
 5   0  0.7351590E-06  0.2681949E+04  0.7818609E-02  0.8340886E-01
       -1   -1    0    0    0  501  0.00000000000E+00  0.00000000000E+00  0.99862526777E+03  0.99862526779E+03  0.50400001928E-02 0.  1.
        1   -1    0    0  501    0  0.00000000000E+00  0.00000000000E+00 -0.18006886197E+04  0.18006886197E+04  0.50400001928E-02 0. -1.
    10030    2    1    2    0    0  0.00000000000E+00  0.00000000000E+00 -0.80206335194E+03  0.27993138875E+04  0.26819494067E+04 0.  0.
        3    1    3    3  502    0 -0.12762829646E+04  0.41017897578E+03 -0.43514440958E+03  0.14094309722E+04  0.10100000352E+00 0.  1.
       -3    1    3    3    0  502  0.12762829646E+04 -0.41017897578E+03 -0.36691894236E+03  0.13898829153E+04  0.10100000352E+00 0. -1.
</event>
<event>
 5   0  0.1931119E-05  0.2653586E+04  0.7818609E-02  0.8350224E-01
       -2   -1    0    0    0  501  0.00000000000E+00  0.00000000000E+00  0.81699092410E+03  0.81699092410E+03  0.25500000920E-02 0.  1.
        2   -1    0    0  501    0  0.00000000000E+00  0.00000000000E+00 -0.21547113476E+04  0.21547113476E+04  0.25500000920E-02 0. -1.
    10030    2    1    2    0    0  0.00000000000E+00  0.00000000000E+00 -0.13377204235E+04  0.29717022717E+04  0.26535859625E+04 0.  0.
        3    1    3    3  502    0  0.10565757974E+03 -0.13169674407E+04 -0.80515878652E+03  0.15472063358E+04  0.10100000352E+00 0.  1.
       -3    1    3    3    0  502 -0.10565757974E+03  0.13169674407E+04 -0.53256163702E+03  0.14244959359E+04  0.10100000352E+00 0. -1.
</event>
<event>
 5   0  0.1878160E-05  0.2704432E+04  0.7818609E-02  0.8333568E-01
       -2   -1    0    0    0  501  0.00000000000E+00  0.00000000000E+00  0.11722991271E+04  0.11722991271E+04  0.25500000920E-02 0. -1.
        2   -1    0    0  501    0  0.00000000000E+00  0.00000000000E+00 -0.15597453702E+04  0.15597453702E+04  0.25500000920E-02 0.  1.
    10030    2    1    2    0    0  0.00000000000E+00  0.00000000000E+00 -0.38744624304E+03  0.27320444973E+04  0.27044320188E+04 0.  0.
        1    1    3    3  502    0  0.54751701611E+03 -0.62446045336E+02 -0.14411643639E+04  0.15429287461E+04  0.50400001928E-02 0.  1.
       -1    1    3    3    0  502 -0.54751701611E+03  0.62446045336E+02  0.10537181209E+04  0.11891157512E+04  0.50400001928E-02 0. -1.
</event>
<event>
 5   0  0.1878160E-05  0.2720770E+04  0.7818609E-02  0.8328297E-01
       -2   -1    0    0    0  501  0.00000000000E+00  0.00000000000E+00  0.78630616493E+03  0.78630616494E+03  0.25500000920E-02 0.  1.
        2   -1    0    0  501    0  0.00000000000E+00  0.00000000000E+00 -0.23535960808E+04  0.23535960808E+04  0.25500000920E-02 0. -1.
    10030    2    1    2    0    0  0.00000000000E+00  0.00000000000E+00 -0.15672899159E+04  0.31399022457E+04  0.27207698235E+04 0.  0.
        1    1    3    3  502    0  0.48400489638E+03 -0.30521630210E+03 -0.22079630105E+04  0.22809029762E+04  0.50400001928E-02 0. -1.
       -1    1    3    3    0  502 -0.48400489638E+03  0.30521630210E+03  0.64067309469E+03  0.85899926954E+03  0.50400001928E-02 0.  1.
</event>
<event>
 5   0  0.1788003E-05  0.2633783E+04  0.7818609E-02  0.8356816E-01
       -2   -1    0    0    0  501  0.00000000000E+00  0.00000000000E+00  0.18748108980E+04  0.18748108980E+04  0.25500000920E-02 0.  1.
        2   -1    0    0  501    0  0.00000000000E+00  0.00000000000E+00 -0.92500181547E+03  0.92500181547E+03  0.25500000920E-02 0. -1.
    10030    2    1    2    0    0  0.00000000000E+00  0.00000000000E+00  0.94980908249E+03  0.27998127134E+04  0.26337831986E+04 0.  0.
        2    1    3    3  502    0 -0.64630843571E+03  0.60988097013E+03  0.15080412133E+04  0.17503878692E+04  0.25500000920E-02 0.  1.
       -2    1    3    3    0  502  0.64630843571E+03 -0.60988097013E+03 -0.55823213078E+03  0.10494248442E+04  0.25500000920E-02 0. -1.
</event>
<event>
 5   0  0.7348964E-06  0.2707315E+04  0.7818609E-02  0.8332635E-01
       -1   -1    0    0    0  501  0.00000000000E+00  0.00000000000E+00  0.78784679006E+03  0.78784679007E+03  0.50400001928E-02 0. -1.
        1   -1    0    0  501    0  0.00000000000E+00  0.00000000000E+00 -0.23258183714E+04  0.23258183714E+04  0.50400001928E-02 0.  1.
    10030    2    1    2    0    0  0.00000000000E+00  0.00000000000E+00 -0.15379715814E+04  0.31136651615E+04  0.27073149342E+04 0.  0.
        1    1    3    3  502    0  0.19725826385E+02  0.13479995416E+04 -0.62861470321E+03  0.14874973336E+04  0.50400001928E-02 0. -1.
       -1    1    3    3    0  502 -0.19725826385E+02 -0.13479995416E+04 -0.90935687817E+03  0.16261678279E+04  0.50400001928E-02 0.  1.
</event>
<event>
 5   0  0.1878160E-05  0.2702686E+04  0.7818609E-02  0.8334134E-01
        2   -1    0    0  501    0  0.00000000000E+00  0.00000000000E+00  0.10032009139E+04  0.10032009139E+04  0.25500000920E-02 0.  1.
       -2   -1    0    0    0  501  0.00000000000E+00  0.00000000000E+00 -0.18203009915E+04  0.18203009915E+04  0.25500000920E-02 0. -1.
    10030    2    1    2    0    0  0.00000000000E+00  0.00000000000E+00 -0.81710007762E+03  0.28235019055E+04  0.27026857889E+04 0.  0.
        1    1    3    3  502    0  0.35882004019E+03 -0.28881863002E+03 -0.17357576277E+04  0.17958347820E+04  0.50400001928E-02 0. -1.
       -1    1    3    3    0  502 -0.35882004019E+03  0.28881863002E+03  0.91865755006E+03  0.10276671234E+04  0.50400001928E-02 0.  1.
</event>
<event>
 5   0  0.1881699E-05  0.2684819E+04  0.7818609E-02  0.8339947E-01
        2   -1    0    0  501    0  0.00000000000E+00  0.00000000000E+00  0.29138472712E+04  0.29138472712E+04  0.25500000920E-02 0. -1.
       -2   -1    0    0    0  501  0.00000000000E+00  0.00000000000E+00 -0.61844819795E+03  0.61844819795E+03  0.25500000920E-02 0.  1.
    10030    2    1    2    0    0  0.00000000000E+00  0.00000000000E+00  0.22953990733E+04  0.35322954692E+04  0.26848192446E+04 0.  0.
        4    1    3    3  502    0  0.83678827370E+03 -0.55307060491E+03  0.23214821386E+04  0.25289093779E+04  0.12699999809E+01 0. -1.
       -4    1    3    3    0  502 -0.83678827370E+03  0.55307060491E+03 -0.26083065282E+02  0.10033860913E+04  0.12699999809E+01 0.  1.
</event>
<event>
 5   0  0.1931119E-05  0.2585378E+04  0.7818609E-02  0.8373185E-01
        2   -1    0    0  501    0  0.00000000000E+00  0.00000000000E+00  0.27513412955E+04  0.27513412955E+04  0.25500000920E-02 0.  1.
       -2   -1    0    0    0  501  0.00000000000E+00  0.00000000000E+00 -0.60735640577E+03  0.60735640578E+03  0.25500000920E-02 0. -1.
    10030    2    1    2    0    0  0.00000000000E+00  0.00000000000E+00  0.21439848897E+04  0.33586977013E+04  0.25853779300E+04 0.  0.
        3    1    3    3  502    0 -0.74769404390E+03  0.74909909702E+02 -0.29447845323E+03  0.80707834036E+03  0.10100000352E+00 0. -1.
       -3    1    3    3    0  502  0.74769404390E+03 -0.74909909702E+02  0.24384633429E+04  0.25516193609E+04  0.10100000352E+00 0.  1.
</event>
<event>
 5   0  0.7600052E-06  0.2691961E+04  0.7818609E-02  0.8337618E-01
       -1   -1    0    0    0  501  0.00000000000E+00  0.00000000000E+00  0.95287694845E+03  0.95287694846E+03  0.50400001928E-02 0.  1.
        1   -1    0    0  501    0  0.00000000000E+00  0.00000000000E+00 -0.19012564259E+04  0.19012564259E+04  0.50400001928E-02 0. -1.
    10030    2    1    2    0    0  0.00000000000E+00  0.00000000000E+00 -0.94837947742E+03  0.28541333743E+04  0.26919609368E+04 0.  0.
        5    1    3    3  502    0  0.32316557999E+03 -0.25555213088E+03  0.88436973888E+03  0.97564071703E+03  0.46999998093E+01 0.  1.
       -5    1    3    3    0  502 -0.32316557999E+03  0.25555213088E+03 -0.18327492163E+04  0.18784926573E+04  0.46999998093E+01 0. -1.
</event>
<event>
 5   0  0.6804685E-06  0.2684506E+04  0.7818609E-02  0.8340050E-01
       -1   -1    0    0    0  501  0.00000000000E+00  0.00000000000E+00  0.14502112060E+04  0.14502112060E+04  0.50400001928E-02 0.  1.
        1   -1    0    0  501    0  0.00000000000E+00  0.00000000000E+00 -0.12423318494E+04  0.12423318494E+04  0.50400001928E-02 0. -1.
    10030    2    1    2    0    0  0.00000000000E+00  0.00000000000E+00  0.20787935656E+03  0.26925430554E+04  0.26845063379E+04 0.  0.
        2    1    3    3  502    0  0.10083641760E+04 -0.81884827657E+03  0.44308322910E+03  0.13724553033E+04  0.25500000920E-02 0.  1.
       -2    1    3    3    0  502 -0.10083641760E+04  0.81884827657E+03 -0.23520387254E+03  0.13200877521E+04  0.25500000920E-02 0. -1.
</event>
<event>
 5   0  0.1878160E-05  0.2704721E+04  0.7818609E-02  0.8333475E-01
       -2   -1    0    0    0  501  0.00000000000E+00  0.00000000000E+00  0.11214656023E+04  0.11214656023E+04  0.25500000920E-02 0.  1.
        2   -1    0    0  501    0  0.00000000000E+00  0.00000000000E+00 -0.16307933591E+04  0.16307933591E+04  0.25500000920E-02 0. -1.
    10030    2    1    2    0    0  0.00000000000E+00  0.00000000000E+00 -0.50932775674E+03  0.27522589614E+04  0.27047208039E+04 0.  0.
        1    1    3    3  502    0  0.95553834076E+03  0.95697149558E+03 -0.24902640881E+03  0.13750862214E+04  0.50400001928E-02 0. -1.
       -1    1    3    3    0  502 -0.95553834076E+03 -0.95697149558E+03 -0.26030134793E+03  0.13771727400E+04  0.50400001928E-02 0.  1.
</event>
<event>
 5   0  0.1881699E-05  0.2687718E+04  0.7818609E-02  0.8339001E-01
       -2   -1    0    0    0  501  0.00000000000E+00  0.00000000000E+00  0.74309671171E+03  0.74309671171E+03  0.25500000920E-02 0. -1.
        2   -1    0    0  501    0  0.00000000000E+00  0.00000000000E+00 -0.24303116812E+04  0.24303116812E+04  0.25500000920E-02 0.  1.
    10030    2    1    2    0    0  0.00000000000E+00  0.00000000000E+00 -0.16872149695E+04  0.31734083929E+04  0.26877177074E+04 0.  0.
        4    1    3    3  502    0  0.70095098960E+03 -0.51390140035E+03 -0.20537768181E+04  0.22301183310E+04  0.12699999809E+01 0.  1.
       -4    1    3    3    0  502 -0.70095098960E+03  0.51390140035E+03  0.36656184857E+03  0.94329006188E+03  0.12699999809E+01 0. -1.
</event>
<event>
 5   0  0.1931119E-05  0.2704157E+04  0.7818609E-02  0.8333657E-01
       -2   -1    0    0    0  501  0.00000000000E+00  0.00000000000E+00  0.80171705688E+03  0.80171705688E+03  0.25500000920E-02 0. -1.
        2   -1    0    0  501    0  0.00000000000E+00  0.00000000000E+00 -0.22802520020E+04  0.22802520020E+04  0.25500000920E-02 0.  1.
    10030    2    1    2    0    0  0.00000000000E+00  0.00000000000E+00 -0.14785349451E+04  0.30819690589E+04  0.27041574836E+04 0.  0.
        3    1    3    3  502    0  0.87828214769E+03 -0.67633610828E+03  0.14304194630E+03  0.11177079542E+04  0.10100000352E+00 0. -1.
       -3    1    3    3    0  502 -0.87828214769E+03  0.67633610828E+03 -0.16215768914E+04  0.19642611047E+04  0.10100000352E+00 0.  1.
</event>
<event>
 5   0  0.7351590E-06  0.2696459E+04  0.7818609E-02  0.8336155E-01
        1   -1    0    0  501    0  0.00000000000E+00  0.00000000000E+00  0.21502989130E+04  0.21502989130E+04  0.50400001928E-02 0. -1.
       -1   -1    0    0    0  501  0.00000000000E+00  0.00000000000E+00 -0.84533480713E+03  0.84533480715E+03  0.50400001928E-02 0.  1.
    10030    2    1    2    0    0  0.00000000000E+00  0.00000000000E+00  0.13049641059E+04  0.29956337202E+04  0.26964588014E+04 0.  0.
        3    1    3    3  502    0 -0.30909029155E+03 -0.12185730693E+04  0.11936251239E+04  0.17335507147E+04  0.10100000352E+00 0. -1.
       -3    1    3    3    0  502  0.30909029155E+03  0.12185730693E+04  0.11133898197E+03  0.12620830055E+04  0.10100000352E+00 0.  1.
</event>
<event>
 5   0  0.1788003E-05  0.2697797E+04  0.7818609E-02  0.8335720E-01
        2   -1    0    0  501    0  0.00000000000E+00  0.00000000000E+00  0.13159376341E+04  0.13159376341E+04  0.25500000920E-02 0.  1.
       -2   -1    0    0    0  501  0.00000000000E+00  0.00000000000E+00 -0.13826848157E+04  0.13826848157E+04  0.25500000920E-02 0. -1.
    10030    2    1    2    0    0  0.00000000000E+00  0.00000000000E+00 -0.66747181617E+02  0.26986224499E+04  0.26977968679E+04 0.  0.
        2    1    3    3  502    0 -0.11412444448E+04  0.18356841721E+03 -0.72884942729E+03  0.13665129835E+04  0.25500000920E-02 0. -1.
       -2    1    3    3    0  502  0.11412444448E+04 -0.18356841721E+03  0.66210224568E+03  0.13321094663E+04  0.25500000920E-02 0.  1.
</event>
<event>
 5   0  0.7348964E-06  0.2681988E+04  0.7818609E-02  0.8340873E-01
       -1   -1    0    0    0  501  0.00000000000E+00  0.00000000000E+00  0.77660492519E+03  0.77660492520E+03  0.50400001928E-02 0.  1.
        1   -1    0    0  501    0  0.00000000000E+00  0.00000000000E+00 -0.23155460067E+04  0.23155460067E+04  0.50400001928E-02 0. -1.
    10030    2    1    2    0    0  0.00000000000E+00  0.00000000000E+00 -0.15389410815E+04  0.30921509319E+04  0.26819876460E+04 0.  0.
        1    1    3    3  502    0 -0.63806550632E+03  0.32910701900E+03 -0.20753036882E+04  0.21959791480E+04  0.50400001928E-02 0. -1.
       -1    1    3    3    0  502  0.63806550632E+03 -0.32910701900E+03  0.53636260669E+03  0.89617178386E+03  0.50400001928E-02 0.  1.
</event>
<event>
 5   0  0.6804685E-06  0.2772665E+04  0.7818609E-02  0.8311805E-01
        1   -1    0    0  501    0  0.00000000000E+00  0.00000000000E+00  0.11738168111E+04  0.11738168111E+04  0.50400001928E-02 0.  1.
       -1   -1    0    0    0  501  0.00000000000E+00  0.00000000000E+00 -0.16373230058E+04  0.16373230058E+04  0.50400001928E-02 0. -1.
    10030    2    1    2    0    0  0.00000000000E+00  0.00000000000E+00 -0.46350619472E+03  0.28111398169E+04  0.27726646169E+04 0.  0.
        2    1    3    3  502    0 -0.24640580215E+03 -0.12023361607E+04  0.42185471765E+03  0.12978017821E+04  0.25500000920E-02 0.  1.
       -2    1    3    3    0  502  0.24640580215E+03  0.12023361607E+04 -0.88536091238E+03  0.15133380349E+04  0.25500000920E-02 0. -1.
</event>
<event>
 5   0  0.1826851E-05  0.2742849E+04  0.7818609E-02  0.8321234E-01
        2   -1    0    0  501    0  0.00000000000E+00  0.00000000000E+00  0.12824226498E+04  0.12824226498E+04  0.25500000920E-02 0. -1.
       -2   -1    0    0    0  501  0.00000000000E+00  0.00000000000E+00 -0.14666029285E+04  0.14666029285E+04  0.25500000920E-02 0.  1.
    10030    2    1    2    0    0  0.00000000000E+00  0.00000000000E+00 -0.18418027872E+03  0.27490255783E+04  0.27428487481E+04 0.  0.
        5    1    3    3  502    0 -0.91776903943E+03  0.49277209705E+03  0.80191546294E+03  0.13146158561E+04  0.46999998093E+01 0. -1.
       -5    1    3    3    0  502  0.91776903943E+03 -0.49277209705E+03 -0.98609574166E+03  0.14344097222E+04  0.46999998093E+01 0.  1.
</event>
<event>
 5   0  0.7348964E-06  0.2597545E+04  0.7818609E-02  0.8369036E-01
       -1   -1    0    0    0  501  0.00000000000E+00  0.00000000000E+00  0.52840961580E+03  0.52840961582E+03  0.50400001928E-02 0.  1.
        1   -1    0    0  501    0  0.00000000000E+00  0.00000000000E+00 -0.31922384103E+04  0.31922384103E+04  0.50400001928E-02 0. -1.
    10030    2    1    2    0    0  0.00000000000E+00  0.00000000000E+00 -0.26638287945E+04  0.37206480261E+04  0.25975445882E+04 0.  0.
        1    1    3    3  502    0 -0.11755715794E+04  0.53134289562E+03 -0.15468448365E+04  0.20142052426E+04  0.50400001928E-02 0. -1.
       -1    1    3    3    0  502  0.11755715794E+04 -0.53134289562E+03 -0.11169839580E+04  0.17064427835E+04  0.50400001928E-02 0.  1.
</event>
<event>
 5   0  0.1881699E-05  0.2726036E+04  0.7818609E-02  0.8326606E-01
        2   -1    0    0  501    0  0.00000000000E+00  0.00000000000E+00  0.17821605960E+04  0.17821605960E+04  0.25500000920E-02 0.  1.
       -2   -1    0    0    0  501  0.00000000000E+00  0.00000000000E+00 -0.10424523227E+04  0.10424523227E+04  0.25500000920E-02 0. -1.
    10030    2    1    2    0    0  0.00000000000E+00  0.00000000000E+00  0.73970827326E+03  0.28246129187E+04  0.27260355484E+04 0.  0.
        4    1    3    3  502    0  0.51960831794E+03 -0.11715209920E+04 -0.11099801304E+03  0.12863811296E+04  0.12699999809E+01 0. -1.
       -4    1    3    3    0  502 -0.51960831794E+03  0.11715209920E+04  0.85070628631E+03  0.15382317891E+04  0.12699999809E+01 0.  1.
</event>
<event>
 5   0  0.1931119E-05  0.2717290E+04  0.7818609E-02  0.8329417E-01
       -2   -1    0    0    0  501  0.00000000000E+00  0.00000000000E+00  0.10013888389E+04  0.10013888389E+04  0.25500000920E-02 0. -1.
        2   -1    0    0  501    0  0.00000000000E+00  0.00000000000E+00 -0.18433555367E+04  0.18433555367E+04  0.25500000920E-02 0.  1.
    10030    2    1    2    0    0  0.00000000000E+00  0.00000000000E+00 -0.84196669781E+03  0.28447443756E+04  0.27172895764E+04 0.  0.
        3    1    3    3  502    0  0.11417200238E+04 -0.54021481825E+03 -0.94502079040E+03  0.15774729687E+04  0.10100000352E+00 0.  1.
       -3    1    3    3    0  502 -0.11417200238E+04  0.54021481825E+03  0.10305409259E+03  0.12672714069E+04  0.10100000352E+00 0. -1.
</event>
<event>
 5   0  0.1826851E-05  0.2580305E+04  0.7818609E-02  0.8374922E-01
       -2   -1    0    0    0  501  0.00000000000E+00  0.00000000000E+00  0.18118478053E+04  0.18118478053E+04  0.25500000920E-02 0.  1.
        2   -1    0    0  501    0  0.00000000000E+00  0.00000000000E+00 -0.91867159939E+03  0.91867159940E+03  0.25500000920E-02 0. -1.
    10030    2    1    2    0    0  0.00000000000E+00  0.00000000000E+00  0.89317620590E+03  0.27305194047E+04  0.25803047271E+04 0.  0.
        5    1    3    3  502    0  0.64214949714E+03  0.74282344405E+03  0.13321626668E+04  0.16549387017E+04  0.46999998093E+01 0.  1.
       -5    1    3    3    0  502 -0.64214949714E+03 -0.74282344405E+03 -0.43898646090E+03  0.10755807029E+04  0.46999998093E+01 0. -1.
</event>
<event>
 5   0  0.7351590E-06  0.2692324E+04  0.7818609E-02  0.8337500E-01
       -1   -1    0    0    0  501  0.00000000000E+00  0.00000000000E+00  0.57639591232E+03  0.57639591234E+03  0.50400001928E-02 0.  1.
        1   -1    0    0  501    0  0.00000000000E+00  0.00000000000E+00 -0.31439360692E+04  0.31439360692E+04  0.50400001928E-02 0. -1.
    10030    2    1    2    0    0  0.00000000000E+00  0.00000000000E+00 -0.25675401569E+04  0.37203319816E+04  0.26923238282E+04 0.  0.
        3    1    3    3  502    0  0.29156838247E+03  0.78196716135E+03 -0.27433292923E+04  0.28674623588E+04  0.10100000352E+00 0. -1.
       -3    1    3    3    0  502 -0.29156838247E+03 -0.78196716135E+03  0.17578913540E+03  0.85286962275E+03  0.10100000352E+00 0.  1.
</event>
<event>
 5   0  0.1788003E-05  0.2691088E+04  0.7818609E-02  0.8337902E-01
       -2   -1    0    0    0  501  0.00000000000E+00  0.00000000000E+00  0.66102919739E+03  0.66102919740E+03  0.25500000920E-02 0.  1.
        2   -1    0    0  501    0  0.00000000000E+00  0.00000000000E+00 -0.27388941169E+04  0.27388941169E+04  0.25500000920E-02 0. -1.
    10030    2    1    2    0    0  0.00000000000E+00  0.00000000000E+00 -0.20778649195E+04  0.33999233143E+04  0.26910882407E+04 0.  0.
        2    1    3    3  502    0 -0.32595899021E+03  0.82160906034E+03 -0.23206452157E+04  0.24832810812E+04  0.25500000920E-02 0. -1.
       -2    1    3    3    0  502  0.32595899021E+03 -0.82160906034E+03  0.24278029613E+03  0.91664223311E+03  0.25500000920E-02 0.  1.
</event>
<event>
 5   0  0.1881699E-05  0.2698477E+04  0.7818609E-02  0.8335499E-01
        2   -1    0    0  501    0  0.00000000000E+00  0.00000000000E+00  0.10094738762E+04  0.10094738762E+04  0.25500000920E-02 0. -1.
       -2   -1    0    0    0  501  0.00000000000E+00  0.00000000000E+00 -0.18033601656E+04  0.18033601656E+04  0.25500000920E-02 0.  1.
    10030    2    1    2    0    0  0.00000000000E+00  0.00000000000E+00 -0.79388628938E+03  0.28128340418E+04  0.26984773311E+04 0.  0.
        4    1    3    3  502    0  0.37137625476E+03  0.10795534518E+04  0.35261841642E+03  0.11948628952E+04  0.12699999809E+01 0. -1.
       -4    1    3    3    0  502 -0.37137625476E+03 -0.10795534518E+04 -0.11465047058E+04  0.16179711466E+04  0.12699999809E+01 0.  1.
</event>
<event>
 5   0  0.1881699E-05  0.2702738E+04  0.7818609E-02  0.8334117E-01
        2   -1    0    0  501    0  0.00000000000E+00  0.00000000000E+00  0.13600453697E+04  0.13600453697E+04  0.25500000920E-02 0. -1.
       -2   -1    0    0    0  501  0.00000000000E+00  0.00000000000E+00 -0.13427477752E+04  0.13427477752E+04  0.25500000920E-02 0.  1.
    10030    2    1    2    0    0  0.00000000000E+00  0.00000000000E+00  0.17297594515E+02  0.27027931449E+04  0.27027377930E+04 0.  0.
        4    1    3    3  502    0 -0.86176685465E+03  0.96400413989E+03  0.40140381772E+03  0.13539101637E+04  0.12699999809E+01 0. -1.
       -4    1    3    3    0  502  0.86176685465E+03 -0.96400413989E+03 -0.38410622321E+03  0.13488829813E+04  0.12699999809E+01 0.  1.
</event>
<event>
 5   0  0.7754912E-06  0.2697903E+04  0.7818609E-02  0.8335686E-01
       -1   -1    0    0    0  501  0.00000000000E+00  0.00000000000E+00  0.13307554158E+04  0.13307554158E+04  0.50400001928E-02 0.  1.
        1   -1    0    0  501    0  0.00000000000E+00  0.00000000000E+00 -0.13673960045E+04  0.13673960045E+04  0.50400001928E-02 0. -1.
    10030    2    1    2    0    0  0.00000000000E+00  0.00000000000E+00 -0.36640588657E+02  0.26981514203E+04  0.26979026213E+04 0.  0.
        4    1    3    3  502    0  0.73143813490E+03 -0.40206593043E+03  0.10414987487E+04  0.13346834884E+04  0.12699999809E+01 0.  1.
       -4    1    3    3    0  502 -0.73143813490E+03  0.40206593043E+03 -0.10781393374E+04  0.13634679319E+04  0.12699999809E+01 0. -1.
</event>
<event>
 5   0  0.7600052E-06  0.2705468E+04  0.7818609E-02  0.8333233E-01
       -1   -1    0    0    0  501  0.00000000000E+00  0.00000000000E+00  0.14060183572E+04  0.14060183572E+04  0.50400001928E-02 0. -1.
        1   -1    0    0  501    0  0.00000000000E+00  0.00000000000E+00 -0.13014691263E+04  0.13014691263E+04  0.50400001928E-02 0.  1.
    10030    2    1    2    0    0  0.00000000000E+00  0.00000000000E+00  0.10454923084E+03  0.27074874835E+04  0.27054681539E+04 0.  0.
        5    1    3    3  502    0 -0.66489559297E+03 -0.68061771702E+02  0.12292259063E+04  0.13991915427E+04  0.46999998093E+01 0. -1.
       -5    1    3    3    0  502  0.66489559297E+03  0.68061771702E+02 -0.11246766755E+04  0.13082959408E+04  0.46999998093E+01 0.  1.
</event>
<event>
 5   0  0.7348964E-06  0.2686476E+04  0.7818609E-02  0.8339406E-01
        1   -1    0    0  501    0  0.00000000000E+00  0.00000000000E+00  0.10100388789E+04  0.10100388789E+04  0.50400001928E-02 0. -1.
       -1   -1    0    0    0  501  0.00000000000E+00  0.00000000000E+00 -0.17863558083E+04  0.17863558083E+04  0.50400001928E-02 0.  1.
    10030    2    1    2    0    0  0.00000000000E+00  0.00000000000E+00 -0.77631692942E+03  0.27963946873E+04  0.26864763673E+04 0.  0.
        1    1    3    3  502    0  0.64681467221E+03 -0.10912189507E+04 -0.84800374991E+03  0.15258566048E+04  0.50400001928E-02 0.  1.
       -1    1    3    3    0  502 -0.64681467221E+03  0.10912189507E+04  0.71686820488E+02  0.12705380824E+04  0.50400001928E-02 0. -1.
</event>
<event>
 5   0  0.7754912E-06  0.2647245E+04  0.7818609E-02  0.8352328E-01
       -1   -1    0    0    0  501  0.00000000000E+00  0.00000000000E+00  0.80851894710E+03  0.80851894712E+03  0.50400001928E-02 0.  1.
        1   -1    0    0  501    0  0.00000000000E+00  0.00000000000E+00 -0.21668964129E+04  0.21668964129E+04  0.50400001928E-02 0. -1.
    10030    2    1    2    0    0  0.00000000000E+00  0.00000000000E+00 -0.13583774658E+04  0.29754153600E+04  0.26472452144E+04 0.  0.
        4    1    3    3  502    0 -0.49354745619E+03 -0.94833290267E+03  0.19797403734E+03  0.10872532907E+04  0.12699999809E+01 0.  1.
       -4    1    3    3    0  502  0.49354745619E+03  0.94833290267E+03 -0.15563515031E+04  0.18881620693E+04  0.12699999809E+01 0. -1.
</event>
<event>
 5   0  0.7348964E-06  0.2619067E+04  0.7818609E-02  0.8361753E-01
        1   -1    0    0  501    0  0.00000000000E+00  0.00000000000E+00  0.67439132444E+03  0.67439132446E+03  0.50400001928E-02 0. -1.
       -1   -1    0    0    0  501  0.00000000000E+00  0.00000000000E+00 -0.25428536284E+04  0.25428536284E+04  0.50400001928E-02 0.  1.
    10030    2    1    2    0    0  0.00000000000E+00  0.00000000000E+00 -0.18684623040E+04  0.32172449529E+04  0.26190673350E+04 0.  0.
        1    1    3    3  502    0  0.66719665908E+03  0.83550483023E+03 -0.54660649112E+01  0.10692284981E+04  0.50400001928E-02 0. -1.
       -1    1    3    3    0  502 -0.66719665908E+03 -0.83550483023E+03 -0.18629962390E+04  0.21480164548E+04  0.50400001928E-02 0.  1.
</event>
<event>
 5   0  0.1788003E-05  0.2704102E+04  0.7818609E-02  0.8333675E-01
       -2   -1    0    0    0  501  0.00000000000E+00  0.00000000000E+00  0.15290944639E+04  0.15290944639E+04  0.25500000920E-02 0. -1.
        2   -1    0    0  501    0  0.00000000000E+00  0.00000000000E+00 -0.11955062995E+04  0.11955062995E+04  0.25500000920E-02 0.  1.
    10030    2    1    2    0    0  0.00000000000E+00  0.00000000000E+00  0.33358816440E+03  0.27246007635E+04  0.27041021166E+04 0.  0.
        2    1    3    3  502    0  0.39571357693E+03  0.10684460455E+04 -0.56664974882E+03  0.12725007368E+04  0.25500000920E-02 0.  1.
       -2    1    3    3    0  502 -0.39571357693E+03 -0.10684460455E+04  0.90023791322E+03  0.14521000267E+04  0.25500000920E-02 0. -1.
</event>
<event>
 5   0  0.7754912E-06  0.2323202E+04  0.7818609E-02  0.8468829E-01
        1   -1    0    0  501    0  0.00000000000E+00  0.00000000000E+00  0.17218190781E+04  0.17218190781E+04  0.50400001928E-02 0.  1.
       -1   -1    0    0    0  501  0.00000000000E+00  0.00000000000E+00 -0.78365808335E+03  0.78365808337E+03  0.50400001928E-02 0. -1.
    10030    2    1    2    0    0  0.00000000000E+00  0.00000000000E+00  0.93816099474E+03  0.25054771615E+04  0.23232024782E+04 0.  0.
        4    1    3    3  502    0  0.29156012611E+03 -0.70886721244E+03  0.14103811766E+04  0.16052030115E+04  0.12699999809E+01 0.  1.
       -4    1    3    3    0  502 -0.29156012611E+03  0.70886721244E+03 -0.47222018186E+03  0.90027414995E+03  0.12699999809E+01 0. -1.
</event>
<event>
 5   0  0.1788003E-05  0.2951919E+04  0.7818609E-02  0.8257595E-01
       -2   -1    0    0    0  501  0.00000000000E+00  0.00000000000E+00  0.11778996709E+04  0.11778996709E+04  0.25500000920E-02 0. -1.
        2   -1    0    0  501    0  0.00000000000E+00  0.00000000000E+00 -0.18494418521E+04  0.18494418521E+04  0.25500000920E-02 0.  1.
    10030    2    1    2    0    0  0.00000000000E+00  0.00000000000E+00 -0.67154218115E+03  0.30273415230E+04  0.29519193410E+04 0.  0.
        2    1    3    3  502    0  0.29228932381E+03 -0.98007708973E+03 -0.14271380981E+04  0.17557640222E+04  0.25500000920E-02 0.  1.
       -2    1    3    3    0  502 -0.29228932381E+03  0.98007708973E+03  0.75559591698E+03  0.12715775007E+04  0.25500000920E-02 0. -1.
</event>
<event>
 5   0  0.7348964E-06  0.2631456E+04  0.7818609E-02  0.8357594E-01
       -1   -1    0    0    0  501  0.00000000000E+00  0.00000000000E+00  0.11811701442E+04  0.11811701442E+04  0.50400001928E-02 0. -1.
        1   -1    0    0  501    0  0.00000000000E+00  0.00000000000E+00 -0.14656143382E+04  0.14656143382E+04  0.50400001928E-02 0.  1.
    10030    2    1    2    0    0  0.00000000000E+00  0.00000000000E+00 -0.28444419407E+03  0.26467844824E+04  0.26314557942E+04 0.  0.
        1    1    3    3  502    0 -0.91142297140E+03  0.59604426661E+03 -0.88488576701E+03  0.14032046968E+04  0.50400001928E-02 0.  1.
       -1    1    3    3    0  502  0.91142297140E+03 -0.59604426661E+03  0.60044157294E+03  0.12435797856E+04  0.50400001928E-02 0. -1.
</event>
<event>
 5   0  0.7351590E-06  0.2669855E+04  0.7818609E-02  0.8344853E-01
        1   -1    0    0  501    0  0.00000000000E+00  0.00000000000E+00  0.31080655571E+04  0.31080655571E+04  0.50400001928E-02 0.  1.
       -1   -1    0    0    0  501  0.00000000000E+00  0.00000000000E+00 -0.57335724600E+03  0.57335724602E+03  0.50400001928E-02 0. -1.
    10030    2    1    2    0    0  0.00000000000E+00  0.00000000000E+00  0.25347083111E+04  0.36814228031E+04  0.26698553580E+04 0.  0.
        3    1    3    3  502    0 -0.52855466829E+03 -0.11940700057E+04  0.88508044569E+03  0.15775108942E+04  0.10100000352E+00 0. -1.
       -3    1    3    3    0  502  0.52855466829E+03  0.11940700057E+04  0.16496278654E+04  0.21039119089E+04  0.10100000352E+00 0.  1.
</event>
<event>
 5   0  0.1788003E-05  0.2674429E+04  0.7818609E-02  0.8343350E-01
       -2   -1    0    0    0  501  0.00000000000E+00  0.00000000000E+00  0.88747517087E+03  0.88747517087E+03  0.25500000920E-02 0.  1.
        2   -1    0    0  501    0  0.00000000000E+00  0.00000000000E+00 -0.20148645229E+04  0.20148645229E+04  0.25500000920E-02 0. -1.
    10030    2    1    2    0    0  0.00000000000E+00  0.00000000000E+00 -0.11273893521E+04  0.29023396938E+04  0.26744287142E+04 0.  0.
        2    1    3    3  502    0  0.12937266771E+03  0.12876219940E+04 -0.19819256347E+03  0.13091936369E+04  0.25500000920E-02 0.  1.
       -2    1    3    3    0  502 -0.12937266771E+03 -0.12876219940E+04 -0.92919678861E+03  0.15931460569E+04  0.25500000920E-02 0. -1.
</event>
<event>
 5   0  0.1931119E-05  0.2696109E+04  0.7818609E-02  0.8336269E-01
        2   -1    0    0  501    0  0.00000000000E+00  0.00000000000E+00  0.14669009727E+04  0.14669009727E+04  0.25500000920E-02 0.  1.
       -2   -1    0    0    0  501  0.00000000000E+00  0.00000000000E+00 -0.12388366481E+04  0.12388366481E+04  0.25500000920E-02 0. -1.
    10030    2    1    2    0    0  0.00000000000E+00  0.00000000000E+00  0.22806432456E+03  0.27057376208E+04  0.26961088140E+04 0.  0.
        3    1    3    3  502    0  0.12687505918E+04  0.39101635546E+03  0.34859498121E+03  0.13726399111E+04  0.10100000352E+00 0.  1.
       -3    1    3    3    0  502 -0.12687505918E+04 -0.39101635546E+03 -0.12053065665E+03  0.13330977098E+04  0.10100000352E+00 0. -1.
</event>
<event>
 5   0  0.1826851E-05  0.2591266E+04  0.7818609E-02  0.8371174E-01
       -2   -1    0    0    0  501  0.00000000000E+00  0.00000000000E+00  0.11496831813E+04  0.11496831813E+04  0.25500000920E-02 0. -1.
        2   -1    0    0  501    0  0.00000000000E+00  0.00000000000E+00 -0.14601112855E+04  0.14601112855E+04  0.25500000920E-02 0.  1.
    10030    2    1    2    0    0  0.00000000000E+00  0.00000000000E+00 -0.31042810421E+03  0.26097944667E+04  0.25912663990E+04 0.  0.
        5    1    3    3  502    0 -0.57779761411E+03 -0.72925624844E+03  0.75288617236E+03  0.11968811291E+04  0.46999998093E+01 0. -1.
       -5    1    3    3    0  502  0.57779761411E+03  0.72925624844E+03 -0.10633142766E+04  0.14129133376E+04  0.46999998093E+01 0.  1.
</event>
<event>
 5   0  0.7754912E-06  0.2709455E+04  0.7818609E-02  0.8331944E-01
        1   -1    0    0  501    0  0.00000000000E+00  0.00000000000E+00  0.22601237129E+04  0.22601237129E+04  0.50400001928E-02 0. -1.
       -1   -1    0    0    0  501  0.00000000000E+00  0.00000000000E+00 -0.81202953100E+03  0.81202953102E+03  0.50400001928E-02 0.  1.
    10030    2    1    2    0    0  0.00000000000E+00  0.00000000000E+00  0.14480941819E+04  0.30721532439E+04  0.27094554424E+04 0.  0.
        4    1    3    3  502    0 -0.72565904684E+03 -0.82450958533E+03  0.16232292484E+04  0.19599163029E+04  0.12699999809E+01 0. -1.
       -4    1    3    3    0  502  0.72565904684E+03  0.82450958533E+03 -0.17513506651E+03  0.11122369410E+04  0.12699999809E+01 0.  1.
</event>
<event>
 5   0  0.7348964E-06  0.2664248E+04  0.7818609E-02  0.8346699E-01
        1   -1    0    0  501    0  0.00000000000E+00  0.00000000000E+00  0.89071004639E+03  0.89071004641E+03  0.50400001928E-02 0.  1.
       -1   -1    0    0    0  501  0.00000000000E+00  0.00000000000E+00 -0.19922911850E+04  0.19922911850E+04  0.50400001928E-02 0. -1.
    10030    2    1    2    0    0  0.00000000000E+00  0.00000000000E+00 -0.11015811386E+04  0.28830012314E+04  0.26642475665E+04 0.  0.
        1    1    3    3  502    0 -0.12157798712E+04 -0.29490280553E+03 -0.10460427680E+04  0.16307341391E+04  0.50400001928E-02 0. -1.
       -1    1    3    3    0  502  0.12157798712E+04  0.29490280553E+03 -0.55538370656E+02  0.12522670923E+04  0.50400001928E-02 0.  1.
</event>
<event>
 5   0  0.7600052E-06  0.2762824E+04  0.7818609E-02  0.8314904E-01
       -1   -1    0    0    0  501  0.00000000000E+00  0.00000000000E+00  0.10511142648E+04  0.10511142648E+04  0.50400001928E-02 0.  1.
        1   -1    0    0  501    0  0.00000000000E+00  0.00000000000E+00 -0.18155009387E+04  0.18155009388E+04  0.50400001928E-02 0. -1.
    10030    2    1    2    0    0  0.00000000000E+00  0.00000000000E+00 -0.76438667398E+03  0.28666152035E+04  0.27628238702E+04 0.  0.
        5    1    3    3  502    0 -0.11199182724E+04 -0.79978454762E+03 -0.25766546296E+03  0.14001020821E+04  0.46999998093E+01 0. -1.
       -5    1    3    3    0  502  0.11199182724E+04  0.79978454762E+03 -0.50672121102E+03  0.14665131214E+04  0.46999998093E+01 0.  1.
</event>
<event>
 5   0  0.1931119E-05  0.2753246E+04  0.7818609E-02  0.8317932E-01
       -2   -1    0    0    0  501  0.00000000000E+00  0.00000000000E+00  0.90140128637E+03  0.90140128638E+03  0.25500000920E-02 0.  1.
        2   -1    0    0  501    0  0.00000000000E+00  0.00000000000E+00 -0.21023833542E+04  0.21023833542E+04  0.25500000920E-02 0. -1.
    10030    2    1    2    0    0  0.00000000000E+00  0.00000000000E+00 -0.12009820678E+04  0.30037846405E+04  0.27532461277E+04 0.  0.
        3    1    3    3  502    0 -0.76521831592E+03 -0.28869460875E+03  0.60760700686E+03  0.10188669850E+04  0.10100000352E+00 0.  1.
       -3    1    3    3    0  502  0.76521831592E+03  0.28869460875E+03 -0.18085890747E+04  0.19849176555E+04  0.10100000352E+00 0. -1.
</event>
<event>
 5   0  0.1788003E-05  0.2695945E+04  0.7818609E-02  0.8336322E-01
       -2   -1    0    0    0  501  0.00000000000E+00  0.00000000000E+00  0.24843804612E+04  0.24843804612E+04  0.25500000920E-02 0. -1.
        2   -1    0    0  501    0  0.00000000000E+00  0.00000000000E+00 -0.73138153819E+03  0.73138153819E+03  0.25500000920E-02 0.  1.
    10030    2    1    2    0    0  0.00000000000E+00  0.00000000000E+00  0.17529989230E+04  0.32157619994E+04  0.26959451057E+04 0.  0.
        2    1    3    3  502    0 -0.42778375381E+03 -0.55584603713E+02 -0.64682366155E+03  0.77747632590E+03  0.25500000920E-02 0.  1.
       -2    1    3    3    0  502  0.42778375381E+03  0.55584603713E+02  0.23998225846E+04  0.24382856735E+04  0.25500000920E-02 0. -1.
</event>
<event>
 5   0  0.6804685E-06  0.2677584E+04  0.7818609E-02  0.8342315E-01
       -1   -1    0    0    0  501  0.00000000000E+00  0.00000000000E+00  0.10655977493E+04  0.10655977493E+04  0.50400001928E-02 0. -1.
        1   -1    0    0  501    0  0.00000000000E+00  0.00000000000E+00 -0.16820270879E+04  0.16820270879E+04  0.50400001928E-02 0.  1.
    10030    2    1    2    0    0  0.00000000000E+00  0.00000000000E+00 -0.61642933862E+03  0.27476248372E+04  0.26775841941E+04 0.  0.
        2    1    3    3  502    0  0.10876835380E+04 -0.33410823580E+03 -0.10321330512E+04  0.15362234302E+04  0.25500000920E-02 0.  1.
       -2    1    3    3    0  502 -0.10876835380E+04  0.33410823580E+03  0.41570371256E+03  0.12114014070E+04  0.25500000920E-02 0. -1.
</event>
<event>
 5   0  0.6804685E-06  0.2700819E+04  0.7818609E-02  0.8334739E-01
       -1   -1    0    0    0  501  0.00000000000E+00  0.00000000000E+00  0.99657807649E+03  0.99657807650E+03  0.50400001928E-02 0.  1.
        1   -1    0    0  501    0  0.00000000000E+00  0.00000000000E+00 -0.18298673693E+04  0.18298673693E+04  0.50400001928E-02 0. -1.
    10030    2    1    2    0    0  0.00000000000E+00  0.00000000000E+00 -0.83328929280E+03  0.28264454458E+04  0.27008189152E+04 0.  0.
        2    1    3    3  502    0 -0.15754131134E+03  0.61040614499E+02 -0.18187630312E+04  0.18265936015E+04  0.25500000920E-02 0. -1.
       -2    1    3    3    0  502  0.15754131134E+03 -0.61040614499E+02  0.98547373841E+03  0.99985184428E+03  0.25500000920E-02 0.  1.
</event>
<event>
 5   0  0.1878160E-05  0.2720265E+04  0.7818609E-02  0.8328459E-01
        2   -1    0    0  501    0  0.00000000000E+00  0.00000000000E+00  0.20375799074E+04  0.20375799074E+04  0.25500000920E-02 0. -1.
       -2   -1    0    0    0  501  0.00000000000E+00  0.00000000000E+00 -0.90792059136E+03  0.90792059137E+03  0.25500000920E-02 0.  1.
    10030    2    1    2    0    0  0.00000000000E+00  0.00000000000E+00  0.11296593160E+04  0.29455004987E+04  0.27202652477E+04 0.  0.
        1    1    3    3  502    0  0.25901436439E+03  0.33424694337E+03  0.19645965983E+04  0.20095893248E+04  0.50400001928E-02 0. -1.
       -1    1    3    3    0  502 -0.25901436439E+03 -0.33424694337E+03 -0.83493728231E+03  0.93591117396E+03  0.50400001928E-02 0.  1.
</event>
<event>
 5   0  0.7351590E-06  0.2724737E+04  0.7818609E-02  0.8327023E-01
       -1   -1    0    0    0  501  0.00000000000E+00  0.00000000000E+00  0.13185363514E+04  0.13185363514E+04  0.50400001928E-02 0. -1.
        1   -1    0    0  501    0  0.00000000000E+00  0.00000000000E+00 -0.14076574810E+04  0.14076574810E+04  0.50400001928E-02 0.  1.
    10030    2    1    2    0    0  0.00000000000E+00  0.00000000000E+00 -0.89121129631E+02  0.27261938324E+04  0.27247367279E+04 0.  0.
        3    1    3    3  502    0 -0.41499184017E+03  0.26138280664E+03  0.12271456352E+04  0.13215239760E+04  0.10100000352E+00 0. -1.
       -3    1    3    3    0  502  0.41499184017E+03 -0.26138280664E+03 -0.13162667649E+04  0.14046698564E+04  0.10100000352E+00 0.  1.
</event>
<event>
 5   0  0.1878160E-05  0.2677085E+04  0.7818609E-02  0.8342479E-01
       -2   -1    0    0    0  501  0.00000000000E+00  0.00000000000E+00  0.10088802350E+04  0.10088802350E+04  0.25500000920E-02 0. -1.
        2   -1    0    0  501    0  0.00000000000E+00  0.00000000000E+00 -0.17759251458E+04  0.17759251458E+04  0.25500000920E-02 0.  1.
    10030    2    1    2    0    0  0.00000000000E+00  0.00000000000E+00 -0.76704491073E+03  0.27848053808E+04  0.26770848164E+04 0.  0.
        1    1    3    3  502    0  0.98956228264E+03 -0.42728433297E+03  0.44206902294E+03  0.11650023320E+04  0.50400001928E-02 0. -1.
       -1    1    3    3    0  502 -0.98956228264E+03  0.42728433297E+03 -0.12091139337E+04  0.16198030488E+04  0.50400001928E-02 0.  1.
</event>
<event>
 5   0  0.6804685E-06  0.2721714E+04  0.7818609E-02  0.8327994E-01
       -1   -1    0    0    0  501  0.00000000000E+00  0.00000000000E+00  0.11506882165E+04  0.11506882165E+04  0.50400001928E-02 0.  1.
        1   -1    0    0  501    0  0.00000000000E+00  0.00000000000E+00 -0.16094120826E+04  0.16094120827E+04  0.50400001928E-02 0. -1.
    10030    2    1    2    0    0  0.00000000000E+00  0.00000000000E+00 -0.45872386612E+03  0.27601002992E+04  0.27217138123E+04 0.  0.
        2    1    3    3  502    0 -0.70340075358E+03 -0.51275489992E+03  0.83145137732E+03  0.12037448236E+04  0.25500000920E-02 0.  1.
       -2    1    3    3    0  502  0.70340075358E+03  0.51275489992E+03 -0.12901752434E+04  0.15563554756E+04  0.25500000920E-02 0. -1.
</event>
<event>
 5   0  0.7754912E-06  0.2694899E+04  0.7818609E-02  0.8336662E-01
       -1   -1    0    0    0  501  0.00000000000E+00  0.00000000000E+00  0.19271957895E+04  0.19271957896E+04  0.50400001928E-02 0. -1.
        1   -1    0    0  501    0  0.00000000000E+00  0.00000000000E+00 -0.94210437641E+03  0.94210437642E+03  0.50400001928E-02 0.  1.
    10030    2    1    2    0    0  0.00000000000E+00  0.00000000000E+00  0.98509141314E+03  0.28693001660E+04  0.26948985788E+04 0.  0.
        4    1    3    3  502    0  0.13364249111E+03  0.68947682645E+03  0.17169126340E+04  0.18550011362E+04  0.12699999809E+01 0. -1.
       -4    1    3    3    0  502 -0.13364249111E+03 -0.68947682645E+03 -0.73182122084E+03  0.10142990298E+04  0.12699999809E+01 0.  1.
</event>
<event>
 5   0  0.1881699E-05  0.2240039E+04  0.7818609E-02  0.8501945E-01
       -2   -1    0    0    0  501  0.00000000000E+00  0.00000000000E+00  0.11444588669E+04  0.11444588669E+04  0.25500000920E-02 0. -1.
        2   -1    0    0  501    0  0.00000000000E+00  0.00000000000E+00 -0.10961020072E+04  0.10961020072E+04  0.25500000920E-02 0.  1.
    10030    2    1    2    0    0  0.00000000000E+00  0.00000000000E+00  0.48356859715E+02  0.22405608741E+04  0.22400389828E+04 0.  0.
        4    1    3    3  502    0 -0.34649562820E+03  0.61157783601E+03 -0.84800831595E+03  0.11014564842E+04  0.12699999809E+01 0.  1.
       -4    1    3    3    0  502  0.34649562820E+03 -0.61157783601E+03  0.89636517566E+03  0.11391043898E+04  0.12699999809E+01 0. -1.
</event>
<event>
 5   0  0.1788003E-05  0.2816579E+04  0.7818609E-02  0.8298140E-01
        2   -1    0    0  501    0  0.00000000000E+00  0.00000000000E+00  0.15618470094E+04  0.15618470094E+04  0.25500000920E-02 0.  1.
       -2   -1    0    0    0  501  0.00000000000E+00  0.00000000000E+00 -0.12698290281E+04  0.12698290281E+04  0.25500000920E-02 0. -1.
    10030    2    1    2    0    0  0.00000000000E+00  0.00000000000E+00  0.29201798135E+03  0.28316760375E+04  0.28165785414E+04 0.  0.
        2    1    3    3  502    0 -0.95004861478E+03  0.88880210717E+03  0.68808102025E+03  0.14717394629E+04  0.25500000920E-02 0.  1.
       -2    1    3    3    0  502  0.95004861478E+03 -0.88880210717E+03 -0.39606303890E+03  0.13599365746E+04  0.25500000920E-02 0. -1.
</event>
<event>
 5   0  0.7600052E-06  0.1957252E+04  0.7818609E-02  0.8626872E-01
       -1   -1    0    0    0  501  0.00000000000E+00  0.00000000000E+00  0.71474768581E+03  0.71474768582E+03  0.50400001928E-02 0.  1.
        1   -1    0    0  501    0  0.00000000000E+00  0.00000000000E+00 -0.13399256497E+04  0.13399256497E+04  0.50400001928E-02 0. -1.
    10030    2    1    2    0    0  0.00000000000E+00  0.00000000000E+00 -0.62517796389E+03  0.20546733355E+04  0.19572519074E+04 0.  0.
        5    1    3    3  502    0  0.58689376088E+03  0.72235528306E+03  0.48619294053E+01  0.93074549146E+03  0.46999998093E+01 0.  1.
       -5    1    3    3    0  502 -0.58689376088E+03 -0.72235528306E+03 -0.63003989329E+03  0.11239278441E+04  0.46999998093E+01 0. -1.
</event>
<event>
 5   0  0.1826851E-05  0.2675948E+04  0.7818609E-02  0.8342851E-01
        2   -1    0    0  501    0  0.00000000000E+00  0.00000000000E+00  0.18634662157E+04  0.18634662157E+04  0.25500000920E-02 0. -1.
       -2   -1    0    0    0  501  0.00000000000E+00  0.00000000000E+00 -0.96066927599E+03  0.96066927600E+03  0.25500000920E-02 0.  1.
    10030    2    1    2    0    0  0.00000000000E+00  0.00000000000E+00  0.90279693973E+03  0.28241354917E+04  0.26759482359E+04 0.  0.
        5    1    3    3  502    0  0.62983625291E+03 -0.56764548004E+03 -0.64092361696E+03  0.10628829989E+04  0.46999998093E+01 0.  1.
       -5    1    3    3    0  502 -0.62983625291E+03  0.56764548004E+03  0.15437205567E+04  0.17612524929E+04  0.46999998093E+01 0. -1.
</event>
<event>
 5   0  0.1788003E-05  0.2644815E+04  0.7818609E-02  0.8353136E-01
       -2   -1    0    0    0  501  0.00000000000E+00  0.00000000000E+00  0.11520497182E+04  0.11520497182E+04  0.25500000920E-02 0.  1.
        2   -1    0    0  501    0  0.00000000000E+00  0.00000000000E+00 -0.15179569890E+04  0.15179569890E+04  0.25500000920E-02 0. -1.
    10030    2    1    2    0    0  0.00000000000E+00  0.00000000000E+00 -0.36590727082E+03  0.26700067073E+04  0.26448152461E+04 0.  0.
        2    1    3    3  502    0  0.33602277069E+03  0.12722160018E+04 -0.31580136642E+03  0.13532092819E+04  0.25500000920E-02 0. -1.
       -2    1    3    3    0  502 -0.33602277069E+03 -0.12722160018E+04 -0.50105904402E+02  0.13167974253E+04  0.25500000920E-02 0.  1.
</event>
<event>
 5   0  0.6804685E-06  0.2589959E+04  0.7818609E-02  0.8371620E-01
        1   -1    0    0  501    0  0.00000000000E+00  0.00000000000E+00  0.10282562999E+04  0.10282562999E+04  0.50400001928E-02 0.  1.
       -1   -1    0    0    0  501  0.00000000000E+00  0.00000000000E+00 -0.16308890374E+04  0.16308890374E+04  0.50400001928E-02 0. -1.
    10030    2    1    2    0    0  0.00000000000E+00  0.00000000000E+00 -0.60263273750E+03  0.26591453372E+04  0.25899590167E+04 0.  0.
        2    1    3    3  502    0  0.30005409824E+03  0.81724138900E+03  0.68296704014E+03  0.11065079881E+04  0.25500000920E-02 0.  1.
       -2    1    3    3    0  502 -0.30005409824E+03 -0.81724138900E+03 -0.12855997776E+04  0.15526373492E+04  0.25500000920E-02 0. -1.
</event>
<event>
 5   0  0.7351590E-06  0.2678626E+04  0.7818609E-02  0.8341974E-01
       -1   -1    0    0    0  501  0.00000000000E+00  0.00000000000E+00  0.74425131927E+03  0.74425131929E+03  0.50400001928E-02 0.  1.
        1   -1    0    0  501    0  0.00000000000E+00  0.00000000000E+00 -0.24101528640E+04  0.24101528640E+04  0.50400001928E-02 0. -1.
    10030    2    1    2    0    0  0.00000000000E+00  0.00000000000E+00 -0.16659015448E+04  0.31544041833E+04  0.26786261021E+04 0.  0.
        3    1    3    3  502    0  0.45721097632E+03 -0.33789516345E+03  0.59510219924E+03  0.82301983943E+03  0.10100000352E+00 0.  1.
       -3    1    3    3    0  502 -0.45721097632E+03  0.33789516345E+03 -0.22610037440E+04  0.23313843439E+04  0.10100000352E+00 0. -1.
</event>
<event>
 5   0  0.1878160E-05  0.2738876E+04  0.7818609E-02  0.8322500E-01
        2   -1    0    0  501    0  0.00000000000E+00  0.00000000000E+00  0.16053034171E+04  0.16053034171E+04  0.25500000920E-02 0. -1.
       -2   -1    0    0    0  501  0.00000000000E+00  0.00000000000E+00 -0.11682278563E+04  0.11682278563E+04  0.25500000920E-02 0.  1.
    10030    2    1    2    0    0  0.00000000000E+00  0.00000000000E+00  0.43707556079E+03  0.27735312734E+04  0.27388758057E+04 0.  0.
        1    1    3    3  502    0 -0.12313991635E+04  0.75408357787E+02 -0.38339901488E+03  0.12919075528E+04  0.50400001928E-02 0.  1.
       -1    1    3    3    0  502  0.12313991635E+04 -0.75408357787E+02  0.82047457567E+03  0.14816237207E+04  0.50400001928E-02 0. -1.
</event>
<event>
 5   0  0.7351590E-06  0.2787639E+04  0.7818609E-02  0.8307116E-01
        1   -1    0    0  501    0  0.00000000000E+00  0.00000000000E+00  0.19898711879E+04  0.19898711879E+04  0.50400001928E-02 0. -1.
       -1   -1    0    0    0  501  0.00000000000E+00  0.00000000000E+00 -0.97631054817E+03  0.97631054818E+03  0.50400001928E-02 0.  1.
    10030    2    1    2    0    0  0.00000000000E+00  0.00000000000E+00  0.10135606398E+04  0.29661817361E+04  0.27876385923E+04 0.  0.
        3    1    3    3  502    0 -0.33071552883E+03  0.12303348772E+04 -0.94793358080E+02  0.12775298283E+04  0.10100000352E+00 0.  1.
       -3    1    3    3    0  502  0.33071552883E+03 -0.12303348772E+04  0.11083539978E+04  0.16886519078E+04  0.10100000352E+00 0. -1.
</event>
<event>
 5   0  0.1788003E-05  0.2695344E+04  0.7818609E-02  0.8336517E-01
        2   -1    0    0  501    0  0.00000000000E+00  0.00000000000E+00  0.15005579480E+04  0.15005579480E+04  0.25500000920E-02 0. -1.
       -2   -1    0    0    0  501  0.00000000000E+00  0.00000000000E+00 -0.12103625819E+04  0.12103625819E+04  0.25500000920E-02 0.  1.
    10030    2    1    2    0    0  0.00000000000E+00  0.00000000000E+00  0.29019536613E+03  0.27109205300E+04  0.26953435345E+04 0.  0.
        2    1    3    3  502    0 -0.79061789768E+02 -0.20407832829E+03  0.14825649030E+04  0.14986318502E+04  0.25500000920E-02 0. -1.
       -2    1    3    3    0  502  0.79061789768E+02  0.20407832829E+03 -0.11923695369E+04  0.12122886798E+04  0.25500000920E-02 0.  1.
</event>
<event>
 5   0  0.1931119E-05  0.2690748E+04  0.7818609E-02  0.8338013E-01
        2   -1    0    0  501    0  0.00000000000E+00  0.00000000000E+00  0.12076132694E+04  0.12076132694E+04  0.25500000920E-02 0. -1.
       -2   -1    0    0    0  501  0.00000000000E+00  0.00000000000E+00 -0.14988499778E+04  0.14988499778E+04  0.25500000920E-02 0.  1.
    10030    2    1    2    0    0  0.00000000000E+00  0.00000000000E+00 -0.29123670848E+03  0.27064632472E+04  0.26907479421E+04 0.  0.
        3    1    3    3  502    0 -0.23370858140E+03 -0.12462753311E+04 -0.59792147375E+03  0.14019029927E+04  0.10100000352E+00 0.  1.
       -3    1    3    3    0  502  0.23370858140E+03  0.12462753311E+04  0.30668476528E+03  0.13045602545E+04  0.10100000352E+00 0. -1.
</event>
<event>
 5   0  0.1878160E-05  0.2703140E+04  0.7818609E-02  0.8333987E-01
       -2   -1    0    0    0  501  0.00000000000E+00  0.00000000000E+00  0.91382845840E+03  0.91382845840E+03  0.25500000920E-02 0. -1.
        2   -1    0    0  501    0  0.00000000000E+00  0.00000000000E+00 -0.19989977159E+04  0.19989977159E+04  0.25500000920E-02 0.  1.
    10030    2    1    2    0    0  0.00000000000E+00  0.00000000000E+00 -0.10851692575E+04  0.29128261743E+04  0.27031396568E+04 0.  0.
        1    1    3    3  502    0  0.45951701046E+02  0.11211866845E+04 -0.13543971532E+04  0.17588526910E+04  0.50400001928E-02 0.  1.
       -1    1    3    3    0  502 -0.45951701046E+02 -0.11211866845E+04  0.26922789568E+03  0.11539734833E+04  0.50400001928E-02 0. -1.
</event>
<event>
 5   0  0.1826851E-05  0.2693169E+04  0.7818609E-02  0.8337225E-01
        2   -1    0    0  501    0  0.00000000000E+00  0.00000000000E+00  0.10405132646E+04  0.10405132646E+04  0.25500000920E-02 0.  1.
       -2   -1    0    0    0  501  0.00000000000E+00  0.00000000000E+00 -0.17426879361E+04  0.17426879361E+04  0.25500000920E-02 0. -1.
    10030    2    1    2    0    0  0.00000000000E+00  0.00000000000E+00 -0.70217467154E+03  0.27832012007E+04  0.26931690727E+04 0.  0.
        5    1    3    3  502    0 -0.25840163909E+03  0.15243415761E+03 -0.17077017243E+04  0.17338612542E+04  0.46999998093E+01 0. -1.
       -5    1    3    3    0  502  0.25840163909E+03 -0.15243415761E+03  0.10055270528E+04  0.10493399465E+04  0.46999998093E+01 0.  1.
</event>
<event>
 5   0  0.7754912E-06  0.2640340E+04  0.7818609E-02  0.8354626E-01
        1   -1    0    0  501    0  0.00000000000E+00  0.00000000000E+00  0.99198582511E+03  0.99198582513E+03  0.50400001928E-02 0.  1.
       -1   -1    0    0    0  501  0.00000000000E+00  0.00000000000E+00 -0.17569297497E+04  0.17569297497E+04  0.50400001928E-02 0. -1.
    10030    2    1    2    0    0  0.00000000000E+00  0.00000000000E+00 -0.76494392459E+03  0.27489155748E+04  0.26403404382E+04 0.  0.
        4    1    3    3  502    0  0.10800769928E+04  0.71672900104E+03 -0.12202289603E+03  0.13019823237E+04  0.12699999809E+01 0.  1.
       -4    1    3    3    0  502 -0.10800769928E+04 -0.71672900104E+03 -0.64292102856E+03  0.14469332511E+04  0.12699999809E+01 0. -1.
</event>
<event>
 5   0  0.7600052E-06  0.2687805E+04  0.7818609E-02  0.8338973E-01
       -1   -1    0    0    0  501  0.00000000000E+00  0.00000000000E+00  0.13618035278E+04  0.13618035278E+04  0.50400001928E-02 0.  1.
        1   -1    0    0  501    0  0.00000000000E+00  0.00000000000E+00 -0.13262363808E+04  0.13262363808E+04  0.50400001928E-02 0. -1.
    10030    2    1    2    0    0  0.00000000000E+00  0.00000000000E+00  0.35567146999E+02  0.26880399086E+04  0.26878045927E+04 0.  0.
        5    1    3    3  502    0 -0.12799624351E+04  0.15518834123E+02 -0.39152798762E+03  0.13386040956E+04  0.46999998093E+01 0.  1.
       -5    1    3    3    0  502  0.12799624351E+04 -0.15518834123E+02  0.42709513462E+03  0.13494358131E+04  0.46999998093E+01 0. -1.
</event>
<event>
 5   0  0.1881699E-05  0.2712070E+04  0.7818609E-02  0.8331099E-01
       -2   -1    0    0    0  501  0.00000000000E+00  0.00000000000E+00  0.10863525626E+04  0.10863525626E+04  0.25500000920E-02 0. -1.
        2   -1    0    0  501    0  0.00000000000E+00  0.00000000000E+00 -0.16926652295E+04  0.16926652295E+04  0.25500000920E-02 0.  1.
    10030    2    1    2    0    0  0.00000000000E+00  0.00000000000E+00 -0.60631266693E+03  0.27790177921E+04  0.27120702128E+04 0.  0.
        4    1    3    3  502    0 -0.90162167964E+02 -0.93941903207E+02 -0.16862440439E+04  0.16912642863E+04  0.12699999809E+01 0.  1.
       -4    1    3    3    0  502  0.90162167964E+02  0.93941903207E+02  0.10799313769E+04  0.10877535058E+04  0.12699999809E+01 0. -1.
</event>
<event>
 5   0  0.7754912E-06  0.2676861E+04  0.7818609E-02  0.8342552E-01
       -1   -1    0    0    0  501  0.00000000000E+00  0.00000000000E+00  0.11778799703E+04  0.11778799704E+04  0.50400001928E-02 0. -1.
        1   -1    0    0  501    0  0.00000000000E+00  0.00000000000E+00 -0.15208647165E+04  0.15208647165E+04  0.50400001928E-02 0.  1.
    10030    2    1    2    0    0  0.00000000000E+00  0.00000000000E+00 -0.34298474619E+03  0.26987446869E+04  0.26768609133E+04 0.  0.
        4    1    3    3  502    0 -0.45416416326E+03  0.32286208505E+03  0.10553741472E+04  0.11934492937E+04  0.12699999809E+01 0. -1.
       -4    1    3    3    0  502  0.45416416326E+03 -0.32286208505E+03 -0.13983588934E+04  0.15052953932E+04  0.12699999809E+01 0.  1.
</event>
<event>
 5   0  0.7351590E-06  0.2710711E+04  0.7818609E-02  0.8331538E-01
        1   -1    0    0  501    0  0.00000000000E+00  0.00000000000E+00  0.25655696287E+04  0.25655696288E+04  0.50400001928E-02 0.  1.
       -1   -1    0    0    0  501  0.00000000000E+00  0.00000000000E+00 -0.71601562546E+03  0.71601562548E+03  0.50400001928E-02 0. -1.
    10030    2    1    2    0    0  0.00000000000E+00  0.00000000000E+00  0.18495540033E+04  0.32815852542E+04  0.27107105655E+04 0.  0.
        3    1    3    3  502    0  0.83812665730E+03 -0.95355359674E+03  0.14993556734E+04  0.19646343683E+04  0.10100000352E+00 0. -1.
       -3    1    3    3    0  502 -0.83812665730E+03  0.95355359674E+03  0.35019832991E+03  0.13169508860E+04  0.10100000352E+00 0.  1.
</event>
<event>
 5   0  0.1878160E-05  0.2757844E+04  0.7818609E-02  0.8316477E-01
       -2   -1    0    0    0  501  0.00000000000E+00  0.00000000000E+00  0.10312464884E+04  0.10312464884E+04  0.25500000920E-02 0. -1.
        2   -1    0    0  501    0  0.00000000000E+00  0.00000000000E+00 -0.18438127447E+04  0.18438127447E+04  0.25500000920E-02 0.  1.
    10030    2    1    2    0    0  0.00000000000E+00  0.00000000000E+00 -0.81256625632E+03  0.28750592331E+04  0.27578436636E+04 0.  0.
        1    1    3    3  502    0 -0.75971395379E+03  0.88165818294E+03 -0.11772693015E+04  0.16554302919E+04  0.50400001928E-02 0.  1.
       -1    1    3    3    0  502  0.75971395379E+03 -0.88165818294E+03  0.36470304516E+03  0.12196289412E+04  0.50400001928E-02 0. -1.
</event>
<event>
 5   0  0.7600052E-06  0.2680845E+04  0.7818609E-02  0.8341247E-01
        1   -1    0    0  501    0  0.00000000000E+00  0.00000000000E+00  0.26038330151E+04  0.26038330151E+04  0.50400001928E-02 0.  1.
       -1   -1    0    0    0  501  0.00000000000E+00  0.00000000000E+00 -0.69003387852E+03  0.69003387853E+03  0.50400001928E-02 0. -1.
    10030    2    1    2    0    0  0.00000000000E+00  0.00000000000E+00  0.19137991366E+04  0.32938668936E+04  0.26808453849E+04 0.  0.
        5    1    3    3  502    0  0.23055018374E+02  0.65012450909E+03  0.23968627092E+04  0.24835793420E+04  0.46999998093E+01 0.  1.
       -5    1    3    3    0  502 -0.23055018374E+02 -0.65012450909E+03 -0.48306357261E+03  0.81028755166E+03  0.46999998093E+01 0. -1.
</event>
<event>
 5   0  0.1881699E-05  0.2741175E+04  0.7818609E-02  0.8321767E-01
       -2   -1    0    0    0  501  0.00000000000E+00  0.00000000000E+00  0.95399833322E+03  0.95399833322E+03  0.25500000920E-02 0.  1.
        2   -1    0    0  501    0  0.00000000000E+00  0.00000000000E+00 -0.19690920142E+04  0.19690920142E+04  0.25500000920E-02 0. -1.
    10030    2    1    2    0    0  0.00000000000E+00  0.00000000000E+00 -0.10150936810E+04  0.29230903475E+04  0.27411752950E+04 0.  0.
        4    1    3    3  502    0  0.19023319326E+03  0.96257375840E+03 -0.15280141695E+04  0.18159201037E+04  0.12699999809E+01 0. -1.
       -4    1    3    3    0  502 -0.19023319326E+03 -0.96257375840E+03  0.51292048846E+03  0.11071702437E+04  0.12699999809E+01 0.  1.
</event>
<event>
 5   0  0.1878160E-05  0.2702132E+04  0.7818609E-02  0.8334314E-01
       -2   -1    0    0    0  501  0.00000000000E+00  0.00000000000E+00  0.73779342492E+03  0.73779342492E+03  0.25500000920E-02 0. -1.
        2   -1    0    0  501    0  0.00000000000E+00  0.00000000000E+00 -0.24741060007E+04  0.24741060007E+04  0.25500000920E-02 0.  1.
    10030    2    1    2    0    0  0.00000000000E+00  0.00000000000E+00 -0.17363125758E+04  0.32118994256E+04  0.27021318546E+04 0.  0.
        1    1    3    3  502    0  0.23698009329E+03  0.97398589926E+03  0.20859027503E+03  0.10238740154E+04  0.50400001928E-02 0. -1.
       -1    1    3    3    0  502 -0.23698009329E+03 -0.97398589926E+03 -0.19449028508E+04  0.21880254102E+04  0.50400001928E-02 0.  1.
</event>
<event>
 5   0  0.1931119E-05  0.2678949E+04  0.7818609E-02  0.8341868E-01
        2   -1    0    0  501    0  0.00000000000E+00  0.00000000000E+00  0.99543217886E+03  0.99543217886E+03  0.25500000920E-02 0. -1.
       -2   -1    0    0    0  501  0.00000000000E+00  0.00000000000E+00 -0.18024254184E+04  0.18024254184E+04  0.25500000920E-02 0.  1.
    10030    2    1    2    0    0  0.00000000000E+00  0.00000000000E+00 -0.80699323957E+03  0.27978575973E+04  0.26789492429E+04 0.  0.
        3    1    3    3  502    0 -0.50501269105E+03  0.78201873862E+03  0.60237314651E+03  0.11088032032E+04  0.10100000352E+00 0. -1.
       -3    1    3    3    0  502  0.50501269105E+03 -0.78201873862E+03 -0.14093663861E+04  0.16890543941E+04  0.10100000352E+00 0.  1.
</event>
<event>
 5   0  0.1788003E-05  0.2749683E+04  0.7818609E-02  0.8319062E-01
       -2   -1    0    0    0  501  0.00000000000E+00  0.00000000000E+00  0.99514816458E+03  0.99514816458E+03  0.25500000920E-02 0. -1.
        2   -1    0    0  501    0  0.00000000000E+00  0.00000000000E+00 -0.18994041141E+04  0.18994041141E+04  0.25500000920E-02 0.  1.
    10030    2    1    2    0    0  0.00000000000E+00  0.00000000000E+00 -0.90425594950E+03  0.28945522787E+04  0.27496825402E+04 0.  0.
        2    1    3    3  502    0  0.75913335487E+03 -0.96761079464E+03 -0.10990242139E+04  0.16493660367E+04  0.25500000920E-02 0.  1.
       -2    1    3    3    0  502 -0.75913335487E+03  0.96761079464E+03  0.19476826436E+03  0.12451862420E+04  0.25500000920E-02 0. -1.
</event>
<event>
 5   0  0.1878160E-05  0.2062632E+04  0.7818609E-02  0.8577885E-01
       -2   -1    0    0    0  501  0.00000000000E+00  0.00000000000E+00  0.43300046173E+03  0.43300046174E+03  0.25500000920E-02 0.  1.
        2   -1    0    0  501    0  0.00000000000E+00  0.00000000000E+00 -0.24563767809E+04  0.24563767809E+04  0.25500000920E-02 0. -1.
    10030    2    1    2    0    0  0.00000000000E+00  0.00000000000E+00 -0.20233763191E+04  0.28893772426E+04  0.20626316010E+04 0.  0.
        1    1    3    3  502    0  0.28678696983E+03  0.60865895312E+02  0.37339769652E+03  0.47473915266E+03  0.50400001928E-02 0.  1.
       -1    1    3    3    0  502 -0.28678696983E+03 -0.60865895312E+02 -0.23967740157E+04  0.24146380900E+04  0.50400001928E-02 0. -1.
</event>
<event>
 5   0  0.1826851E-05  0.2688268E+04  0.7818609E-02  0.8338822E-01
        2   -1    0    0  501    0  0.00000000000E+00  0.00000000000E+00  0.21204260278E+04  0.21204260278E+04  0.25500000920E-02 0. -1.
       -2   -1    0    0    0  501  0.00000000000E+00  0.00000000000E+00 -0.85204369545E+03  0.85204369545E+03  0.25500000920E-02 0.  1.
    10030    2    1    2    0    0  0.00000000000E+00  0.00000000000E+00  0.12683823324E+04  0.29724697233E+04  0.26882675675E+04 0.  0.
        5    1    3    3  502    0  0.33895186187E+03 -0.10298220262E+04 -0.24431790661E+03  0.11113663212E+04  0.46999998093E+01 0.  1.
       -5    1    3    3    0  502 -0.33895186187E+03  0.10298220262E+04  0.15127002390E+04  0.18611034021E+04  0.46999998093E+01 0. -1.
</event>
<event>
 5   0  0.1788003E-05  0.2651559E+04  0.7818609E-02  0.8350896E-01
        2   -1    0    0  501    0  0.00000000000E+00  0.00000000000E+00  0.13269402153E+04  0.13269402153E+04  0.25500000920E-02 0. -1.
       -2   -1    0    0    0  501  0.00000000000E+00  0.00000000000E+00 -0.13246193019E+04  0.13246193019E+04  0.25500000920E-02 0.  1.
    10030    2    1    2    0    0  0.00000000000E+00  0.00000000000E+00  0.23209133966E+01  0.26515595173E+04  0.26515585015E+04 0.  0.
        2    1    3    3  502    0  0.99211390738E+03  0.24720380345E+03  0.84513405924E+03  0.13265184898E+04  0.25500000920E-02 0. -1.
       -2    1    3    3    0  502 -0.99211390738E+03 -0.24720380345E+03 -0.84281314585E+03  0.13250410275E+04  0.25500000920E-02 0.  1.
</event>
<event>
 5   0  0.7351590E-06  0.2676361E+04  0.7818609E-02  0.8342716E-01
        1   -1    0    0  501    0  0.00000000000E+00  0.00000000000E+00  0.13282622377E+04  0.13282622377E+04  0.50400001928E-02 0. -1.
       -1   -1    0    0    0  501  0.00000000000E+00  0.00000000000E+00 -0.13481724175E+04  0.13481724175E+04  0.50400001928E-02 0.  1.
    10030    2    1    2    0    0  0.00000000000E+00  0.00000000000E+00 -0.19910179806E+02  0.26764346552E+04  0.26763605976E+04 0.  0.
        3    1    3    3  502    0  0.38925607056E+03  0.57594569402E+02 -0.12890092771E+04  0.13477322989E+04  0.10100000352E+00 0.  1.
       -3    1    3    3    0  502 -0.38925607056E+03 -0.57594569402E+02  0.12690990973E+04  0.13287023563E+04  0.10100000352E+00 0. -1.
</event>
<event>
 5   0  0.7348964E-06  0.2573922E+04  0.7818609E-02  0.8377113E-01
       -1   -1    0    0    0  501  0.00000000000E+00  0.00000000000E+00  0.11267374731E+04  0.11267374731E+04  0.50400001928E-02 0. -1.
        1   -1    0    0  501    0  0.00000000000E+00  0.00000000000E+00 -0.14699689659E+04  0.14699689660E+04  0.50400001928E-02 0.  1.
    10030    2    1    2    0    0  0.00000000000E+00  0.00000000000E+00 -0.34323149285E+03  0.25967064391E+04  0.25739223906E+04 0.  0.
        1    1    3    3  502    0 -0.74095079226E+03 -0.77961115701E+03 -0.88460177206E+03  0.13925953927E+04  0.50400001928E-02 0.  1.
       -1    1    3    3    0  502  0.74095079226E+03  0.77961115701E+03  0.54137027921E+03  0.12041110463E+04  0.50400001928E-02 0. -1.
</event>
<event>
 5   0  0.1788003E-05  0.2706985E+04  0.7818609E-02  0.8332742E-01
       -2   -1    0    0    0  501  0.00000000000E+00  0.00000000000E+00  0.10860226205E+04  0.10860226205E+04  0.25500000920E-02 0. -1.
        2   -1    0    0  501    0  0.00000000000E+00  0.00000000000E+00 -0.16868363939E+04  0.16868363939E+04  0.25500000920E-02 0.  1.
    10030    2    1    2    0    0  0.00000000000E+00  0.00000000000E+00 -0.60081377339E+03  0.27728590144E+04  0.27069853941E+04 0.  0.
        2    1    3    3  502    0 -0.10495953793E+04  0.81014900685E+03 -0.21850738399E+02  0.13260728971E+04  0.25500000920E-02 0.  1.
       -2    1    3    3    0  502  0.10495953793E+04 -0.81014900685E+03 -0.57896303499E+03  0.14467861174E+04  0.25500000920E-02 0. -1.
</event>
<event>
 5   0  0.1826851E-05  0.2595708E+04  0.7818609E-02  0.8369660E-01
       -2   -1    0    0    0  501  0.00000000000E+00  0.00000000000E+00  0.12279405162E+04  0.12279405162E+04  0.25500000920E-02 0. -1.
        2   -1    0    0  501    0  0.00000000000E+00  0.00000000000E+00 -0.13717484454E+04  0.13717484454E+04  0.25500000920E-02 0.  1.
    10030    2    1    2    0    0  0.00000000000E+00  0.00000000000E+00 -0.14380792915E+03  0.25996889616E+04  0.25957083766E+04 0.  0.
        5    1    3    3  502    0  0.16259328421E+03  0.32460219696E+03 -0.13198485936E+04  0.13688774826E+04  0.46999998093E+01 0.  1.
       -5    1    3    3    0  502 -0.16259328421E+03 -0.32460219696E+03  0.11760406645E+04  0.12308114790E+04  0.46999998093E+01 0. -1.
</event>
<event>
 5   0  0.1826851E-05  0.2700385E+04  0.7818609E-02  0.8334880E-01
       -2   -1    0    0    0  501  0.00000000000E+00  0.00000000000E+00  0.10329487243E+04  0.10329487243E+04  0.25500000920E-02 0. -1.
        2   -1    0    0  501    0  0.00000000000E+00  0.00000000000E+00 -0.17648691406E+04  0.17648691406E+04  0.25500000920E-02 0.  1.
    10030    2    1    2    0    0  0.00000000000E+00  0.00000000000E+00 -0.73192041630E+03  0.27978178649E+04  0.27003846595E+04 0.  0.
        5    1    3    3  502    0  0.18956431567E+03  0.11322011319E+04  0.37044738595E+03  0.12062617414E+04  0.46999998093E+01 0. -1.
       -5    1    3    3    0  502 -0.18956431567E+03 -0.11322011319E+04 -0.11023678022E+04  0.15915561235E+04  0.46999998093E+01 0.  1.
</event>
<event>
 5   0  0.7754912E-06  0.2706179E+04  0.7818609E-02  0.8333003E-01
        1   -1    0    0  501    0  0.00000000000E+00  0.00000000000E+00  0.21418268215E+04  0.21418268215E+04  0.50400001928E-02 0.  1.
       -1   -1    0    0    0  501  0.00000000000E+00  0.00000000000E+00 -0.85480838043E+03  0.85480838045E+03  0.50400001928E-02 0. -1.
    10030    2    1    2    0    0  0.00000000000E+00  0.00000000000E+00  0.12870184411E+04  0.29966352020E+04  0.27061792376E+04 0.  0.
        4    1    3    3  502    0 -0.10135877067E+04 -0.95858333582E+02 -0.34338336460E+03  0.10744592162E+04  0.12699999809E+01 0. -1.
       -4    1    3    3    0  502  0.10135877067E+04  0.95858333582E+02  0.16304018057E+04  0.19221759858E+04  0.12699999809E+01 0.  1.
</event>
<event>
 5   0  0.6175875E-06  0.3025534E+04  0.7818609E-02  0.8236477E-01
       -3   -1    0    0    0  501  0.00000000000E+00  0.00000000000E+00  0.15598983237E+04  0.15598983270E+04  0.10100000352E+00 0. -1.
        3   -1    0    0  501    0  0.00000000000E+00  0.00000000000E+00 -0.14670600720E+04  0.14670600754E+04  0.10100000352E+00 0.  1.
    10030    2    1    2    0    0  0.00000000000E+00  0.00000000000E+00  0.92838251749E+02  0.30269584024E+04  0.30255343708E+04 0.  0.
        2    1    3    3  502    0  0.21113592669E+03 -0.91936161887E+03  0.12296254981E+04  0.15497687026E+04  0.25500000920E-02 0. -1.
       -2    1    3    3    0  502 -0.21113592669E+03  0.91936161887E+03 -0.11367872464E+04  0.14771896999E+04  0.25500000920E-02 0.  1.
</event>
<event>
 5   0  0.1878160E-05  0.2691163E+04  0.7818609E-02  0.8337878E-01
       -2   -1    0    0    0  501  0.00000000000E+00  0.00000000000E+00  0.11532405201E+04  0.11532405201E+04  0.25500000920E-02 0.  1.
        2   -1    0    0  501    0  0.00000000000E+00  0.00000000000E+00 -0.15700013330E+04  0.15700013330E+04  0.25500000920E-02 0. -1.
    10030    2    1    2    0    0  0.00000000000E+00  0.00000000000E+00 -0.41676081292E+03  0.27232418531E+04  0.26911626884E+04 0.  0.
        1    1    3    3  502    0  0.70644495593E+03 -0.10042025989E+04 -0.76548986391E+03  0.14468801150E+04  0.50400001928E-02 0. -1.
       -1    1    3    3    0  502 -0.70644495593E+03  0.10042025989E+04  0.34872905099E+03  0.12763617381E+04  0.50400001928E-02 0.  1.
</event>
<event>
 5   0  0.1881699E-05  0.2684974E+04  0.7818609E-02  0.8339897E-01
        2   -1    0    0  501    0  0.00000000000E+00  0.00000000000E+00  0.27755358392E+04  0.27755358392E+04  0.25500000920E-02 0.  1.
       -2   -1    0    0    0  501  0.00000000000E+00  0.00000000000E+00 -0.64934170886E+03  0.64934170886E+03  0.25500000920E-02 0. -1.
    10030    2    1    2    0    0  0.00000000000E+00  0.00000000000E+00  0.21261941304E+04  0.34248775481E+04  0.26849738806E+04 0.  0.
        4    1    3    3  502    0  0.75089384985E+03 -0.76055770334E+03  0.20993609520E+04  0.23557605170E+04  0.12699999809E+01 0.  1.
       -4    1    3    3    0  502 -0.75089384985E+03  0.76055770334E+03  0.26833178411E+02  0.10691170311E+04  0.12699999809E+01 0. -1.
</event>
<event>
 5   0  0.1788003E-05  0.2685737E+04  0.7818609E-02  0.8339648E-01
        2   -1    0    0  501    0  0.00000000000E+00  0.00000000000E+00  0.17247914498E+04  0.17247914498E+04  0.25500000920E-02 0. -1.
       -2   -1    0    0    0  501  0.00000000000E+00  0.00000000000E+00 -0.10455155058E+04  0.10455155058E+04  0.25500000920E-02 0.  1.
    10030    2    1    2    0    0  0.00000000000E+00  0.00000000000E+00  0.67927594408E+03  0.27703069556E+04  0.26857372954E+04 0.  0.
        2    1    3    3  502    0 -0.11233908214E+04 -0.67896575255E+03  0.47351979287E+02  0.13134853028E+04  0.25500000920E-02 0.  1.
       -2    1    3    3    0  502  0.11233908214E+04  0.67896575255E+03  0.63192396480E+03  0.14568216528E+04  0.25500000920E-02 0. -1.
</event>
<event>
 5   0  0.1788003E-05  0.2711965E+04  0.7818609E-02  0.8331133E-01
        2   -1    0    0  501    0  0.00000000000E+00  0.00000000000E+00  0.20874139788E+04  0.20874139788E+04  0.25500000920E-02 0. -1.
       -2   -1    0    0    0  501  0.00000000000E+00  0.00000000000E+00 -0.88084488012E+03  0.88084488013E+03  0.25500000920E-02 0.  1.
    10030    2    1    2    0    0  0.00000000000E+00  0.00000000000E+00  0.12065690986E+04  0.29682588589E+04  0.27119645395E+04 0.  0.
        2    1    3    3  502    0  0.60566474234E+03 -0.71374574056E+02 -0.72227077485E+03  0.94530375126E+03  0.25500000920E-02 0.  1.
       -2    1    3    3    0  502 -0.60566474234E+03  0.71374574056E+02  0.19288398735E+04  0.20229551076E+04  0.25500000920E-02 0. -1.
</event>
<event>
 5   0  0.6804685E-06  0.2577472E+04  0.7818609E-02  0.8375894E-01
       -1   -1    0    0    0  501  0.00000000000E+00  0.00000000000E+00  0.13241532231E+04  0.13241532231E+04  0.50400001928E-02 0. -1.
        1   -1    0    0  501    0  0.00000000000E+00  0.00000000000E+00 -0.12542663246E+04  0.12542663246E+04  0.50400001928E-02 0.  1.
    10030    2    1    2    0    0  0.00000000000E+00  0.00000000000E+00  0.69886898529E+02  0.25784195477E+04  0.25774722473E+04 0.  0.
        2    1    3    3  502    0  0.80961871608E+03 -0.70864326018E+03  0.74455813291E+03  0.13084435597E+04  0.25500000920E-02 0. -1.
       -2    1    3    3    0  502 -0.80961871608E+03  0.70864326018E+03 -0.67467123438E+03  0.12699759880E+04  0.25500000920E-02 0.  1.
</event>
<event>
 5   0  0.7351590E-06  0.2684805E+04  0.7818609E-02  0.8339952E-01
       -1   -1    0    0    0  501  0.00000000000E+00  0.00000000000E+00  0.15090620564E+04  0.15090620564E+04  0.50400001928E-02 0.  1.
        1   -1    0    0  501    0  0.00000000000E+00  0.00000000000E+00 -0.11941488975E+04  0.11941488976E+04  0.50400001928E-02 0. -1.
    10030    2    1    2    0    0  0.00000000000E+00  0.00000000000E+00  0.31491315883E+03  0.27032109539E+04  0.26848052376E+04 0.  0.
        3    1    3    3  502    0 -0.19797584462E+03 -0.11798492696E+04 -0.45565646488E+03  0.12801802835E+04  0.10100000352E+00 0. -1.
       -3    1    3    3    0  502  0.19797584462E+03  0.11798492696E+04  0.77056962371E+03  0.14230306705E+04  0.10100000352E+00 0.  1.
</event>
<event>
 5   0  0.1826851E-05  0.2806441E+04  0.7818609E-02  0.8301271E-01
        2   -1    0    0  501    0  0.00000000000E+00  0.00000000000E+00  0.11453867454E+04  0.11453867454E+04  0.25500000920E-02 0.  1.
       -2   -1    0    0    0  501  0.00000000000E+00  0.00000000000E+00 -0.17190948389E+04  0.17190948389E+04  0.25500000920E-02 0. -1.
    10030    2    1    2    0    0  0.00000000000E+00  0.00000000000E+00 -0.57370809351E+03  0.28644815842E+04  0.28064414781E+04 0.  0.
        5    1    3    3  502    0 -0.27951918234E+03  0.13676904076E+04 -0.14143537333E+03  0.14031158467E+04  0.46999998093E+01 0. -1.
       -5    1    3    3    0  502  0.27951918234E+03 -0.13676904076E+04 -0.43227272018E+03  0.14613657376E+04  0.46999998093E+01 0.  1.
</event>
<event>
 5   0  0.1878160E-05  0.2677849E+04  0.7818609E-02  0.8342228E-01
        2   -1    0    0  501    0  0.00000000000E+00  0.00000000000E+00  0.19110797830E+04  0.19110797830E+04  0.25500000920E-02 0.  1.
       -2   -1    0    0    0  501  0.00000000000E+00  0.00000000000E+00 -0.93806606368E+03  0.93806606369E+03  0.25500000920E-02 0. -1.
    10030    2    1    2    0    0  0.00000000000E+00  0.00000000000E+00  0.97301371934E+03  0.28491458467E+04  0.26778492037E+04 0.  0.
        1    1    3    3  502    0  0.73936204660E+03 -0.96207988672E+03 -0.11580160200E+03  0.12188781545E+04  0.50400001928E-02 0. -1.
       -1    1    3    3    0  502 -0.73936204660E+03  0.96207988672E+03  0.10888153213E+04  0.16302676922E+04  0.50400001928E-02 0.  1.
</event>
<event>
 5   0  0.7754912E-06  0.2745568E+04  0.7818609E-02  0.8320369E-01
       -1   -1    0    0    0  501  0.00000000000E+00  0.00000000000E+00  0.78448336903E+03  0.78448336904E+03  0.50400001928E-02 0. -1.
        1   -1    0    0  501    0  0.00000000000E+00  0.00000000000E+00 -0.24022633794E+04  0.24022633794E+04  0.50400001928E-02 0.  1.
    10030    2    1    2    0    0  0.00000000000E+00  0.00000000000E+00 -0.16177800104E+04  0.31867467485E+04  0.27455678241E+04 0.  0.
        4    1    3    3  502    0 -0.48455714596E+03 -0.86433943158E+03 -0.19116384588E+04  0.21531933240E+04  0.12699999809E+01 0.  1.
       -4    1    3    3    0  502  0.48455714596E+03  0.86433943158E+03  0.29385844834E+03  0.10335534245E+04  0.12699999809E+01 0. -1.
</event>
<event>
 5   0  0.7351590E-06  0.2601589E+04  0.7818609E-02  0.8367662E-01
        1   -1    0    0  501    0  0.00000000000E+00  0.00000000000E+00  0.15415503876E+04  0.15415503876E+04  0.50400001928E-02 0.  1.
       -1   -1    0    0    0  501  0.00000000000E+00  0.00000000000E+00 -0.10976396461E+04  0.10976396461E+04  0.50400001928E-02 0. -1.
    10030    2    1    2    0    0  0.00000000000E+00  0.00000000000E+00  0.44391074150E+03  0.26391900337E+04  0.26015893772E+04 0.  0.
        3    1    3    3  502    0 -0.11767951226E+04 -0.43702597699E+03 -0.12389475794E+03  0.12614231591E+04  0.10100000352E+00 0. -1.
       -3    1    3    3    0  502  0.11767951226E+04  0.43702597699E+03  0.56780549944E+03  0.13777668745E+04  0.10100000352E+00 0.  1.
</event>
<event>
 5   0  0.1826851E-05  0.2720899E+04  0.7818609E-02  0.8328256E-01
        2   -1    0    0  501    0  0.00000000000E+00  0.00000000000E+00  0.19062927292E+04  0.19062927292E+04  0.25500000920E-02 0. -1.
       -2   -1    0    0    0  501  0.00000000000E+00  0.00000000000E+00 -0.97090199559E+03  0.97090199559E+03  0.25500000920E-02 0.  1.
    10030    2    1    2    0    0  0.00000000000E+00  0.00000000000E+00  0.93539073362E+03  0.28771947248E+04  0.27208994211E+04 0.  0.
        5    1    3    3  502    0  0.93038395202E+03 -0.95819840283E+03  0.19389565079E+03  0.13495836731E+04  0.46999998093E+01 0.  1.
       -5    1    3    3    0  502 -0.93038395202E+03  0.95819840283E+03  0.74149508284E+03  0.15276110517E+04  0.46999998093E+01 0. -1.
</event>
<event>
 5   0  0.6175875E-06  0.2723990E+04  0.7818609E-02  0.8327263E-01
        4   -1    0    0  501    0  0.00000000000E+00  0.00000000000E+00  0.24636356506E+04  0.24636359780E+04  0.12699999809E+01 0. -1.
       -4   -1    0    0    0  501  0.00000000000E+00  0.00000000000E+00 -0.75296356655E+03  0.75296463759E+03  0.12699999809E+01 0.  1.
    10030    2    1    2    0    0  0.00000000000E+00  0.00000000000E+00  0.17106720841E+04  0.32166006155E+04  0.27239898202E+04 0.  0.
        3    1    3    3  502    0 -0.10466848549E+04 -0.71134531965E+03  0.26083325625E+03  0.12921282239E+04  0.10100000352E+00 0.  1.
       -3    1    3    3    0  502  0.10466848549E+04  0.71134531965E+03  0.14498388278E+04  0.19244723916E+04  0.10100000352E+00 0. -1.
</event>
<event>
 5   0  0.1788003E-05  0.2656027E+04  0.7818609E-02  0.8349415E-01
       -2   -1    0    0    0  501  0.00000000000E+00  0.00000000000E+00  0.90252810538E+03  0.90252810538E+03  0.25500000920E-02 0.  1.
        2   -1    0    0  501    0  0.00000000000E+00  0.00000000000E+00 -0.19540879803E+04  0.19540879803E+04  0.25500000920E-02 0. -1.
    10030    2    1    2    0    0  0.00000000000E+00  0.00000000000E+00 -0.10515598749E+04  0.28566160857E+04  0.26560265982E+04 0.  0.
        2    1    3    3  502    0  0.98912434099E+03 -0.84022948247E+03 -0.82858634363E+03  0.15397752674E+04  0.25500000920E-02 0. -1.
       -2    1    3    3    0  502 -0.98912434099E+03  0.84022948247E+03 -0.22297353130E+03  0.13168408183E+04  0.25500000920E-02 0.  1.
</event>
<event>
 5   0  0.1881699E-05  0.2736022E+04  0.7818609E-02  0.8323411E-01
        2   -1    0    0  501    0  0.00000000000E+00  0.00000000000E+00  0.10309396154E+04  0.10309396154E+04  0.25500000920E-02 0. -1.
       -2   -1    0    0    0  501  0.00000000000E+00  0.00000000000E+00 -0.18152897527E+04  0.18152897527E+04  0.25500000920E-02 0.  1.
    10030    2    1    2    0    0  0.00000000000E+00  0.00000000000E+00 -0.78435013727E+03  0.28462293681E+04  0.27360220171E+04 0.  0.
        4    1    3    3  502    0  0.77234290145E+03 -0.10821478206E+04 -0.72748600797E+03  0.15155180526E+04  0.12699999809E+01 0.  1.
       -4    1    3    3    0  502 -0.77234290145E+03  0.10821478206E+04 -0.56864129299E+02  0.13307113155E+04  0.12699999809E+01 0. -1.
</event>
<event>
 5   0  0.7348964E-06  0.2702548E+04  0.7818609E-02  0.8334179E-01
       -1   -1    0    0    0  501  0.00000000000E+00  0.00000000000E+00  0.12807059557E+04  0.12807059557E+04  0.50400001928E-02 0. -1.
        1   -1    0    0  501    0  0.00000000000E+00  0.00000000000E+00 -0.14257307528E+04  0.14257307528E+04  0.50400001928E-02 0.  1.
    10030    2    1    2    0    0  0.00000000000E+00  0.00000000000E+00 -0.14502479710E+03  0.27064367085E+04  0.27025483280E+04 0.  0.
        1    1    3    3  502    0  0.11462718377E+04 -0.26921602606E+03  0.59140863969E+03  0.13176420507E+04  0.50400001928E-02 0. -1.
       -1    1    3    3    0  502 -0.11462718377E+04  0.26921602606E+03 -0.73643343679E+03  0.13887946578E+04  0.50400001928E-02 0.  1.
</event>
<event>
 5   0  0.7348964E-06  0.2767118E+04  0.7818609E-02  0.8313550E-01
        1   -1    0    0  501    0  0.00000000000E+00  0.00000000000E+00  0.21561521063E+04  0.21561521063E+04  0.50400001928E-02 0. -1.
       -1   -1    0    0    0  501  0.00000000000E+00  0.00000000000E+00 -0.88780139688E+03  0.88780139690E+03  0.50400001928E-02 0.  1.
    10030    2    1    2    0    0  0.00000000000E+00  0.00000000000E+00  0.12683507095E+04  0.30439535032E+04  0.27671175269E+04 0.  0.
        1    1    3    3  502    0  0.44402642021E+03  0.99617721989E+03 -0.30228940370E+03  0.11317717963E+04  0.50400001928E-02 0.  1.
       -1    1    3    3    0  502 -0.44402642021E+03 -0.99617721989E+03  0.15706401132E+04  0.19121817069E+04  0.50400001928E-02 0. -1.
</event>
<event>
 5   0  0.7600052E-06  0.2669817E+04  0.7818609E-02  0.8344865E-01
        1   -1    0    0  501    0  0.00000000000E+00  0.00000000000E+00  0.16268355508E+04  0.16268355508E+04  0.50400001928E-02 0.  1.
       -1   -1    0    0    0  501  0.00000000000E+00  0.00000000000E+00 -0.10953664892E+04  0.10953664893E+04  0.50400001928E-02 0. -1.
    10030    2    1    2    0    0  0.00000000000E+00  0.00000000000E+00  0.53146906160E+03  0.27222020401E+04  0.26698173315E+04 0.  0.
        5    1    3    3  502    0  0.61408257114E+03  0.76882078222E+03 -0.65406104074E+03  0.11815247498E+04  0.46999998093E+01 0. -1.
       -5    1    3    3    0  502 -0.61408257114E+03 -0.76882078222E+03  0.11855301023E+04  0.15406772903E+04  0.46999998093E+01 0.  1.
</event>
<event>
 5   0  0.1878160E-05  0.2756886E+04  0.7818609E-02  0.8316780E-01
       -2   -1    0    0    0  501  0.00000000000E+00  0.00000000000E+00  0.11060854562E+04  0.11060854562E+04  0.25500000920E-02 0.  1.
        2   -1    0    0  501    0  0.00000000000E+00  0.00000000000E+00 -0.17178651790E+04  0.17178651790E+04  0.25500000920E-02 0. -1.
    10030    2    1    2    0    0  0.00000000000E+00  0.00000000000E+00 -0.61177972275E+03  0.28239506352E+04  0.27568864251E+04 0.  0.
        1    1    3    3  502    0 -0.63096075031E+03  0.17658919711E+02  0.94935157981E+03  0.11400402309E+04  0.50400001928E-02 0.  1.
       -1    1    3    3    0  502  0.63096075031E+03 -0.17658919711E+02 -0.15611313026E+04  0.16839104043E+04  0.50400001928E-02 0. -1.
</event>
<event>
 5   0  0.1881699E-05  0.2720995E+04  0.7818609E-02  0.8328225E-01
        2   -1    0    0  501    0  0.00000000000E+00  0.00000000000E+00  0.18950751151E+04  0.18950751151E+04  0.25500000920E-02 0.  1.
       -2   -1    0    0    0  501  0.00000000000E+00  0.00000000000E+00 -0.97671805121E+03  0.97671805121E+03  0.25500000920E-02 0. -1.
    10030    2    1    2    0    0  0.00000000000E+00  0.00000000000E+00  0.91835706389E+03  0.28717931663E+04  0.27209954600E+04 0.  0.
        4    1    3    3  502    0  0.27862626101E+03  0.38388758193E+03 -0.88661661955E+03  0.10055311591E+04  0.12699999809E+01 0. -1.
       -4    1    3    3    0  502 -0.27862626101E+03 -0.38388758193E+03  0.18049736834E+04  0.18662620072E+04  0.12699999809E+01 0.  1.
</event>
<event>
 5   0  0.7754912E-06  0.2900531E+04  0.7818609E-02  0.8272720E-01
       -1   -1    0    0    0  501  0.00000000000E+00  0.00000000000E+00  0.10663305820E+04  0.10663305820E+04  0.50400001928E-02 0. -1.
        1   -1    0    0  501    0  0.00000000000E+00  0.00000000000E+00 -0.19724366863E+04  0.19724366863E+04  0.50400001928E-02 0.  1.
    10030    2    1    2    0    0  0.00000000000E+00  0.00000000000E+00 -0.90610610428E+03  0.30387672684E+04  0.29005306823E+04 0.  0.
        4    1    3    3  502    0 -0.10158933301E+04 -0.41205522416E+03 -0.14477440587E+04  0.18159827197E+04  0.12699999809E+01 0.  1.
       -4    1    3    3    0  502  0.10158933301E+04  0.41205522416E+03  0.54163795445E+03  0.12227845486E+04  0.12699999809E+01 0. -1.
</event>
<event>
 5   0  0.7600052E-06  0.2691047E+04  0.7818609E-02  0.8337916E-01
        1   -1    0    0  501    0  0.00000000000E+00  0.00000000000E+00  0.18542193158E+04  0.18542193158E+04  0.50400001928E-02 0. -1.
       -1   -1    0    0    0  501  0.00000000000E+00  0.00000000000E+00 -0.97638574923E+03  0.97638574924E+03  0.50400001928E-02 0.  1.
    10030    2    1    2    0    0  0.00000000000E+00  0.00000000000E+00  0.87783356661E+03  0.28306050651E+04  0.26910468714E+04 0.  0.
        5    1    3    3  502    0  0.29575759363E+03 -0.11056493672E+04  0.11830498055E+04  0.16460747278E+04  0.46999998093E+01 0. -1.
       -5    1    3    3    0  502 -0.29575759363E+03  0.11056493672E+04 -0.30521623886E+03  0.11845303372E+04  0.46999998093E+01 0.  1.
</event>
<event>
 5   0  0.1878160E-05  0.2711271E+04  0.7818609E-02  0.8331357E-01
       -2   -1    0    0    0  501  0.00000000000E+00  0.00000000000E+00  0.79295894356E+03  0.79295894357E+03  0.25500000920E-02 0.  1.
        2   -1    0    0  501    0  0.00000000000E+00  0.00000000000E+00 -0.23175815835E+04  0.23175815835E+04  0.25500000920E-02 0. -1.
    10030    2    1    2    0    0  0.00000000000E+00  0.00000000000E+00 -0.15246226399E+04  0.31105405271E+04  0.27112705834E+04 0.  0.
        1    1    3    3  502    0  0.98295669678E+02  0.13418907063E+04 -0.57235581637E+03  0.14621641108E+04  0.50400001928E-02 0.  1.
       -1    1    3    3    0  502 -0.98295669678E+02 -0.13418907063E+04 -0.95226682358E+03  0.16483764163E+04  0.50400001928E-02 0. -1.
</event>
<event>
 5   0  0.7351590E-06  0.2693888E+04  0.7818609E-02  0.8336991E-01
        1   -1    0    0  501    0  0.00000000000E+00  0.00000000000E+00  0.20757423797E+04  0.20757423797E+04  0.50400001928E-02 0.  1.
       -1   -1    0    0    0  501  0.00000000000E+00  0.00000000000E+00 -0.87402847471E+03  0.87402847472E+03  0.50400001928E-02 0. -1.
    10030    2    1    2    0    0  0.00000000000E+00  0.00000000000E+00  0.12017139050E+04  0.29497708545E+04  0.26938878567E+04 0.  0.
        3    1    3    3  502    0 -0.27639872104E+03  0.12642811049E+04  0.19194880203E+03  0.13082993992E+04  0.10100000352E+00 0. -1.
       -3    1    3    3    0  502  0.27639872104E+03 -0.12642811049E+04  0.10097651030E+04  0.16414714553E+04  0.10100000352E+00 0.  1.
</event>
<event>
 5   0  0.1788003E-05  0.2648352E+04  0.7818609E-02  0.8351960E-01
        2   -1    0    0  501    0  0.00000000000E+00  0.00000000000E+00  0.12489040213E+04  0.12489040213E+04  0.25500000920E-02 0. -1.
       -2   -1    0    0    0  501  0.00000000000E+00  0.00000000000E+00 -0.14039845896E+04  0.14039845896E+04  0.25500000920E-02 0.  1.
    10030    2    1    2    0    0  0.00000000000E+00  0.00000000000E+00 -0.15508056827E+03  0.26528886109E+04  0.26483519402E+04 0.  0.
        2    1    3    3  502    0  0.12138704409E+04  0.48099599584E+03  0.14329916865E+03  0.13135346387E+04  0.25500000920E-02 0. -1.
       -2    1    3    3    0  502 -0.12138704409E+04 -0.48099599584E+03 -0.29837973692E+03  0.13393539722E+04  0.25500000920E-02 0.  1.
</event>
<event>
 5   0  0.1788003E-05  0.2681462E+04  0.7818609E-02  0.8341045E-01
       -2   -1    0    0    0  501  0.00000000000E+00  0.00000000000E+00  0.28288066416E+04  0.28288066416E+04  0.25500000920E-02 0. -1.
        2   -1    0    0  501    0  0.00000000000E+00  0.00000000000E+00 -0.63544817090E+03  0.63544817090E+03  0.25500000920E-02 0.  1.
    10030    2    1    2    0    0  0.00000000000E+00  0.00000000000E+00  0.21933584707E+04  0.34642548126E+04  0.26814622923E+04 0.  0.
        2    1    3    3  502    0 -0.11440352142E+04 -0.37411259754E+03  0.33369438766E+03  0.12490511404E+04  0.25500000920E-02 0.  1.
       -2    1    3    3    0  502  0.11440352142E+04  0.37411259754E+03  0.18596640831E+04  0.22152036721E+04  0.25500000920E-02 0. -1.
</event>
<event>
 5   0  0.1881699E-05  0.2747209E+04  0.7818609E-02  0.8319848E-01
       -2   -1    0    0    0  501  0.00000000000E+00  0.00000000000E+00  0.87012715237E+03  0.87012715238E+03  0.25500000920E-02 0. -1.
        2   -1    0    0  501    0  0.00000000000E+00  0.00000000000E+00 -0.21684071474E+04  0.21684071475E+04  0.25500000920E-02 0.  1.
    10030    2    1    2    0    0  0.00000000000E+00  0.00000000000E+00 -0.12982799951E+04  0.30385342998E+04  0.27472094470E+04 0.  0.
        4    1    3    3  502    0 -0.51800851421E+03 -0.12302828986E+04 -0.29098068578E+03  0.13662357790E+04  0.12699999809E+01 0. -1.
       -4    1    3    3    0  502  0.51800851421E+03  0.12302828986E+04 -0.10072993093E+04  0.16722985208E+04  0.12699999809E+01 0.  1.
</event>
<event>
 5   0  0.1826851E-05  0.2602313E+04  0.7818609E-02  0.8367416E-01
        2   -1    0    0  501    0  0.00000000000E+00  0.00000000000E+00  0.26152028328E+04  0.26152028328E+04  0.25500000920E-02 0. -1.
       -2   -1    0    0    0  501  0.00000000000E+00  0.00000000000E+00 -0.64737161372E+03  0.64737161372E+03  0.25500000920E-02 0.  1.
    10030    2    1    2    0    0  0.00000000000E+00  0.00000000000E+00  0.19678312191E+04  0.32625744465E+04  0.26023128775E+04 0.  0.
        5    1    3    3  502    0  0.65447604466E+03  0.88563614732E+03  0.11504466768E+03  0.11072252002E+04  0.46999998093E+01 0.  1.
       -5    1    3    3    0  502 -0.65447604466E+03 -0.88563614732E+03  0.18527865514E+04  0.21553492463E+04  0.46999998093E+01 0. -1.
</event>
<event>
 5   0  0.1878160E-05  0.2719524E+04  0.7818609E-02  0.8328698E-01
       -2   -1    0    0    0  501  0.00000000000E+00  0.00000000000E+00  0.75237442619E+03  0.75237442619E+03  0.25500000920E-02 0.  1.
        2   -1    0    0  501    0  0.00000000000E+00  0.00000000000E+00 -0.24574895600E+04  0.24574895600E+04  0.25500000920E-02 0. -1.
    10030    2    1    2    0    0  0.00000000000E+00  0.00000000000E+00 -0.17051151338E+04  0.32098639862E+04  0.27195237065E+04 0.  0.
        1    1    3    3  502    0 -0.92759684406E+03 -0.52607042951E+03  0.14322034956E+03  0.10759637868E+04  0.50400001928E-02 0.  1.
       -1    1    3    3    0  502  0.92759684406E+03  0.52607042951E+03 -0.18483354833E+04  0.21339001994E+04  0.50400001928E-02 0. -1.
</event>
<event>
 5   0  0.1826851E-05  0.2713815E+04  0.7818609E-02  0.8330536E-01
        2   -1    0    0  501    0  0.00000000000E+00  0.00000000000E+00  0.14241442620E+04  0.14241442620E+04  0.25500000920E-02 0.  1.
       -2   -1    0    0    0  501  0.00000000000E+00  0.00000000000E+00 -0.12928450738E+04  0.12928450738E+04  0.25500000920E-02 0. -1.
    10030    2    1    2    0    0  0.00000000000E+00  0.00000000000E+00  0.13129918822E+03  0.27169893358E+04  0.27138149483E+04 0.  0.
        5    1    3    3  502    0 -0.29473774898E+03 -0.55777131510E+03 -0.11370868077E+04  0.13003721309E+04  0.46999998093E+01 0. -1.
       -5    1    3    3    0  502  0.29473774898E+03  0.55777131510E+03  0.12683859959E+04  0.14166172049E+04  0.46999998093E+01 0.  1.
</event>
<event>
 5   0  0.7754912E-06  0.2668191E+04  0.7818609E-02  0.8345400E-01
       -1   -1    0    0    0  501  0.00000000000E+00  0.00000000000E+00  0.17214372423E+04  0.17214372423E+04  0.50400001928E-02 0.  1.
        1   -1    0    0  501    0  0.00000000000E+00  0.00000000000E+00 -0.10339098710E+04  0.10339098710E+04  0.50400001928E-02 0. -1.
    10030    2    1    2    0    0  0.00000000000E+00  0.00000000000E+00  0.68752737130E+03  0.27553471133E+04  0.26681911154E+04 0.  0.
        4    1    3    3  502    0 -0.42366578986E+03  0.52280003747E+03  0.15333455000E+04  0.16745036924E+04  0.12699999809E+01 0.  1.
       -4    1    3    3    0  502  0.42366578986E+03 -0.52280003747E+03 -0.84581812869E+03  0.10808434209E+04  0.12699999809E+01 0. -1.
</event>
<event>
 5   0  0.7600052E-06  0.2694500E+04  0.7818609E-02  0.8336792E-01
       -1   -1    0    0    0  501  0.00000000000E+00  0.00000000000E+00  0.12705577573E+04  0.12705577574E+04  0.50400001928E-02 0.  1.
        1   -1    0    0  501    0  0.00000000000E+00  0.00000000000E+00 -0.14285719759E+04  0.14285719760E+04  0.50400001928E-02 0. -1.
    10030    2    1    2    0    0  0.00000000000E+00  0.00000000000E+00 -0.15801421860E+03  0.26991297333E+04  0.26945004776E+04 0.  0.
        5    1    3    3  502    0 -0.11108393679E+04  0.35976008564E+03  0.59421128059E+03  0.13101528753E+04  0.46999998093E+01 0.  1.
       -5    1    3    3    0  502  0.11108393679E+04 -0.35976008564E+03 -0.75222549919E+03  0.13889768581E+04  0.46999998093E+01 0. -1.
</event>
<event>
 5   0  0.1881699E-05  0.2299466E+04  0.7818609E-02  0.8478132E-01
        2   -1    0    0  501    0  0.00000000000E+00  0.00000000000E+00  0.21061247482E+04  0.21061247482E+04  0.25500000920E-02 0. -1.
       -2   -1    0    0    0  501  0.00000000000E+00  0.00000000000E+00 -0.62763915745E+03  0.62763915746E+03  0.25500000920E-02 0.  1.
    10030    2    1    2    0    0  0.00000000000E+00  0.00000000000E+00  0.14784855907E+04  0.27337639056E+04  0.22994663402E+04 0.  0.
        4    1    3    3  502    0 -0.66662313537E+03  0.33273950647E+03  0.17802892752E+04  0.19299050495E+04  0.12699999809E+01 0. -1.
       -4    1    3    3    0  502  0.66662313537E+03 -0.33273950647E+03 -0.30180368446E+03  0.80385885616E+03  0.12699999809E+01 0.  1.
</event>
<event>
 5   0  0.1788003E-05  0.2703104E+04  0.7818609E-02  0.8333998E-01
       -2   -1    0    0    0  501  0.00000000000E+00  0.00000000000E+00  0.19163908977E+04  0.19163908977E+04  0.25500000920E-02 0.  1.
        2   -1    0    0  501    0  0.00000000000E+00  0.00000000000E+00 -0.95319438054E+03  0.95319438054E+03  0.25500000920E-02 0. -1.
    10030    2    1    2    0    0  0.00000000000E+00  0.00000000000E+00  0.96319651713E+03  0.28695852782E+04  0.27031041671E+04 0.  0.
        2    1    3    3  502    0  0.10358035779E+02 -0.12708003510E+04  0.96998938101E+03  0.15987245605E+04  0.25500000920E-02 0.  1.
       -2    1    3    3    0  502 -0.10358035779E+02  0.12708003510E+04 -0.67928638781E+01  0.12708607178E+04  0.25500000920E-02 0. -1.
</event>
<event>
 5   0  0.7600052E-06  0.2434191E+04  0.7818609E-02  0.8426813E-01
        1   -1    0    0  501    0  0.00000000000E+00  0.00000000000E+00  0.68192048561E+03  0.68192048563E+03  0.50400001928E-02 0. -1.
       -1   -1    0    0    0  501  0.00000000000E+00  0.00000000000E+00 -0.21722783699E+04  0.21722783699E+04  0.50400001928E-02 0.  1.
    10030    2    1    2    0    0  0.00000000000E+00  0.00000000000E+00 -0.14903578843E+04  0.28541988555E+04  0.24341907246E+04 0.  0.
        5    1    3    3  502    0  0.66924558333E+03 -0.89890418862E+03 -0.13018362669E+04  0.17177654517E+04  0.46999998093E+01 0.  1.
       -5    1    3    3    0  502 -0.66924558333E+03  0.89890418862E+03 -0.18852161735E+03  0.11364334038E+04  0.46999998093E+01 0. -1.
</event>
<event>
 5   0  0.7754912E-06  0.2255551E+04  0.7818609E-02  0.8495656E-01
        1   -1    0    0  501    0  0.00000000000E+00  0.00000000000E+00  0.16510293061E+04  0.16510293061E+04  0.50400001928E-02 0. -1.
       -1   -1    0    0    0  501  0.00000000000E+00  0.00000000000E+00 -0.77035407293E+03  0.77035407295E+03  0.50400001928E-02 0.  1.
    10030    2    1    2    0    0  0.00000000000E+00  0.00000000000E+00  0.88067523314E+03  0.24213833790E+04  0.22555506206E+04 0.  0.
        4    1    3    3  502    0 -0.46450580668E+02  0.33602231299E+03 -0.71428859233E+03  0.79074550729E+03  0.12699999809E+01 0.  1.
       -4    1    3    3    0  502  0.46450580668E+02 -0.33602231299E+03  0.15949638255E+04  0.16306378717E+04  0.12699999809E+01 0. -1.
</event>
<event>
 5   0  0.1826851E-05  0.2692452E+04  0.7818609E-02  0.8337458E-01
        2   -1    0    0  501    0  0.00000000000E+00  0.00000000000E+00  0.26012929353E+04  0.26012929353E+04  0.25500000920E-02 0.  1.
       -2   -1    0    0    0  501  0.00000000000E+00  0.00000000000E+00 -0.69670158617E+03  0.69670158617E+03  0.25500000920E-02 0. -1.
    10030    2    1    2    0    0  0.00000000000E+00  0.00000000000E+00  0.19045913491E+04  0.32979945215E+04  0.26924523499E+04 0.  0.
        5    1    3    3  502    0  0.46590163195E+03  0.97380164443E+02  0.24947774102E+04  0.25397802353E+04  0.46999998093E+01 0.  1.
       -5    1    3    3    0  502 -0.46590163195E+03 -0.97380164443E+02 -0.59018606108E+03  0.75821428618E+03  0.46999998093E+01 0. -1.
</event>
<event>
 5   0  0.6804685E-06  0.2693905E+04  0.7818609E-02  0.8336985E-01
       -1   -1    0    0    0  501  0.00000000000E+00  0.00000000000E+00  0.21171249476E+04  0.21171249476E+04  0.50400001928E-02 0.  1.
        1   -1    0    0  501    0  0.00000000000E+00  0.00000000000E+00 -0.85695540413E+03  0.85695540414E+03  0.50400001928E-02 0. -1.
    10030    2    1    2    0    0  0.00000000000E+00  0.00000000000E+00  0.12601695435E+04  0.29740803518E+04  0.26939054661E+04 0.  0.
        2    1    3    3  502    0  0.55541494576E+03 -0.11307056330E+04  0.10373952087E+03  0.12640185436E+04  0.25500000920E-02 0. -1.
       -2    1    3    3    0  502 -0.55541494576E+03  0.11307056330E+04  0.11564300226E+04  0.17100618081E+04  0.25500000920E-02 0.  1.
</event>
<event>
 5   0  0.7351590E-06  0.2692424E+04  0.7818609E-02  0.8337467E-01
       -1   -1    0    0    0  501  0.00000000000E+00  0.00000000000E+00  0.96721724002E+03  0.96721724003E+03  0.50400001928E-02 0. -1.
        1   -1    0    0  501    0  0.00000000000E+00  0.00000000000E+00 -0.18737121301E+04  0.18737121301E+04  0.50400001928E-02 0.  1.
    10030    2    1    2    0    0  0.00000000000E+00  0.00000000000E+00 -0.90649489008E+03  0.28409293701E+04  0.26924239451E+04 0.  0.
        3    1    3    3  502    0 -0.11259271296E+04  0.29745462308E+03  0.25935103418E+03  0.11930859664E+04  0.10100000352E+00 0. -1.
       -3    1    3    3    0  502  0.11259271296E+04 -0.29745462308E+03 -0.11658459243E+04  0.16478434038E+04  0.10100000352E+00 0.  1.
</event>
<event>
 5   0  0.7348964E-06  0.2504756E+04  0.7818609E-02  0.8401293E-01
        1   -1    0    0  501    0  0.00000000000E+00  0.00000000000E+00  0.15765884104E+04  0.15765884104E+04  0.50400001928E-02 0. -1.
       -1   -1    0    0    0  501  0.00000000000E+00  0.00000000000E+00 -0.99483867429E+03  0.99483867430E+03  0.50400001928E-02 0.  1.
    10030    2    1    2    0    0  0.00000000000E+00  0.00000000000E+00  0.58174973612E+03  0.25714270847E+04  0.25047563747E+04 0.  0.
        1    1    3    3  502    0  0.29738312449E+03  0.80774985113E+03 -0.64303947757E+03  0.10744283664E+04  0.50400001928E-02 0.  1.
       -1    1    3    3    0  502 -0.29738312449E+03 -0.80774985113E+03  0.12247892137E+04  0.14969987183E+04  0.50400001928E-02 0. -1.
</event>
<event>
 5   0  0.1878160E-05  0.2239539E+04  0.7818609E-02  0.8502149E-01
        2   -1    0    0  501    0  0.00000000000E+00  0.00000000000E+00  0.19808326650E+04  0.19808326650E+04  0.25500000920E-02 0.  1.
       -2   -1    0    0    0  501  0.00000000000E+00  0.00000000000E+00 -0.63300841094E+03  0.63300841094E+03  0.25500000920E-02 0. -1.
    10030    2    1    2    0    0  0.00000000000E+00  0.00000000000E+00  0.13478242541E+04  0.26138410759E+04  0.22395390040E+04 0.  0.
        1    1    3    3  502    0 -0.95954436910E+03  0.32330501019E+03  0.12319828721E+04  0.15946890992E+04  0.50400001928E-02 0.  1.
       -1    1    3    3    0  502  0.95954436910E+03 -0.32330501019E+03  0.11584138194E+03  0.10191519767E+04  0.50400001928E-02 0. -1.
</event>
<event>
 5   0  0.1931119E-05  0.2780434E+04  0.7818609E-02  0.8309369E-01
       -2   -1    0    0    0  501  0.00000000000E+00  0.00000000000E+00  0.11706278593E+04  0.11706278593E+04  0.25500000920E-02 0. -1.
        2   -1    0    0  501    0  0.00000000000E+00  0.00000000000E+00 -0.16509975133E+04  0.16509975133E+04  0.25500000920E-02 0.  1.
    10030    2    1    2    0    0  0.00000000000E+00  0.00000000000E+00 -0.48036965405E+03  0.28216253726E+04  0.27804342717E+04 0.  0.
        3    1    3    3  502    0 -0.51028260103E+02  0.57724947074E+03  0.10422143952E+04  0.11924897025E+04  0.10100000352E+00 0. -1.
       -3    1    3    3    0  502  0.51028260103E+02 -0.57724947074E+03 -0.15225840492E+04  0.16291356702E+04  0.10100000352E+00 0.  1.
</event>
<event>
 5   0  0.1826851E-05  0.2656568E+04  0.7818609E-02  0.8349236E-01
       -2   -1    0    0    0  501  0.00000000000E+00  0.00000000000E+00  0.14706363403E+04  0.14706363403E+04  0.25500000920E-02 0. -1.
        2   -1    0    0  501    0  0.00000000000E+00  0.00000000000E+00 -0.11997110393E+04  0.11997110393E+04  0.25500000920E-02 0.  1.
    10030    2    1    2    0    0  0.00000000000E+00  0.00000000000E+00  0.27092530098E+03  0.26703473796E+04  0.26565682015E+04 0.  0.
        5    1    3    3  502    0 -0.56067884533E+03  0.11507874509E+04 -0.22083891739E+03  0.12990244194E+04  0.46999998093E+01 0.  1.
       -5    1    3    3    0  502  0.56067884533E+03 -0.11507874509E+04  0.49176421838E+03  0.13713229602E+04  0.46999998093E+01 0. -1.
</event>
<event>
 5   0  0.1881699E-05  0.2651608E+04  0.7818609E-02  0.8350879E-01
        2   -1    0    0  501    0  0.00000000000E+00  0.00000000000E+00  0.11260096644E+04  0.11260096644E+04  0.25500000920E-02 0. -1.
       -2   -1    0    0    0  501  0.00000000000E+00  0.00000000000E+00 -0.15610490738E+04  0.15610490738E+04  0.25500000920E-02 0.  1.
    10030    2    1    2    0    0  0.00000000000E+00  0.00000000000E+00 -0.43503940940E+03  0.26870587382E+04  0.26516080734E+04 0.  0.
        4    1    3    3  502    0 -0.41406264096E+03  0.11207132347E+04 -0.79992838293E+03  0.14378223311E+04  0.12699999809E+01 0. -1.
       -4    1    3    3    0  502  0.41406264096E+03 -0.11207132347E+04  0.36488897353E+03  0.12492364071E+04  0.12699999809E+01 0.  1.
</event>
<event>
 5   0  0.1878160E-05  0.2653632E+04  0.7818609E-02  0.8350208E-01
       -2   -1    0    0    0  501  0.00000000000E+00  0.00000000000E+00  0.96755079627E+03  0.96755079628E+03  0.25500000920E-02 0.  1.
        2   -1    0    0  501    0  0.00000000000E+00  0.00000000000E+00 -0.18194820141E+04  0.18194820141E+04  0.25500000920E-02 0. -1.
    10030    2    1    2    0    0  0.00000000000E+00  0.00000000000E+00 -0.85193121783E+03  0.27870328104E+04  0.26536324324E+04 0.  0.
        1    1    3    3  502    0 -0.29333028847E+03 -0.71412369044E+02  0.93099851882E+03  0.97872397879E+03  0.50400001928E-02 0.  1.
       -1    1    3    3    0  502  0.29333028847E+03  0.71412369044E+02 -0.17829297366E+04  0.18083088316E+04  0.50400001928E-02 0. -1.
</event>
<event>
 5   0  0.6804685E-06  0.2690784E+04  0.7818609E-02  0.8338002E-01
        1   -1    0    0  501    0  0.00000000000E+00  0.00000000000E+00  0.21697352038E+04  0.21697352038E+04  0.50400001928E-02 0.  1.
       -1   -1    0    0    0  501  0.00000000000E+00  0.00000000000E+00 -0.83423966491E+03  0.83423966493E+03  0.50400001928E-02 0. -1.
    10030    2    1    2    0    0  0.00000000000E+00  0.00000000000E+00  0.13354955389E+04  0.30039748687E+04  0.26907836549E+04 0.  0.
        2    1    3    3  502    0  0.80234120745E+03  0.37376597002E+03 -0.46341161641E+03  0.99910096574E+03  0.25500000920E-02 0. -1.
       -2    1    3    3    0  502 -0.80234120745E+03 -0.37376597002E+03  0.17989071553E+04  0.20048739030E+04  0.25500000920E-02 0.  1.
</event>
<event>
 5   0  0.7351590E-06  0.2682368E+04  0.7818609E-02  0.8340749E-01
        1   -1    0    0  501    0  0.00000000000E+00  0.00000000000E+00  0.15848155055E+04  0.15848155056E+04  0.50400001928E-02 0. -1.
       -1   -1    0    0    0  501  0.00000000000E+00  0.00000000000E+00 -0.11350059543E+04  0.11350059543E+04  0.50400001928E-02 0.  1.
    10030    2    1    2    0    0  0.00000000000E+00  0.00000000000E+00  0.44980955121E+03  0.27198214599E+04  0.26823683829E+04 0.  0.
        3    1    3    3  502    0  0.66790521391E+03 -0.57102512462E+03 -0.80245909273E+03  0.11900032241E+04  0.10100000352E+00 0.  1.
       -3    1    3    3    0  502 -0.66790521391E+03  0.57102512462E+03  0.12522686439E+04  0.15298182358E+04  0.10100000352E+00 0. -1.
</event>
<event>
 5   0  0.1826851E-05  0.2683664E+04  0.7818609E-02  0.8340325E-01
        2   -1    0    0  501    0  0.00000000000E+00  0.00000000000E+00  0.24010857117E+04  0.24010857117E+04  0.25500000920E-02 0.  1.
       -2   -1    0    0    0  501  0.00000000000E+00  0.00000000000E+00 -0.74987443406E+03  0.74987443407E+03  0.25500000920E-02 0. -1.
    10030    2    1    2    0    0  0.00000000000E+00  0.00000000000E+00  0.16512112776E+04  0.31509601458E+04  0.26836637563E+04 0.  0.
        5    1    3    3  502    0  0.16826150578E+03 -0.10686917137E+04 -0.10638499687E+03  0.10870849879E+04  0.46999998093E+01 0. -1.
       -5    1    3    3    0  502 -0.16826150578E+03  0.10686917137E+04  0.17575962745E+04  0.20638751579E+04  0.46999998093E+01 0.  1.
</event>
<event>
 5   0  0.1931119E-05  0.2713426E+04  0.7818609E-02  0.8330662E-01
       -2   -1    0    0    0  501  0.00000000000E+00  0.00000000000E+00  0.10615773478E+04  0.10615773478E+04  0.25500000920E-02 0. -1.
        2   -1    0    0  501    0  0.00000000000E+00  0.00000000000E+00 -0.17339009771E+04  0.17339009771E+04  0.25500000920E-02 0.  1.
    10030    2    1    2    0    0  0.00000000000E+00  0.00000000000E+00 -0.67232362937E+03  0.27954783249E+04  0.27134258793E+04 0.  0.
        3    1    3    3  502    0  0.55712436021E+03  0.47658648650E+03 -0.15122367577E+04  0.16805898528E+04  0.10100000352E+00 0.  1.
       -3    1    3    3    0  502 -0.55712436021E+03 -0.47658648650E+03  0.83991312835E+03  0.11148884721E+04  0.10100000352E+00 0. -1.
</event>
<event>
 5   0  0.7754912E-06  0.2701740E+04  0.7818609E-02  0.8334441E-01
       -1   -1    0    0    0  501  0.00000000000E+00  0.00000000000E+00  0.14726608396E+04  0.14726608397E+04  0.50400001928E-02 0.  1.
        1   -1    0    0  501    0  0.00000000000E+00  0.00000000000E+00 -0.12391515312E+04  0.12391515313E+04  0.50400001928E-02 0. -1.
    10030    2    1    2    0    0  0.00000000000E+00  0.00000000000E+00  0.23350930840E+03  0.27118123709E+04  0.27017401315E+04 0.  0.
        4    1    3    3  502    0 -0.46049307083E+03  0.11080386360E+04  0.73958779681E+03  0.14095372323E+04  0.12699999809E+01 0.  1.
       -4    1    3    3    0  502  0.46049307083E+03 -0.11080386360E+04 -0.50607848842E+03  0.13022751386E+04  0.12699999809E+01 0. -1.
</event>
<event>
 5   0  0.7348964E-06  0.2707624E+04  0.7818609E-02  0.8332535E-01
       -1   -1    0    0    0  501  0.00000000000E+00  0.00000000000E+00  0.10857925352E+04  0.10857925352E+04  0.50400001928E-02 0.  1.
        1   -1    0    0  501    0  0.00000000000E+00  0.00000000000E+00 -0.16879900607E+04  0.16879900607E+04  0.50400001928E-02 0. -1.
    10030    2    1    2    0    0  0.00000000000E+00  0.00000000000E+00 -0.60219752546E+03  0.27737825959E+04  0.27076240562E+04 0.  0.
        1    1    3    3  502    0 -0.84169440551E+02  0.15749939175E+03 -0.16758712680E+04  0.16853590300E+04  0.50400001928E-02 0. -1.
       -1    1    3    3    0  502  0.84169440551E+02 -0.15749939175E+03  0.10736737426E+04  0.10884235658E+04  0.50400001928E-02 0.  1.
</event>
<event>
 5   0  0.1826851E-05  0.2703862E+04  0.7818609E-02  0.8333753E-01
        2   -1    0    0  501    0  0.00000000000E+00  0.00000000000E+00  0.12647735589E+04  0.12647735589E+04  0.25500000920E-02 0.  1.
       -2   -1    0    0    0  501  0.00000000000E+00  0.00000000000E+00 -0.14450950749E+04  0.14450950749E+04  0.25500000920E-02 0. -1.
    10030    2    1    2    0    0  0.00000000000E+00  0.00000000000E+00 -0.18032151595E+03  0.27098686338E+04  0.27038624528E+04 0.  0.
        5    1    3    3  502    0 -0.42145925021E+03  0.37838402905E+03 -0.13204435062E+04  0.14368004441E+04  0.46999998093E+01 0. -1.
       -5    1    3    3    0  502  0.42145925021E+03 -0.37838402905E+03  0.11401219903E+04  0.12730681897E+04  0.46999998093E+01 0.  1.
</event>
<event>
 5   0  0.7348964E-06  0.2680469E+04  0.7818609E-02  0.8341370E-01
        1   -1    0    0  501    0  0.00000000000E+00  0.00000000000E+00  0.14724531123E+04  0.14724531123E+04  0.50400001928E-02 0. -1.
       -1   -1    0    0    0  501  0.00000000000E+00  0.00000000000E+00 -0.12198886772E+04  0.12198886772E+04  0.50400001928E-02 0.  1.
    10030    2    1    2    0    0  0.00000000000E+00  0.00000000000E+00  0.25256443510E+03  0.26923417896E+04  0.26804692720E+04 0.  0.
        1    1    3    3  502    0  0.70099005083E+03 -0.94891301140E+03  0.76502810084E+03  0.14060906620E+04  0.50400001928E-02 0. -1.
       -1    1    3    3    0  502 -0.70099005083E+03  0.94891301140E+03 -0.51246366575E+03  0.12862511276E+04  0.50400001928E-02 0.  1.
</event>
<event>
 5   0  0.7348964E-06  0.2649521E+04  0.7818609E-02  0.8351572E-01
       -1   -1    0    0    0  501  0.00000000000E+00  0.00000000000E+00  0.10323831173E+04  0.10323831174E+04  0.50400001928E-02 0. -1.
        1   -1    0    0  501    0  0.00000000000E+00  0.00000000000E+00 -0.16999406975E+04  0.16999406975E+04  0.50400001928E-02 0.  1.
    10030    2    1    2    0    0  0.00000000000E+00  0.00000000000E+00 -0.66755758014E+03  0.27323238148E+04  0.26495207692E+04 0.  0.
        1    1    3    3  502    0 -0.28846525105E+03 -0.12348847439E+04 -0.72894827070E+03  0.14627091691E+04  0.50400001928E-02 0.  1.
       -1    1    3    3    0  502  0.28846525105E+03  0.12348847439E+04  0.61390690552E+02  0.12696146458E+04  0.50400001928E-02 0. -1.
</event>
<event>
 5   0  0.1881699E-05  0.2731309E+04  0.7818609E-02  0.8324917E-01
        2   -1    0    0  501    0  0.00000000000E+00  0.00000000000E+00  0.26434404217E+04  0.26434404217E+04  0.25500000920E-02 0.  1.
       -2   -1    0    0    0  501  0.00000000000E+00  0.00000000000E+00 -0.70552452382E+03  0.70552452382E+03  0.25500000920E-02 0. -1.
    10030    2    1    2    0    0  0.00000000000E+00  0.00000000000E+00  0.19379158979E+04  0.33489649455E+04  0.27313088765E+04 0.  0.
        4    1    3    3  502    0  0.46876026406E+03  0.56402215668E+03  0.23814965460E+04  0.24918636780E+04  0.12699999809E+01 0.  1.
       -4    1    3    3    0  502 -0.46876026406E+03 -0.56402215668E+03 -0.44358064814E+03  0.85710126747E+03  0.12699999809E+01 0. -1.
</event>
<event>
 5   0  0.7351590E-06  0.2654054E+04  0.7818609E-02  0.8350069E-01
        1   -1    0    0  501    0  0.00000000000E+00  0.00000000000E+00  0.21502693228E+04  0.21502693228E+04  0.50400001928E-02 0.  1.
       -1   -1    0    0    0  501  0.00000000000E+00  0.00000000000E+00 -0.81896747115E+03  0.81896747117E+03  0.50400001928E-02 0. -1.
    10030    2    1    2    0    0  0.00000000000E+00  0.00000000000E+00  0.13313018517E+04  0.29692367940E+04  0.26540539781E+04 0.  0.
        3    1    3    3  502    0  0.42507307230E+03  0.10929181071E+04  0.13605803238E+04  0.17962004157E+04  0.10100000352E+00 0.  1.
       -3    1    3    3    0  502 -0.42507307230E+03 -0.10929181071E+04 -0.29278472118E+02  0.11730363783E+04  0.10100000352E+00 0. -1.
</event>
<event>
 5   0  0.7351590E-06  0.2697710E+04  0.7818609E-02  0.8335748E-01
       -1   -1    0    0    0  501  0.00000000000E+00  0.00000000000E+00  0.91415723738E+03  0.91415723739E+03  0.50400001928E-02 0.  1.
        1   -1    0    0  501    0  0.00000000000E+00  0.00000000000E+00 -0.19902585797E+04  0.19902585798E+04  0.50400001928E-02 0. -1.
    10030    2    1    2    0    0  0.00000000000E+00  0.00000000000E+00 -0.10761013424E+04  0.29044158171E+04  0.26977096100E+04 0.  0.
        3    1    3    3  502    0  0.12568451582E+04 -0.24884108042E+02 -0.11571853595E+02  0.12571447365E+04  0.10100000352E+00 0. -1.
       -3    1    3    3    0  502 -0.12568451582E+04  0.24884108042E+02 -0.10645294888E+04  0.16472710807E+04  0.10100000352E+00 0.  1.
</event>
<event>
 5   0  0.7348964E-06  0.2651286E+04  0.7818609E-02  0.8350986E-01
       -1   -1    0    0    0  501  0.00000000000E+00  0.00000000000E+00  0.95851196723E+03  0.95851196725E+03  0.50400001928E-02 0.  1.
        1   -1    0    0  501    0  0.00000000000E+00  0.00000000000E+00 -0.18333933364E+04  0.18333933364E+04  0.50400001928E-02 0. -1.
    10030    2    1    2    0    0  0.00000000000E+00  0.00000000000E+00 -0.87488136913E+03  0.27919053036E+04  0.26512860680E+04 0.  0.
        1    1    3    3  502    0  0.54676450649E+03 -0.11254505379E+04 -0.89854528270E+03  0.15404460276E+04  0.50400001928E-02 0. -1.
       -1    1    3    3    0  502 -0.54676450649E+03  0.11254505379E+04  0.23663913572E+02  0.12514592760E+04  0.50400001928E-02 0.  1.
</event>
<event>
 5   0  0.7600052E-06  0.2720183E+04  0.7818609E-02  0.8328486E-01
       -1   -1    0    0    0  501  0.00000000000E+00  0.00000000000E+00  0.10800298957E+04  0.10800298957E+04  0.50400001928E-02 0. -1.
        1   -1    0    0  501    0  0.00000000000E+00  0.00000000000E+00 -0.17127761711E+04  0.17127761712E+04  0.50400001928E-02 0.  1.
    10030    2    1    2    0    0  0.00000000000E+00  0.00000000000E+00 -0.63274627548E+03  0.27928060668E+04  0.27201834272E+04 0.  0.
        5    1    3    3  502    0  0.38627626935E+02 -0.58516216538E+03  0.94354873444E+03  0.11109514650E+04  0.46999998093E+01 0. -1.
       -5    1    3    3    0  502 -0.38627626935E+02  0.58516216538E+03 -0.15762950099E+04  0.16818546018E+04  0.46999998093E+01 0.  1.
</event>
<event>
 5   0  0.7600052E-06  0.2526032E+04  0.7818609E-02  0.8393770E-01
        1   -1    0    0  501    0  0.00000000000E+00  0.00000000000E+00  0.20232619278E+04  0.20232619278E+04  0.50400001928E-02 0.  1.
       -1   -1    0    0    0  501  0.00000000000E+00  0.00000000000E+00 -0.78843428942E+03  0.78843428943E+03  0.50400001928E-02 0. -1.
    10030    2    1    2    0    0  0.00000000000E+00  0.00000000000E+00  0.12348276384E+04  0.28116962172E+04  0.25260317341E+04 0.  0.
        5    1    3    3  502    0 -0.12585842983E+04  0.54873592892E+02  0.71784771131E+03  0.14499561972E+04  0.46999998093E+01 0. -1.
       -5    1    3    3    0  502  0.12585842983E+04 -0.54873592892E+02  0.51697992708E+03  0.13617400200E+04  0.46999998093E+01 0.  1.
</event>
<event>
 5   0  0.6804685E-06  0.2647823E+04  0.7818609E-02  0.8352136E-01
        1   -1    0    0  501    0  0.00000000000E+00  0.00000000000E+00  0.12216615224E+04  0.12216615224E+04  0.50400001928E-02 0. -1.
       -1   -1    0    0    0  501  0.00000000000E+00  0.00000000000E+00 -0.14347192739E+04  0.14347192740E+04  0.50400001928E-02 0.  1.
    10030    2    1    2    0    0  0.00000000000E+00  0.00000000000E+00 -0.21305775154E+03  0.26563807964E+04  0.26478227527E+04 0.  0.
        2    1    3    3  502    0 -0.62879598182E+03 -0.38534100086E+03  0.99651068573E+03  0.12397199766E+04  0.25500000920E-02 0. -1.
       -2    1    3    3    0  502  0.62879598182E+03  0.38534100086E+03 -0.12095684373E+04  0.14166608197E+04  0.25500000920E-02 0.  1.
</event>
<event>
 5   0  0.6804685E-06  0.2692742E+04  0.7818609E-02  0.8337364E-01
        1   -1    0    0  501    0  0.00000000000E+00  0.00000000000E+00  0.14903301717E+04  0.14903301717E+04  0.50400001928E-02 0.  1.
       -1   -1    0    0    0  501  0.00000000000E+00  0.00000000000E+00 -0.12163172939E+04  0.12163172939E+04  0.50400001928E-02 0. -1.
    10030    2    1    2    0    0  0.00000000000E+00  0.00000000000E+00  0.27401287778E+03  0.27066474655E+04  0.26927416225E+04 0.  0.
        2    1    3    3  502    0  0.32766346279E+03  0.13055306582E+04  0.10617693479E+03  0.13502026462E+04  0.25500000920E-02 0.  1.
       -2    1    3    3    0  502 -0.32766346279E+03 -0.13055306582E+04  0.16783594299E+03  0.13564448194E+04  0.25500000920E-02 0. -1.
</event>
<event>
 5   0  0.6804685E-06  0.2627682E+04  0.7818609E-02  0.8358859E-01
       -1   -1    0    0    0  501  0.00000000000E+00  0.00000000000E+00  0.14131797254E+04  0.14131797254E+04  0.50400001928E-02 0.  1.
        1   -1    0    0  501    0  0.00000000000E+00  0.00000000000E+00 -0.12214849879E+04  0.12214849880E+04  0.50400001928E-02 0. -1.
    10030    2    1    2    0    0  0.00000000000E+00  0.00000000000E+00  0.19169473745E+03  0.26346647134E+04  0.26276817310E+04 0.  0.
        2    1    3    3  502    0  0.28715099555E+03 -0.11618070398E+04 -0.44774329053E+03  0.12777814156E+04  0.25500000920E-02 0. -1.
       -2    1    3    3    0  502 -0.28715099555E+03  0.11618070398E+04  0.63943802798E+03  0.13568832977E+04  0.25500000920E-02 0.  1.
</event>
<event>
 5   0  0.1826851E-05  0.2788880E+04  0.7818609E-02  0.8306729E-01
       -2   -1    0    0    0  501  0.00000000000E+00  0.00000000000E+00  0.79851700889E+03  0.79851700889E+03  0.25500000920E-02 0. -1.
        2   -1    0    0  501    0  0.00000000000E+00  0.00000000000E+00 -0.24350931855E+04  0.24350931855E+04  0.25500000920E-02 0.  1.
    10030    2    1    2    0    0  0.00000000000E+00  0.00000000000E+00 -0.16365761766E+04  0.32336101944E+04  0.27888802964E+04 0.  0.
        5    1    3    3  502    0  0.73838251870E+03  0.67547034338E+03  0.30763120464E+03  0.10469613062E+04  0.46999998093E+01 0. -1.
       -5    1    3    3    0  502 -0.73838251870E+03 -0.67547034338E+03 -0.19442073813E+04  0.21866488882E+04  0.46999998093E+01 0.  1.
</event>
<event>
 5   0  0.7348964E-06  0.1928714E+04  0.7818609E-02  0.8640694E-01
        1   -1    0    0  501    0  0.00000000000E+00  0.00000000000E+00  0.24367874519E+04  0.24367874519E+04  0.50400001928E-02 0.  1.
       -1   -1    0    0    0  501  0.00000000000E+00  0.00000000000E+00 -0.38164370693E+03  0.38164370696E+03  0.50400001928E-02 0. -1.
    10030    2    1    2    0    0  0.00000000000E+00  0.00000000000E+00  0.20551437450E+04  0.28184311589E+04  0.19287141791E+04 0.  0.
        1    1    3    3  502    0 -0.48465401447E+03 -0.32723602194E+03 -0.92981456993E+02  0.59213045790E+03  0.50400001928E-02 0. -1.
       -1    1    3    3    0  502  0.48465401447E+03  0.32723602194E+03  0.21481252020E+04  0.22263007010E+04  0.50400001928E-02 0.  1.
</event>
<event>
 5   0  0.1826851E-05  0.2692214E+04  0.7818609E-02  0.8337536E-01
       -2   -1    0    0    0  501  0.00000000000E+00  0.00000000000E+00  0.96985057181E+03  0.96985057181E+03  0.25500000920E-02 0. -1.
        2   -1    0    0  501    0  0.00000000000E+00  0.00000000000E+00 -0.18683335325E+04  0.18683335325E+04  0.25500000920E-02 0.  1.
    10030    2    1    2    0    0  0.00000000000E+00  0.00000000000E+00 -0.89848296072E+03  0.28381841043E+04  0.26922142150E+04 0.  0.
        5    1    3    3  502    0 -0.38187468637E+03 -0.75446157081E+03  0.65489491827E+03  0.10695559742E+04  0.46999998093E+01 0. -1.
       -5    1    3    3    0  502  0.38187468637E+03  0.75446157081E+03 -0.15533778790E+04  0.17686281302E+04  0.46999998093E+01 0.  1.
</event>
<event>
 5   0  0.7754912E-06  0.2709345E+04  0.7818609E-02  0.8331979E-01
        1   -1    0    0  501    0  0.00000000000E+00  0.00000000000E+00  0.22395289503E+04  0.22395289503E+04  0.50400001928E-02 0.  1.
       -1   -1    0    0    0  501  0.00000000000E+00  0.00000000000E+00 -0.81943007003E+03  0.81943007004E+03  0.50400001928E-02 0. -1.
    10030    2    1    2    0    0  0.00000000000E+00  0.00000000000E+00  0.14200988803E+04  0.30589590204E+04  0.27093448394E+04 0.  0.
        4    1    3    3  502    0 -0.12476788873E+04  0.43219977712E+03  0.36827182281E+03  0.13708118038E+04  0.12699999809E+01 0. -1.
       -4    1    3    3    0  502  0.12476788873E+04 -0.43219977712E+03  0.10518270575E+04  0.16881472166E+04  0.12699999809E+01 0.  1.
</event>
<event>
 5   0  0.1881699E-05  0.2710468E+04  0.7818609E-02  0.8331616E-01
       -2   -1    0    0    0  501  0.00000000000E+00  0.00000000000E+00  0.67627184947E+03  0.67627184948E+03  0.25500000920E-02 0.  1.
        2   -1    0    0  501    0  0.00000000000E+00  0.00000000000E+00 -0.27158599548E+04  0.27158599548E+04  0.25500000920E-02 0. -1.
    10030    2    1    2    0    0  0.00000000000E+00  0.00000000000E+00 -0.20395881053E+04  0.33921318043E+04  0.27104683245E+04 0.  0.
        4    1    3    3  502    0 -0.81373510205E+03  0.16399205435E+03  0.32088127322E+03  0.88995764764E+03  0.12699999809E+01 0.  1.
       -4    1    3    3    0  502  0.81373510205E+03 -0.16399205435E+03 -0.23604693785E+04  0.25021741566E+04  0.12699999809E+01 0. -1.
</event>
<event>
 5   0  0.1878160E-05  0.2712000E+04  0.7818609E-02  0.8331122E-01
        2   -1    0    0  501    0  0.00000000000E+00  0.00000000000E+00  0.10991772889E+04  0.10991772889E+04  0.25500000920E-02 0. -1.
       -2   -1    0    0    0  501  0.00000000000E+00  0.00000000000E+00 -0.16728296381E+04  0.16728296381E+04  0.25500000920E-02 0.  1.
    10030    2    1    2    0    0  0.00000000000E+00  0.00000000000E+00 -0.57365234920E+03  0.27720069269E+04  0.27120002554E+04 0.  0.
        1    1    3    3  502    0 -0.10652700296E+04  0.83875849197E+03 -0.26587127900E+03  0.13816669573E+04  0.50400001928E-02 0.  1.
       -1    1    3    3    0  502  0.10652700296E+04 -0.83875849197E+03 -0.30778107020E+03  0.13903399696E+04  0.50400001928E-02 0. -1.
</event>
<event>
 5   0  0.7351590E-06  0.2699432E+04  0.7818609E-02  0.8335189E-01
        1   -1    0    0  501    0  0.00000000000E+00  0.00000000000E+00  0.13503532962E+04  0.13503532962E+04  0.50400001928E-02 0.  1.
       -1   -1    0    0    0  501  0.00000000000E+00  0.00000000000E+00 -0.13490787403E+04  0.13490787403E+04  0.50400001928E-02 0. -1.
    10030    2    1    2    0    0  0.00000000000E+00  0.00000000000E+00  0.12745559047E+01  0.26994320366E+04  0.26994317357E+04 0.  0.
        3    1    3    3  502    0  0.34151607365E+03  0.10026266374E+04  0.83720148182E+03  0.13501110080E+04  0.10100000352E+00 0.  1.
       -3    1    3    3    0  502 -0.34151607365E+03 -0.10026266374E+04 -0.83592692591E+03  0.13493210286E+04  0.10100000352E+00 0. -1.
</event>
<event>
 5   0  0.1931119E-05  0.2661096E+04  0.7818609E-02  0.8347740E-01
        2   -1    0    0  501    0  0.00000000000E+00  0.00000000000E+00  0.18086169818E+04  0.18086169818E+04  0.25500000920E-02 0.  1.
       -2   -1    0    0    0  501  0.00000000000E+00  0.00000000000E+00 -0.97884603388E+03  0.97884603389E+03  0.25500000920E-02 0. -1.
    10030    2    1    2    0    0  0.00000000000E+00  0.00000000000E+00  0.82977094793E+03  0.27874630157E+04  0.26610956837E+04 0.  0.
        3    1    3    3  502    0 -0.80815843525E+03 -0.23173016118E+02  0.15218073727E+04  0.17232396047E+04  0.10100000352E+00 0.  1.
       -3    1    3    3    0  502  0.80815843525E+03  0.23173016118E+02 -0.69203642481E+03  0.10642234110E+04  0.10100000352E+00 0. -1.
</event>
<event>
 5   0  0.7754912E-06  0.2777668E+04  0.7818609E-02  0.8310235E-01
       -1   -1    0    0    0  501  0.00000000000E+00  0.00000000000E+00  0.10638057006E+04  0.10638057006E+04  0.50400001928E-02 0.  1.
        1   -1    0    0  501    0  0.00000000000E+00  0.00000000000E+00 -0.18131695755E+04  0.18131695755E+04  0.50400001928E-02 0. -1.
    10030    2    1    2    0    0  0.00000000000E+00  0.00000000000E+00 -0.74936387490E+03  0.28769752761E+04  0.27776681807E+04 0.  0.
        4    1    3    3  502    0  0.33305362848E+03  0.96207971862E+03  0.60372623943E+03  0.11836422980E+04  0.12699999809E+01 0.  1.
       -4    1    3    3    0  502 -0.33305362848E+03 -0.96207971862E+03 -0.13530901143E+04  0.16933329781E+04  0.12699999809E+01 0. -1.
</event>
<event>
 5   0  0.1788003E-05  0.2709054E+04  0.7818609E-02  0.8332073E-01
        2   -1    0    0  501    0  0.00000000000E+00  0.00000000000E+00  0.19073369079E+04  0.19073369079E+04  0.25500000920E-02 0.  1.
       -2   -1    0    0    0  501  0.00000000000E+00  0.00000000000E+00 -0.96193988099E+03  0.96193988100E+03  0.25500000920E-02 0. -1.
    10030    2    1    2    0    0  0.00000000000E+00  0.00000000000E+00  0.94539702691E+03  0.28692767889E+04  0.27090540328E+04 0.  0.
        2    1    3    3  502    0 -0.11786593794E+03  0.10375235815E+04  0.13865103040E+04  0.17357299285E+04  0.25500000920E-02 0.  1.
       -2    1    3    3    0  502  0.11786593794E+03 -0.10375235815E+04 -0.44111327705E+03  0.11335468604E+04  0.25500000920E-02 0. -1.
</event>
<event>
 5   0  0.7754912E-06  0.2796308E+04  0.7818609E-02  0.8304415E-01
        1   -1    0    0  501    0  0.00000000000E+00  0.00000000000E+00  0.14087295334E+04  0.14087295334E+04  0.50400001928E-02 0. -1.
       -1   -1    0    0    0  501  0.00000000000E+00  0.00000000000E+00 -0.13876582531E+04  0.13876582531E+04  0.50400001928E-02 0.  1.
    10030    2    1    2    0    0  0.00000000000E+00  0.00000000000E+00  0.21071280273E+02  0.27963877865E+04  0.27963083974E+04 0.  0.
        4    1    3    3  502    0 -0.11682181664E+04  0.15833891481E+03  0.76224086019E+03  0.14038581260E+04  0.12699999809E+01 0.  1.
       -4    1    3    3    0  502  0.11682181664E+04 -0.15833891481E+03 -0.74116957992E+03  0.13925296605E+04  0.12699999809E+01 0. -1.
</event>
<event>
 5   0  0.7754912E-06  0.2704893E+04  0.7818609E-02  0.8333419E-01
        1   -1    0    0  501    0  0.00000000000E+00  0.00000000000E+00  0.10506531085E+04  0.10506531085E+04  0.50400001928E-02 0. -1.
       -1   -1    0    0    0  501  0.00000000000E+00  0.00000000000E+00 -0.17409276671E+04  0.17409276671E+04  0.50400001928E-02 0.  1.
    10030    2    1    2    0    0  0.00000000000E+00  0.00000000000E+00 -0.69027455853E+03  0.27915807756E+04  0.27048926523E+04 0.  0.
        4    1    3    3  502    0  0.52833951332E+03 -0.12154446635E+04 -0.62333341414E+03  0.14645799840E+04  0.12699999809E+01 0. -1.
       -4    1    3    3    0  502 -0.52833951332E+03  0.12154446635E+04 -0.66941144386E+02  0.13270007917E+04  0.12699999809E+01 0.  1.
</event>
<event>
 5   0  0.6804685E-06  0.2697696E+04  0.7818609E-02  0.8335753E-01
       -1   -1    0    0    0  501  0.00000000000E+00  0.00000000000E+00  0.10959105972E+04  0.10959105972E+04  0.50400001928E-02 0.  1.
        1   -1    0    0  501    0  0.00000000000E+00  0.00000000000E+00 -0.16601637572E+04  0.16601637572E+04  0.50400001928E-02 0. -1.
    10030    2    1    2    0    0  0.00000000000E+00  0.00000000000E+00 -0.56425316008E+03  0.27560743544E+04  0.26976960945E+04 0.  0.
        2    1    3    3  502    0 -0.54545210361E+03 -0.45257246574E+03  0.89033667092E+03  0.11379979006E+04  0.25500000920E-02 0.  1.
       -2    1    3    3    0  502  0.54545210361E+03  0.45257246574E+03 -0.14545898310E+04  0.16180764539E+04  0.25500000920E-02 0. -1.
</event>
<event>
 5   0  0.1788003E-05  0.2680904E+04  0.7818609E-02  0.8341228E-01
        2   -1    0    0  501    0  0.00000000000E+00  0.00000000000E+00  0.18366584571E+04  0.18366584571E+04  0.25500000920E-02 0.  1.
       -2   -1    0    0    0  501  0.00000000000E+00  0.00000000000E+00 -0.97830493341E+03  0.97830493342E+03  0.25500000920E-02 0. -1.
    10030    2    1    2    0    0  0.00000000000E+00  0.00000000000E+00  0.85835352367E+03  0.28149633905E+04  0.26809043471E+04 0.  0.
        2    1    3    3  502    0  0.65743776789E+03 -0.70985395376E+03  0.14033048498E+04  0.17045179834E+04  0.25500000920E-02 0.  1.
       -2    1    3    3    0  502 -0.65743776789E+03  0.70985395376E+03 -0.54495132611E+03  0.11104454071E+04  0.25500000920E-02 0. -1.
</event>
<event>
 5   0  0.1878160E-05  0.2701312E+04  0.7818609E-02  0.8334579E-01
       -2   -1    0    0    0  501  0.00000000000E+00  0.00000000000E+00  0.11444790071E+04  0.11444790071E+04  0.25500000920E-02 0.  1.
        2   -1    0    0  501    0  0.00000000000E+00  0.00000000000E+00 -0.15939761607E+04  0.15939761607E+04  0.25500000920E-02 0. -1.
    10030    2    1    2    0    0  0.00000000000E+00  0.00000000000E+00 -0.44949715358E+03  0.27384551678E+04  0.27013124616E+04 0.  0.
        1    1    3    3  502    0 -0.28276672161E+03  0.11733077256E+04  0.38994191412E+03  0.12683306880E+04  0.50400001928E-02 0.  1.
       -1    1    3    3    0  502  0.28276672161E+03 -0.11733077256E+04 -0.83943906770E+03  0.14701244798E+04  0.50400001928E-02 0. -1.
</event>
<event>
 5   0  0.6804685E-06  0.2710930E+04  0.7818609E-02  0.8331467E-01
       -1   -1    0    0    0  501  0.00000000000E+00  0.00000000000E+00  0.83863312466E+03  0.83863312468E+03  0.50400001928E-02 0. -1.
        1   -1    0    0  501    0  0.00000000000E+00  0.00000000000E+00 -0.21908099605E+04  0.21908099605E+04  0.50400001928E-02 0.  1.
    10030    2    1    2    0    0  0.00000000000E+00  0.00000000000E+00 -0.13521768358E+04  0.30294430851E+04  0.27109303220E+04 0.  0.
        2    1    3    3  502    0 -0.53518539474E+03 -0.12429909084E+04 -0.76145777222E+03  0.15528257288E+04  0.25500000920E-02 0.  1.
       -2    1    3    3    0  502  0.53518539474E+03  0.12429909084E+04 -0.59071906359E+03  0.14766173564E+04  0.25500000920E-02 0. -1.
</event>
<event>
 5   0  0.1878160E-05  0.2643126E+04  0.7818609E-02  0.8353698E-01
        2   -1    0    0  501    0  0.00000000000E+00  0.00000000000E+00  0.14816151227E+04  0.14816151227E+04  0.25500000920E-02 0.  1.
       -2   -1    0    0    0  501  0.00000000000E+00  0.00000000000E+00 -0.11788006819E+04  0.11788006819E+04  0.25500000920E-02 0. -1.
    10030    2    1    2    0    0  0.00000000000E+00  0.00000000000E+00  0.30281444088E+03  0.26604158046E+04  0.26431261165E+04 0.  0.
        1    1    3    3  502    0 -0.84856403834E+03 -0.39745178870E+03  0.10894368593E+04  0.14369765210E+04  0.50400001928E-02 0. -1.
       -1    1    3    3    0  502  0.84856403834E+03  0.39745178870E+03 -0.78662241840E+03  0.12234392836E+04  0.50400001928E-02 0.  1.
</event>
<event>
 5   0  0.7348964E-06  0.2665572E+04  0.7818609E-02  0.8346263E-01
        1   -1    0    0  501    0  0.00000000000E+00  0.00000000000E+00  0.19538321523E+04  0.19538321523E+04  0.50400001928E-02 0.  1.
       -1   -1    0    0    0  501  0.00000000000E+00  0.00000000000E+00 -0.90914574977E+03  0.90914574979E+03  0.50400001928E-02 0. -1.
    10030    2    1    2    0    0  0.00000000000E+00  0.00000000000E+00  0.10446864025E+04  0.28629779021E+04  0.26655717563E+04 0.  0.
        1    1    3    3  502    0  0.75672187702E+03  0.10829257220E+04  0.33335152736E+03  0.13625268289E+04  0.50400001928E-02 0. -1.
       -1    1    3    3    0  502 -0.75672187702E+03 -0.10829257220E+04  0.71133487517E+03  0.15004510732E+04  0.50400001928E-02 0.  1.
</event>
<event>
 5   0  0.1826851E-05  0.2674572E+04  0.7818609E-02  0.8343303E-01
        2   -1    0    0  501    0  0.00000000000E+00  0.00000000000E+00  0.34070628566E+04  0.34070628566E+04  0.25500000920E-02 0. -1.
       -2   -1    0    0    0  501  0.00000000000E+00  0.00000000000E+00 -0.52489017076E+03  0.52489017077E+03  0.25500000920E-02 0.  1.
    10030    2    1    2    0    0  0.00000000000E+00  0.00000000000E+00  0.28821726858E+04  0.39319530274E+04  0.26745719692E+04 0.  0.
        5    1    3    3  502    0 -0.41763310448E+02  0.54350998283E+03 -0.35413003357E+03  0.65005957128E+03  0.46999998093E+01 0.  1.
       -5    1    3    3    0  502  0.41763310448E+02 -0.54350998283E+03  0.32363027194E+04  0.32818934561E+04  0.46999998093E+01 0. -1.
</event>
<event>
 5   0  0.1881699E-05  0.2714847E+04  0.7818609E-02  0.8330204E-01
        2   -1    0    0  501    0  0.00000000000E+00  0.00000000000E+00  0.12029442036E+04  0.12029442036E+04  0.25500000920E-02 0.  1.
       -2   -1    0    0    0  501  0.00000000000E+00  0.00000000000E+00 -0.15317411556E+04  0.15317411556E+04  0.25500000920E-02 0. -1.
    10030    2    1    2    0    0  0.00000000000E+00  0.00000000000E+00 -0.32879695202E+03  0.27346853592E+04  0.27148474318E+04 0.  0.
        4    1    3    3  502    0 -0.14934107713E+03 -0.12306812051E+04 -0.72135696757E+03  0.14343069663E+04  0.12699999809E+01 0. -1.
       -4    1    3    3    0  502  0.14934107713E+03  0.12306812051E+04  0.39256001556E+03  0.13003783929E+04  0.12699999809E+01 0.  1.
</event>
<event>
 5   0  0.1881699E-05  0.2764711E+04  0.7818609E-02  0.8314309E-01
       -2   -1    0    0    0  501  0.00000000000E+00  0.00000000000E+00  0.82984652775E+03  0.82984652775E+03  0.25500000920E-02 0.  1.
        2   -1    0    0  501    0  0.00000000000E+00  0.00000000000E+00 -0.23027226837E+04  0.23027226837E+04  0.25500000920E-02 0. -1.
    10030    2    1    2    0    0  0.00000000000E+00  0.00000000000E+00 -0.14728761559E+04  0.31325692114E+04  0.27647107794E+04 0.  0.
        4    1    3    3  502    0 -0.51582766395E+03 -0.50121833995E+03 -0.20740221818E+04  0.21951919339E+04  0.12699999809E+01 0. -1.
       -4    1    3    3    0  502  0.51582766395E+03  0.50121833995E+03  0.60114602584E+03  0.93737727756E+03  0.12699999809E+01 0.  1.
</event>
<event>
 5   0  0.6804685E-06  0.2712830E+04  0.7818609E-02  0.8330854E-01
       -1   -1    0    0    0  501  0.00000000000E+00  0.00000000000E+00  0.10618205900E+04  0.10618205900E+04  0.50400001928E-02 0.  1.
        1   -1    0    0  501    0  0.00000000000E+00  0.00000000000E+00 -0.17327427607E+04  0.17327427607E+04  0.50400001928E-02 0. -1.
    10030    2    1    2    0    0  0.00000000000E+00  0.00000000000E+00 -0.67092217073E+03  0.27945633508E+04  0.27128302126E+04 0.  0.
        2    1    3    3  502    0 -0.76697528596E+03 -0.67451730592E+03 -0.12548973981E+04  0.16180210645E+04  0.25500000920E-02 0. -1.
       -2    1    3    3    0  502  0.76697528596E+03  0.67451730592E+03  0.58397522738E+03  0.11765422863E+04  0.25500000920E-02 0.  1.
</event>
<event>
 5   0  0.7351590E-06  0.2649327E+04  0.7818609E-02  0.8351636E-01
        1   -1    0    0  501    0  0.00000000000E+00  0.00000000000E+00  0.14796989389E+04  0.14796989390E+04  0.50400001928E-02 0. -1.
       -1   -1    0    0    0  501  0.00000000000E+00  0.00000000000E+00 -0.11858717714E+04  0.11858717715E+04  0.50400001928E-02 0.  1.
    10030    2    1    2    0    0  0.00000000000E+00  0.00000000000E+00  0.29382716751E+03  0.26655707104E+04  0.26493268594E+04 0.  0.
        3    1    3    3  502    0 -0.10542598511E+04  0.76003055606E+03 -0.11082676641E+03  0.13043745099E+04  0.10100000352E+00 0.  1.
       -3    1    3    3    0  502  0.10542598511E+04 -0.76003055606E+03  0.40465393392E+03  0.13611962005E+04  0.10100000352E+00 0. -1.
</event>
<event>
 5   0  0.7600052E-06  0.2633651E+04  0.7818609E-02  0.8356860E-01
       -1   -1    0    0    0  501  0.00000000000E+00  0.00000000000E+00  0.93555576127E+03  0.93555576128E+03  0.50400001928E-02 0. -1.
        1   -1    0    0  501    0  0.00000000000E+00  0.00000000000E+00 -0.18534745440E+04  0.18534745440E+04  0.50400001928E-02 0.  1.
    10030    2    1    2    0    0  0.00000000000E+00  0.00000000000E+00 -0.91791878274E+03  0.27890303053E+04  0.26336505372E+04 0.  0.
        5    1    3    3  502    0  0.74849168029E+03 -0.10314133213E+04 -0.81011494608E+03  0.15100866037E+04  0.46999998093E+01 0. -1.
       -5    1    3    3    0  502 -0.74849168029E+03  0.10314133213E+04 -0.10780383666E+03  0.12789437016E+04  0.46999998093E+01 0.  1.
</event>
<event>
 5   0  0.1881699E-05  0.2688363E+04  0.7818609E-02  0.8338791E-01
        2   -1    0    0  501    0  0.00000000000E+00  0.00000000000E+00  0.26346998892E+04  0.26346998892E+04  0.25500000920E-02 0. -1.
       -2   -1    0    0    0  501  0.00000000000E+00  0.00000000000E+00 -0.68577967578E+03  0.68577967579E+03  0.25500000920E-02 0.  1.
    10030    2    1    2    0    0  0.00000000000E+00  0.00000000000E+00  0.19489202134E+04  0.33204795650E+04  0.26883627998E+04 0.  0.
        4    1    3    3  502    0  0.77767600179E+03 -0.35367316355E+03  0.22562362597E+04  0.24125646816E+04  0.12699999809E+01 0. -1.
       -4    1    3    3    0  502 -0.77767600179E+03  0.35367316355E+03 -0.30731604625E+03  0.90791488343E+03  0.12699999809E+01 0.  1.
</event>
<event>
 5   0  0.1826851E-05  0.2704981E+04  0.7818609E-02  0.8333391E-01
        2   -1    0    0  501    0  0.00000000000E+00  0.00000000000E+00  0.16276738539E+04  0.16276738539E+04  0.25500000920E-02 0.  1.
       -2   -1    0    0    0  501  0.00000000000E+00  0.00000000000E+00 -0.11238308689E+04  0.11238308689E+04  0.25500000920E-02 0. -1.
    10030    2    1    2    0    0  0.00000000000E+00  0.00000000000E+00  0.50384298504E+03  0.27515047227E+04  0.27049806812E+04 0.  0.
        5    1    3    3  502    0 -0.12768178294E+04 -0.33184072060E+03 -0.51241470323E+02  0.13202385435E+04  0.46999998093E+01 0.  1.
       -5    1    3    3    0  502  0.12768178294E+04  0.33184072060E+03  0.55508445536E+03  0.14312661793E+04  0.46999998093E+01 0. -1.
</event>
<event>
 5   0  0.1878160E-05  0.2710256E+04  0.7818609E-02  0.8331685E-01
        2   -1    0    0  501    0  0.00000000000E+00  0.00000000000E+00  0.20240324972E+04  0.20240324973E+04  0.25500000920E-02 0. -1.
       -2   -1    0    0    0  501  0.00000000000E+00  0.00000000000E+00 -0.90728377618E+03  0.90728377618E+03  0.25500000920E-02 0.  1.
    10030    2    1    2    0    0  0.00000000000E+00  0.00000000000E+00  0.11167487211E+04  0.29313162734E+04  0.27102559637E+04 0.  0.
        1    1    3    3  502    0  0.12745568524E+04  0.63597799990E+02  0.65304364919E+02  0.12778123925E+04  0.50400001928E-02 0.  1.
       -1    1    3    3    0  502 -0.12745568524E+04 -0.63597799990E+02  0.10514443562E+04  0.16535038810E+04  0.50400001928E-02 0. -1.
</event>
<event>
 5   0  0.1878160E-05  0.2317136E+04  0.7818609E-02  0.8471195E-01
       -2   -1    0    0    0  501  0.00000000000E+00  0.00000000000E+00  0.66004019508E+03  0.66004019509E+03  0.25500000920E-02 0. -1.
        2   -1    0    0  501    0  0.00000000000E+00  0.00000000000E+00 -0.20336341027E+04  0.20336341027E+04  0.25500000920E-02 0.  1.
    10030    2    1    2    0    0  0.00000000000E+00  0.00000000000E+00 -0.13735939076E+04  0.26936742977E+04  0.23171363791E+04 0.  0.
        1    1    3    3  502    0  0.36465337844E+03 -0.74161200339E+03 -0.16307307719E+04  0.18281803249E+04  0.50400001928E-02 0.  1.
       -1    1    3    3    0  502 -0.36465337844E+03  0.74161200339E+03  0.25713686432E+03  0.86549397283E+03  0.50400001928E-02 0. -1.
</event>
<event>
 5   0  0.6175875E-06  0.2754803E+04  0.7818609E-02  0.8317439E-01
       -3   -1    0    0    0  501  0.00000000000E+00  0.00000000000E+00  0.17634307879E+04  0.17634307908E+04  0.10100000352E+00 0.  1.
        3   -1    0    0  501    0  0.00000000000E+00  0.00000000000E+00 -0.10758771562E+04  0.10758771609E+04  0.10100000352E+00 0. -1.
    10030    2    1    2    0    0  0.00000000000E+00  0.00000000000E+00  0.68755363172E+03  0.28393079518E+04  0.27548030144E+04 0.  0.
        3    1    3    3  502    0 -0.38366860259E+03 -0.12880303582E+04  0.32842156519E+02  0.13443594823E+04  0.10100000352E+00 0. -1.
       -3    1    3    3    0  502  0.38366860259E+03  0.12880303582E+04  0.65471147521E+03  0.14949484694E+04  0.10100000352E+00 0.  1.
</event>
<event>
 5   0  0.6175875E-06  0.2470195E+04  0.7818609E-02  0.8413681E-01
       -3   -1    0    0    0  501  0.00000000000E+00  0.00000000000E+00  0.77376692059E+03  0.77376692718E+03  0.10100000352E+00 0. -1.
        3   -1    0    0  501    0  0.00000000000E+00  0.00000000000E+00 -0.19714796992E+04  0.19714797018E+04  0.10100000352E+00 0.  1.
    10030    2    1    2    0    0  0.00000000000E+00  0.00000000000E+00 -0.11977127786E+04  0.27452466289E+04  0.24701949627E+04 0.  0.
        5    1    3    3  502    0 -0.23233316009E+03  0.54668639582E+03 -0.18022976356E+04  0.18976679293E+04  0.46999998093E+01 0.  1.
       -5    1    3    3    0  502  0.23233316009E+03 -0.54668639582E+03  0.60458485704E+03  0.84757869960E+03  0.46999998093E+01 0. -1.
</event>
<event>
 5   0  0.1881699E-05  0.2692974E+04  0.7818609E-02  0.8337288E-01
        2   -1    0    0  501    0  0.00000000000E+00  0.00000000000E+00  0.16896870917E+04  0.16896870917E+04  0.25500000920E-02 0. -1.
       -2   -1    0    0    0  501  0.00000000000E+00  0.00000000000E+00 -0.10729957684E+04  0.10729957684E+04  0.25500000920E-02 0.  1.
    10030    2    1    2    0    0  0.00000000000E+00  0.00000000000E+00  0.61669132324E+03  0.27626828601E+04  0.26929738947E+04 0.  0.
        4    1    3    3  502    0  0.68140683145E+03  0.19997221063E+03  0.14819520922E+04  0.16433160899E+04  0.12699999809E+01 0. -1.
       -4    1    3    3    0  502 -0.68140683145E+03 -0.19997221063E+03 -0.86526076897E+03  0.11193667702E+04  0.12699999809E+01 0.  1.
</event>
<event>
 5   0  0.7754912E-06  0.2693172E+04  0.7818609E-02  0.8337224E-01
        1   -1    0    0  501    0  0.00000000000E+00  0.00000000000E+00  0.18506484257E+04  0.18506484257E+04  0.50400001928E-02 0.  1.
       -1   -1    0    0    0  501  0.00000000000E+00  0.00000000000E+00 -0.97981568461E+03  0.97981568463E+03  0.50400001928E-02 0. -1.
    10030    2    1    2    0    0  0.00000000000E+00  0.00000000000E+00  0.87083274108E+03  0.28304641103E+04  0.26931723704E+04 0.  0.
        4    1    3    3  502    0 -0.42820848648E+03 -0.11487167537E+04  0.10209345770E+04  0.15953751006E+04  0.12699999809E+01 0.  1.
       -4    1    3    3    0  502  0.42820848648E+03  0.11487167537E+04 -0.15010183594E+03  0.12350890098E+04  0.12699999809E+01 0. -1.
</event>
<event>
 5   0  0.1881699E-05  0.2696402E+04  0.7818609E-02  0.8336173E-01
       -2   -1    0    0    0  501  0.00000000000E+00  0.00000000000E+00  0.13041334692E+04  0.13041334692E+04  0.25500000920E-02 0.  1.
        2   -1    0    0  501    0  0.00000000000E+00  0.00000000000E+00 -0.13937578679E+04  0.13937578679E+04  0.25500000920E-02 0. -1.
    10030    2    1    2    0    0  0.00000000000E+00  0.00000000000E+00 -0.89624398669E+02  0.26978913370E+04  0.26964022574E+04 0.  0.
        4    1    3    3  502    0 -0.44389539576E+01 -0.13154567130E+04 -0.34026936932E+03  0.13587608048E+04  0.12699999809E+01 0. -1.
       -4    1    3    3    0  502  0.44389539576E+01  0.13154567130E+04  0.25064497065E+03  0.13391305322E+04  0.12699999809E+01 0.  1.
</event>
<event>
 5   0  0.7351590E-06  0.2749816E+04  0.7818609E-02  0.8319020E-01
        1   -1    0    0  501    0  0.00000000000E+00  0.00000000000E+00  0.10355353286E+04  0.10355353286E+04  0.50400001928E-02 0. -1.
       -1   -1    0    0    0  501  0.00000000000E+00  0.00000000000E+00 -0.18255021284E+04  0.18255021284E+04  0.50400001928E-02 0.  1.
    10030    2    1    2    0    0  0.00000000000E+00  0.00000000000E+00 -0.78996679972E+03  0.28610374570E+04  0.27498159549E+04 0.  0.
        3    1    3    3  502    0  0.67170609664E+03 -0.86001233624E+03 -0.12652111117E+04  0.16707990502E+04  0.10100000352E+00 0.  1.
       -3    1    3    3    0  502 -0.67170609664E+03  0.86001233624E+03  0.47524431199E+03  0.11902384068E+04  0.10100000352E+00 0. -1.
</event>
<event>
 5   0  0.7754912E-06  0.2675827E+04  0.7818609E-02  0.8342891E-01
        1   -1    0    0  501    0  0.00000000000E+00  0.00000000000E+00  0.16632662404E+04  0.16632662404E+04  0.50400001928E-02 0. -1.
       -1   -1    0    0    0  501  0.00000000000E+00  0.00000000000E+00 -0.10762035348E+04  0.10762035348E+04  0.50400001928E-02 0.  1.
    10030    2    1    2    0    0  0.00000000000E+00  0.00000000000E+00  0.58706270558E+03  0.27394697752E+04  0.26758273541E+04 0.  0.
        4    1    3    3  502    0  0.88581939286E+03  0.36400763646E+03 -0.66294494307E+03  0.11647639961E+04  0.12699999809E+01 0.  1.
       -4    1    3    3    0  502 -0.88581939286E+03 -0.36400763646E+03  0.12500076487E+04  0.15747057791E+04  0.12699999809E+01 0. -1.
</event>
<event>
 5   0  0.6804685E-06  0.2693516E+04  0.7818609E-02  0.8337112E-01
       -1   -1    0    0    0  501  0.00000000000E+00  0.00000000000E+00  0.14811865763E+04  0.14811865763E+04  0.50400001928E-02 0.  1.
        1   -1    0    0  501    0  0.00000000000E+00  0.00000000000E+00 -0.12245294007E+04  0.12245294007E+04  0.50400001928E-02 0. -1.
    10030    2    1    2    0    0  0.00000000000E+00  0.00000000000E+00  0.25665717563E+03  0.27057159770E+04  0.26935155545E+04 0.  0.
        2    1    3    3  502    0 -0.77574196024E+03 -0.76983543561E+03 -0.66221403997E+03  0.12778691723E+04  0.25500000920E-02 0.  1.
       -2    1    3    3    0  502  0.77574196024E+03  0.76983543561E+03  0.91887121560E+03  0.14278468047E+04  0.25500000920E-02 0. -1.
</event>
<event>
 5   0  0.1878160E-05  0.2719135E+04  0.7818609E-02  0.8328823E-01
       -2   -1    0    0    0  501  0.00000000000E+00  0.00000000000E+00  0.12037162561E+04  0.12037162561E+04  0.25500000920E-02 0. -1.
        2   -1    0    0  501    0  0.00000000000E+00  0.00000000000E+00 -0.15355978733E+04  0.15355978733E+04  0.25500000920E-02 0.  1.
    10030    2    1    2    0    0  0.00000000000E+00  0.00000000000E+00 -0.33188161726E+03  0.27393141294E+04  0.27191352470E+04 0.  0.
        1    1    3    3  502    0 -0.42125376904E+03 -0.11810885353E+04 -0.69519582670E+03  0.14337789591E+04  0.50400001928E-02 0.  1.
       -1    1    3    3    0  502  0.42125376904E+03  0.11810885353E+04  0.36331420944E+03  0.13055351703E+04  0.50400001928E-02 0. -1.
</event>
<event>
 5   0  0.7351590E-06  0.2727857E+04  0.7818609E-02  0.8326023E-01
        1   -1    0    0  501    0  0.00000000000E+00  0.00000000000E+00  0.95133306385E+03  0.95133306386E+03  0.50400001928E-02 0.  1.
       -1   -1    0    0    0  501  0.00000000000E+00  0.00000000000E+00 -0.19554674618E+04  0.19554674618E+04  0.50400001928E-02 0. -1.
    10030    2    1    2    0    0  0.00000000000E+00  0.00000000000E+00 -0.10041343979E+04  0.29068005256E+04  0.27278569256E+04 0.  0.
        3    1    3    3  502    0 -0.16246375685E+03 -0.91577958580E+03 -0.15651341916E+04  0.18206294983E+04  0.10100000352E+00 0. -1.
       -3    1    3    3    0  502  0.16246375685E+03  0.91577958580E+03  0.56099979366E+03  0.10861710274E+04  0.10100000352E+00 0.  1.
</event>
<event>
 5   0  0.1878160E-05  0.2053687E+04  0.7818609E-02  0.8581924E-01
        2   -1    0    0  501    0  0.00000000000E+00  0.00000000000E+00  0.29443383770E+04  0.29443383770E+04  0.25500000920E-02 0.  1.
       -2   -1    0    0    0  501  0.00000000000E+00  0.00000000000E+00 -0.35811352393E+03  0.35811352394E+03  0.25500000920E-02 0. -1.
    10030    2    1    2    0    0  0.00000000000E+00  0.00000000000E+00  0.25862248531E+04  0.33024519010E+04  0.20536868231E+04 0.  0.
        1    1    3    3  502    0 -0.23165928565E+02 -0.93882326996E+03  0.62527051617E+03  0.11282238301E+04  0.50400001928E-02 0. -1.
       -1    1    3    3    0  502  0.23165928565E+02  0.93882326996E+03  0.19609543369E+04  0.21742280708E+04  0.50400001928E-02 0.  1.
</event>
<event>
 5   0  0.1788003E-05  0.2744985E+04  0.7818609E-02  0.8320555E-01
       -2   -1    0    0    0  501  0.00000000000E+00  0.00000000000E+00  0.88590910734E+03  0.88590910734E+03  0.25500000920E-02 0.  1.
        2   -1    0    0  501    0  0.00000000000E+00  0.00000000000E+00 -0.21263304797E+04  0.21263304797E+04  0.25500000920E-02 0. -1.
    10030    2    1    2    0    0  0.00000000000E+00  0.00000000000E+00 -0.12404213724E+04  0.30122395871E+04  0.27449849087E+04 0.  0.
        2    1    3    3  502    0 -0.11982348437E+04 -0.91439252758E+02 -0.13477930710E+04  0.18057336570E+04  0.25500000920E-02 0. -1.
       -2    1    3    3    0  502  0.11982348437E+04  0.91439252758E+02  0.10737169865E+03  0.12065059301E+04  0.25500000920E-02 0.  1.
</event>
<event>
 5   0  0.1881699E-05  0.2611700E+04  0.7818609E-02  0.8364238E-01
        2   -1    0    0  501    0  0.00000000000E+00  0.00000000000E+00  0.15879112586E+04  0.15879112586E+04  0.25500000920E-02 0. -1.
       -2   -1    0    0    0  501  0.00000000000E+00  0.00000000000E+00 -0.10738911289E+04  0.10738911289E+04  0.25500000920E-02 0.  1.
    10030    2    1    2    0    0  0.00000000000E+00  0.00000000000E+00  0.51402012974E+03  0.26618023875E+04  0.26116996872E+04 0.  0.
        4    1    3    3  502    0 -0.20255711362E+03  0.91764786655E+03 -0.66710105756E+03  0.11524462786E+04  0.12699999809E+01 0.  1.
       -4    1    3    3    0  502  0.20255711362E+03 -0.91764786655E+03  0.11811211873E+04  0.15093561088E+04  0.12699999809E+01 0. -1.
</event>
<event>
 5   0  0.7754912E-06  0.2735482E+04  0.7818609E-02  0.8323583E-01
       -1   -1    0    0    0  501  0.00000000000E+00  0.00000000000E+00  0.19024066933E+04  0.19024066933E+04  0.50400001928E-02 0.  1.
        1   -1    0    0  501    0  0.00000000000E+00  0.00000000000E+00 -0.98334168608E+03  0.98334168609E+03  0.50400001928E-02 0. -1.
    10030    2    1    2    0    0  0.00000000000E+00  0.00000000000E+00  0.91906500719E+03  0.28857483794E+04  0.27354822649E+04 0.  0.
        4    1    3    3  502    0 -0.87378884683E+03  0.42108192894E+03 -0.55775108749E+03  0.11188855295E+04  0.12699999809E+01 0. -1.
       -4    1    3    3    0  502  0.87378884683E+03 -0.42108192894E+03  0.14768160947E+04  0.17668628498E+04  0.12699999809E+01 0.  1.
</event>
<event>
 5   0  0.7348964E-06  0.2698567E+04  0.7818609E-02  0.8335470E-01
       -1   -1    0    0    0  501  0.00000000000E+00  0.00000000000E+00  0.97575358253E+03  0.97575358255E+03  0.50400001928E-02 0.  1.
        1   -1    0    0  501    0  0.00000000000E+00  0.00000000000E+00 -0.18658048678E+04  0.18658048679E+04  0.50400001928E-02 0. -1.
    10030    2    1    2    0    0  0.00000000000E+00  0.00000000000E+00 -0.89005128531E+03  0.28415584504E+04  0.26985668672E+04 0.  0.
        1    1    3    3  502    0 -0.49662314181E+03  0.16687228798E+03 -0.17543283814E+04  0.18308874830E+04  0.50400001928E-02 0. -1.
       -1    1    3    3    0  502  0.49662314181E+03 -0.16687228798E+03  0.86427709611E+03  0.10106709674E+04  0.50400001928E-02 0.  1.
</event>
<event>
 5   0  0.1881699E-05  0.2714624E+04  0.7818609E-02  0.8330276E-01
       -2   -1    0    0    0  501  0.00000000000E+00  0.00000000000E+00  0.83248866776E+03  0.83248866776E+03  0.25500000920E-02 0. -1.
        2   -1    0    0  501    0  0.00000000000E+00  0.00000000000E+00 -0.22129976841E+04  0.22129976841E+04  0.25500000920E-02 0.  1.
    10030    2    1    2    0    0  0.00000000000E+00  0.00000000000E+00 -0.13805090164E+04  0.30454863519E+04  0.27146237263E+04 0.  0.
        4    1    3    3  502    0  0.43984788305E+02  0.35485368440E+03  0.77869855591E+03  0.85687154978E+03  0.12699999809E+01 0. -1.
       -4    1    3    3    0  502 -0.43984788305E+02 -0.35485368440E+03 -0.21592075723E+04  0.21886148021E+04  0.12699999809E+01 0.  1.
</event>
<event>
 5   0  0.1826851E-05  0.2484761E+04  0.7818609E-02  0.8408435E-01
       -2   -1    0    0    0  501  0.00000000000E+00  0.00000000000E+00  0.16583025241E+04  0.16583025241E+04  0.25500000920E-02 0. -1.
        2   -1    0    0  501    0  0.00000000000E+00  0.00000000000E+00 -0.93077684783E+03  0.93077684784E+03  0.25500000920E-02 0.  1.
    10030    2    1    2    0    0  0.00000000000E+00  0.00000000000E+00  0.72752567626E+03  0.25890793719E+04  0.24847612329E+04 0.  0.
        5    1    3    3  502    0  0.52937847025E+03 -0.19035193992E+01 -0.80736427317E+03  0.96545551308E+03  0.46999998093E+01 0.  1.
       -5    1    3    3    0  502 -0.52937847025E+03  0.19035193992E+01  0.15348899494E+04  0.16236238588E+04  0.46999998093E+01 0. -1.
</event>
<event>
 5   0  0.6804685E-06  0.2705005E+04  0.7818609E-02  0.8333383E-01
        1   -1    0    0  501    0  0.00000000000E+00  0.00000000000E+00  0.13226366321E+04  0.13226366321E+04  0.50400001928E-02 0. -1.
       -1   -1    0    0    0  501  0.00000000000E+00  0.00000000000E+00 -0.13830428884E+04  0.13830428884E+04  0.50400001928E-02 0.  1.
    10030    2    1    2    0    0  0.00000000000E+00  0.00000000000E+00 -0.60406256330E+02  0.27056795205E+04  0.27050051298E+04 0.  0.
        2    1    3    3  502    0  0.19566978252E+03  0.96493622419E+03  0.89732229755E+03  0.13321320829E+04  0.25500000920E-02 0. -1.
       -2    1    3    3    0  502 -0.19566978252E+03 -0.96493622419E+03 -0.95772855388E+03  0.13735474376E+04  0.25500000920E-02 0.  1.
</event>
<event>
 5   0  0.7351590E-06  0.2695556E+04  0.7818609E-02  0.8336448E-01
       -1   -1    0    0    0  501  0.00000000000E+00  0.00000000000E+00  0.13939160759E+04  0.13939160759E+04  0.50400001928E-02 0.  1.
        1   -1    0    0  501    0  0.00000000000E+00  0.00000000000E+00 -0.13031669257E+04  0.13031669257E+04  0.50400001928E-02 0. -1.
    10030    2    1    2    0    0  0.00000000000E+00  0.00000000000E+00  0.90749150216E+02  0.26970830016E+04  0.26955558442E+04 0.  0.
        3    1    3    3  502    0 -0.95394817278E+01 -0.55136463099E+03 -0.11851235138E+04  0.13071387498E+04  0.10100000352E+00 0. -1.
       -3    1    3    3    0  502  0.95394817278E+01  0.55136463099E+03  0.12758726640E+04  0.13899442518E+04  0.10100000352E+00 0.  1.
</event>
<event>
 5   0  0.1788003E-05  0.2621380E+04  0.7818609E-02  0.8360975E-01
       -2   -1    0    0    0  501  0.00000000000E+00  0.00000000000E+00  0.16111742218E+04  0.16111742218E+04  0.25500000920E-02 0. -1.
        2   -1    0    0  501    0  0.00000000000E+00  0.00000000000E+00 -0.10662458638E+04  0.10662458638E+04  0.25500000920E-02 0.  1.
    10030    2    1    2    0    0  0.00000000000E+00  0.00000000000E+00  0.54492835800E+03  0.26774200856E+04  0.26213796747E+04 0.  0.
        2    1    3    3  502    0  0.74495534696E+03  0.96645918248E+03 -0.21620528924E+03  0.12392524148E+04  0.25500000920E-02 0.  1.
       -2    1    3    3    0  502 -0.74495534696E+03 -0.96645918248E+03  0.76113364724E+03  0.14381676708E+04  0.25500000920E-02 0. -1.
</event>
<event>
 5   0  0.1881699E-05  0.2752667E+04  0.7818609E-02  0.8318116E-01
       -2   -1    0    0    0  501  0.00000000000E+00  0.00000000000E+00  0.13617105045E+04  0.13617105045E+04  0.25500000920E-02 0. -1.
        2   -1    0    0  501    0  0.00000000000E+00  0.00000000000E+00 -0.13911138839E+04  0.13911138839E+04  0.25500000920E-02 0.  1.
    10030    2    1    2    0    0  0.00000000000E+00  0.00000000000E+00 -0.29403379435E+02  0.27528243884E+04  0.27526673527E+04 0.  0.
        4    1    3    3  502    0  0.60980335408E+03 -0.10394719972E+04  0.65011485386E+03  0.13693111771E+04  0.12699999809E+01 0. -1.
       -4    1    3    3    0  502 -0.60980335408E+03  0.10394719972E+04 -0.67951823330E+03  0.13835132113E+04  0.12699999809E+01 0.  1.
</event>
<event>
 5   0  0.7348964E-06  0.2781960E+04  0.7818609E-02  0.8308891E-01
       -1   -1    0    0    0  501  0.00000000000E+00  0.00000000000E+00  0.15170504470E+04  0.15170504470E+04  0.50400001928E-02 0.  1.
        1   -1    0    0  501    0  0.00000000000E+00  0.00000000000E+00 -0.12753860481E+04  0.12753860481E+04  0.50400001928E-02 0. -1.
    10030    2    1    2    0    0  0.00000000000E+00  0.00000000000E+00  0.24166439892E+03  0.27924364951E+04  0.27819597224E+04 0.  0.
        1    1    3    3  502    0 -0.26227304863E+03 -0.96241297416E+03 -0.85225100645E+03  0.13120052069E+04  0.50400001928E-02 0. -1.
       -1    1    3    3    0  502  0.26227304863E+03  0.96241297416E+03  0.10939154054E+04  0.14804312882E+04  0.50400001928E-02 0.  1.
</event>
<event>
 5   0  0.7348964E-06  0.2783317E+04  0.7818609E-02  0.8308466E-01
        1   -1    0    0  501    0  0.00000000000E+00  0.00000000000E+00  0.19712081164E+04  0.19712081164E+04  0.50400001928E-02 0.  1.
       -1   -1    0    0    0  501  0.00000000000E+00  0.00000000000E+00 -0.98250096274E+03  0.98250096275E+03  0.50400001928E-02 0. -1.
    10030    2    1    2    0    0  0.00000000000E+00  0.00000000000E+00  0.98870715365E+03  0.29537090791E+04  0.27833173532E+04 0.  0.
        1    1    3    3  502    0  0.12477742579E+04  0.46764184346E+03  0.68429976120E+02  0.13342833859E+04  0.50400001928E-02 0.  1.
       -1    1    3    3    0  502 -0.12477742579E+04 -0.46764184346E+03  0.92027717753E+03  0.16194256932E+04  0.50400001928E-02 0. -1.
</event>
<event>
 5   0  0.1931119E-05  0.2750816E+04  0.7818609E-02  0.8318703E-01
        2   -1    0    0  501    0  0.00000000000E+00  0.00000000000E+00  0.19952689133E+04  0.19952689133E+04  0.25500000920E-02 0.  1.
       -2   -1    0    0    0  501  0.00000000000E+00  0.00000000000E+00 -0.94811617039E+03  0.94811617039E+03  0.25500000920E-02 0. -1.
    10030    2    1    2    0    0  0.00000000000E+00  0.00000000000E+00  0.10471527429E+04  0.29433850837E+04  0.27508156761E+04 0.  0.
        3    1    3    3  502    0 -0.73231005660E+03  0.69830847678E+02 -0.71992920133E+03  0.10292970569E+04  0.10100000352E+00 0. -1.
       -3    1    3    3    0  502  0.73231005660E+03 -0.69830847678E+02  0.17670819442E+04  0.19140880267E+04  0.10100000352E+00 0.  1.
</event>
<event>
 5   0  0.7754912E-06  0.2734963E+04  0.7818609E-02  0.8323749E-01
       -1   -1    0    0    0  501  0.00000000000E+00  0.00000000000E+00  0.79541869394E+03  0.79541869395E+03  0.50400001928E-02 0. -1.
        1   -1    0    0  501    0  0.00000000000E+00  0.00000000000E+00 -0.23509696858E+04  0.23509696859E+04  0.50400001928E-02 0.  1.
    10030    2    1    2    0    0  0.00000000000E+00  0.00000000000E+00 -0.15555509919E+04  0.31463883798E+04  0.27349626959E+04 0.  0.
        4    1    3    3  502    0  0.83072538381E+03 -0.10641633569E+04 -0.52716264717E+03  0.14492930631E+04  0.12699999809E+01 0. -1.
       -4    1    3    3    0  502 -0.83072538381E+03  0.10641633569E+04 -0.10283883447E+04  0.16970953167E+04  0.12699999809E+01 0.  1.
</event>
<event>
 5   0  0.7351590E-06  0.2697744E+04  0.7818609E-02  0.8335737E-01
        1   -1    0    0  501    0  0.00000000000E+00  0.00000000000E+00  0.15987217982E+04  0.15987217982E+04  0.50400001928E-02 0. -1.
       -1   -1    0    0    0  501  0.00000000000E+00  0.00000000000E+00 -0.11380692258E+04  0.11380692258E+04  0.50400001928E-02 0.  1.
    10030    2    1    2    0    0  0.00000000000E+00  0.00000000000E+00  0.46065257240E+03  0.27367910241E+04  0.26977443016E+04 0.  0.
        3    1    3    3  502    0 -0.34972182294E+03  0.10446973817E+03 -0.10870205510E+04  0.11466616625E+04  0.10100000352E+00 0.  1.
       -3    1    3    3    0  502  0.34972182294E+03 -0.10446973817E+03  0.15476731234E+04  0.15901293616E+04  0.10100000352E+00 0. -1.
</event>
<event>
 5   0  0.7348964E-06  0.2654096E+04  0.7818609E-02  0.8350055E-01
       -1   -1    0    0    0  501  0.00000000000E+00  0.00000000000E+00  0.19669552456E+04  0.19669552456E+04  0.50400001928E-02 0. -1.
        1   -1    0    0  501    0  0.00000000000E+00  0.00000000000E+00 -0.89532075226E+03  0.89532075227E+03  0.50400001928E-02 0.  1.
    10030    2    1    2    0    0  0.00000000000E+00  0.00000000000E+00  0.10716344933E+04  0.28622759979E+04  0.26540955900E+04 0.  0.
        1    1    3    3  502    0  0.11330511549E+04 -0.22510675005E+02  0.12804423227E+04  0.17099252007E+04  0.50400001928E-02 0. -1.
       -1    1    3    3    0  502 -0.11330511549E+04  0.22510675005E+02 -0.20880782938E+03  0.11523507972E+04  0.50400001928E-02 0.  1.
</event>
<event>
 5   0  0.7351590E-06  0.2727060E+04  0.7818609E-02  0.8326278E-01
        1   -1    0    0  501    0  0.00000000000E+00  0.00000000000E+00  0.19376860444E+04  0.19376860444E+04  0.50400001928E-02 0.  1.
       -1   -1    0    0    0  501  0.00000000000E+00  0.00000000000E+00 -0.95950251015E+03  0.95950251016E+03  0.50400001928E-02 0. -1.
    10030    2    1    2    0    0  0.00000000000E+00  0.00000000000E+00  0.97818353421E+03  0.28971885545E+04  0.27270604126E+04 0.  0.
        3    1    3    3  502    0  0.17850192387E+03  0.89042626929E+03  0.15696438989E+04  0.18134232427E+04  0.10100000352E+00 0.  1.
       -3    1    3    3    0  502 -0.17850192387E+03 -0.89042626929E+03 -0.59146036466E+03  0.10837653118E+04  0.10100000352E+00 0. -1.
</event>
<event>
 5   0  0.6175875E-06  0.2627142E+04  0.7818609E-02  0.8359040E-01
       -4   -1    0    0    0  501  0.00000000000E+00  0.00000000000E+00  0.90914449547E+03  0.90914538251E+03  0.12699999809E+01 0. -1.
        4   -1    0    0  501    0  0.00000000000E+00  0.00000000000E+00 -0.18979015307E+04  0.18979019557E+04  0.12699999809E+01 0.  1.
    10030    2    1    2    0    0  0.00000000000E+00  0.00000000000E+00 -0.98875703527E+03  0.28070473382E+04  0.26271418469E+04 0.  0.
        1    1    3    3  502    0 -0.20813335105E+03 -0.11282773319E+04 -0.11778207869E+04  0.16442600267E+04  0.50400001928E-02 0.  1.
       -1    1    3    3    0  502  0.20813335105E+03  0.11282773319E+04  0.18906375164E+03  0.11627873114E+04  0.50400001928E-02 0. -1.
</event>
<event>
 5   0  0.7754912E-06  0.2582949E+04  0.7818609E-02  0.8374016E-01
        1   -1    0    0  501    0  0.00000000000E+00  0.00000000000E+00  0.72348550236E+03  0.72348550238E+03  0.50400001928E-02 0. -1.
       -1   -1    0    0    0  501  0.00000000000E+00  0.00000000000E+00 -0.23053761720E+04  0.23053761720E+04  0.50400001928E-02 0.  1.
    10030    2    1    2    0    0  0.00000000000E+00  0.00000000000E+00 -0.15818906697E+04  0.30288616744E+04  0.25829488868E+04 0.  0.
        4    1    3    3  502    0 -0.78202113892E+03 -0.35000319131E+02  0.41357761309E+03  0.88534182043E+03  0.12699999809E+01 0. -1.
       -4    1    3    3    0  502  0.78202113892E+03  0.35000319131E+02 -0.19954682827E+04  0.21435198540E+04  0.12699999809E+01 0.  1.
</event>
<event>
 5   0  0.7348964E-06  0.2687691E+04  0.7818609E-02  0.8339010E-01
       -1   -1    0    0    0  501  0.00000000000E+00  0.00000000000E+00  0.99285003737E+03  0.99285003738E+03  0.50400001928E-02 0. -1.
        1   -1    0    0  501    0  0.00000000000E+00  0.00000000000E+00 -0.18189262559E+04  0.18189262560E+04  0.50400001928E-02 0.  1.
    10030    2    1    2    0    0  0.00000000000E+00  0.00000000000E+00 -0.82607621857E+03  0.28117762933E+04  0.26876912034E+04 0.  0.
        1    1    3    3  502    0  0.11714474595E+04 -0.40658052738E+01  0.27585795562E+03  0.12034962787E+04  0.50400001928E-02 0. -1.
       -1    1    3    3    0  502 -0.11714474595E+04  0.40658052738E+01 -0.11019341742E+04  0.16082800146E+04  0.50400001928E-02 0.  1.
</event>
<event>
 5   0  0.7351590E-06  0.2719412E+04  0.7818609E-02  0.8328734E-01
       -1   -1    0    0    0  501  0.00000000000E+00  0.00000000000E+00  0.13275857702E+04  0.13275857702E+04  0.50400001928E-02 0. -1.
        1   -1    0    0  501    0  0.00000000000E+00  0.00000000000E+00 -0.13926035795E+04  0.13926035795E+04  0.50400001928E-02 0.  1.
    10030    2    1    2    0    0  0.00000000000E+00  0.00000000000E+00 -0.65017809247E+02  0.27201893497E+04  0.27194122127E+04 0.  0.
        3    1    3    3  502    0  0.10492976237E+04 -0.13586768965E+02 -0.89738920084E+03  0.13807669939E+04  0.10100000352E+00 0.  1.
       -3    1    3    3    0  502 -0.10492976237E+04  0.13586768965E+02  0.83237139160E+03  0.13394223558E+04  0.10100000352E+00 0. -1.
</event>
<event>
 5   0  0.1826851E-05  0.2610110E+04  0.7818609E-02  0.8364775E-01
        2   -1    0    0  501    0  0.00000000000E+00  0.00000000000E+00  0.10610295062E+04  0.10610295062E+04  0.25500000920E-02 0. -1.
       -2   -1    0    0    0  501  0.00000000000E+00  0.00000000000E+00 -0.16052038763E+04  0.16052038763E+04  0.25500000920E-02 0.  1.
    10030    2    1    2    0    0  0.00000000000E+00  0.00000000000E+00 -0.54417437010E+03  0.26662333825E+04  0.26101100944E+04 0.  0.
        5    1    3    3  502    0  0.11455646324E+04  0.58556802536E+03 -0.48431025787E+02  0.12874687932E+04  0.46999998093E+01 0.  1.
       -5    1    3    3    0  502 -0.11455646324E+04 -0.58556802536E+03 -0.49574334431E+03  0.13787645893E+04  0.46999998093E+01 0. -1.
</event>
<event>
 5   0  0.1881699E-05  0.2762525E+04  0.7818609E-02  0.8314998E-01
        2   -1    0    0  501    0  0.00000000000E+00  0.00000000000E+00  0.21251994078E+04  0.21251994078E+04  0.25500000920E-02 0. -1.
       -2   -1    0    0    0  501  0.00000000000E+00  0.00000000000E+00 -0.89774469542E+03  0.89774469543E+03  0.25500000920E-02 0.  1.
    10030    2    1    2    0    0  0.00000000000E+00  0.00000000000E+00  0.12274547124E+04  0.30229441032E+04  0.27625252904E+04 0.  0.
        4    1    3    3  502    0  0.11983859146E+04 -0.25388631879E+03 -0.84633512359E+02  0.12279053333E+04  0.12699999809E+01 0.  1.
       -4    1    3    3    0  502 -0.11983859146E+04  0.25388631879E+03  0.13120882247E+04  0.17950387699E+04  0.12699999809E+01 0. -1.
</event>
<event>
 5   0  0.7600052E-06  0.2666955E+04  0.7818609E-02  0.8345807E-01
        1   -1    0    0  501    0  0.00000000000E+00  0.00000000000E+00  0.20304406222E+04  0.20304406222E+04  0.50400001928E-02 0.  1.
       -1   -1    0    0    0  501  0.00000000000E+00  0.00000000000E+00 -0.87575175971E+03  0.87575175973E+03  0.50400001928E-02 0. -1.
    10030    2    1    2    0    0  0.00000000000E+00  0.00000000000E+00  0.11546888625E+04  0.29061923819E+04  0.26669547787E+04 0.  0.
        5    1    3    3  502    0 -0.17141480994E+03 -0.26927086838E+03 -0.83349667989E+03  0.89254055539E+03  0.46999998093E+01 0. -1.
       -5    1    3    3    0  502  0.17141480994E+03  0.26927086838E+03  0.19881855424E+04  0.20136518265E+04  0.46999998093E+01 0.  1.
</event>
<event>
 5   0  0.1881699E-05  0.2671960E+04  0.7818609E-02  0.8344161E-01
       -2   -1    0    0    0  501  0.00000000000E+00  0.00000000000E+00  0.75192838404E+03  0.75192838404E+03  0.25500000920E-02 0.  1.
        2   -1    0    0  501    0  0.00000000000E+00  0.00000000000E+00 -0.23736870849E+04  0.23736870849E+04  0.25500000920E-02 0. -1.
    10030    2    1    2    0    0  0.00000000000E+00  0.00000000000E+00 -0.16217587009E+04  0.31256154690E+04  0.26719601000E+04 0.  0.
        4    1    3    3  502    0  0.25601713032E+03 -0.57646395096E+03  0.56677909442E+03  0.84799505455E+03  0.12699999809E+01 0.  1.
       -4    1    3    3    0  502 -0.25601713032E+03  0.57646395096E+03 -0.21885377953E+04  0.22776204144E+04  0.12699999809E+01 0. -1.
</event>
<event>
 5   0  0.7600052E-06  0.2685433E+04  0.7818609E-02  0.8339747E-01
       -1   -1    0    0    0  501  0.00000000000E+00  0.00000000000E+00  0.13414270527E+04  0.13414270527E+04  0.50400001928E-02 0. -1.
        1   -1    0    0  501    0  0.00000000000E+00  0.00000000000E+00 -0.13440067426E+04  0.13440067426E+04  0.50400001928E-02 0.  1.
    10030    2    1    2    0    0  0.00000000000E+00  0.00000000000E+00 -0.25796899507E+01  0.26854337953E+04  0.26854325563E+04 0.  0.
        5    1    3    3  502    0 -0.43745947626E+03 -0.81061839716E+03  0.97564045711E+03  0.13417784358E+04  0.46999998093E+01 0. -1.
       -5    1    3    3    0  502  0.43745947626E+03  0.81061839716E+03 -0.97822014706E+03  0.13436553596E+04  0.46999998093E+01 0.  1.
</event>
<event>
 5   0  0.1788003E-05  0.2713637E+04  0.7818609E-02  0.8330594E-01
       -2   -1    0    0    0  501  0.00000000000E+00  0.00000000000E+00  0.92650968277E+03  0.92650968277E+03  0.25500000920E-02 0.  1.
        2   -1    0    0  501    0  0.00000000000E+00  0.00000000000E+00 -0.19869801326E+04  0.19869801326E+04  0.25500000920E-02 0. -1.
    10030    2    1    2    0    0  0.00000000000E+00  0.00000000000E+00 -0.10604704499E+04  0.29134898154E+04  0.27136369192E+04 0.  0.
        2    1    3    3  502    0  0.31280909695E+03  0.30540576685E+03  0.84882078532E+03  0.95478737903E+03  0.25500000920E-02 0.  1.
       -2    1    3    3    0  502 -0.31280909695E+03 -0.30540576685E+03 -0.19092912352E+04  0.19587024364E+04  0.25500000920E-02 0. -1.
</event>
<event>
 5   0  0.1878160E-05  0.2770424E+04  0.7818609E-02  0.8312510E-01
       -2   -1    0    0    0  501  0.00000000000E+00  0.00000000000E+00  0.75729437722E+03  0.75729437722E+03  0.25500000920E-02 0.  1.
        2   -1    0    0  501    0  0.00000000000E+00  0.00000000000E+00 -0.25337738874E+04  0.25337738874E+04  0.25500000920E-02 0. -1.
    10030    2    1    2    0    0  0.00000000000E+00  0.00000000000E+00 -0.17764795101E+04  0.32910682646E+04  0.27704243127E+04 0.  0.
        1    1    3    3  502    0 -0.26682197660E+03  0.18358570246E+03 -0.24881627185E+04  0.25091535209E+04  0.50400001928E-02 0. -1.
       -1    1    3    3    0  502  0.26682197660E+03 -0.18358570246E+03  0.71168320838E+03  0.78191474373E+03  0.50400001928E-02 0.  1.
</event>
<event>
 5   0  0.7754912E-06  0.2714954E+04  0.7818609E-02  0.8330169E-01
        1   -1    0    0  501    0  0.00000000000E+00  0.00000000000E+00  0.10712093134E+04  0.10712093134E+04  0.50400001928E-02 0. -1.
       -1   -1    0    0    0  501  0.00000000000E+00  0.00000000000E+00 -0.17202468200E+04  0.17202468200E+04  0.50400001928E-02 0.  1.
    10030    2    1    2    0    0  0.00000000000E+00  0.00000000000E+00 -0.64903750661E+03  0.27914561334E+04  0.27149544489E+04 0.  0.
        4    1    3    3  502    0  0.74992940496E+03  0.48876810904E+03 -0.13737915048E+04  0.16396929860E+04  0.12699999809E+01 0.  1.
       -4    1    3    3    0  502 -0.74992940496E+03 -0.48876810904E+03  0.72475399818E+03  0.11517631474E+04  0.12699999809E+01 0. -1.
</event>
<event>
 5   0  0.1878160E-05  0.2697990E+04  0.7818609E-02  0.8335657E-01
       -2   -1    0    0    0  501  0.00000000000E+00  0.00000000000E+00  0.99896642341E+03  0.99896642341E+03  0.25500000920E-02 0. -1.
        2   -1    0    0  501    0  0.00000000000E+00  0.00000000000E+00 -0.18216708890E+04  0.18216708890E+04  0.25500000920E-02 0.  1.
    10030    2    1    2    0    0  0.00000000000E+00  0.00000000000E+00 -0.82270446557E+03  0.28206373124E+04  0.26979904022E+04 0.  0.
        1    1    3    3  502    0 -0.10324588459E+04  0.33105680219E+03 -0.12504708057E+04  0.16550671015E+04  0.50400001928E-02 0.  1.
       -1    1    3    3    0  502  0.10324588459E+04 -0.33105680219E+03  0.42776634008E+03  0.11655702109E+04  0.50400001928E-02 0. -1.
</event>
<event>
 5   0  0.6804685E-06  0.2680256E+04  0.7818609E-02  0.8341440E-01
        1   -1    0    0  501    0  0.00000000000E+00  0.00000000000E+00  0.14747867155E+04  0.14747867155E+04  0.50400001928E-02 0. -1.
       -1   -1    0    0    0  501  0.00000000000E+00  0.00000000000E+00 -0.12177648186E+04  0.12177648186E+04  0.50400001928E-02 0.  1.
    10030    2    1    2    0    0  0.00000000000E+00  0.00000000000E+00  0.25702189683E+03  0.26925515341E+04  0.26802562393E+04 0.  0.
        2    1    3    3  502    0 -0.12489291312E+04  0.31900387178E+03 -0.23971647737E+03  0.13111260177E+04  0.25500000920E-02 0. -1.
       -2    1    3    3    0  502  0.12489291312E+04 -0.31900387178E+03  0.49673837420E+03  0.13814255164E+04  0.25500000920E-02 0.  1.
</event>
<event>
 5   0  0.1881699E-05  0.2738876E+04  0.7818609E-02  0.8322500E-01
       -2   -1    0    0    0  501  0.00000000000E+00  0.00000000000E+00  0.82193360321E+03  0.82193360321E+03  0.25500000920E-02 0. -1.
        2   -1    0    0  501    0  0.00000000000E+00  0.00000000000E+00 -0.22816438541E+04  0.22816438541E+04  0.25500000920E-02 0.  1.
    10030    2    1    2    0    0  0.00000000000E+00  0.00000000000E+00 -0.14597102509E+04  0.31035774573E+04  0.27388755023E+04 0.  0.
        4    1    3    3  502    0  0.16312990674E+03 -0.63103507115E+03 -0.20946122763E+04  0.21936770110E+04  0.12699999809E+01 0.  1.
       -4    1    3    3    0  502 -0.16312990674E+03  0.63103507115E+03  0.63490202542E+03  0.90990044635E+03  0.12699999809E+01 0. -1.
</event>
<event>
 5   0  0.1931119E-05  0.2653034E+04  0.7818609E-02  0.8350407E-01
       -2   -1    0    0    0  501  0.00000000000E+00  0.00000000000E+00  0.14753541945E+04  0.14753541945E+04  0.25500000920E-02 0. -1.
        2   -1    0    0  501    0  0.00000000000E+00  0.00000000000E+00 -0.11926949502E+04  0.11926949502E+04  0.25500000920E-02 0.  1.
    10030    2    1    2    0    0  0.00000000000E+00  0.00000000000E+00  0.28265924432E+03  0.26680491447E+04  0.26530341102E+04 0.  0.
        3    1    3    3  502    0  0.12796136905E+04  0.34527792871E+03  0.19659006481E+03  0.13398789903E+04  0.10100000352E+00 0. -1.
       -3    1    3    3    0  502 -0.12796136905E+04 -0.34527792871E+03  0.86069179514E+02  0.13281701543E+04  0.10100000352E+00 0.  1.
</event>
<event>
 5   0  0.6804685E-06  0.2110653E+04  0.7818609E-02  0.8556565E-01
        1   -1    0    0  501    0  0.00000000000E+00  0.00000000000E+00  0.17944605173E+04  0.17944605173E+04  0.50400001928E-02 0.  1.
       -1   -1    0    0    0  501  0.00000000000E+00  0.00000000000E+00 -0.62063991902E+03  0.62063991904E+03  0.50400001928E-02 0. -1.
    10030    2    1    2    0    0  0.00000000000E+00  0.00000000000E+00  0.11738205983E+04  0.24151004364E+04  0.21106528186E+04 0.  0.
        2    1    3    3  502    0  0.22668228495E+02 -0.94120578026E+03  0.41342967946E+02  0.94238601984E+03  0.25500000920E-02 0. -1.
       -2    1    3    3    0  502 -0.22668228495E+02  0.94120578026E+03  0.11324776304E+04  0.14727144165E+04  0.25500000920E-02 0.  1.
</event>
<event>
 5   0  0.7754912E-06  0.2747928E+04  0.7818609E-02  0.8319619E-01
        1   -1    0    0  501    0  0.00000000000E+00  0.00000000000E+00  0.10773015790E+04  0.10773015790E+04  0.50400001928E-02 0. -1.
       -1   -1    0    0    0  501  0.00000000000E+00  0.00000000000E+00 -0.17523200963E+04  0.17523200963E+04  0.50400001928E-02 0.  1.
    10030    2    1    2    0    0  0.00000000000E+00  0.00000000000E+00 -0.67501851722E+03  0.28296216753E+04  0.27479280971E+04 0.  0.
        4    1    3    3  502    0 -0.11029113670E+04  0.65008451809E+03 -0.85108736303E+03  0.15373271209E+04  0.12699999809E+01 0.  1.
       -4    1    3    3    0  502  0.11029113670E+04 -0.65008451809E+03  0.17606884581E+03  0.12922945545E+04  0.12699999809E+01 0. -1.
</event>
<event>
 5   0  0.7351590E-06  0.2693668E+04  0.7818609E-02  0.8337063E-01
       -1   -1    0    0    0  501  0.00000000000E+00  0.00000000000E+00  0.12936067907E+04  0.12936067907E+04  0.50400001928E-02 0.  1.
        1   -1    0    0  501    0  0.00000000000E+00  0.00000000000E+00 -0.14022508450E+04  0.14022508450E+04  0.50400001928E-02 0. -1.
    10030    2    1    2    0    0  0.00000000000E+00  0.00000000000E+00 -0.10864405434E+03  0.26958576357E+04  0.26936675484E+04 0.  0.
        3    1    3    3  502    0  0.26184651451E+03 -0.11474081158E+04  0.60107851008E+03  0.13215159351E+04  0.10100000352E+00 0.  1.
       -3    1    3    3    0  502 -0.26184651451E+03  0.11474081158E+04 -0.70972256441E+03  0.13743417006E+04  0.10100000352E+00 0. -1.
</event>
<event>
 5   0  0.7351590E-06  0.2317824E+04  0.7818609E-02  0.8470926E-01
        1   -1    0    0  501    0  0.00000000000E+00  0.00000000000E+00  0.18762658381E+04  0.18762658381E+04  0.50400001928E-02 0.  1.
       -1   -1    0    0    0  501  0.00000000000E+00  0.00000000000E+00 -0.71582456383E+03  0.71582456385E+03  0.50400001928E-02 0. -1.
    10030    2    1    2    0    0  0.00000000000E+00  0.00000000000E+00  0.11604412742E+04  0.25920904019E+04  0.23178241307E+04 0.  0.
        3    1    3    3  502    0 -0.78229173133E+02 -0.86221166325E+03 -0.28136358378E+03  0.91032644268E+03  0.10100000352E+00 0. -1.
       -3    1    3    3    0  502  0.78229173133E+02  0.86221166325E+03  0.14418048580E+04  0.16817639592E+04  0.10100000352E+00 0.  1.
</event>
<event>
 5   0  0.1931119E-05  0.2734417E+04  0.7818609E-02  0.8323923E-01
        2   -1    0    0  501    0  0.00000000000E+00  0.00000000000E+00  0.10731993706E+04  0.10731993706E+04  0.25500000920E-02 0. -1.
       -2   -1    0    0    0  501  0.00000000000E+00  0.00000000000E+00 -0.17417631217E+04  0.17417631217E+04  0.25500000920E-02 0.  1.
    10030    2    1    2    0    0  0.00000000000E+00  0.00000000000E+00 -0.66856375115E+03  0.28149624923E+04  0.27344170025E+04 0.  0.
        3    1    3    3  502    0  0.11135989002E+03 -0.68733415723E+03 -0.15455585031E+04  0.16951638167E+04  0.10100000352E+00 0.  1.
       -3    1    3    3    0  502 -0.11135989002E+03  0.68733415723E+03  0.87699475191E+03  0.11197986756E+04  0.10100000352E+00 0. -1.
</event>
<event>
 5   0  0.1826851E-05  0.2701934E+04  0.7818609E-02  0.8334378E-01
       -2   -1    0    0    0  501  0.00000000000E+00  0.00000000000E+00  0.70622803225E+03  0.70622803226E+03  0.25500000920E-02 0. -1.
        2   -1    0    0  501    0  0.00000000000E+00  0.00000000000E+00 -0.25843096039E+04  0.25843096039E+04  0.25500000920E-02 0.  1.
    10030    2    1    2    0    0  0.00000000000E+00  0.00000000000E+00 -0.18780815717E+04  0.32905376362E+04  0.27019340379E+04 0.  0.
        5    1    3    3  502    0 -0.16634281713E+03  0.20473655897E+03  0.67454806311E+03  0.72430944411E+03  0.46999998093E+01 0. -1.
       -5    1    3    3    0  502  0.16634281713E+03 -0.20473655897E+03 -0.25526296348E+04  0.25662281921E+04  0.46999998093E+01 0.  1.
</event>
<event>
 5   0  0.1788003E-05  0.2678714E+04  0.7818609E-02  0.8341945E-01
       -2   -1    0    0    0  501  0.00000000000E+00  0.00000000000E+00  0.93307813815E+03  0.93307813815E+03  0.25500000920E-02 0.  1.
        2   -1    0    0  501    0  0.00000000000E+00  0.00000000000E+00 -0.19225363642E+04  0.19225363642E+04  0.25500000920E-02 0. -1.
    10030    2    1    2    0    0  0.00000000000E+00  0.00000000000E+00 -0.98945822603E+03  0.28556145023E+04  0.26787136101E+04 0.  0.
        2    1    3    3  502    0 -0.11164781318E+04  0.72771451159E+03 -0.63689586990E+03  0.14770674251E+04  0.25500000920E-02 0.  1.
       -2    1    3    3    0  502  0.11164781318E+04 -0.72771451159E+03 -0.35256235613E+03  0.13785470772E+04  0.25500000920E-02 0. -1.
</event>
<event>
 5   0  0.7351590E-06  0.2693793E+04  0.7818609E-02  0.8337022E-01
        1   -1    0    0  501    0  0.00000000000E+00  0.00000000000E+00  0.13634372795E+04  0.13634372795E+04  0.50400001928E-02 0.  1.
       -1   -1    0    0    0  501  0.00000000000E+00  0.00000000000E+00 -0.13305564221E+04  0.13305564222E+04  0.50400001928E-02 0. -1.
    10030    2    1    2    0    0  0.00000000000E+00  0.00000000000E+00  0.32880857335E+02  0.26939937016E+04  0.26937930347E+04 0.  0.
        3    1    3    3  502    0  0.32426004837E+03  0.81602535735E+02  0.13212700327E+04  0.13629226178E+04  0.10100000352E+00 0.  1.
       -3    1    3    3    0  502 -0.32426004837E+03 -0.81602535735E+02 -0.12883891753E+04  0.13310710838E+04  0.10100000352E+00 0. -1.
</event>
<event>
 5   0  0.1788003E-05  0.2620793E+04  0.7818609E-02  0.8361173E-01
       -2   -1    0    0    0  501  0.00000000000E+00  0.00000000000E+00  0.64896377570E+03  0.64896377571E+03  0.25500000920E-02 0. -1.
        2   -1    0    0  501    0  0.00000000000E+00  0.00000000000E+00 -0.26459697320E+04  0.26459697320E+04  0.25500000920E-02 0.  1.
    10030    2    1    2    0    0  0.00000000000E+00  0.00000000000E+00 -0.19970059563E+04  0.32949335077E+04  0.26207926341E+04 0.  0.
        2    1    3    3  502    0  0.23525073649E+03  0.11710967689E+03  0.61549602252E+03  0.66924804011E+03  0.25500000920E-02 0. -1.
       -2    1    3    3    0  502 -0.23525073649E+03 -0.11710967689E+03 -0.26125019789E+04  0.26256854676E+04  0.25500000920E-02 0.  1.
</event>
<event>
 5   0  0.7348964E-06  0.2617184E+04  0.7818609E-02  0.8362388E-01
       -1   -1    0    0    0  501  0.00000000000E+00  0.00000000000E+00  0.12303905609E+04  0.12303905609E+04  0.50400001928E-02 0.  1.
        1   -1    0    0  501    0  0.00000000000E+00  0.00000000000E+00 -0.13917634376E+04  0.13917634376E+04  0.50400001928E-02 0. -1.
    10030    2    1    2    0    0  0.00000000000E+00  0.00000000000E+00 -0.16137287678E+03  0.26221539985E+04  0.26171836746E+04 0.  0.
        1    1    3    3  502    0 -0.92061352765E+03 -0.67989393057E+03  0.55504801404E+03  0.12719525628E+04  0.50400001928E-02 0.  1.
       -1    1    3    3    0  502  0.92061352765E+03  0.67989393057E+03 -0.71642089082E+03  0.13502014357E+04  0.50400001928E-02 0. -1.
</event>
<event>
 5   0  0.7600052E-06  0.2690247E+04  0.7818609E-02  0.8338176E-01
       -1   -1    0    0    0  501  0.00000000000E+00  0.00000000000E+00  0.12149301718E+04  0.12149301718E+04  0.50400001928E-02 0. -1.
        1   -1    0    0  501    0  0.00000000000E+00  0.00000000000E+00 -0.14892687922E+04  0.14892687922E+04  0.50400001928E-02 0.  1.
    10030    2    1    2    0    0  0.00000000000E+00  0.00000000000E+00 -0.27433862038E+03  0.27041989640E+04  0.26902472671E+04 0.  0.
        5    1    3    3  502    0 -0.29581773547E+03 -0.11231894401E+04  0.54478318295E+03  0.12829159978E+04  0.46999998093E+01 0. -1.
       -5    1    3    3    0  502  0.29581773547E+03  0.11231894401E+04 -0.81912180333E+03  0.14212829661E+04  0.46999998093E+01 0.  1.
</event>
<event>
 5   0  0.1881699E-05  0.2522170E+04  0.7818609E-02  0.8395130E-01
       -2   -1    0    0    0  501  0.00000000000E+00  0.00000000000E+00  0.15379143439E+04  0.15379143439E+04  0.25500000920E-02 0.  1.
        2   -1    0    0  501    0  0.00000000000E+00  0.00000000000E+00 -0.10340856134E+04  0.10340856134E+04  0.25500000920E-02 0. -1.
    10030    2    1    2    0    0  0.00000000000E+00  0.00000000000E+00  0.50382873054E+03  0.25719999573E+04  0.25221697783E+04 0.  0.
        4    1    3    3  502    0 -0.70588691062E+03 -0.10212082726E+04  0.47808627369E+03  0.13303047638E+04  0.12699999809E+01 0.  1.
       -4    1    3    3    0  502  0.70588691062E+03  0.10212082726E+04  0.25742456858E+02  0.12416951935E+04  0.12699999809E+01 0. -1.
</event>
<event>
 5   0  0.7351590E-06  0.2676790E+04  0.7818609E-02  0.8342575E-01
        1   -1    0    0  501    0  0.00000000000E+00  0.00000000000E+00  0.18294074202E+04  0.18294074202E+04  0.50400001928E-02 0.  1.
       -1   -1    0    0    0  501  0.00000000000E+00  0.00000000000E+00 -0.97917052652E+03  0.97917052653E+03  0.50400001928E-02 0. -1.
    10030    2    1    2    0    0  0.00000000000E+00  0.00000000000E+00  0.85023689367E+03  0.28085779467E+04  0.26767904863E+04 0.  0.
        3    1    3    3  502    0 -0.30595361079E+03  0.84297694151E+03  0.14675539047E+04  0.17198640090E+04  0.10100000352E+00 0.  1.
       -3    1    3    3    0  502  0.30595361079E+03 -0.84297694151E+03 -0.61731701107E+03  0.10887139377E+04  0.10100000352E+00 0. -1.
</event>
<event>
 5   0  0.7348964E-06  0.2243540E+04  0.7818609E-02  0.8500521E-01
        1   -1    0    0  501    0  0.00000000000E+00  0.00000000000E+00  0.18128096356E+04  0.18128096356E+04  0.50400001928E-02 0.  1.
       -1   -1    0    0    0  501  0.00000000000E+00  0.00000000000E+00 -0.69415357540E+03  0.69415357542E+03  0.50400001928E-02 0. -1.
    10030    2    1    2    0    0  0.00000000000E+00  0.00000000000E+00  0.11186560602E+04  0.25069632110E+04  0.22435403184E+04 0.  0.
        1    1    3    3  502    0 -0.68513952065E+03 -0.73855659586E+03  0.79476209166E+01  0.10074448733E+04  0.50400001928E-02 0. -1.
       -1    1    3    3    0  502  0.68513952065E+03  0.73855659586E+03  0.11107084393E+04  0.14995183377E+04  0.50400001928E-02 0.  1.
</event>
<event>
 5   0  0.6804685E-06  0.2248921E+04  0.7818609E-02  0.8498338E-01
       -1   -1    0    0    0  501  0.00000000000E+00  0.00000000000E+00  0.14702599995E+04  0.14702599995E+04  0.50400001928E-02 0. -1.
        1   -1    0    0  501    0  0.00000000000E+00  0.00000000000E+00 -0.85999150724E+03  0.85999150726E+03  0.50400001928E-02 0.  1.
    10030    2    1    2    0    0  0.00000000000E+00  0.00000000000E+00  0.61026849229E+03  0.23302515068E+04  0.22489207305E+04 0.  0.
        2    1    3    3  502    0 -0.34297043676E+02  0.27074259067E+03 -0.82515593363E+03  0.86911457957E+03  0.25500000920E-02 0.  1.
       -2    1    3    3    0  502  0.34297043676E+02 -0.27074259067E+03  0.14354244259E+04  0.14611369272E+04  0.25500000920E-02 0. -1.
</event>
<event>
 5   0  0.7754912E-06  0.2595745E+04  0.7818609E-02  0.8369648E-01
        1   -1    0    0  501    0  0.00000000000E+00  0.00000000000E+00  0.17089508189E+04  0.17089508189E+04  0.50400001928E-02 0.  1.
       -1   -1    0    0    0  501  0.00000000000E+00  0.00000000000E+00 -0.98567687398E+03  0.98567687399E+03  0.50400001928E-02 0. -1.
    10030    2    1    2    0    0  0.00000000000E+00  0.00000000000E+00  0.72327394489E+03  0.26946276929E+04  0.25957452116E+04 0.  0.
        4    1    3    3  502    0 -0.34038641673E+03  0.88770569333E+03 -0.55552801922E+03  0.11011345529E+04  0.12699999809E+01 0. -1.
       -4    1    3    3    0  502  0.34038641673E+03 -0.88770569333E+03  0.12788019641E+04  0.15934931399E+04  0.12699999809E+01 0.  1.
</event>
<event>
 5   0  0.6175875E-06  0.2714773E+04  0.7818609E-02  0.8330227E-01
       -3   -1    0    0    0  501  0.00000000000E+00  0.00000000000E+00  0.14984940618E+04  0.14984940652E+04  0.10100000352E+00 0. -1.
        3   -1    0    0  501    0  0.00000000000E+00  0.00000000000E+00 -0.12295666608E+04  0.12295666649E+04  0.10100000352E+00 0.  1.
    10030    2    1    2    0    0  0.00000000000E+00  0.00000000000E+00  0.26892740102E+03  0.27280607302E+04  0.27147731766E+04 0.  0.
        3    1    3    3  502    0 -0.93493132404E+03  0.94417636911E+03 -0.14426140845E+03  0.13365541369E+04  0.10100000352E+00 0.  1.
       -3    1    3    3    0  502  0.93493132404E+03 -0.94417636911E+03  0.41318880947E+03  0.13915065933E+04  0.10100000352E+00 0. -1.
</event>
<event>
 5   0  0.1878160E-05  0.2510778E+04  0.7818609E-02  0.8399156E-01
       -2   -1    0    0    0  501  0.00000000000E+00  0.00000000000E+00  0.10225264530E+04  0.10225264530E+04  0.25500000920E-02 0. -1.
        2   -1    0    0  501    0  0.00000000000E+00  0.00000000000E+00 -0.15412822248E+04  0.15412822248E+04  0.25500000920E-02 0.  1.
    10030    2    1    2    0    0  0.00000000000E+00  0.00000000000E+00 -0.51875577180E+03  0.25638086779E+04  0.25107782431E+04 0.  0.
        1    1    3    3  502    0  0.59392757058E+03 -0.10780994176E+04 -0.72756492963E+01  0.12308944912E+04  0.50400001928E-02 0. -1.
       -1    1    3    3    0  502 -0.59392757058E+03  0.10780994176E+04 -0.51148012251E+03  0.13329141867E+04  0.50400001928E-02 0.  1.
</event>
<event>
 5   0  0.6804685E-06  0.1970728E+04  0.7818609E-02  0.8620430E-01
        1   -1    0    0  501    0  0.00000000000E+00  0.00000000000E+00  0.12731570524E+04  0.12731570524E+04  0.50400001928E-02 0. -1.
       -1   -1    0    0    0  501  0.00000000000E+00  0.00000000000E+00 -0.76262553674E+03  0.76262553675E+03  0.50400001928E-02 0.  1.
    10030    2    1    2    0    0  0.00000000000E+00  0.00000000000E+00  0.51053151563E+03  0.20357825891E+04  0.19707278660E+04 0.  0.
        2    1    3    3  502    0 -0.45750465462E+03  0.69619393341E+03  0.79889393168E+03  0.11542218227E+04  0.25500000920E-02 0. -1.
       -2    1    3    3    0  502  0.45750465462E+03 -0.69619393341E+03 -0.28836241605E+03  0.88156076643E+03  0.25500000920E-02 0.  1.
</event>
<event>
 5   0  0.1931119E-05  0.2841884E+04  0.7818609E-02  0.8290382E-01
       -2   -1    0    0    0  501  0.00000000000E+00  0.00000000000E+00  0.12553121674E+04  0.12553121674E+04  0.25500000920E-02 0.  1.
        2   -1    0    0  501    0  0.00000000000E+00  0.00000000000E+00 -0.16084250449E+04  0.16084250449E+04  0.25500000920E-02 0. -1.
    10030    2    1    2    0    0  0.00000000000E+00  0.00000000000E+00 -0.35311287753E+03  0.28637372124E+04  0.28418835510E+04 0.  0.
        3    1    3    3  502    0 -0.42156876657E+03  0.11112702294E+04 -0.96128339951E+03  0.15286292985E+04  0.10100000352E+00 0. -1.
       -3    1    3    3    0  502  0.42156876657E+03 -0.11112702294E+04  0.60817052199E+03  0.13351079139E+04  0.10100000352E+00 0.  1.
</event>
<event>
 5   0  0.7754912E-06  0.2665791E+04  0.7818609E-02  0.8346191E-01
       -1   -1    0    0    0  501  0.00000000000E+00  0.00000000000E+00  0.14386661128E+04  0.14386661128E+04  0.50400001928E-02 0.  1.
        1   -1    0    0  501    0  0.00000000000E+00  0.00000000000E+00 -0.12349015018E+04  0.12349015018E+04  0.50400001928E-02 0. -1.
    10030    2    1    2    0    0  0.00000000000E+00  0.00000000000E+00  0.20376461095E+03  0.26735676146E+04  0.26657913972E+04 0.  0.
        4    1    3    3  502    0 -0.19374752990E+03 -0.13106074805E+04  0.24852529847E+03  0.13479601293E+04  0.12699999809E+01 0. -1.
       -4    1    3    3    0  502  0.19374752990E+03  0.13106074805E+04 -0.44760687520E+02  0.13256074853E+04  0.12699999809E+01 0.  1.
</event>
<event>
 5   0  0.1878160E-05  0.2691995E+04  0.7818609E-02  0.8337607E-01
       -2   -1    0    0    0  501  0.00000000000E+00  0.00000000000E+00  0.13579882245E+04  0.13579882245E+04  0.25500000920E-02 0. -1.
        2   -1    0    0  501    0  0.00000000000E+00  0.00000000000E+00 -0.13341126976E+04  0.13341126976E+04  0.25500000920E-02 0.  1.
    10030    2    1    2    0    0  0.00000000000E+00  0.00000000000E+00  0.23875526895E+02  0.26921009221E+04  0.26919950471E+04 0.  0.
        1    1    3    3  502    0  0.34562664773E+03  0.98572805361E+03  0.86084791201E+03  0.13535792193E+04  0.50400001928E-02 0.  1.
       -1    1    3    3    0  502 -0.34562664773E+03 -0.98572805361E+03 -0.83697238512E+03  0.13385217028E+04  0.50400001928E-02 0. -1.
</event>
<event>
 5   0  0.7351590E-06  0.2609023E+04  0.7818609E-02  0.8365143E-01
       -1   -1    0    0    0  501  0.00000000000E+00  0.00000000000E+00  0.87684521853E+03  0.87684521854E+03  0.50400001928E-02 0.  1.
        1   -1    0    0  501    0  0.00000000000E+00  0.00000000000E+00 -0.19407645777E+04  0.19407645777E+04  0.50400001928E-02 0. -1.
    10030    2    1    2    0    0  0.00000000000E+00  0.00000000000E+00 -0.10639193592E+04  0.28176097962E+04  0.26090229131E+04 0.  0.
        3    1    3    3  502    0 -0.97793493450E+03 -0.64979576571E+03 -0.11458785559E+04  0.16406184652E+04  0.10100000352E+00 0. -1.
       -3    1    3    3    0  502  0.97793493450E+03  0.64979576571E+03  0.81959196724E+02  0.11769913311E+04  0.10100000352E+00 0.  1.
</event>
<event>
 5   0  0.1881699E-05  0.2470987E+04  0.7818609E-02  0.8413395E-01
        2   -1    0    0  501    0  0.00000000000E+00  0.00000000000E+00  0.12582395471E+04  0.12582395471E+04  0.25500000920E-02 0.  1.
       -2   -1    0    0    0  501  0.00000000000E+00  0.00000000000E+00 -0.12131589574E+04  0.12131589574E+04  0.25500000920E-02 0. -1.
    10030    2    1    2    0    0  0.00000000000E+00  0.00000000000E+00  0.45080589639E+02  0.24713985045E+04  0.24709873145E+04 0.  0.
        4    1    3    3  502    0 -0.14079702184E+03 -0.90400910288E+02 -0.12017740375E+04  0.12133666289E+04  0.12699999809E+01 0. -1.
       -4    1    3    3    0  502  0.14079702184E+03  0.90400910288E+02  0.12468546271E+04  0.12580318756E+04  0.12699999809E+01 0.  1.
</event>
<event>
 5   0  0.1881699E-05  0.2679483E+04  0.7818609E-02  0.8341693E-01
       -2   -1    0    0    0  501  0.00000000000E+00  0.00000000000E+00  0.11112186455E+04  0.11112186455E+04  0.25500000920E-02 0. -1.
        2   -1    0    0  501    0  0.00000000000E+00  0.00000000000E+00 -0.16152604162E+04  0.16152604162E+04  0.25500000920E-02 0.  1.
    10030    2    1    2    0    0  0.00000000000E+00  0.00000000000E+00 -0.50404177062E+03  0.27264790617E+04  0.26794831530E+04 0.  0.
        4    1    3    3  502    0 -0.12653277774E+04  0.43011843009E+03 -0.34774331445E+03  0.13809356516E+04  0.12699999809E+01 0. -1.
       -4    1    3    3    0  502  0.12653277774E+04 -0.43011843009E+03 -0.15629845617E+03  0.13455434101E+04  0.12699999809E+01 0.  1.
</event>
<event>
 5   0  0.1826851E-05  0.2716053E+04  0.7818609E-02  0.8329815E-01
        2   -1    0    0  501    0  0.00000000000E+00  0.00000000000E+00  0.15732959827E+04  0.15732959827E+04  0.25500000920E-02 0.  1.
       -2   -1    0    0    0  501  0.00000000000E+00  0.00000000000E+00 -0.11722120097E+04  0.11722120097E+04  0.25500000920E-02 0. -1.
    10030    2    1    2    0    0  0.00000000000E+00  0.00000000000E+00  0.40108397300E+03  0.27455079925E+04  0.27160533469E+04 0.  0.
        5    1    3    3  502    0 -0.10261104143E+04  0.13601330587E+03 -0.68808886767E+03  0.12429362742E+04  0.46999998093E+01 0.  1.
       -5    1    3    3    0  502  0.10261104143E+04 -0.13601330587E+03  0.10891728407E+04  0.15025717183E+04  0.46999998093E+01 0. -1.
</event>
<event>
 5   0  0.1788003E-05  0.2795771E+04  0.7818609E-02  0.8304583E-01
       -2   -1    0    0    0  501  0.00000000000E+00  0.00000000000E+00  0.12484963585E+04  0.12484963585E+04  0.25500000920E-02 0. -1.
        2   -1    0    0  501    0  0.00000000000E+00  0.00000000000E+00 -0.15651493837E+04  0.15651493837E+04  0.25500000920E-02 0.  1.
    10030    2    1    2    0    0  0.00000000000E+00  0.00000000000E+00 -0.31665302518E+03  0.28136457421E+04  0.27957705957E+04 0.  0.
        2    1    3    3  502    0 -0.10223534622E+04  0.91779436530E+03 -0.41791015434E+03  0.14360369062E+04  0.25500000920E-02 0.  1.
       -2    1    3    3    0  502  0.10223534622E+04 -0.91779436530E+03  0.10125712916E+03  0.13776088360E+04  0.25500000920E-02 0. -1.
</event>
<event>
 5   0  0.1931119E-05  0.2644275E+04  0.7818609E-02  0.8353316E-01
        2   -1    0    0  501    0  0.00000000000E+00  0.00000000000E+00  0.21159179978E+04  0.21159179978E+04  0.25500000920E-02 0.  1.
       -2   -1    0    0    0  501  0.00000000000E+00  0.00000000000E+00 -0.82614160417E+03  0.82614160418E+03  0.25500000920E-02 0. -1.
    10030    2    1    2    0    0  0.00000000000E+00  0.00000000000E+00  0.12897763936E+04  0.29420596019E+04  0.26442752421E+04 0.  0.
        3    1    3    3  502    0 -0.21085133943E+03  0.72049689446E+01  0.20970689615E+04  0.21076547246E+04  0.10100000352E+00 0.  1.
       -3    1    3    3    0  502  0.21085133943E+03 -0.72049689446E+01 -0.80729256788E+03  0.83440487731E+03  0.10100000352E+00 0. -1.
</event>
<event>
 5   0  0.1931119E-05  0.2324058E+04  0.7818609E-02  0.8468495E-01
       -2   -1    0    0    0  501  0.00000000000E+00  0.00000000000E+00  0.13421399461E+04  0.13421399461E+04  0.25500000920E-02 0.  1.
        2   -1    0    0  501    0  0.00000000000E+00  0.00000000000E+00 -0.10060881590E+04  0.10060881590E+04  0.25500000920E-02 0. -1.
    10030    2    1    2    0    0  0.00000000000E+00  0.00000000000E+00  0.33605178704E+03  0.23482281051E+04  0.23240577510E+04 0.  0.
        3    1    3    3  502    0  0.84124075655E+03 -0.40890470955E+03 -0.52865357982E+03  0.10744131839E+04  0.10100000352E+00 0. -1.
       -3    1    3    3    0  502 -0.84124075655E+03  0.40890470955E+03  0.86470536686E+03  0.12738149213E+04  0.10100000352E+00 0.  1.
</event>
<event>
 5   0  0.1788003E-05  0.2669561E+04  0.7818609E-02  0.8344950E-01
       -2   -1    0    0    0  501  0.00000000000E+00  0.00000000000E+00  0.97111254916E+03  0.97111254916E+03  0.25500000920E-02 0. -1.
        2   -1    0    0  501    0  0.00000000000E+00  0.00000000000E+00 -0.18346366672E+04  0.18346366672E+04  0.25500000920E-02 0.  1.
    10030    2    1    2    0    0  0.00000000000E+00  0.00000000000E+00 -0.86352411804E+03  0.28057492164E+04  0.26695607808E+04 0.  0.
        2    1    3    3  502    0 -0.64856482630E+03 -0.11665876744E+04 -0.42262640670E+03  0.14000629328E+04  0.25500000920E-02 0. -1.
       -2    1    3    3    0  502  0.64856482630E+03  0.11665876744E+04 -0.44089771134E+03  0.14056862836E+04  0.25500000920E-02 0.  1.
</event>
<event>
 5   0  0.6804685E-06  0.2755559E+04  0.7818609E-02  0.8317200E-01
        1   -1    0    0  501    0  0.00000000000E+00  0.00000000000E+00  0.14634010862E+04  0.14634010862E+04  0.50400001928E-02 0. -1.
       -1   -1    0    0    0  501  0.00000000000E+00  0.00000000000E+00 -0.12971678863E+04  0.12971678863E+04  0.50400001928E-02 0.  1.
    10030    2    1    2    0    0  0.00000000000E+00  0.00000000000E+00  0.16623319994E+03  0.27605689725E+04  0.27555593942E+04 0.  0.
        2    1    3    3  502    0  0.24241909475E+03 -0.11996356864E+04 -0.55079286338E+03  0.13421123559E+04  0.25500000920E-02 0.  1.
       -2    1    3    3    0  502 -0.24241909475E+03  0.11996356864E+04  0.71702606332E+03  0.14184566165E+04  0.25500000920E-02 0. -1.
</event>
<event>
 5   0  0.1931119E-05  0.2707842E+04  0.7818609E-02  0.8332465E-01
        2   -1    0    0  501    0  0.00000000000E+00  0.00000000000E+00  0.16228462042E+04  0.16228462042E+04  0.25500000920E-02 0.  1.
       -2   -1    0    0    0  501  0.00000000000E+00  0.00000000000E+00 -0.11295600057E+04  0.11295600057E+04  0.25500000920E-02 0. -1.
    10030    2    1    2    0    0  0.00000000000E+00  0.00000000000E+00  0.49328619853E+03  0.27524062099E+04  0.27078420690E+04 0.  0.
        3    1    3    3  502    0  0.21655515086E+02 -0.11169732972E+04  0.10240861032E+04  0.15155364281E+04  0.10100000352E+00 0.  1.
       -3    1    3    3    0  502 -0.21655515086E+02  0.11169732972E+04 -0.53079990466E+03  0.12368697818E+04  0.10100000352E+00 0. -1.
</event>
<event>
 5   0  0.7348964E-06  0.2622354E+04  0.7818609E-02  0.8360648E-01
        1   -1    0    0  501    0  0.00000000000E+00  0.00000000000E+00  0.86418135469E+03  0.86418135470E+03  0.50400001928E-02 0. -1.
       -1   -1    0    0    0  501  0.00000000000E+00  0.00000000000E+00 -0.19893794536E+04  0.19893794536E+04  0.50400001928E-02 0.  1.
    10030    2    1    2    0    0  0.00000000000E+00  0.00000000000E+00 -0.11251980989E+04  0.28535608083E+04  0.26223536231E+04 0.  0.
        1    1    3    3  502    0 -0.96607308060E+03 -0.72950801858E+03 -0.14497784757E+02  0.12106565706E+04  0.50400001928E-02 0. -1.
       -1    1    3    3    0  502  0.96607308060E+03  0.72950801858E+03 -0.11107003141E+04  0.16429042376E+04  0.50400001928E-02 0.  1.
</event>
<event>
 5   0  0.1878160E-05  0.2717124E+04  0.7818609E-02  0.8329470E-01
        2   -1    0    0  501    0  0.00000000000E+00  0.00000000000E+00  0.21464119449E+04  0.21464119449E+04  0.25500000920E-02 0.  1.
       -2   -1    0    0    0  501  0.00000000000E+00  0.00000000000E+00 -0.85989577892E+03  0.85989577892E+03  0.25500000920E-02 0. -1.
    10030    2    1    2    0    0  0.00000000000E+00  0.00000000000E+00  0.12865161660E+04  0.30063077238E+04  0.27171238994E+04 0.  0.
        1    1    3    3  502    0 -0.36572448108E+03  0.11555473525E+03  0.20852652282E+04  0.21202448833E+04  0.50400001928E-02 0.  1.
       -1    1    3    3    0  502  0.36572448108E+03 -0.11555473525E+03 -0.79874906226E+03  0.88606284054E+03  0.50400001928E-02 0. -1.
</event>
<event>
 5   0  0.1788003E-05  0.2763509E+04  0.7818609E-02  0.8314688E-01
       -2   -1    0    0    0  501  0.00000000000E+00  0.00000000000E+00  0.22040726533E+04  0.22040726533E+04  0.25500000920E-02 0. -1.
        2   -1    0    0  501    0  0.00000000000E+00  0.00000000000E+00 -0.86623534147E+03  0.86623534147E+03  0.25500000920E-02 0.  1.
    10030    2    1    2    0    0  0.00000000000E+00  0.00000000000E+00  0.13378373118E+04  0.30703079948E+04  0.27635090935E+04 0.  0.
        2    1    3    3  502    0 -0.57340702016E+03  0.60917442179E+03 -0.55287600878E+03  0.10027766292E+04  0.25500000920E-02 0. -1.
       -2    1    3    3    0  502  0.57340702016E+03 -0.60917442179E+03  0.18907133206E+04  0.20675313656E+04  0.25500000920E-02 0.  1.
</event>
<event>
 5   0  0.6804685E-06  0.2700977E+04  0.7818609E-02  0.8334688E-01
       -1   -1    0    0    0  501  0.00000000000E+00  0.00000000000E+00  0.13723161603E+04  0.13723161603E+04  0.50400001928E-02 0. -1.
        1   -1    0    0  501    0  0.00000000000E+00  0.00000000000E+00 -0.13290083456E+04  0.13290083456E+04  0.50400001928E-02 0.  1.
    10030    2    1    2    0    0  0.00000000000E+00  0.00000000000E+00  0.43307814734E+02  0.27013245059E+04  0.27009773267E+04 0.  0.
        2    1    3    3  502    0  0.25289802133E+03  0.47877666379E+03 -0.12156935147E+04  0.13308250165E+04  0.25500000920E-02 0.  1.
       -2    1    3    3    0  502 -0.25289802133E+03 -0.47877666379E+03  0.12590013294E+04  0.13704994894E+04  0.25500000920E-02 0. -1.
</event>
<event>
 5   0  0.1826851E-05  0.2579595E+04  0.7818609E-02  0.8375166E-01
        2   -1    0    0  501    0  0.00000000000E+00  0.00000000000E+00  0.18972042765E+04  0.18972042765E+04  0.25500000920E-02 0.  1.
       -2   -1    0    0    0  501  0.00000000000E+00  0.00000000000E+00 -0.87685715039E+03  0.87685715040E+03  0.25500000920E-02 0. -1.
    10030    2    1    2    0    0  0.00000000000E+00  0.00000000000E+00  0.10203471261E+04  0.27740614269E+04  0.25795946469E+04 0.  0.
        5    1    3    3  502    0  0.12498743893E+04  0.92298539574E+02  0.83785787149E+03  0.15075585933E+04  0.46999998093E+01 0. -1.
       -5    1    3    3    0  502 -0.12498743893E+04 -0.92298539574E+02  0.18248925463E+03  0.12665028336E+04  0.46999998093E+01 0.  1.
</event>
<event>
 5   0  0.7351590E-06  0.2676309E+04  0.7818609E-02  0.8342733E-01
       -1   -1    0    0    0  501  0.00000000000E+00  0.00000000000E+00  0.13157716785E+04  0.13157716785E+04  0.50400001928E-02 0.  1.
        1   -1    0    0  501    0  0.00000000000E+00  0.00000000000E+00 -0.13609183190E+04  0.13609183190E+04  0.50400001928E-02 0. -1.
    10030    2    1    2    0    0  0.00000000000E+00  0.00000000000E+00 -0.45146640485E+02  0.26766899975E+04  0.26763092354E+04 0.  0.
        3    1    3    3  502    0 -0.10158501636E+04  0.71573585363E+03 -0.51905950125E+03  0.13467190290E+04  0.10100000352E+00 0. -1.
       -3    1    3    3    0  502  0.10158501636E+04 -0.71573585363E+03  0.47391286076E+03  0.13299709685E+04  0.10100000352E+00 0.  1.
</event>
<event>
 5   0  0.7351590E-06  0.2596079E+04  0.7818609E-02  0.8369534E-01
        1   -1    0    0  501    0  0.00000000000E+00  0.00000000000E+00  0.21105076015E+04  0.21105076015E+04  0.50400001928E-02 0. -1.
       -1   -1    0    0    0  501  0.00000000000E+00  0.00000000000E+00 -0.79834190998E+03  0.79834190999E+03  0.50400001928E-02 0.  1.
    10030    2    1    2    0    0  0.00000000000E+00  0.00000000000E+00  0.13121656915E+04  0.29088495115E+04  0.25960790971E+04 0.  0.
        3    1    3    3  502    0  0.41280882505E+03  0.57308201235E+03 -0.56419565288E+03  0.90396397265E+03  0.10100000352E+00 0.  1.
       -3    1    3    3    0  502 -0.41280882505E+03 -0.57308201235E+03  0.18763613444E+04  0.20048855389E+04  0.10100000352E+00 0. -1.
</event>
<event>
 5   0  0.7754912E-06  0.2694255E+04  0.7818609E-02  0.8336872E-01
       -1   -1    0    0    0  501  0.00000000000E+00  0.00000000000E+00  0.17255026871E+04  0.17255026871E+04  0.50400001928E-02 0. -1.
        1   -1    0    0  501    0  0.00000000000E+00  0.00000000000E+00 -0.10517236891E+04  0.10517236891E+04  0.50400001928E-02 0.  1.
    10030    2    1    2    0    0  0.00000000000E+00  0.00000000000E+00  0.67377899800E+03  0.27772263763E+04  0.26942546663E+04 0.  0.
        4    1    3    3  502    0 -0.12102497770E+04 -0.13548506656E+03 -0.25677166414E+03  0.12445858855E+04  0.12699999809E+01 0.  1.
       -4    1    3    3    0  502  0.12102497770E+04  0.13548506656E+03  0.93055066214E+03  0.15326404907E+04  0.12699999809E+01 0. -1.
</event>
<event>
 5   0  0.1881699E-05  0.2743990E+04  0.7818609E-02  0.8320871E-01
       -2   -1    0    0    0  501  0.00000000000E+00  0.00000000000E+00  0.19055478408E+04  0.19055478408E+04  0.25500000920E-02 0. -1.
        2   -1    0    0  501    0  0.00000000000E+00  0.00000000000E+00 -0.98783657842E+03  0.98783657842E+03  0.25500000920E-02 0.  1.
    10030    2    1    2    0    0  0.00000000000E+00  0.00000000000E+00  0.91771126234E+03  0.28933844192E+04  0.27439896932E+04 0.  0.
        4    1    3    3  502    0  0.31286463502E+03 -0.13267755369E+04  0.62272130745E+03  0.14986664221E+04  0.12699999809E+01 0.  1.
       -4    1    3    3    0  502 -0.31286463502E+03  0.13267755369E+04  0.29498995490E+03  0.13947179971E+04  0.12699999809E+01 0. -1.
</event>
<event>
 5   0  0.1788003E-05  0.2642102E+04  0.7818609E-02  0.8354039E-01
        2   -1    0    0  501    0  0.00000000000E+00  0.00000000000E+00  0.20082136564E+04  0.20082136564E+04  0.25500000920E-02 0.  1.
       -2   -1    0    0    0  501  0.00000000000E+00  0.00000000000E+00 -0.86901924228E+03  0.86901924228E+03  0.25500000920E-02 0. -1.
    10030    2    1    2    0    0  0.00000000000E+00  0.00000000000E+00  0.11391944141E+04  0.28772328987E+04  0.26421024280E+04 0.  0.
        2    1    3    3  502    0 -0.66228246784E+03  0.10955071784E+04  0.92485336610E+03  0.15792744517E+04  0.25500000920E-02 0.  1.
       -2    1    3    3    0  502  0.66228246784E+03 -0.10955071784E+04  0.21434104804E+03  0.12979584470E+04  0.25500000920E-02 0. -1.
</event>
<event>
 5   0  0.1881699E-05  0.2656953E+04  0.7818609E-02  0.8349109E-01
       -2   -1    0    0    0  501  0.00000000000E+00  0.00000000000E+00  0.61873521450E+03  0.61873521450E+03  0.25500000920E-02 0. -1.
        2   -1    0    0  501    0  0.00000000000E+00  0.00000000000E+00 -0.28523513389E+04  0.28523513389E+04  0.25500000920E-02 0.  1.
    10030    2    1    2    0    0  0.00000000000E+00  0.00000000000E+00 -0.22336161244E+04  0.34710865534E+04  0.26569533060E+04 0.  0.
        4    1    3    3  502    0  0.98367324298E+03 -0.82064140514E+03 -0.65717374782E+03  0.14397723127E+04  0.12699999809E+01 0. -1.
       -4    1    3    3    0  502 -0.98367324298E+03  0.82064140514E+03 -0.15764423766E+04  0.20313142407E+04  0.12699999809E+01 0.  1.
</event>
<event>
 5   0  0.1878160E-05  0.2629439E+04  0.7818609E-02  0.8358270E-01
       -2   -1    0    0    0  501  0.00000000000E+00  0.00000000000E+00  0.12465025641E+04  0.12465025641E+04  0.25500000920E-02 0.  1.
        2   -1    0    0  501    0  0.00000000000E+00  0.00000000000E+00 -0.13866701072E+04  0.13866701072E+04  0.25500000920E-02 0. -1.
    10030    2    1    2    0    0  0.00000000000E+00  0.00000000000E+00 -0.14016754313E+03  0.26331726713E+04  0.26294393655E+04 0.  0.
        1    1    3    3  502    0 -0.39492393220E+03 -0.35561745487E+03  0.11341455808E+04  0.12524834868E+04  0.50400001928E-02 0.  1.
       -1    1    3    3    0  502  0.39492393220E+03  0.35561745487E+03 -0.12743131239E+04  0.13806891845E+04  0.50400001928E-02 0. -1.
</event>
<event>
 5   0  0.1931119E-05  0.2651693E+04  0.7818609E-02  0.8350851E-01
        2   -1    0    0  501    0  0.00000000000E+00  0.00000000000E+00  0.15482117030E+04  0.15482117030E+04  0.25500000920E-02 0. -1.
       -2   -1    0    0    0  501  0.00000000000E+00  0.00000000000E+00 -0.11354190238E+04  0.11354190238E+04  0.25500000920E-02 0.  1.
    10030    2    1    2    0    0  0.00000000000E+00  0.00000000000E+00  0.41279267927E+03  0.26836307268E+04  0.26516930595E+04 0.  0.
        3    1    3    3  502    0  0.12570714152E+04 -0.38510756871E+03  0.33065839279E+02  0.13151538854E+04  0.10100000352E+00 0. -1.
       -3    1    3    3    0  502 -0.12570714152E+04  0.38510756871E+03  0.37972683999E+03  0.13684768414E+04  0.10100000352E+00 0.  1.
</event>
<event>
 5   0  0.7348964E-06  0.3024385E+04  0.7818609E-02  0.8236802E-01
       -1   -1    0    0    0  501  0.00000000000E+00  0.00000000000E+00  0.92768972428E+03  0.92768972429E+03  0.50400001928E-02 0.  1.
        1   -1    0    0  501    0  0.00000000000E+00  0.00000000000E+00 -0.24649687981E+04  0.24649687981E+04  0.50400001928E-02 0. -1.
    10030    2    1    2    0    0  0.00000000000E+00  0.00000000000E+00 -0.15372790738E+04  0.33926585224E+04  0.30243850447E+04 0.  0.
        1    1    3    3  502    0 -0.92091385988E+03 -0.14636076443E+03 -0.21040724435E+04  0.23014396925E+04  0.50400001928E-02 0. -1.
       -1    1    3    3    0  502  0.92091385988E+03  0.14636076443E+03  0.56679336970E+03  0.10912188299E+04  0.50400001928E-02 0.  1.
</event>
<event>
 5   0  0.1788003E-05  0.2743495E+04  0.7818609E-02  0.8321029E-01
        2   -1    0    0  501    0  0.00000000000E+00  0.00000000000E+00  0.24579645442E+04  0.24579645442E+04  0.25500000920E-02 0. -1.
       -2   -1    0    0    0  501  0.00000000000E+00  0.00000000000E+00 -0.76554869205E+03  0.76554869205E+03  0.25500000920E-02 0.  1.
    10030    2    1    2    0    0  0.00000000000E+00  0.00000000000E+00  0.16924158521E+04  0.32235132362E+04  0.27434952465E+04 0.  0.
        2    1    3    3  502    0  0.13952720719E+03  0.77824972978E+02 -0.75457987608E+03  0.77130756340E+03  0.25500000920E-02 0.  1.
       -2    1    3    3    0  502 -0.13952720719E+03 -0.77824972978E+02  0.24469957282E+04  0.24522056728E+04  0.25500000920E-02 0. -1.
</event>
<event>
 5   0  0.6804685E-06  0.2656789E+04  0.7818609E-02  0.8349163E-01
        1   -1    0    0  501    0  0.00000000000E+00  0.00000000000E+00  0.79193063903E+03  0.79193063904E+03  0.50400001928E-02 0.  1.
       -1   -1    0    0    0  501  0.00000000000E+00  0.00000000000E+00 -0.22282659004E+04  0.22282659004E+04  0.50400001928E-02 0. -1.
    10030    2    1    2    0    0  0.00000000000E+00  0.00000000000E+00 -0.14363352613E+04  0.30201965394E+04  0.26567890683E+04 0.  0.
        2    1    3    3  502    0 -0.21044469417E+03  0.69411984404E+03  0.54695791124E+03  0.90843397331E+03  0.25500000920E-02 0.  1.
       -2    1    3    3    0  502  0.21044469417E+03 -0.69411984404E+03 -0.19832931726E+04  0.21117625661E+04  0.25500000920E-02 0. -1.
</event>
<event>
 5   0  0.1788003E-05  0.2675575E+04  0.7818609E-02  0.8342974E-01
       -2   -1    0    0    0  501  0.00000000000E+00  0.00000000000E+00  0.13175122408E+04  0.13175122408E+04  0.25500000920E-02 0.  1.
        2   -1    0    0  501    0  0.00000000000E+00  0.00000000000E+00 -0.13583750453E+04  0.13583750453E+04  0.25500000920E-02 0. -1.
    10030    2    1    2    0    0  0.00000000000E+00  0.00000000000E+00 -0.40862804509E+02  0.26758872862E+04  0.26755752652E+04 0.  0.
        2    1    3    3  502    0 -0.67204600051E+03  0.58210346515E+03  0.97927782505E+03  0.13226773339E+04  0.25500000920E-02 0.  1.
       -2    1    3    3    0  502  0.67204600051E+03 -0.58210346515E+03 -0.10201406296E+04  0.13532099523E+04  0.25500000920E-02 0. -1.
</event>
<event>
 5   0  0.1881699E-05  0.2747956E+04  0.7818609E-02  0.8319610E-01
       -2   -1    0    0    0  501  0.00000000000E+00  0.00000000000E+00  0.11638520665E+04  0.11638520665E+04  0.25500000920E-02 0. -1.
        2   -1    0    0  501    0  0.00000000000E+00  0.00000000000E+00 -0.16220412617E+04  0.16220412617E+04  0.25500000920E-02 0.  1.
    10030    2    1    2    0    0  0.00000000000E+00  0.00000000000E+00 -0.45818919520E+03  0.27858933282E+04  0.27479563856E+04 0.  0.
        4    1    3    3  502    0  0.83930834682E+03 -0.32942917389E+03 -0.12801583498E+04  0.15658125990E+04  0.12699999809E+01 0.  1.
       -4    1    3    3    0  502 -0.83930834682E+03  0.32942917389E+03  0.82196915461E+03  0.12200807292E+04  0.12699999809E+01 0. -1.
</event>
<event>
 5   0  0.7348964E-06  0.2864745E+04  0.7818609E-02  0.8283445E-01
       -1   -1    0    0    0  501  0.00000000000E+00  0.00000000000E+00  0.98714746253E+03  0.98714746254E+03  0.50400001928E-02 0.  1.
        1   -1    0    0  501    0  0.00000000000E+00  0.00000000000E+00 -0.20784038870E+04  0.20784038870E+04  0.50400001928E-02 0. -1.
    10030    2    1    2    0    0  0.00000000000E+00  0.00000000000E+00 -0.10912564244E+04  0.30655513495E+04  0.28647451008E+04 0.  0.
        1    1    3    3  502    0 -0.13148549309E+04  0.53343704925E+03 -0.33622673335E+03  0.14582342031E+04  0.50400001928E-02 0. -1.
       -1    1    3    3    0  502  0.13148549309E+04 -0.53343704925E+03 -0.75502969108E+03  0.16073171464E+04  0.50400001928E-02 0.  1.
</event>
<event>
 5   0  0.7351590E-06  0.2702784E+04  0.7818609E-02  0.8334102E-01
       -1   -1    0    0    0  501  0.00000000000E+00  0.00000000000E+00  0.13680535864E+04  0.13680535864E+04  0.50400001928E-02 0. -1.
        1   -1    0    0  501    0  0.00000000000E+00  0.00000000000E+00 -0.13349338085E+04  0.13349338085E+04  0.50400001928E-02 0.  1.
    10030    2    1    2    0    0  0.00000000000E+00  0.00000000000E+00  0.33119777825E+02  0.27029873949E+04  0.27027844785E+04 0.  0.
        3    1    3    3  502    0  0.12935006119E+03 -0.90235460614E+03  0.10142748542E+04  0.13637187260E+04  0.10100000352E+00 0. -1.
       -3    1    3    3    0  502 -0.12935006119E+03  0.90235460614E+03 -0.98115507635E+03  0.13392686689E+04  0.10100000352E+00 0.  1.
</event>
<event>
 5   0  0.1931119E-05  0.2695244E+04  0.7818609E-02  0.8336550E-01
        2   -1    0    0  501    0  0.00000000000E+00  0.00000000000E+00  0.17369897322E+04  0.17369897322E+04  0.25500000920E-02 0. -1.
       -2   -1    0    0    0  501  0.00000000000E+00  0.00000000000E+00 -0.10455356483E+04  0.10455356483E+04  0.25500000920E-02 0.  1.
    10030    2    1    2    0    0  0.00000000000E+00  0.00000000000E+00  0.69145408389E+03  0.27825253804E+04  0.26952437260E+04 0.  0.
        3    1    3    3  502    0  0.13035860025E+03 -0.33603207631E+03 -0.99485146806E+03  0.10581306038E+04  0.10100000352E+00 0.  1.
       -3    1    3    3    0  502 -0.13035860025E+03  0.33603207631E+03  0.16863055520E+04  0.17243947766E+04  0.10100000352E+00 0. -1.
</event>
<event>
 5   0  0.7600052E-06  0.2744569E+04  0.7818609E-02  0.8320687E-01
       -1   -1    0    0    0  501  0.00000000000E+00  0.00000000000E+00  0.19242278984E+04  0.19242278984E+04  0.50400001928E-02 0.  1.
        1   -1    0    0  501    0  0.00000000000E+00  0.00000000000E+00 -0.97866002120E+03  0.97866002121E+03  0.50400001928E-02 0. -1.
    10030    2    1    2    0    0  0.00000000000E+00  0.00000000000E+00  0.94556787715E+03  0.29028879196E+04  0.27445691216E+04 0.  0.
        5    1    3    3  502    0 -0.96434152536E+02 -0.96677195201E+03 -0.55224008514E+03  0.11175592846E+04  0.46999998093E+01 0. -1.
       -5    1    3    3    0  502  0.96434152536E+02  0.96677195201E+03  0.14978079623E+04  0.17853286350E+04  0.46999998093E+01 0.  1.
</event>
<event>
 5   0  0.7754912E-06  0.2764578E+04  0.7818609E-02  0.8314350E-01
        1   -1    0    0  501    0  0.00000000000E+00  0.00000000000E+00  0.17683177651E+04  0.17683177651E+04  0.50400001928E-02 0. -1.
       -1   -1    0    0    0  501  0.00000000000E+00  0.00000000000E+00 -0.10805316445E+04  0.10805316446E+04  0.50400001928E-02 0.  1.
    10030    2    1    2    0    0  0.00000000000E+00  0.00000000000E+00  0.68778612059E+03  0.28488494097E+04  0.27645783063E+04 0.  0.
        4    1    3    3  502    0 -0.18890176506E+03 -0.13613038413E+04  0.19143157324E+03  0.13876165484E+04  0.12699999809E+01 0.  1.
       -4    1    3    3    0  502  0.18890176506E+03  0.13613038413E+04  0.49635454735E+03  0.14612328613E+04  0.12699999809E+01 0. -1.
</event>
<event>
 5   0  0.1881699E-05  0.2717076E+04  0.7818609E-02  0.8329486E-01
        2   -1    0    0  501    0  0.00000000000E+00  0.00000000000E+00  0.10916574762E+04  0.10916574762E+04  0.25500000920E-02 0. -1.
       -2   -1    0    0    0  501  0.00000000000E+00  0.00000000000E+00 -0.16906639288E+04  0.16906639288E+04  0.25500000920E-02 0.  1.
    10030    2    1    2    0    0  0.00000000000E+00  0.00000000000E+00 -0.59900645267E+03  0.27823214050E+04  0.27170763093E+04 0.  0.
        4    1    3    3  502    0 -0.96961955133E+03 -0.81945223300E+03  0.19580611238E+03  0.12845254700E+04  0.12699999809E+01 0.  1.
       -4    1    3    3    0  502  0.96961955133E+03  0.81945223300E+03 -0.79481256505E+03  0.14977959350E+04  0.12699999809E+01 0. -1.
</event>
<event>
 5   0  0.1878160E-05  0.2743504E+04  0.7818609E-02  0.8321026E-01
        2   -1    0    0  501    0  0.00000000000E+00  0.00000000000E+00  0.18025244109E+04  0.18025244109E+04  0.25500000920E-02 0. -1.
       -2   -1    0    0    0  501  0.00000000000E+00  0.00000000000E+00 -0.10439268586E+04  0.10439268586E+04  0.25500000920E-02 0.  1.
    10030    2    1    2    0    0  0.00000000000E+00  0.00000000000E+00  0.75859755236E+03  0.28464512695E+04  0.27435040702E+04 0.  0.
        1    1    3    3  502    0  0.11772397261E+03 -0.64683085991E+03  0.16284080865E+04  0.17561212917E+04  0.50400001928E-02 0. -1.
       -1    1    3    3    0  502 -0.11772397261E+03  0.64683085991E+03 -0.86981053415E+03  0.10903299778E+04  0.50400001928E-02 0.  1.
</event>
<event>
 5   0  0.6804685E-06  0.2676710E+04  0.7818609E-02  0.8342602E-01
       -1   -1    0    0    0  501  0.00000000000E+00  0.00000000000E+00  0.12964117513E+04  0.12964117513E+04  0.50400001928E-02 0.  1.
        1   -1    0    0  501    0  0.00000000000E+00  0.00000000000E+00 -0.13816549735E+04  0.13816549735E+04  0.50400001928E-02 0. -1.
    10030    2    1    2    0    0  0.00000000000E+00  0.00000000000E+00 -0.85243222233E+02  0.26780667249E+04  0.26767097295E+04 0.  0.
        2    1    3    3  502    0 -0.68855558184E+03 -0.93216564621E+03  0.62715945153E+03  0.13177141416E+04  0.25500000920E-02 0.  1.
       -2    1    3    3    0  502  0.68855558184E+03  0.93216564621E+03 -0.71240267376E+03  0.13603525833E+04  0.25500000920E-02 0. -1.
</event>
<event>
 5   0  0.1788003E-05  0.2696361E+04  0.7818609E-02  0.8336187E-01
       -2   -1    0    0    0  501  0.00000000000E+00  0.00000000000E+00  0.10071934375E+04  0.10071934375E+04  0.25500000920E-02 0.  1.
        2   -1    0    0  501    0  0.00000000000E+00  0.00000000000E+00 -0.18046090052E+04  0.18046090052E+04  0.25500000920E-02 0. -1.
    10030    2    1    2    0    0  0.00000000000E+00  0.00000000000E+00 -0.79741556769E+03  0.28118024427E+04  0.26963607676E+04 0.  0.
        2    1    3    3  502    0 -0.57639929244E+03  0.11382872452E+04 -0.85284856109E+03  0.15346936714E+04  0.25500000920E-02 0. -1.
       -2    1    3    3    0  502  0.57639929244E+03 -0.11382872452E+04  0.55432993402E+02  0.12771087713E+04  0.25500000920E-02 0.  1.
</event>
<event>
 5   0  0.1878160E-05  0.2592598E+04  0.7818609E-02  0.8370720E-01
        2   -1    0    0  501    0  0.00000000000E+00  0.00000000000E+00  0.29365447206E+04  0.29365447206E+04  0.25500000920E-02 0. -1.
       -2   -1    0    0    0  501  0.00000000000E+00  0.00000000000E+00 -0.57223426567E+03  0.57223426568E+03  0.25500000920E-02 0.  1.
    10030    2    1    2    0    0  0.00000000000E+00  0.00000000000E+00  0.23643104549E+04  0.35087789863E+04  0.25925983197E+04 0.  0.
        1    1    3    3  502    0 -0.12540779812E+04  0.30339993141E+03  0.10129638674E+04  0.16403837655E+04  0.50400001928E-02 0. -1.
       -1    1    3    3    0  502  0.12540779812E+04 -0.30339993141E+03  0.13513465875E+04  0.18683952207E+04  0.50400001928E-02 0.  1.
</event>
<event>
 5   0  0.1931119E-05  0.2705092E+04  0.7818609E-02  0.8333355E-01
       -2   -1    0    0    0  501  0.00000000000E+00  0.00000000000E+00  0.10645321283E+04  0.10645321283E+04  0.25500000920E-02 0. -1.
        2   -1    0    0  501    0  0.00000000000E+00  0.00000000000E+00 -0.17184838575E+04  0.17184838575E+04  0.25500000920E-02 0.  1.
    10030    2    1    2    0    0  0.00000000000E+00  0.00000000000E+00 -0.65395172913E+03  0.27830159858E+04  0.27050924408E+04 0.  0.
        3    1    3    3  502    0 -0.76137698383E+02  0.13497345077E+04 -0.28331424733E+03  0.13812484075E+04  0.10100000352E+00 0. -1.
       -3    1    3    3    0  502  0.76137698383E+02 -0.13497345077E+04 -0.37063748180E+03  0.14017675783E+04  0.10100000352E+00 0.  1.
</event>
<event>
 5   0  0.1788003E-05  0.2610531E+04  0.7818609E-02  0.8364633E-01
       -2   -1    0    0    0  501  0.00000000000E+00  0.00000000000E+00  0.16752162917E+04  0.16752162918E+04  0.25500000920E-02 0.  1.
        2   -1    0    0  501    0  0.00000000000E+00  0.00000000000E+00 -0.10170134236E+04  0.10170134236E+04  0.25500000920E-02 0. -1.
    10030    2    1    2    0    0  0.00000000000E+00  0.00000000000E+00  0.65820286816E+03  0.26922297153E+04  0.26105305638E+04 0.  0.
        2    1    3    3  502    0 -0.79189891762E+03  0.10365400845E+04  0.28074900595E+03  0.13342935385E+04  0.25500000920E-02 0. -1.
       -2    1    3    3    0  502  0.79189891762E+03 -0.10365400845E+04  0.37745386220E+03  0.13579361769E+04  0.25500000920E-02 0.  1.
</event>
<event>
 5   0  0.7600052E-06  0.2475198E+04  0.7818609E-02  0.8411875E-01
       -1   -1    0    0    0  501  0.00000000000E+00  0.00000000000E+00  0.63168643071E+03  0.63168643073E+03  0.50400001928E-02 0.  1.
        1   -1    0    0  501    0  0.00000000000E+00  0.00000000000E+00 -0.24247009651E+04  0.24247009651E+04  0.50400001928E-02 0. -1.
    10030    2    1    2    0    0  0.00000000000E+00  0.00000000000E+00 -0.17930145344E+04  0.30563873958E+04  0.24751975260E+04 0.  0.
        5    1    3    3  502    0 -0.81010150024E+03  0.49882724918E+03  0.80890616678E+02  0.95480806819E+03  0.46999998093E+01 0.  1.
       -5    1    3    3    0  502  0.81010150024E+03 -0.49882724918E+03 -0.18739051510E+04  0.21015793276E+04  0.46999998093E+01 0. -1.
</event>
<event>
 5   0  0.1881699E-05  0.2659045E+04  0.7818609E-02  0.8348417E-01
        2   -1    0    0  501    0  0.00000000000E+00  0.00000000000E+00  0.25695275709E+04  0.25695275709E+04  0.25500000920E-02 0.  1.
       -2   -1    0    0    0  501  0.00000000000E+00  0.00000000000E+00 -0.68792026282E+03  0.68792026282E+03  0.25500000920E-02 0. -1.
    10030    2    1    2    0    0  0.00000000000E+00  0.00000000000E+00  0.18816073080E+04  0.32574478337E+04  0.26590450029E+04 0.  0.
        4    1    3    3  502    0 -0.69589589424E+03  0.70150164163E+03  0.20305098426E+04  0.22581734837E+04  0.12699999809E+01 0.  1.
       -4    1    3    3    0  502  0.69589589424E+03 -0.70150164163E+03 -0.14890253453E+03  0.99927434997E+03  0.12699999809E+01 0. -1.
</event>
<event>
 5   0  0.7351590E-06  0.2653068E+04  0.7818609E-02  0.8350395E-01
       -1   -1    0    0    0  501  0.00000000000E+00  0.00000000000E+00  0.84808366343E+03  0.84808366345E+03  0.50400001928E-02 0.  1.
        1   -1    0    0  501    0  0.00000000000E+00  0.00000000000E+00 -0.20749045223E+04  0.20749045223E+04  0.50400001928E-02 0. -1.
    10030    2    1    2    0    0  0.00000000000E+00  0.00000000000E+00 -0.12268208588E+04  0.29229881857E+04  0.26530681322E+04 0.  0.
        3    1    3    3  502    0 -0.15354313830E+03  0.10491912753E+04  0.26474853725E+03  0.10929179409E+04  0.10100000352E+00 0.  1.
       -3    1    3    3    0  502  0.15354313830E+03 -0.10491912753E+04 -0.14915693961E+04  0.18300702448E+04  0.10100000352E+00 0. -1.
</event>
<event>
 5   0  0.7351590E-06  0.2700865E+04  0.7818609E-02  0.8334724E-01
       -1   -1    0    0    0  501  0.00000000000E+00  0.00000000000E+00  0.13129566385E+04  0.13129566385E+04  0.50400001928E-02 0. -1.
        1   -1    0    0  501    0  0.00000000000E+00  0.00000000000E+00 -0.13889783428E+04  0.13889783428E+04  0.50400001928E-02 0.  1.
    10030    2    1    2    0    0  0.00000000000E+00  0.00000000000E+00 -0.76021704350E+02  0.27019349813E+04  0.27008652954E+04 0.  0.
        3    1    3    3  502    0 -0.91953587295E+03  0.38316765715E+03 -0.95013105394E+03  0.13766309255E+04  0.10100000352E+00 0.  1.
       -3    1    3    3    0  502  0.91953587295E+03 -0.38316765715E+03  0.87410934959E+03  0.13253040558E+04  0.10100000352E+00 0. -1.
</event>
<event>
 5   0  0.1931119E-05  0.2654632E+04  0.7818609E-02  0.8349877E-01
       -2   -1    0    0    0  501  0.00000000000E+00  0.00000000000E+00  0.13659228415E+04  0.13659228415E+04  0.25500000920E-02 0.  1.
        2   -1    0    0  501    0  0.00000000000E+00  0.00000000000E+00 -0.12898005441E+04  0.12898005441E+04  0.25500000920E-02 0. -1.
    10030    2    1    2    0    0  0.00000000000E+00  0.00000000000E+00  0.76122297402E+02  0.26557233857E+04  0.26546321962E+04 0.  0.
        3    1    3    3  502    0  0.80732497679E+03 -0.75837489490E+03  0.76970431051E+03  0.13488331384E+04  0.10100000352E+00 0.  1.
       -3    1    3    3    0  502 -0.80732497679E+03  0.75837489490E+03 -0.69358201311E+03  0.13068902473E+04  0.10100000352E+00 0. -1.
</event>
<event>
 5   0  0.7351590E-06  0.2712153E+04  0.7818609E-02  0.8331073E-01
       -1   -1    0    0    0  501  0.00000000000E+00  0.00000000000E+00  0.11442423995E+04  0.11442423995E+04  0.50400001928E-02 0.  1.
        1   -1    0    0  501    0  0.00000000000E+00  0.00000000000E+00 -0.16071274786E+04  0.16071274786E+04  0.50400001928E-02 0. -1.
    10030    2    1    2    0    0  0.00000000000E+00  0.00000000000E+00 -0.46288507913E+03  0.27513698782E+04  0.27121529474E+04 0.  0.
        3    1    3    3  502    0 -0.64456480832E+03 -0.94643999139E+03 -0.96839772795E+03  0.14996688365E+04  0.10100000352E+00 0. -1.
       -3    1    3    3    0  502  0.64456480832E+03  0.94643999139E+03  0.50551264882E+03  0.12517010417E+04  0.10100000352E+00 0.  1.
</event>
<event>
 5   0  0.7754912E-06  0.2677025E+04  0.7818609E-02  0.8342498E-01
       -1   -1    0    0    0  501  0.00000000000E+00  0.00000000000E+00  0.11266868720E+04  0.11266868720E+04  0.50400001928E-02 0. -1.
        1   -1    0    0  501    0  0.00000000000E+00  0.00000000000E+00 -0.15901631723E+04  0.15901631723E+04  0.50400001928E-02 0.  1.
    10030    2    1    2    0    0  0.00000000000E+00  0.00000000000E+00 -0.46347630031E+03  0.27168500443E+04  0.26770251927E+04 0.  0.
        4    1    3    3  502    0 -0.41431086081E+03  0.86045490127E+03 -0.11835485512E+04  0.15207974594E+04  0.12699999809E+01 0.  1.
       -4    1    3    3    0  502  0.41431086081E+03 -0.86045490127E+03  0.72007225086E+03  0.11960525849E+04  0.12699999809E+01 0. -1.
</event>
<event>
 5   0  0.7600052E-06  0.2715812E+04  0.7818609E-02  0.8329893E-01
        1   -1    0    0  501    0  0.00000000000E+00  0.00000000000E+00  0.76001580666E+03  0.76001580668E+03  0.50400001928E-02 0.  1.
       -1   -1    0    0    0  501  0.00000000000E+00  0.00000000000E+00 -0.24261448439E+04  0.24261448439E+04  0.50400001928E-02 0. -1.
    10030    2    1    2    0    0  0.00000000000E+00  0.00000000000E+00 -0.16661290372E+04  0.31861606506E+04  0.27158117981E+04 0.  0.
        5    1    3    3  502    0 -0.96816206510E+03 -0.61796667860E+03 -0.16828500891E+04  0.20374560394E+04  0.46999998093E+01 0. -1.
       -5    1    3    3    0  502  0.96816206510E+03  0.61796667860E+03  0.16721051844E+02  0.11487046112E+04  0.46999998093E+01 0.  1.
</event>
<event>
 5   0  0.7754912E-06  0.2717341E+04  0.7818609E-02  0.8329400E-01
       -1   -1    0    0    0  501  0.00000000000E+00  0.00000000000E+00  0.26773012383E+04  0.26773012383E+04  0.50400001928E-02 0. -1.
        1   -1    0    0  501    0  0.00000000000E+00  0.00000000000E+00 -0.68949481552E+03  0.68949481554E+03  0.50400001928E-02 0.  1.
    10030    2    1    2    0    0  0.00000000000E+00  0.00000000000E+00  0.19878064228E+04  0.33667960539E+04  0.27173408498E+04 0.  0.
        4    1    3    3  502    0  0.34257556843E+03  0.10758728458E+04  0.57554461647E+02  0.11305638104E+04  0.12699999809E+01 0.  1.
       -4    1    3    3    0  502 -0.34257556843E+03 -0.10758728458E+04  0.19302519612E+04  0.22362322435E+04  0.12699999809E+01 0. -1.
</event>
<event>
 5   0  0.1931119E-05  0.2728497E+04  0.7818609E-02  0.8325818E-01
        2   -1    0    0  501    0  0.00000000000E+00  0.00000000000E+00  0.12011758124E+04  0.12011758124E+04  0.25500000920E-02 0.  1.
       -2   -1    0    0    0  501  0.00000000000E+00  0.00000000000E+00 -0.15494595733E+04  0.15494595733E+04  0.25500000920E-02 0. -1.
    10030    2    1    2    0    0  0.00000000000E+00  0.00000000000E+00 -0.34828376090E+03  0.27506353856E+04  0.27284965543E+04 0.  0.
        3    1    3    3  502    0 -0.14051657170E+03 -0.79321734666E+03  0.93580697872E+03  0.12347766509E+04  0.10100000352E+00 0.  1.
       -3    1    3    3    0  502  0.14051657170E+03  0.79321734666E+03 -0.12840907396E+04  0.15158587348E+04  0.10100000352E+00 0. -1.
</event>
<event>
 5   0  0.7348964E-06  0.2346608E+04  0.7818609E-02  0.8459768E-01
        1   -1    0    0  501    0  0.00000000000E+00  0.00000000000E+00  0.85616022324E+03  0.85616022325E+03  0.50400001928E-02 0. -1.
       -1   -1    0    0    0  501  0.00000000000E+00  0.00000000000E+00 -0.16079261941E+04  0.16079261941E+04  0.50400001928E-02 0.  1.
    10030    2    1    2    0    0  0.00000000000E+00  0.00000000000E+00 -0.75176597087E+03  0.24640864174E+04  0.23466081474E+04 0.  0.
        1    1    3    3  502    0 -0.11683666079E+04  0.36603873871E+02 -0.48204884955E+03  0.12644332594E+04  0.50400001928E-02 0.  1.
       -1    1    3    3    0  502  0.11683666079E+04 -0.36603873871E+02 -0.26971712132E+03  0.11996531580E+04  0.50400001928E-02 0. -1.
</event>
<event>
 5   0  0.1931119E-05  0.2682793E+04  0.7818609E-02  0.8340610E-01
        2   -1    0    0  501    0  0.00000000000E+00  0.00000000000E+00  0.19420962568E+04  0.19420962568E+04  0.25500000920E-02 0.  1.
       -2   -1    0    0    0  501  0.00000000000E+00  0.00000000000E+00 -0.92649616553E+03  0.92649616554E+03  0.25500000920E-02 0. -1.
    10030    2    1    2    0    0  0.00000000000E+00  0.00000000000E+00  0.10156000913E+04  0.28685924223E+04  0.26827931229E+04 0.  0.
        3    1    3    3  502    0  0.34409319175E+03  0.12762826019E+04  0.26386126419E+03  0.13479318163E+04  0.10100000352E+00 0.  1.
       -3    1    3    3    0  502 -0.34409319175E+03 -0.12762826019E+04  0.75173882707E+03  0.15206606060E+04  0.10100000352E+00 0. -1.
</event>
<event>
 5   0  0.1881699E-05  0.2700389E+04  0.7818609E-02  0.8334879E-01
       -2   -1    0    0    0  501  0.00000000000E+00  0.00000000000E+00  0.11289063844E+04  0.11289063844E+04  0.25500000920E-02 0. -1.
        2   -1    0    0  501    0  0.00000000000E+00  0.00000000000E+00 -0.16148598168E+04  0.16148598168E+04  0.25500000920E-02 0.  1.
    10030    2    1    2    0    0  0.00000000000E+00  0.00000000000E+00 -0.48595343249E+03  0.27437662012E+04  0.27003892735E+04 0.  0.
        4    1    3    3  502    0 -0.28500188263E+03 -0.99299183023E+03  0.64033530963E+03  0.12154380978E+04  0.12699999809E+01 0. -1.
       -4    1    3    3    0  502  0.28500188263E+03  0.99299183023E+03 -0.11262887421E+04  0.15283281034E+04  0.12699999809E+01 0.  1.
</event>
<event>
 5   0  0.7754912E-06  0.2670930E+04  0.7818609E-02  0.8344499E-01
        1   -1    0    0  501    0  0.00000000000E+00  0.00000000000E+00  0.20216693031E+04  0.20216693031E+04  0.50400001928E-02 0.  1.
       -1   -1    0    0    0  501  0.00000000000E+00  0.00000000000E+00 -0.88217514440E+03  0.88217514441E+03  0.50400001928E-02 0. -1.
    10030    2    1    2    0    0  0.00000000000E+00  0.00000000000E+00  0.11394941587E+04  0.29038444475E+04  0.26709297328E+04 0.  0.
        4    1    3    3  502    0 -0.81047364439E+03 -0.10312151310E+04  0.29644428451E+03  0.13446757979E+04  0.12699999809E+01 0. -1.
       -4    1    3    3    0  502  0.81047364439E+03  0.10312151310E+04  0.84304987420E+03  0.15591686496E+04  0.12699999809E+01 0.  1.
</event>
<event>
 5   0  0.7348964E-06  0.2285358E+04  0.7818609E-02  0.8483717E-01
       -1   -1    0    0    0  501  0.00000000000E+00  0.00000000000E+00  0.13044730484E+04  0.13044730484E+04  0.50400001928E-02 0.  1.
        1   -1    0    0  501    0  0.00000000000E+00  0.00000000000E+00 -0.10009524520E+04  0.10009524520E+04  0.50400001928E-02 0. -1.
    10030    2    1    2    0    0  0.00000000000E+00  0.00000000000E+00  0.30352059635E+03  0.23054255004E+04  0.22853581744E+04 0.  0.
        1    1    3    3  502    0  0.56241127787E+03 -0.64218642497E+03 -0.61451857033E+03  0.10518283716E+04  0.50400001928E-02 0. -1.
       -1    1    3    3    0  502 -0.56241127787E+03  0.64218642497E+03  0.91803916668E+03  0.12535971289E+04  0.50400001928E-02 0.  1.
</event>
<event>
 5   0  0.1788003E-05  0.2698801E+04  0.7818609E-02  0.8335394E-01
        2   -1    0    0  501    0  0.00000000000E+00  0.00000000000E+00  0.12667080903E+04  0.12667080903E+04  0.25500000920E-02 0. -1.
       -2   -1    0    0    0  501  0.00000000000E+00  0.00000000000E+00 -0.14374909308E+04  0.14374909308E+04  0.25500000920E-02 0.  1.
    10030    2    1    2    0    0  0.00000000000E+00  0.00000000000E+00 -0.17078284051E+03  0.27041990210E+04  0.26988007646E+04 0.  0.
        2    1    3    3  502    0  0.54237324677E+03 -0.82851827090E+03 -0.10038874616E+04  0.14101068398E+04  0.25500000920E-02 0.  1.
       -2    1    3    3    0  502 -0.54237324677E+03  0.82851827090E+03  0.83310462106E+03  0.12940921813E+04  0.25500000920E-02 0. -1.
</event>
<event>
 5   0  0.1931119E-05  0.2685620E+04  0.7818609E-02  0.8339686E-01
        2   -1    0    0  501    0  0.00000000000E+00  0.00000000000E+00  0.26026892736E+04  0.26026892736E+04  0.25500000920E-02 0. -1.
       -2   -1    0    0    0  501  0.00000000000E+00  0.00000000000E+00 -0.69279839791E+03  0.69279839791E+03  0.25500000920E-02 0.  1.
    10030    2    1    2    0    0  0.00000000000E+00  0.00000000000E+00  0.19098908757E+04  0.32954876716E+04  0.26856201958E+04 0.  0.
        3    1    3    3  502    0 -0.59150330381E+03  0.11970333500E+04  0.77979440205E+03  0.15462355315E+04  0.10100000352E+00 0.  1.
       -3    1    3    3    0  502  0.59150330381E+03 -0.11970333500E+04  0.11300964737E+04  0.17492521400E+04  0.10100000352E+00 0. -1.
</event>
<event>
 5   0  0.7754912E-06  0.2672977E+04  0.7818609E-02  0.8343826E-01
       -1   -1    0    0    0  501  0.00000000000E+00  0.00000000000E+00  0.14157947119E+04  0.14157947119E+04  0.50400001928E-02 0.  1.
        1   -1    0    0  501    0  0.00000000000E+00  0.00000000000E+00 -0.12616249668E+04  0.12616249669E+04  0.50400001928E-02 0. -1.
    10030    2    1    2    0    0  0.00000000000E+00  0.00000000000E+00  0.15416974505E+03  0.26774196788E+04  0.26729773336E+04 0.  0.
        4    1    3    3  502    0 -0.21370216557E+03 -0.12665388529E+04  0.44703737561E+03  0.13600122461E+04  0.12699999809E+01 0.  1.
       -4    1    3    3    0  502  0.21370216557E+03  0.12665388529E+04 -0.29286763056E+03  0.13174074326E+04  0.12699999809E+01 0. -1.
</event>
<event>
 5   0  0.6804685E-06  0.1976365E+04  0.7818609E-02  0.8617751E-01
        1   -1    0    0  501    0  0.00000000000E+00  0.00000000000E+00  0.14108448660E+04  0.14108448660E+04  0.50400001928E-02 0. -1.
       -1   -1    0    0    0  501  0.00000000000E+00  0.00000000000E+00 -0.69214156869E+03  0.69214156871E+03  0.50400001928E-02 0.  1.
    10030    2    1    2    0    0  0.00000000000E+00  0.00000000000E+00  0.71870329728E+03  0.21029864347E+04  0.19763647221E+04 0.  0.
        2    1    3    3  502    0 -0.14439769515E+03  0.48799108981E+03 -0.54198264138E+03  0.74345893072E+03  0.25500000920E-02 0.  1.
       -2    1    3    3    0  502  0.14439769515E+03 -0.48799108981E+03  0.12606859387E+04  0.13595275040E+04  0.25500000920E-02 0. -1.
</event>
<event>
 5   0  0.7348964E-06  0.2711054E+04  0.7818609E-02  0.8331427E-01
        1   -1    0    0  501    0  0.00000000000E+00  0.00000000000E+00  0.15378679255E+04  0.15378679255E+04  0.50400001928E-02 0. -1.
       -1   -1    0    0    0  501  0.00000000000E+00  0.00000000000E+00 -0.11948055623E+04  0.11948055623E+04  0.50400001928E-02 0.  1.
    10030    2    1    2    0    0  0.00000000000E+00  0.00000000000E+00  0.34306236312E+03  0.27326734878E+04  0.27110537815E+04 0.  0.
        1    1    3    3  502    0  0.10262225506E+04 -0.16854323701E+02 -0.72098831550E+03  0.12542890188E+04  0.50400001928E-02 0.  1.
       -1    1    3    3    0  502 -0.10262225506E+04  0.16854323701E+02  0.10640506786E+04  0.14783844690E+04  0.50400001928E-02 0. -1.
</event>
<event>
 5   0  0.1788003E-05  0.2787280E+04  0.7818609E-02  0.8307228E-01
       -2   -1    0    0    0  501  0.00000000000E+00  0.00000000000E+00  0.12016953263E+04  0.12016953263E+04  0.25500000920E-02 0.  1.
        2   -1    0    0  501    0  0.00000000000E+00  0.00000000000E+00 -0.16162432724E+04  0.16162432724E+04  0.25500000920E-02 0. -1.
    10030    2    1    2    0    0  0.00000000000E+00  0.00000000000E+00 -0.41454794607E+03  0.28179385988E+04  0.27872796678E+04 0.  0.
        2    1    3    3  502    0 -0.86542525356E+03  0.19440485882E+03  0.87948139679E+03  0.12490963317E+04  0.25500000920E-02 0.  1.
       -2    1    3    3    0  502  0.86542525356E+03 -0.19440485882E+03 -0.12940293429E+04  0.15688422670E+04  0.25500000920E-02 0. -1.
</event>
<event>
 5   0  0.7600052E-06  0.2706711E+04  0.7818609E-02  0.8332831E-01
       -1   -1    0    0    0  501  0.00000000000E+00  0.00000000000E+00  0.85849379635E+03  0.85849379637E+03  0.50400001928E-02 0. -1.
        1   -1    0    0  501    0  0.00000000000E+00  0.00000000000E+00 -0.21334707864E+04  0.21334707864E+04  0.50400001928E-02 0.  1.
    10030    2    1    2    0    0  0.00000000000E+00  0.00000000000E+00 -0.12749769900E+04  0.29919645828E+04  0.27067112405E+04 0.  0.
        5    1    3    3  502    0 -0.10816467966E+04 -0.66535115865E+03 -0.11546602658E+04  0.17163666206E+04  0.46999998093E+01 0.  1.
       -5    1    3    3    0  502  0.10816467966E+04  0.66535115865E+03 -0.12031672425E+03  0.12755979622E+04  0.46999998093E+01 0. -1.
</event>
<event>
 5   0  0.7351590E-06  0.2745018E+04  0.7818609E-02  0.8320544E-01
       -1   -1    0    0    0  501  0.00000000000E+00  0.00000000000E+00  0.12639552335E+04  0.12639552335E+04  0.50400001928E-02 0. -1.
        1   -1    0    0  501    0  0.00000000000E+00  0.00000000000E+00 -0.14903857688E+04  0.14903857688E+04  0.50400001928E-02 0.  1.
    10030    2    1    2    0    0  0.00000000000E+00  0.00000000000E+00 -0.22643053531E+03  0.27543410022E+04  0.27450179543E+04 0.  0.
        3    1    3    3  502    0  0.33005551266E+03 -0.11988587440E+04 -0.69620664072E+03  0.14250974094E+04  0.10100000352E+00 0.  1.
       -3    1    3    3    0  502 -0.33005551266E+03  0.11988587440E+04  0.46977610541E+03  0.13292435928E+04  0.10100000352E+00 0. -1.
</event>
<event>
 5   0  0.1931119E-05  0.2727201E+04  0.7818609E-02  0.8326233E-01
        2   -1    0    0  501    0  0.00000000000E+00  0.00000000000E+00  0.15939442958E+04  0.15939442959E+04  0.25500000920E-02 0. -1.
       -2   -1    0    0    0  501  0.00000000000E+00  0.00000000000E+00 -0.11665436898E+04  0.11665436898E+04  0.25500000920E-02 0.  1.
    10030    2    1    2    0    0  0.00000000000E+00  0.00000000000E+00  0.42740060604E+03  0.27604879857E+04  0.27272005135E+04 0.  0.
        3    1    3    3  502    0 -0.28766140537E+03  0.52171952951E+03 -0.10278373029E+04  0.11880193108E+04  0.10100000352E+00 0.  1.
       -3    1    3    3    0  502  0.28766140537E+03 -0.52171952951E+03  0.14552379089E+04  0.15724686748E+04  0.10100000352E+00 0. -1.
</event>
<event>
 5   0  0.1931119E-05  0.2348743E+04  0.7818609E-02  0.8458947E-01
        2   -1    0    0  501    0  0.00000000000E+00  0.00000000000E+00  0.11384855750E+04  0.11384855750E+04  0.25500000920E-02 0. -1.
       -2   -1    0    0    0  501  0.00000000000E+00  0.00000000000E+00 -0.12113882190E+04  0.12113882190E+04  0.25500000920E-02 0.  1.
    10030    2    1    2    0    0  0.00000000000E+00  0.00000000000E+00 -0.72902644016E+02  0.23498737940E+04  0.23487426535E+04 0.  0.
        3    1    3    3  502    0  0.10006487593E+04  0.70656013299E+02  0.57446357373E+03  0.11559838318E+04  0.10100000352E+00 0. -1.
       -3    1    3    3    0  502 -0.10006487593E+04 -0.70656013299E+02 -0.64736621775E+03  0.11938899622E+04  0.10100000352E+00 0.  1.
</event>
<event>
 5   0  0.7348964E-06  0.2678686E+04  0.7818609E-02  0.8341954E-01
        1   -1    0    0  501    0  0.00000000000E+00  0.00000000000E+00  0.24438882655E+04  0.24438882655E+04  0.50400001928E-02 0.  1.
       -1   -1    0    0    0  501  0.00000000000E+00  0.00000000000E+00 -0.73401059512E+03  0.73401059514E+03  0.50400001928E-02 0. -1.
    10030    2    1    2    0    0  0.00000000000E+00  0.00000000000E+00  0.17098776704E+04  0.31778988607E+04  0.26786861557E+04 0.  0.
        1    1    3    3  502    0 -0.76179458615E+03 -0.60169768369E+03  0.19496577050E+04  0.21779660834E+04  0.50400001928E-02 0.  1.
       -1    1    3    3    0  502  0.76179458615E+03  0.60169768369E+03 -0.23978003453E+03  0.99993277726E+03  0.50400001928E-02 0. -1.
</event>
<event>
 5   0  0.1878160E-05  0.2710625E+04  0.7818609E-02  0.8331566E-01
        2   -1    0    0  501    0  0.00000000000E+00  0.00000000000E+00  0.17096705552E+04  0.17096705552E+04  0.25500000920E-02 0.  1.
       -2   -1    0    0    0  501  0.00000000000E+00  0.00000000000E+00 -0.10744013212E+04  0.10744013212E+04  0.25500000920E-02 0. -1.
    10030    2    1    2    0    0  0.00000000000E+00  0.00000000000E+00  0.63526923402E+03  0.27840718764E+04  0.27106252439E+04 0.  0.
        1    1    3    3  502    0  0.52255973450E+03  0.10926255680E+04 -0.30710058453E+03  0.12494839242E+04  0.50400001928E-02 0. -1.
       -1    1    3    3    0  502 -0.52255973450E+03 -0.10926255680E+04  0.94236981855E+03  0.15345879521E+04  0.50400001928E-02 0.  1.
</event>
<event>
 5   0  0.6804685E-06  0.2745601E+04  0.7818609E-02  0.8320359E-01
       -1   -1    0    0    0  501  0.00000000000E+00  0.00000000000E+00  0.95398857935E+03  0.95398857936E+03  0.50400001928E-02 0. -1.
        1   -1    0    0  501    0  0.00000000000E+00  0.00000000000E+00 -0.19754750183E+04  0.19754750183E+04  0.50400001928E-02 0.  1.
    10030    2    1    2    0    0  0.00000000000E+00  0.00000000000E+00 -0.10214864390E+04  0.29294635977E+04  0.27456005582E+04 0.  0.
        2    1    3    3  502    0  0.84949234393E+03  0.53470849675E+01 -0.16613440813E+04  0.18659394390E+04  0.25500000920E-02 0.  1.
       -2    1    3    3    0  502 -0.84949234393E+03 -0.53470849675E+01  0.63985764228E+03  0.10635241587E+04  0.25500000920E-02 0. -1.
</event>
<event>
 5   0  0.7348964E-06  0.2717113E+04  0.7818609E-02  0.8329474E-01
       -1   -1    0    0    0  501  0.00000000000E+00  0.00000000000E+00  0.11095858779E+04  0.11095858779E+04  0.50400001928E-02 0. -1.
        1   -1    0    0  501    0  0.00000000000E+00  0.00000000000E+00 -0.16633910375E+04  0.16633910375E+04  0.50400001928E-02 0.  1.
    10030    2    1    2    0    0  0.00000000000E+00  0.00000000000E+00 -0.55380515965E+03  0.27729769154E+04  0.27171125885E+04 0.  0.
        1    1    3    3  502    0  0.22534214673E+03 -0.96757916807E+03 -0.12226082249E+04  0.15753600862E+04  0.50400001928E-02 0.  1.
       -1    1    3    3    0  502 -0.22534214673E+03  0.96757916807E+03  0.66880306521E+03  0.11976168292E+04  0.50400001928E-02 0. -1.
</event>
<event>
 5   0  0.6804685E-06  0.2571229E+04  0.7818609E-02  0.8378040E-01
       -1   -1    0    0    0  501  0.00000000000E+00  0.00000000000E+00  0.71390590811E+03  0.71390590813E+03  0.50400001928E-02 0. -1.
        1   -1    0    0  501    0  0.00000000000E+00  0.00000000000E+00 -0.23151578153E+04  0.23151578153E+04  0.50400001928E-02 0.  1.
    10030    2    1    2    0    0  0.00000000000E+00  0.00000000000E+00 -0.16012519071E+04  0.30290637234E+04  0.25712291555E+04 0.  0.
        2    1    3    3  502    0  0.99884361540E+03  0.40233126507E+03 -0.16279951276E+04  0.19519034685E+04  0.25500000920E-02 0.  1.
       -2    1    3    3    0  502 -0.99884361540E+03 -0.40233126507E+03  0.26743220434E+02  0.10771602549E+04  0.25500000920E-02 0. -1.
</event>
<event>
 5   0  0.1878160E-05  0.2678448E+04  0.7818609E-02  0.8342032E-01
        2   -1    0    0  501    0  0.00000000000E+00  0.00000000000E+00  0.23958803842E+04  0.23958803842E+04  0.25500000920E-02 0. -1.
       -2   -1    0    0    0  501  0.00000000000E+00  0.00000000000E+00 -0.74858532903E+03  0.74858532903E+03  0.25500000920E-02 0.  1.
    10030    2    1    2    0    0  0.00000000000E+00  0.00000000000E+00  0.16472950552E+04  0.31444657132E+04  0.26784479877E+04 0.  0.
        1    1    3    3  502    0 -0.13113039911E+04  0.27155074225E+03  0.84268434971E+03  0.15822056996E+04  0.50400001928E-02 0. -1.
       -1    1    3    3    0  502  0.13113039911E+04 -0.27155074225E+03  0.80461070544E+03  0.15622600136E+04  0.50400001928E-02 0.  1.
</event>
<event>
 5   0  0.7754912E-06  0.2364223E+04  0.7818609E-02  0.8453021E-01
        1   -1    0    0  501    0  0.00000000000E+00  0.00000000000E+00  0.72130397225E+03  0.72130397227E+03  0.50400001928E-02 0.  1.
       -1   -1    0    0    0  501  0.00000000000E+00  0.00000000000E+00 -0.19373067943E+04  0.19373067943E+04  0.50400001928E-02 0. -1.
    10030    2    1    2    0    0  0.00000000000E+00  0.00000000000E+00 -0.12160028221E+04  0.26586107666E+04  0.23642225667E+04 0.  0.
        4    1    3    3  502    0 -0.99623393932E+03 -0.45807990413E+03 -0.11046594016E+04  0.15564682030E+04  0.12699999809E+01 0. -1.
       -4    1    3    3    0  502  0.99623393932E+03  0.45807990413E+03 -0.11134342050E+03  0.11021425637E+04  0.12699999809E+01 0.  1.
</event>
<event>
 5   0  0.6804685E-06  0.2683175E+04  0.7818609E-02  0.8340485E-01
       -1   -1    0    0    0  501  0.00000000000E+00  0.00000000000E+00  0.15232530301E+04  0.15232530301E+04  0.50400001928E-02 0. -1.
        1   -1    0    0  501    0  0.00000000000E+00  0.00000000000E+00 -0.11815878622E+04  0.11815878622E+04  0.50400001928E-02 0.  1.
    10030    2    1    2    0    0  0.00000000000E+00  0.00000000000E+00  0.34166516791E+03  0.27048408924E+04  0.26831752023E+04 0.  0.
        2    1    3    3  502    0 -0.51342541976E+03 -0.18994449258E+03 -0.10638727486E+04  0.11964571857E+04  0.25500000920E-02 0.  1.
       -2    1    3    3    0  502  0.51342541976E+03  0.18994449258E+03  0.14055379165E+04  0.15083837067E+04  0.25500000920E-02 0. -1.
</event>
<event>
 5   0  0.1788003E-05  0.2688954E+04  0.7818609E-02  0.8338598E-01
       -2   -1    0    0    0  501  0.00000000000E+00  0.00000000000E+00  0.66308724935E+03  0.66308724936E+03  0.25500000920E-02 0.  1.
        2   -1    0    0  501    0  0.00000000000E+00  0.00000000000E+00 -0.27260637674E+04  0.27260637674E+04  0.25500000920E-02 0. -1.
    10030    2    1    2    0    0  0.00000000000E+00  0.00000000000E+00 -0.20629765181E+04  0.33891510168E+04  0.26889537929E+04 0.  0.
        2    1    3    3  502    0  0.98036655398E+03 -0.35162514777E+03 -0.21030926096E+04  0.23468611696E+04  0.25500000920E-02 0.  1.
       -2    1    3    3    0  502 -0.98036655398E+03  0.35162514777E+03  0.40116091560E+02  0.10422898472E+04  0.25500000920E-02 0. -1.
</event>
<event>
 5   0  0.7351590E-06  0.2787427E+04  0.7818609E-02  0.8307183E-01
       -1   -1    0    0    0  501  0.00000000000E+00  0.00000000000E+00  0.85850171092E+03  0.85850171093E+03  0.50400001928E-02 0. -1.
        1   -1    0    0  501    0  0.00000000000E+00  0.00000000000E+00 -0.22625892834E+04  0.22625892834E+04  0.50400001928E-02 0.  1.
    10030    2    1    2    0    0  0.00000000000E+00  0.00000000000E+00 -0.14040875724E+04  0.31210909943E+04  0.27874266060E+04 0.  0.
        3    1    3    3  502    0  0.46584429988E+03 -0.12070304718E+04 -0.12184369255E+03  0.12995304410E+04  0.10100000352E+00 0. -1.
       -3    1    3    3    0  502 -0.46584429988E+03  0.12070304718E+04 -0.12822438799E+04  0.18215605533E+04  0.10100000352E+00 0.  1.
</event>
<event>
 5   0  0.1826851E-05  0.2668871E+04  0.7818609E-02  0.8345177E-01
        2   -1    0    0  501    0  0.00000000000E+00  0.00000000000E+00  0.17148304418E+04  0.17148304418E+04  0.25500000920E-02 0. -1.
       -2   -1    0    0    0  501  0.00000000000E+00  0.00000000000E+00 -0.10384220563E+04  0.10384220563E+04  0.25500000920E-02 0.  1.
    10030    2    1    2    0    0  0.00000000000E+00  0.00000000000E+00  0.67640838548E+03  0.27532524981E+04  0.26688707376E+04 0.  0.
        5    1    3    3  502    0  0.25790591907E+02 -0.10825313304E+04  0.11427043857E+04  0.15742727333E+04  0.46999998093E+01 0. -1.
       -5    1    3    3    0  502 -0.25790591907E+02  0.10825313304E+04 -0.46629600018E+03  0.11789797647E+04  0.46999998093E+01 0.  1.
</event>
<event>
 5   0  0.7351590E-06  0.2770788E+04  0.7818609E-02  0.8312395E-01
       -1   -1    0    0    0  501  0.00000000000E+00  0.00000000000E+00  0.13585462620E+04  0.13585462620E+04  0.50400001928E-02 0.  1.
        1   -1    0    0  501    0  0.00000000000E+00  0.00000000000E+00 -0.14127719385E+04  0.14127719385E+04  0.50400001928E-02 0. -1.
    10030    2    1    2    0    0  0.00000000000E+00  0.00000000000E+00 -0.54225676452E+02  0.27713182005E+04  0.27707876397E+04 0.  0.
        3    1    3    3  502    0 -0.10628219566E+04 -0.58555336654E+03 -0.69571130948E+03  0.13987413960E+04  0.10100000352E+00 0. -1.
       -3    1    3    3    0  502  0.10628219566E+04  0.58555336654E+03  0.64148563303E+03  0.13725768045E+04  0.10100000352E+00 0.  1.
</event>
<event>
 5   0  0.1788003E-05  0.2655907E+04  0.7818609E-02  0.8349455E-01
       -2   -1    0    0    0  501  0.00000000000E+00  0.00000000000E+00  0.88590783792E+03  0.88590783792E+03  0.25500000920E-02 0. -1.
        2   -1    0    0  501    0  0.00000000000E+00  0.00000000000E+00 -0.19905689799E+04  0.19905689799E+04  0.25500000920E-02 0.  1.
    10030    2    1    2    0    0  0.00000000000E+00  0.00000000000E+00 -0.11046611420E+04  0.28764768179E+04  0.26559071228E+04 0.  0.
        2    1    3    3  502    0  0.40542410556E+03 -0.41387875761E+03 -0.18464701671E+04  0.19352303246E+04  0.25500000920E-02 0. -1.
       -2    1    3    3    0  502 -0.40542410556E+03  0.41387875761E+03  0.74180902507E+03  0.94124649325E+03  0.25500000920E-02 0.  1.
</event>
<event>
 5   0  0.1788003E-05  0.2763447E+04  0.7818609E-02  0.8314707E-01
        2   -1    0    0  501    0  0.00000000000E+00  0.00000000000E+00  0.21206476372E+04  0.21206476372E+04  0.25500000920E-02 0. -1.
       -2   -1    0    0    0  501  0.00000000000E+00  0.00000000000E+00 -0.90027220893E+03  0.90027220894E+03  0.25500000920E-02 0.  1.
    10030    2    1    2    0    0  0.00000000000E+00  0.00000000000E+00  0.12203754283E+04  0.30209198462E+04  0.27634472188E+04 0.  0.
        2    1    3    3  502    0 -0.47087517939E+03 -0.12952839849E+04  0.50265561414E+03  0.14670196667E+04  0.25500000920E-02 0. -1.
       -2    1    3    3    0  502  0.47087517939E+03  0.12952839849E+04  0.71771981416E+03  0.15539001795E+04  0.25500000920E-02 0.  1.
</event>
<event>
 5   0  0.7348964E-06  0.2788104E+04  0.7818609E-02  0.8306971E-01
       -1   -1    0    0    0  501  0.00000000000E+00  0.00000000000E+00  0.83251504933E+03  0.83251504934E+03  0.50400001928E-02 0. -1.
        1   -1    0    0  501    0  0.00000000000E+00  0.00000000000E+00 -0.23343497741E+04  0.23343497741E+04  0.50400001928E-02 0.  1.
    10030    2    1    2    0    0  0.00000000000E+00  0.00000000000E+00 -0.15018347247E+04  0.31668648234E+04  0.27881042429E+04 0.  0.
        1    1    3    3  502    0 -0.12614730986E+04  0.58462040944E+03 -0.86611458180E+03  0.16380628409E+04  0.50400001928E-02 0.  1.
       -1    1    3    3    0  502  0.12614730986E+04 -0.58462040944E+03 -0.63572014295E+03  0.15288019826E+04  0.50400001928E-02 0. -1.
</event>
<event>
 5   0  0.1931119E-05  0.2718016E+04  0.7818609E-02  0.8329183E-01
       -2   -1    0    0    0  501  0.00000000000E+00  0.00000000000E+00  0.82875129193E+03  0.82875129193E+03  0.25500000920E-02 0. -1.
        2   -1    0    0  501    0  0.00000000000E+00  0.00000000000E+00 -0.22285371785E+04  0.22285371785E+04  0.25500000920E-02 0.  1.
    10030    2    1    2    0    0  0.00000000000E+00  0.00000000000E+00 -0.13997858865E+04  0.30572884704E+04  0.27180162367E+04 0.  0.
        3    1    3    3  502    0  0.11189444988E+04  0.52135275201E+03 -0.60564046725E+02  0.12359261699E+04  0.10100000352E+00 0. -1.
       -3    1    3    3    0  502 -0.11189444988E+04 -0.52135275201E+03 -0.13392218398E+04  0.18213623005E+04  0.10100000352E+00 0.  1.
</event>
<event>
 5   0  0.1788003E-05  0.2834140E+04  0.7818609E-02  0.8292747E-01
       -2   -1    0    0    0  501  0.00000000000E+00  0.00000000000E+00  0.14883765120E+04  0.14883765120E+04  0.25500000920E-02 0.  1.
        2   -1    0    0  501    0  0.00000000000E+00  0.00000000000E+00 -0.13491796982E+04  0.13491796982E+04  0.25500000920E-02 0. -1.
    10030    2    1    2    0    0  0.00000000000E+00  0.00000000000E+00  0.13919681383E+03  0.28375562101E+04  0.28341399917E+04 0.  0.
        2    1    3    3  502    0 -0.41068882851E+03  0.11890888017E+04 -0.58348371200E+03  0.13867410480E+04  0.25500000920E-02 0. -1.
       -2    1    3    3    0  502  0.41068882851E+03 -0.11890888017E+04  0.72268052582E+03  0.14508151621E+04  0.25500000920E-02 0.  1.
</event>
<event>
 5   0  0.7351590E-06  0.2703888E+04  0.7818609E-02  0.8333744E-01
        1   -1    0    0  501    0  0.00000000000E+00  0.00000000000E+00  0.16390474075E+04  0.16390474075E+04  0.50400001928E-02 0.  1.
       -1   -1    0    0    0  501  0.00000000000E+00  0.00000000000E+00 -0.11151311510E+04  0.11151311510E+04  0.50400001928E-02 0. -1.
    10030    2    1    2    0    0  0.00000000000E+00  0.00000000000E+00  0.52391625657E+03  0.27541785585E+04  0.27038881797E+04 0.  0.
        3    1    3    3  502    0 -0.60653780052E+03 -0.24310672149E+03 -0.94359353144E+03  0.11477620591E+04  0.10100000352E+00 0. -1.
       -3    1    3    3    0  502  0.60653780052E+03  0.24310672149E+03  0.14675097880E+04  0.16064164994E+04  0.10100000352E+00 0.  1.
</event>
<event>
 5   0  0.7600052E-06  0.2691414E+04  0.7818609E-02  0.8337796E-01
       -1   -1    0    0    0  501  0.00000000000E+00  0.00000000000E+00  0.11521244698E+04  0.11521244698E+04  0.50400001928E-02 0.  1.
        1   -1    0    0  501    0  0.00000000000E+00  0.00000000000E+00 -0.15718155344E+04  0.15718155345E+04  0.50400001928E-02 0. -1.
    10030    2    1    2    0    0  0.00000000000E+00  0.00000000000E+00 -0.41969106462E+03  0.27239400043E+04  0.26914138584E+04 0.  0.
        5    1    3    3  502    0  0.67031888736E+03  0.93795367437E+03 -0.91236717806E+03  0.14702110269E+04  0.46999998093E+01 0. -1.
       -5    1    3    3    0  502 -0.67031888736E+03 -0.93795367437E+03  0.49267611344E+03  0.12537289774E+04  0.46999998093E+01 0.  1.
</event>
<event>
 5   0  0.7754912E-06  0.2687460E+04  0.7818609E-02  0.8339085E-01
        1   -1    0    0  501    0  0.00000000000E+00  0.00000000000E+00  0.12752232951E+04  0.12752232951E+04  0.50400001928E-02 0. -1.
       -1   -1    0    0    0  501  0.00000000000E+00  0.00000000000E+00 -0.14159173003E+04  0.14159173003E+04  0.50400001928E-02 0.  1.
    10030    2    1    2    0    0  0.00000000000E+00  0.00000000000E+00 -0.14069400515E+03  0.26911405954E+04  0.26874603069E+04 0.  0.
        4    1    3    3  502    0  0.12335598904E+04 -0.59306377368E+02 -0.60062091748E+03  0.13732932495E+04  0.12699999809E+01 0.  1.
       -4    1    3    3    0  502 -0.12335598904E+04  0.59306377368E+02  0.45992691233E+03  0.13178473459E+04  0.12699999809E+01 0. -1.
</event>
<event>
 5   0  0.1931119E-05  0.2673998E+04  0.7818609E-02  0.8343491E-01
        2   -1    0    0  501    0  0.00000000000E+00  0.00000000000E+00  0.10277509680E+04  0.10277509680E+04  0.25500000920E-02 0. -1.
       -2   -1    0    0    0  501  0.00000000000E+00  0.00000000000E+00 -0.17392994110E+04  0.17392994110E+04  0.25500000920E-02 0.  1.
    10030    2    1    2    0    0  0.00000000000E+00  0.00000000000E+00 -0.71154844303E+03  0.27670503790E+04  0.26739982448E+04 0.  0.
        3    1    3    3  502    0  0.65060345963E+03  0.74166915881E+03 -0.12895095734E+04  0.16236357205E+04  0.10100000352E+00 0.  1.
       -3    1    3    3    0  502 -0.65060345963E+03 -0.74166915881E+03  0.57796113035E+03  0.11434146585E+04  0.10100000352E+00 0. -1.
</event>
<event>
 5   0  0.1788003E-05  0.2721924E+04  0.7818609E-02  0.8327926E-01
       -2   -1    0    0    0  501  0.00000000000E+00  0.00000000000E+00  0.11472555934E+04  0.11472555934E+04  0.25500000920E-02 0. -1.
        2   -1    0    0  501    0  0.00000000000E+00  0.00000000000E+00 -0.16144770581E+04  0.16144770581E+04  0.25500000920E-02 0.  1.
    10030    2    1    2    0    0  0.00000000000E+00  0.00000000000E+00 -0.46722146467E+03  0.27617326515E+04  0.27219241983E+04 0.  0.
        2    1    3    3  502    0  0.13229231711E+03  0.13463439478E+04 -0.38435873349E+03  0.14063694105E+04  0.25500000920E-02 0.  1.
       -2    1    3    3    0  502 -0.13229231711E+03 -0.13463439478E+04 -0.82862731180E+02  0.13553632410E+04  0.25500000920E-02 0. -1.
</event>
<event>
 5   0  0.1881699E-05  0.2643817E+04  0.7818609E-02  0.8353468E-01
        2   -1    0    0  501    0  0.00000000000E+00  0.00000000000E+00  0.14141016324E+04  0.14141016324E+04  0.25500000920E-02 0.  1.
       -2   -1    0    0    0  501  0.00000000000E+00  0.00000000000E+00 -0.12357257230E+04  0.12357257230E+04  0.25500000920E-02 0. -1.
    10030    2    1    2    0    0  0.00000000000E+00  0.00000000000E+00  0.17837590946E+03  0.26498273554E+04  0.26438167577E+04 0.  0.
        4    1    3    3  502    0 -0.11249069525E+04 -0.51897289194E+03  0.55142147126E+03  0.13560294120E+04  0.12699999809E+01 0. -1.
       -4    1    3    3    0  502  0.11249069525E+04  0.51897289194E+03 -0.37304556180E+03  0.12937979434E+04  0.12699999809E+01 0.  1.
</event>
<event>
 5   0  0.6804685E-06  0.2307883E+04  0.7818609E-02  0.8474820E-01
       -1   -1    0    0    0  501  0.00000000000E+00  0.00000000000E+00  0.11608383847E+04  0.11608383847E+04  0.50400001928E-02 0.  1.
        1   -1    0    0  501    0  0.00000000000E+00  0.00000000000E+00 -0.11470852524E+04  0.11470852524E+04  0.50400001928E-02 0. -1.
    10030    2    1    2    0    0  0.00000000000E+00  0.00000000000E+00  0.13753132248E+02  0.23079236371E+04  0.23078826587E+04 0.  0.
        2    1    3    3  502    0 -0.38945982806E+03 -0.80175377750E+03 -0.72600240573E+03  0.11495945244E+04  0.25500000920E-02 0. -1.
       -2    1    3    3    0  502  0.38945982806E+03  0.80175377750E+03  0.73975553798E+03  0.11583291127E+04  0.25500000920E-02 0.  1.
</event>
<event>
 5   0  0.1931119E-05  0.1971046E+04  0.7818609E-02  0.8620278E-01
        2   -1    0    0  501    0  0.00000000000E+00  0.00000000000E+00  0.23261594058E+04  0.23261594058E+04  0.25500000920E-02 0.  1.
       -2   -1    0    0    0  501  0.00000000000E+00  0.00000000000E+00 -0.41753617638E+03  0.41753617639E+03  0.25500000920E-02 0. -1.
    10030    2    1    2    0    0  0.00000000000E+00  0.00000000000E+00  0.19086232295E+04  0.27436955822E+04  0.19710461222E+04 0.  0.
        3    1    3    3  502    0 -0.96713761745E+03 -0.18678557076E+03  0.91003654351E+03  0.13410482994E+04  0.10100000352E+00 0.  1.
       -3    1    3    3    0  502  0.96713761745E+03  0.18678557076E+03  0.99858668594E+03  0.14026472828E+04  0.10100000352E+00 0. -1.
</event>
<event>
 5   0  0.1788003E-05  0.2715442E+04  0.7818609E-02  0.8330012E-01
       -2   -1    0    0    0  501  0.00000000000E+00  0.00000000000E+00  0.13770437583E+04  0.13770437583E+04  0.25500000920E-02 0. -1.
        2   -1    0    0  501    0  0.00000000000E+00  0.00000000000E+00 -0.13386696187E+04  0.13386696187E+04  0.25500000920E-02 0.  1.
    10030    2    1    2    0    0  0.00000000000E+00  0.00000000000E+00  0.38374139662E+02  0.27157133770E+04  0.27154422424E+04 0.  0.
        2    1    3    3  502    0  0.74890955020E+03  0.25457617984E+03 -0.10844321074E+04  0.13422620986E+04  0.25500000920E-02 0.  1.
       -2    1    3    3    0  502 -0.74890955020E+03 -0.25457617984E+03  0.11228062471E+04  0.13734512784E+04  0.25500000920E-02 0. -1.
</event>
<event>
 5   0  0.7348964E-06  0.2664878E+04  0.7818609E-02  0.8346492E-01
       -1   -1    0    0    0  501  0.00000000000E+00  0.00000000000E+00  0.75712262006E+03  0.75712262008E+03  0.50400001928E-02 0. -1.
        1   -1    0    0  501    0  0.00000000000E+00  0.00000000000E+00 -0.23449226711E+04  0.23449226711E+04  0.50400001928E-02 0.  1.
    10030    2    1    2    0    0  0.00000000000E+00  0.00000000000E+00 -0.15878000511E+04  0.31020452912E+04  0.26648782311E+04 0.  0.
        1    1    3    3  502    0  0.63879132402E+03  0.91592819391E+03  0.52271505721E+02  0.11179047913E+04  0.50400001928E-02 0. -1.
       -1    1    3    3    0  502 -0.63879132402E+03 -0.91592819391E+03 -0.16400715568E+04  0.19841404999E+04  0.50400001928E-02 0.  1.
</event>
<event>
 5   0  0.7600052E-06  0.2763502E+04  0.7818609E-02  0.8314690E-01
        1   -1    0    0  501    0  0.00000000000E+00  0.00000000000E+00  0.17087659654E+04  0.17087659654E+04  0.50400001928E-02 0.  1.
       -1   -1    0    0    0  501  0.00000000000E+00  0.00000000000E+00 -0.11173183707E+04  0.11173183707E+04  0.50400001928E-02 0. -1.
    10030    2    1    2    0    0  0.00000000000E+00  0.00000000000E+00  0.59144759464E+03  0.28260843361E+04  0.27635018396E+04 0.  0.
        5    1    3    3  502    0  0.64781337587E+03 -0.11850435105E+04  0.59426503981E+03  0.14755213720E+04  0.46999998093E+01 0.  1.
       -5    1    3    3    0  502 -0.64781337587E+03  0.11850435105E+04 -0.28174451713E+01  0.13505629640E+04  0.46999998093E+01 0. -1.
</event>
<event>
 5   0  0.7754912E-06  0.2866365E+04  0.7818609E-02  0.8282956E-01
       -1   -1    0    0    0  501  0.00000000000E+00  0.00000000000E+00  0.15441787406E+04  0.15441787406E+04  0.50400001928E-02 0. -1.
        1   -1    0    0  501    0  0.00000000000E+00  0.00000000000E+00 -0.13301644129E+04  0.13301644129E+04  0.50400001928E-02 0.  1.
    10030    2    1    2    0    0  0.00000000000E+00  0.00000000000E+00  0.21401432767E+03  0.28743431536E+04  0.28663646718E+04 0.  0.
        4    1    3    3  502    0 -0.24627624586E+03 -0.13448135221E+04  0.53812779324E+03  0.14692714294E+04  0.12699999809E+01 0. -1.
       -4    1    3    3    0  502  0.24627624586E+03  0.13448135221E+04 -0.32411346557E+03  0.14050717241E+04  0.12699999809E+01 0.  1.
</event>
<event>
 5   0  0.7351590E-06  0.2679423E+04  0.7818609E-02  0.8341713E-01
        1   -1    0    0  501    0  0.00000000000E+00  0.00000000000E+00  0.11434689893E+04  0.11434689893E+04  0.50400001928E-02 0. -1.
       -1   -1    0    0    0  501  0.00000000000E+00  0.00000000000E+00 -0.15696328568E+04  0.15696328568E+04  0.50400001928E-02 0.  1.
    10030    2    1    2    0    0  0.00000000000E+00  0.00000000000E+00 -0.42616386754E+03  0.27131018461E+04  0.26794226963E+04 0.  0.
        3    1    3    3  502    0 -0.12590099243E+03 -0.13298614309E+04 -0.31656238493E+03  0.13728052444E+04  0.10100000352E+00 0. -1.
       -3    1    3    3    0  502  0.12590099243E+03  0.13298614309E+04 -0.10960148261E+03  0.13402966017E+04  0.10100000352E+00 0.  1.
</event>
<event>
 5   0  0.1931119E-05  0.2731063E+04  0.7818609E-02  0.8324996E-01
        2   -1    0    0  501    0  0.00000000000E+00  0.00000000000E+00  0.17643759068E+04  0.17643759068E+04  0.25500000920E-02 0.  1.
       -2   -1    0    0    0  501  0.00000000000E+00  0.00000000000E+00 -0.10568475069E+04  0.10568475069E+04  0.25500000920E-02 0. -1.
    10030    2    1    2    0    0  0.00000000000E+00  0.00000000000E+00  0.70752839993E+03  0.28212234137E+04  0.27310630006E+04 0.  0.
        3    1    3    3  502    0  0.44204387282E+02 -0.58227643998E+03 -0.92135894719E+03  0.10908263841E+04  0.10100000352E+00 0. -1.
       -3    1    3    3    0  502 -0.44204387282E+02  0.58227643998E+03  0.16288873471E+04  0.17303970296E+04  0.10100000352E+00 0.  1.
</event>
<event>
 5   0  0.6804685E-06  0.2679941E+04  0.7818609E-02  0.8341543E-01
        1   -1    0    0  501    0  0.00000000000E+00  0.00000000000E+00  0.27052926358E+04  0.27052926358E+04  0.50400001928E-02 0. -1.
       -1   -1    0    0    0  501  0.00000000000E+00  0.00000000000E+00 -0.66370672020E+03  0.66370672022E+03  0.50400001928E-02 0.  1.
    10030    2    1    2    0    0  0.00000000000E+00  0.00000000000E+00  0.20415859156E+04  0.33689993560E+04  0.26799409714E+04 0.  0.
        2    1    3    3  502    0 -0.79764481845E+03  0.11213140281E+03  0.23669711054E+04  0.25002725695E+04  0.25500000920E-02 0. -1.
       -2    1    3    3    0  502  0.79764481845E+03 -0.11213140281E+03 -0.32538518980E+03  0.86872678654E+03  0.25500000920E-02 0.  1.
</event>
<event>
 5   0  0.1878160E-05  0.1969843E+04  0.7818609E-02  0.8620851E-01
       -2   -1    0    0    0  501  0.00000000000E+00  0.00000000000E+00  0.61118301096E+03  0.61118301097E+03  0.25500000920E-02 0. -1.
        2   -1    0    0  501    0  0.00000000000E+00  0.00000000000E+00 -0.15872008953E+04  0.15872008953E+04  0.25500000920E-02 0.  1.
    10030    2    1    2    0    0  0.00000000000E+00  0.00000000000E+00 -0.97601788434E+03  0.21983839063E+04  0.19698428589E+04 0.  0.
        1    1    3    3  502    0 -0.14055126500E+03  0.34176292929E+03  0.53088344086E+03  0.64683366156E+03  0.50400001928E-02 0. -1.
       -1    1    3    3    0  502  0.14055126500E+03 -0.34176292929E+03 -0.15069013252E+04  0.15515502447E+04  0.50400001928E-02 0.  1.
</event>
<event>
 5   0  0.6804685E-06  0.2679155E+04  0.7818609E-02  0.8341800E-01
        1   -1    0    0  501    0  0.00000000000E+00  0.00000000000E+00  0.16339992513E+04  0.16339992513E+04  0.50400001928E-02 0. -1.
       -1   -1    0    0    0  501  0.00000000000E+00  0.00000000000E+00 -0.10982061416E+04  0.10982061416E+04  0.50400001928E-02 0.  1.
    10030    2    1    2    0    0  0.00000000000E+00  0.00000000000E+00  0.53579310967E+03  0.27322053929E+04  0.26791551005E+04 0.  0.
        2    1    3    3  502    0  0.10609093047E+04 -0.41634060583E+03 -0.45003182163E+03  0.12253149364E+04  0.25500000920E-02 0.  1.
       -2    1    3    3    0  502 -0.10609093047E+04  0.41634060583E+03  0.98582493130E+03  0.15068904565E+04  0.25500000920E-02 0. -1.
</event>
<event>
 5   0  0.7351590E-06  0.2745716E+04  0.7818609E-02  0.8320322E-01
       -1   -1    0    0    0  501  0.00000000000E+00  0.00000000000E+00  0.17348357716E+04  0.17348357716E+04  0.50400001928E-02 0. -1.
        1   -1    0    0  501    0  0.00000000000E+00  0.00000000000E+00 -0.10864077313E+04  0.10864077313E+04  0.50400001928E-02 0.  1.
    10030    2    1    2    0    0  0.00000000000E+00  0.00000000000E+00  0.64842804028E+03  0.28212435029E+04  0.27457159320E+04 0.  0.
        3    1    3    3  502    0  0.12860677022E+04 -0.42933872652E+03  0.10279366146E+03  0.13597310116E+04  0.10100000352E+00 0. -1.
       -3    1    3    3    0  502 -0.12860677022E+04  0.42933872652E+03  0.54563437882E+03  0.14615124914E+04  0.10100000352E+00 0.  1.
</event>
<event>
 5   0  0.1878160E-05  0.2719309E+04  0.7818609E-02  0.8328767E-01
       -2   -1    0    0    0  501  0.00000000000E+00  0.00000000000E+00  0.13514310992E+04  0.13514310992E+04  0.25500000920E-02 0.  1.
        2   -1    0    0  501    0  0.00000000000E+00  0.00000000000E+00 -0.13679283473E+04  0.13679283473E+04  0.25500000920E-02 0. -1.
    10030    2    1    2    0    0  0.00000000000E+00  0.00000000000E+00 -0.16497248058E+02  0.27193594465E+04  0.27193094050E+04 0.  0.
        1    1    3    3  502    0  0.45554630577E+03 -0.12616505886E+04 -0.23046042151E+03  0.13610277919E+04  0.50400001928E-02 0. -1.
       -1    1    3    3    0  502 -0.45554630577E+03  0.12616505886E+04  0.21396317345E+03  0.13583316546E+04  0.50400001928E-02 0.  1.
</event>
<event>
 5   0  0.7754912E-06  0.2697558E+04  0.7818609E-02  0.8335798E-01
       -1   -1    0    0    0  501  0.00000000000E+00  0.00000000000E+00  0.10704907249E+04  0.10704907249E+04  0.50400001928E-02 0. -1.
        1   -1    0    0  501    0  0.00000000000E+00  0.00000000000E+00 -0.16994125120E+04  0.16994125120E+04  0.50400001928E-02 0.  1.
    10030    2    1    2    0    0  0.00000000000E+00  0.00000000000E+00 -0.62892178711E+03  0.27699032368E+04  0.26975584011E+04 0.  0.
        4    1    3    3  502    0 -0.26798828918E+03  0.13191445477E+04 -0.22706868655E+03  0.13651087364E+04  0.12699999809E+01 0. -1.
       -4    1    3    3    0  502  0.26798828918E+03 -0.13191445477E+04 -0.40185310056E+03  0.14047945004E+04  0.12699999809E+01 0.  1.
</event>
<event>
 5   0  0.1788003E-05  0.2754444E+04  0.7818609E-02  0.8317553E-01
        2   -1    0    0  501    0  0.00000000000E+00  0.00000000000E+00  0.28294042062E+04  0.28294042062E+04  0.25500000920E-02 0.  1.
       -2   -1    0    0    0  501  0.00000000000E+00  0.00000000000E+00 -0.67036749149E+03  0.67036749150E+03  0.25500000920E-02 0. -1.
    10030    2    1    2    0    0  0.00000000000E+00  0.00000000000E+00  0.21590367147E+04  0.34997716977E+04  0.27544441183E+04 0.  0.
        2    1    3    3  502    0  0.65109108966E+03  0.94034998609E+03  0.10474828005E+03  0.11485425136E+04  0.25500000920E-02 0.  1.
       -2    1    3    3    0  502 -0.65109108966E+03 -0.94034998609E+03  0.20542884347E+04  0.23512291841E+04  0.25500000920E-02 0. -1.
</event>
<event>
 5   0  0.7600052E-06  0.2657195E+04  0.7818609E-02  0.8349029E-01
        1   -1    0    0  501    0  0.00000000000E+00  0.00000000000E+00  0.16043130524E+04  0.16043130524E+04  0.50400001928E-02 0.  1.
       -1   -1    0    0    0  501  0.00000000000E+00  0.00000000000E+00 -0.11002661054E+04  0.11002661054E+04  0.50400001928E-02 0. -1.
    10030    2    1    2    0    0  0.00000000000E+00  0.00000000000E+00  0.50404694695E+03  0.27045791578E+04  0.26571949676E+04 0.  0.
        5    1    3    3  502    0 -0.10052983655E+04  0.31359190698E+03 -0.57247386516E+03  0.11986296776E+04  0.46999998093E+01 0. -1.
       -5    1    3    3    0  502  0.10052983655E+04 -0.31359190698E+03  0.10765208121E+04  0.15059494801E+04  0.46999998093E+01 0.  1.
</event>
<event>
 5   0  0.1931119E-05  0.2704221E+04  0.7818609E-02  0.8333637E-01
        2   -1    0    0  501    0  0.00000000000E+00  0.00000000000E+00  0.82392126073E+03  0.82392126073E+03  0.25500000920E-02 0.  1.
       -2   -1    0    0    0  501  0.00000000000E+00  0.00000000000E+00 -0.22189041811E+04  0.22189041811E+04  0.25500000920E-02 0. -1.
    10030    2    1    2    0    0  0.00000000000E+00  0.00000000000E+00 -0.13949829204E+04  0.30428254419E+04  0.27042206495E+04 0.  0.
        3    1    3    3  502    0  0.67466645170E+03 -0.10257283549E+04 -0.13349115618E+04  0.18136378820E+04  0.10100000352E+00 0. -1.
       -3    1    3    3    0  502 -0.67466645170E+03  0.10257283549E+04 -0.60071358615E+02  0.12291875599E+04  0.10100000352E+00 0.  1.
</event>
<event>
 5   0  0.6804685E-06  0.2683385E+04  0.7818609E-02  0.8340416E-01
        1   -1    0    0  501    0  0.00000000000E+00  0.00000000000E+00  0.17589403746E+04  0.17589403746E+04  0.50400001928E-02 0. -1.
       -1   -1    0    0    0  501  0.00000000000E+00  0.00000000000E+00 -0.10234225282E+04  0.10234225282E+04  0.50400001928E-02 0.  1.
    10030    2    1    2    0    0  0.00000000000E+00  0.00000000000E+00  0.73551784643E+03  0.27823629028E+04  0.26833853283E+04 0.  0.
        2    1    3    3  502    0 -0.11326792831E+04  0.30688885070E+03 -0.30661210584E+03  0.12129114182E+04  0.25500000920E-02 0.  1.
       -2    1    3    3    0  502  0.11326792831E+04 -0.30688885070E+03  0.10421299523E+04  0.15694514846E+04  0.25500000920E-02 0. -1.
</event>
<event>
 5   0  0.1788003E-05  0.2680213E+04  0.7818609E-02  0.8341454E-01
       -2   -1    0    0    0  501  0.00000000000E+00  0.00000000000E+00  0.81833176643E+03  0.81833176644E+03  0.25500000920E-02 0.  1.
        2   -1    0    0  501    0  0.00000000000E+00  0.00000000000E+00 -0.21945681420E+04  0.21945681420E+04  0.25500000920E-02 0. -1.
    10030    2    1    2    0    0  0.00000000000E+00  0.00000000000E+00 -0.13762363755E+04  0.30128999084E+04  0.26802125469E+04 0.  0.
        2    1    3    3  502    0  0.79252113250E+03  0.99644125124E+03 -0.21799652536E+03  0.12917071641E+04  0.25500000920E-02 0.  1.
       -2    1    3    3    0  502 -0.79252113250E+03 -0.99644125124E+03 -0.11582398502E+04  0.17211927443E+04  0.25500000920E-02 0. -1.
</event>
<event>
 5   0  0.1878160E-05  0.2655758E+04  0.7818609E-02  0.8349504E-01
       -2   -1    0    0    0  501  0.00000000000E+00  0.00000000000E+00  0.30019131671E+04  0.30019131671E+04  0.25500000920E-02 0. -1.
        2   -1    0    0  501    0  0.00000000000E+00  0.00000000000E+00 -0.58737956248E+03  0.58737956248E+03  0.25500000920E-02 0.  1.
    10030    2    1    2    0    0  0.00000000000E+00  0.00000000000E+00  0.24145336046E+04  0.35892927295E+04  0.26557578524E+04 0.  0.
        1    1    3    3  502    0  0.88415240719E+03 -0.44088159280E+03  0.24063574608E+04  0.26012801247E+04  0.50400001928E-02 0. -1.
       -1    1    3    3    0  502 -0.88415240719E+03  0.44088159280E+03  0.81761438024E+01  0.98801260486E+03  0.50400001928E-02 0.  1.
</event>
<event>
 5   0  0.7351590E-06  0.2673935E+04  0.7818609E-02  0.8343512E-01
       -1   -1    0    0    0  501  0.00000000000E+00  0.00000000000E+00  0.78433689080E+03  0.78433689081E+03  0.50400001928E-02 0.  1.
        1   -1    0    0  501    0  0.00000000000E+00  0.00000000000E+00 -0.22789728313E+04  0.22789728313E+04  0.50400001928E-02 0. -1.
    10030    2    1    2    0    0  0.00000000000E+00  0.00000000000E+00 -0.14946359405E+04  0.30633097221E+04  0.26739352758E+04 0.  0.
        3    1    3    3  502    0  0.99587769657E+03 -0.54391239191E+03 -0.15572867603E+04  0.19268510946E+04  0.10100000352E+00 0. -1.
       -3    1    3    3    0  502 -0.99587769657E+03  0.54391239191E+03  0.62650819856E+02  0.11364586275E+04  0.10100000352E+00 0.  1.
</event>
<event>
 5   0  0.7754912E-06  0.2720277E+04  0.7818609E-02  0.8328456E-01
        1   -1    0    0  501    0  0.00000000000E+00  0.00000000000E+00  0.21077174522E+04  0.21077174522E+04  0.50400001928E-02 0.  1.
       -1   -1    0    0    0  501  0.00000000000E+00  0.00000000000E+00 -0.87771586022E+03  0.87771586024E+03  0.50400001928E-02 0. -1.
    10030    2    1    2    0    0  0.00000000000E+00  0.00000000000E+00  0.12300015920E+04  0.29854333124E+04  0.27202772187E+04 0.  0.
        4    1    3    3  502    0  0.10276935447E+04 -0.89001516529E+03  0.66017631399E+03  0.15113290160E+04  0.12699999809E+01 0.  1.
       -4    1    3    3    0  502 -0.10276935447E+04  0.89001516529E+03  0.56982527796E+03  0.14741042964E+04  0.12699999809E+01 0. -1.
</event>
<event>
 5   0  0.1788003E-05  0.2710679E+04  0.7818609E-02  0.8331548E-01
        2   -1    0    0  501    0  0.00000000000E+00  0.00000000000E+00  0.15298705825E+04  0.15298705825E+04  0.25500000920E-02 0. -1.
       -2   -1    0    0    0  501  0.00000000000E+00  0.00000000000E+00 -0.12007192565E+04  0.12007192565E+04  0.25500000920E-02 0.  1.
    10030    2    1    2    0    0  0.00000000000E+00  0.00000000000E+00  0.32915132605E+03  0.27305898390E+04  0.27106789322E+04 0.  0.
        2    1    3    3  502    0  0.11518810361E+04  0.27381781912E+03  0.82907165932E+03  0.14453947335E+04  0.25500000920E-02 0. -1.
       -2    1    3    3    0  502 -0.11518810361E+04 -0.27381781912E+03 -0.49992033327E+03  0.12851951054E+04  0.25500000920E-02 0.  1.
</event>
<event>
 5   0  0.1881699E-05  0.2679520E+04  0.7818609E-02  0.8341681E-01
       -2   -1    0    0    0  501  0.00000000000E+00  0.00000000000E+00  0.98260759136E+03  0.98260759136E+03  0.25500000920E-02 0. -1.
        2   -1    0    0  501    0  0.00000000000E+00  0.00000000000E+00 -0.18267276068E+04  0.18267276068E+04  0.25500000920E-02 0.  1.
    10030    2    1    2    0    0  0.00000000000E+00  0.00000000000E+00 -0.84412001543E+03  0.28093351982E+04  0.26795196687E+04 0.  0.
        4    1    3    3  502    0  0.64366924654E+02  0.12765366576E+04 -0.84309465138E+03  0.15311757388E+04  0.12699999809E+01 0. -1.
       -4    1    3    3    0  502 -0.64366924654E+02 -0.12765366576E+04 -0.10253640446E+01  0.12781594593E+04  0.12699999809E+01 0.  1.
</event>
<event>
 5   0  0.1931119E-05  0.2653817E+04  0.7818609E-02  0.8350147E-01
       -2   -1    0    0    0  501  0.00000000000E+00  0.00000000000E+00  0.11807169825E+04  0.11807169825E+04  0.25500000920E-02 0.  1.
        2   -1    0    0  501    0  0.00000000000E+00  0.00000000000E+00 -0.14912007413E+04  0.14912007413E+04  0.25500000920E-02 0. -1.
    10030    2    1    2    0    0  0.00000000000E+00  0.00000000000E+00 -0.31048375876E+03  0.26719177238E+04  0.26538169037E+04 0.  0.
        3    1    3    3  502    0  0.11497983526E+04  0.44385135389E+03  0.33968576084E+03  0.12784469884E+04  0.10100000352E+00 0.  1.
       -3    1    3    3    0  502 -0.11497983526E+04 -0.44385135389E+03 -0.65016951961E+03  0.13934707354E+04  0.10100000352E+00 0. -1.
</event>
<event>
 5   0  0.1826851E-05  0.2619489E+04  0.7818609E-02  0.8361611E-01
       -2   -1    0    0    0  501  0.00000000000E+00  0.00000000000E+00  0.13809976981E+04  0.13809976981E+04  0.25500000920E-02 0.  1.
        2   -1    0    0  501    0  0.00000000000E+00  0.00000000000E+00 -0.12421677656E+04  0.12421677656E+04  0.25500000920E-02 0. -1.
    10030    2    1    2    0    0  0.00000000000E+00  0.00000000000E+00  0.13882993252E+03  0.26231654636E+04  0.26194891295E+04 0.  0.
        5    1    3    3  502    0  0.12023518358E+04 -0.44554587905E+03  0.33671216726E+03  0.13257293241E+04  0.46999998093E+01 0.  1.
       -5    1    3    3    0  502 -0.12023518358E+04  0.44554587905E+03 -0.19788223473E+03  0.12974361395E+04  0.46999998093E+01 0. -1.
</event>
<event>
 5   0  0.7754912E-06  0.2662641E+04  0.7818609E-02  0.8347229E-01
        1   -1    0    0  501    0  0.00000000000E+00  0.00000000000E+00  0.18176490179E+04  0.18176490179E+04  0.50400001928E-02 0. -1.
       -1   -1    0    0    0  501  0.00000000000E+00  0.00000000000E+00 -0.97511364793E+03  0.97511364794E+03  0.50400001928E-02 0.  1.
    10030    2    1    2    0    0  0.00000000000E+00  0.00000000000E+00  0.84253536997E+03  0.27927626659E+04  0.26626410682E+04 0.  0.
        4    1    3    3  502    0 -0.56080761901E+03  0.52665801809E+03  0.15608916007E+04  0.17401890862E+04  0.12699999809E+01 0. -1.
       -4    1    3    3    0  502  0.56080761901E+03 -0.52665801809E+03 -0.71835623072E+03  0.10525735797E+04  0.12699999809E+01 0.  1.
</event>
<event>
 5   0  0.7600052E-06  0.2727015E+04  0.7818609E-02  0.8326292E-01
       -1   -1    0    0    0  501  0.00000000000E+00  0.00000000000E+00  0.63259652452E+03  0.63259652454E+03  0.50400001928E-02 0. -1.
        1   -1    0    0  501    0  0.00000000000E+00  0.00000000000E+00 -0.29389235215E+04  0.29389235215E+04  0.50400001928E-02 0.  1.
    10030    2    1    2    0    0  0.00000000000E+00  0.00000000000E+00 -0.23063269970E+04  0.35715200460E+04  0.27270150755E+04 0.  0.
        5    1    3    3  502    0 -0.57624840055E+03 -0.79992350043E+03 -0.23867627296E+04  0.25823629186E+04  0.46999998093E+01 0.  1.
       -5    1    3    3    0  502  0.57624840055E+03  0.79992350043E+03  0.80435732685E+02  0.98915712744E+03  0.46999998093E+01 0. -1.
</event>
<event>
 5   0  0.7348964E-06  0.2665100E+04  0.7818609E-02  0.8346418E-01
        1   -1    0    0  501    0  0.00000000000E+00  0.00000000000E+00  0.13777341518E+04  0.13777341518E+04  0.50400001928E-02 0.  1.
       -1   -1    0    0    0  501  0.00000000000E+00  0.00000000000E+00 -0.12888480373E+04  0.12888480373E+04  0.50400001928E-02 0. -1.
    10030    2    1    2    0    0  0.00000000000E+00  0.00000000000E+00  0.88886114544E+02  0.26665821892E+04  0.26651003415E+04 0.  0.
        1    1    3    3  502    0 -0.12407174635E+03 -0.10130921235E+04 -0.81273656566E+03  0.13047184271E+04  0.50400001928E-02 0. -1.
       -1    1    3    3    0  502  0.12407174635E+03  0.10130921235E+04  0.90162268020E+03  0.13618637620E+04  0.50400001928E-02 0.  1.
</event>
<event>
 5   0  0.1881699E-05  0.2635404E+04  0.7818609E-02  0.8356274E-01
        2   -1    0    0  501    0  0.00000000000E+00  0.00000000000E+00  0.20602148269E+04  0.20602148269E+04  0.25500000920E-02 0.  1.
       -2   -1    0    0    0  501  0.00000000000E+00  0.00000000000E+00 -0.84279476874E+03  0.84279476875E+03  0.25500000920E-02 0. -1.
    10030    2    1    2    0    0  0.00000000000E+00  0.00000000000E+00  0.12174200581E+04  0.29030095956E+04  0.26354037858E+04 0.  0.
        4    1    3    3  502    0 -0.72103765419E+03 -0.10922972479E+04  0.77695453383E+03  0.15220606220E+04  0.12699999809E+01 0.  1.
       -4    1    3    3    0  502  0.72103765419E+03  0.10922972479E+04  0.44046552430E+03  0.13809489736E+04  0.12699999809E+01 0. -1.
</event>
<event>
 5   0  0.1881699E-05  0.2718241E+04  0.7818609E-02  0.8329111E-01
        2   -1    0    0  501    0  0.00000000000E+00  0.00000000000E+00  0.17793990558E+04  0.17793990558E+04  0.25500000920E-02 0. -1.
       -2   -1    0    0    0  501  0.00000000000E+00  0.00000000000E+00 -0.10381078168E+04  0.10381078168E+04  0.25500000920E-02 0.  1.
    10030    2    1    2    0    0  0.00000000000E+00  0.00000000000E+00  0.74129123902E+03  0.28175068725E+04  0.27182406582E+04 0.  0.
        4    1    3    3  502    0 -0.12810591003E+04 -0.41522415901E+03  0.18041428870E+03  0.13587032233E+04  0.12699999809E+01 0.  1.
       -4    1    3    3    0  502  0.12810591003E+04  0.41522415901E+03  0.56087695031E+03  0.14588036492E+04  0.12699999809E+01 0. -1.
</event>
<event>
 5   0  0.6175875E-06  0.2687784E+04  0.7818609E-02  0.8338980E-01
        3   -1    0    0  501    0  0.00000000000E+00  0.00000000000E+00  0.79734213740E+03  0.79734214379E+03  0.10100000352E+00 0.  1.
       -3   -1    0    0    0  501  0.00000000000E+00  0.00000000000E+00 -0.22650819078E+04  0.22650819101E+04  0.10100000352E+00 0. -1.
    10030    2    1    2    0    0  0.00000000000E+00  0.00000000000E+00 -0.14677397704E+04  0.30624240539E+04  0.26877836691E+04 0.  0.
        5    1    3    3  502    0  0.89624398553E+03  0.67840959284E+03  0.10536402148E+03  0.11289891604E+04  0.46999998093E+01 0.  1.
       -5    1    3    3    0  502 -0.89624398553E+03 -0.67840959284E+03 -0.15731037919E+04  0.19334348935E+04  0.46999998093E+01 0. -1.
</event>
<event>
 5   0  0.1788003E-05  0.2595015E+04  0.7818609E-02  0.8369896E-01
       -2   -1    0    0    0  501  0.00000000000E+00  0.00000000000E+00  0.11854933968E+04  0.11854933968E+04  0.25500000920E-02 0.  1.
        2   -1    0    0  501    0  0.00000000000E+00  0.00000000000E+00 -0.14201056998E+04  0.14201056998E+04  0.25500000920E-02 0. -1.
    10030    2    1    2    0    0  0.00000000000E+00  0.00000000000E+00 -0.23461230308E+03  0.26055990966E+04  0.25950151675E+04 0.  0.
        2    1    3    3  502    0 -0.83148646106E+03 -0.42830284907E+03 -0.10202585797E+04  0.13841028267E+04  0.25500000920E-02 0. -1.
       -2    1    3    3    0  502  0.83148646106E+03  0.42830284907E+03  0.78564627662E+03  0.12214962699E+04  0.25500000920E-02 0.  1.
</event>
<event>
 5   0  0.6804685E-06  0.2674927E+04  0.7818609E-02  0.8343186E-01
       -1   -1    0    0    0  501  0.00000000000E+00  0.00000000000E+00  0.12274650282E+04  0.12274650282E+04  0.50400001928E-02 0.  1.
        1   -1    0    0  501    0  0.00000000000E+00  0.00000000000E+00 -0.14573195037E+04  0.14573195037E+04  0.50400001928E-02 0. -1.
    10030    2    1    2    0    0  0.00000000000E+00  0.00000000000E+00 -0.22985447556E+03  0.26847845319E+04  0.26749270837E+04 0.  0.
        2    1    3    3  502    0 -0.41533672538E+02 -0.10212516570E+04 -0.98073510165E+03  0.14165173252E+04  0.25500000920E-02 0. -1.
       -2    1    3    3    0  502  0.41533672538E+02  0.10212516570E+04  0.75088062610E+03  0.12682672067E+04  0.25500000920E-02 0.  1.
</event>
<event>
 5   0  0.7351590E-06  0.2719957E+04  0.7818609E-02  0.8328558E-01
        1   -1    0    0  501    0  0.00000000000E+00  0.00000000000E+00  0.13027852028E+04  0.13027852028E+04  0.50400001928E-02 0. -1.
       -1   -1    0    0    0  501  0.00000000000E+00  0.00000000000E+00 -0.14196830656E+04  0.14196830656E+04  0.50400001928E-02 0.  1.
    10030    2    1    2    0    0  0.00000000000E+00  0.00000000000E+00 -0.11689786278E+03  0.27224682685E+04  0.27199574193E+04 0.  0.
        3    1    3    3  502    0 -0.77525582499E+02 -0.10889177465E+04  0.75334230143E+03  0.13263772872E+04  0.10100000352E+00 0. -1.
       -3    1    3    3    0  502  0.77525582499E+02  0.10889177465E+04 -0.87024016421E+03  0.13960909813E+04  0.10100000352E+00 0.  1.
</event>
<event>
 5   0  0.1826851E-05  0.2680040E+04  0.7818609E-02  0.8341510E-01
        2   -1    0    0  501    0  0.00000000000E+00  0.00000000000E+00  0.10226096424E+04  0.10226096424E+04  0.25500000920E-02 0. -1.
       -2   -1    0    0    0  501  0.00000000000E+00  0.00000000000E+00 -0.17559521913E+04  0.17559521914E+04  0.25500000920E-02 0.  1.
    10030    2    1    2    0    0  0.00000000000E+00  0.00000000000E+00 -0.73334254896E+03  0.27785618337E+04  0.26800400314E+04 0.  0.
        5    1    3    3  502    0 -0.95759058141E+03  0.20640344352E+03  0.58129910499E+03  0.11390842122E+04  0.46999998093E+01 0. -1.
       -5    1    3    3    0  502  0.95759058141E+03 -0.20640344352E+03 -0.13146416540E+04  0.16394776215E+04  0.46999998093E+01 0.  1.
</event>
<event>
 5   0  0.1878160E-05  0.2729163E+04  0.7818609E-02  0.8325604E-01
       -2   -1    0    0    0  501  0.00000000000E+00  0.00000000000E+00  0.99801327592E+03  0.99801327592E+03  0.25500000920E-02 0. -1.
        2   -1    0    0  501    0  0.00000000000E+00  0.00000000000E+00 -0.18657901109E+04  0.18657901109E+04  0.25500000920E-02 0.  1.
    10030    2    1    2    0    0  0.00000000000E+00  0.00000000000E+00 -0.86777683495E+03  0.28638033868E+04  0.27291634621E+04 0.  0.
        1    1    3    3  502    0 -0.10929760455E+04  0.61589205781E+03  0.12940313595E+03  0.12612156178E+04  0.50400001928E-02 0. -1.
       -1    1    3    3    0  502  0.10929760455E+04 -0.61589205781E+03 -0.99717997090E+03  0.16025877690E+04  0.50400001928E-02 0.  1.
</event>
<event>
 5   0  0.7754912E-06  0.2709831E+04  0.7818609E-02  0.8331822E-01
       -1   -1    0    0    0  501  0.00000000000E+00  0.00000000000E+00  0.18546754233E+04  0.18546754233E+04  0.50400001928E-02 0. -1.
        1   -1    0    0  501    0  0.00000000000E+00  0.00000000000E+00 -0.98982054394E+03  0.98982054395E+03  0.50400001928E-02 0.  1.
    10030    2    1    2    0    0  0.00000000000E+00  0.00000000000E+00  0.86485487940E+03  0.28444959673E+04  0.27098308703E+04 0.  0.
        4    1    3    3  502    0 -0.15677007306E+03 -0.64492567783E+03  0.16723515446E+04  0.17992407530E+04  0.12699999809E+01 0. -1.
       -4    1    3    3    0  502  0.15677007306E+03  0.64492567783E+03 -0.80749666520E+03  0.10452552143E+04  0.12699999809E+01 0.  1.
</event>
<event>
 5   0  0.7754912E-06  0.2710539E+04  0.7818609E-02  0.8331593E-01
        1   -1    0    0  501    0  0.00000000000E+00  0.00000000000E+00  0.19851051878E+04  0.19851051878E+04  0.50400001928E-02 0.  1.
       -1   -1    0    0    0  501  0.00000000000E+00  0.00000000000E+00 -0.92526882618E+03  0.92526882619E+03  0.50400001928E-02 0. -1.
    10030    2    1    2    0    0  0.00000000000E+00  0.00000000000E+00  0.10598363616E+04  0.29103740140E+04  0.27105393906E+04 0.  0.
        4    1    3    3  502    0 -0.12762424726E+04 -0.19212272370E+03  0.97398928881E+03  0.16168991117E+04  0.12699999809E+01 0.  1.
       -4    1    3    3    0  502  0.12762424726E+04  0.19212272370E+03  0.85847072798E+02  0.12934749022E+04  0.12699999809E+01 0. -1.
</event>
<event>
 5   0  0.7600052E-06  0.2684316E+04  0.7818609E-02  0.8340112E-01
        1   -1    0    0  501    0  0.00000000000E+00  0.00000000000E+00  0.11822401033E+04  0.11822401033E+04  0.50400001928E-02 0.  1.
       -1   -1    0    0    0  501  0.00000000000E+00  0.00000000000E+00 -0.15237069534E+04  0.15237069534E+04  0.50400001928E-02 0. -1.
    10030    2    1    2    0    0  0.00000000000E+00  0.00000000000E+00 -0.34146685005E+03  0.27059470567E+04  0.26843155299E+04 0.  0.
        5    1    3    3  502    0 -0.13199974735E+04 -0.98821921555E+02 -0.39434586985E+03  0.13811914630E+04  0.46999998093E+01 0.  1.
       -5    1    3    3    0  502  0.13199974735E+04  0.98821921555E+02  0.52879019803E+02  0.13247555937E+04  0.46999998093E+01 0. -1.
</event>
<event>
 5   0  0.1881699E-05  0.2726221E+04  0.7818609E-02  0.8326547E-01
        2   -1    0    0  501    0  0.00000000000E+00  0.00000000000E+00  0.12946525999E+04  0.12946525999E+04  0.25500000920E-02 0.  1.
       -2   -1    0    0    0  501  0.00000000000E+00  0.00000000000E+00 -0.14351884170E+04  0.14351884170E+04  0.25500000920E-02 0. -1.
    10030    2    1    2    0    0  0.00000000000E+00  0.00000000000E+00 -0.14053581715E+03  0.27298410169E+04  0.27262211322E+04 0.  0.
        4    1    3    3  502    0 -0.45945190125E+02 -0.89588629537E+03  0.95742110852E+03  0.13120137220E+04  0.12699999809E+01 0.  1.
       -4    1    3    3    0  502  0.45945190125E+02  0.89588629537E+03 -0.10979569257E+04  0.14178272949E+04  0.12699999809E+01 0. -1.
</event>
<event>
 5   0  0.6175875E-06  0.2709001E+04  0.7818609E-02  0.8332090E-01
       -3   -1    0    0    0  501  0.00000000000E+00  0.00000000000E+00  0.89456504885E+03  0.89456505456E+03  0.10100000352E+00 0.  1.
        3   -1    0    0  501    0  0.00000000000E+00  0.00000000000E+00 -0.20509087224E+04  0.20509087249E+04  0.10100000352E+00 0. -1.
    10030    2    1    2    0    0  0.00000000000E+00  0.00000000000E+00 -0.11563436736E+04  0.29454737795E+04  0.27090007556E+04 0.  0.
        2    1    3    3  502    0 -0.53965459917E+03  0.93522843768E+03 -0.14673556649E+04  0.18218155682E+04  0.25500000920E-02 0. -1.
       -2    1    3    3    0  502  0.53965459917E+03 -0.93522843768E+03  0.31101199135E+03  0.11236582113E+04  0.25500000920E-02 0.  1.
</event>
<event>
 5   0  0.1931119E-05  0.2674819E+04  0.7818609E-02  0.8343222E-01
       -2   -1    0    0    0  501  0.00000000000E+00  0.00000000000E+00  0.12759845675E+04  0.12759845675E+04  0.25500000920E-02 0. -1.
        2   -1    0    0  501    0  0.00000000000E+00  0.00000000000E+00 -0.14017909632E+04  0.14017909632E+04  0.25500000920E-02 0.  1.
    10030    2    1    2    0    0  0.00000000000E+00  0.00000000000E+00 -0.12580639562E+03  0.26777755307E+04  0.26748186001E+04 0.  0.
        3    1    3    3  502    0 -0.12006432475E+04 -0.29476843720E+02 -0.65198425822E+03  0.13665637838E+04  0.10100000352E+00 0. -1.
       -3    1    3    3    0  502  0.12006432475E+04  0.29476843720E+02  0.52617786259E+03  0.13112117469E+04  0.10100000352E+00 0.  1.
</event>
<event>
 5   0  0.1931119E-05  0.2724707E+04  0.7818609E-02  0.8327033E-01
       -2   -1    0    0    0  501  0.00000000000E+00  0.00000000000E+00  0.14599791969E+04  0.14599791969E+04  0.25500000920E-02 0.  1.
        2   -1    0    0  501    0  0.00000000000E+00  0.00000000000E+00 -0.12712561500E+04  0.12712561500E+04  0.25500000920E-02 0. -1.
    10030    2    1    2    0    0  0.00000000000E+00  0.00000000000E+00  0.18872304682E+03  0.27312353469E+04  0.27247073479E+04 0.  0.
        3    1    3    3  502    0  0.26569188849E+03 -0.11061066161E+04  0.84578643050E+03  0.14175396721E+04  0.10100000352E+00 0.  1.
       -3    1    3    3    0  502 -0.26569188849E+03  0.11061066161E+04 -0.65706338369E+03  0.13136956748E+04  0.10100000352E+00 0. -1.
</event>
<event>
 5   0  0.7600052E-06  0.2706932E+04  0.7818609E-02  0.8332759E-01
        1   -1    0    0  501    0  0.00000000000E+00  0.00000000000E+00  0.11961451117E+04  0.11961451117E+04  0.50400001928E-02 0. -1.
       -1   -1    0    0    0  501  0.00000000000E+00  0.00000000000E+00 -0.15314779715E+04  0.15314779715E+04  0.50400001928E-02 0.  1.
    10030    2    1    2    0    0  0.00000000000E+00  0.00000000000E+00 -0.33533285973E+03  0.27276230832E+04  0.27069317607E+04 0.  0.
        5    1    3    3  502    0  0.84821060496E+03 -0.10373591947E+04 -0.35957555064E+03  0.13874047700E+04  0.46999998093E+01 0.  1.
       -5    1    3    3    0  502 -0.84821060496E+03  0.10373591947E+04  0.24242690906E+02  0.13402183132E+04  0.46999998093E+01 0. -1.
</event>
<event>
 5   0  0.1931119E-05  0.2699810E+04  0.7818609E-02  0.8335067E-01
       -2   -1    0    0    0  501  0.00000000000E+00  0.00000000000E+00  0.85119304109E+03  0.85119304109E+03  0.25500000920E-02 0.  1.
        2   -1    0    0  501    0  0.00000000000E+00  0.00000000000E+00 -0.21408106128E+04  0.21408106128E+04  0.25500000920E-02 0. -1.
    10030    2    1    2    0    0  0.00000000000E+00  0.00000000000E+00 -0.12896175717E+04  0.29920036539E+04  0.26998096940E+04 0.  0.
        3    1    3    3  502    0  0.50036729772E+02  0.85406627226E+03  0.51237944347E+03  0.99722894865E+03  0.10100000352E+00 0.  1.
       -3    1    3    3    0  502 -0.50036729772E+02 -0.85406627226E+03 -0.18019970152E+04  0.19947747052E+04  0.10100000352E+00 0. -1.
</event>
<event>
 5   0  0.1788003E-05  0.2656927E+04  0.7818609E-02  0.8349117E-01
        2   -1    0    0  501    0  0.00000000000E+00  0.00000000000E+00  0.19326232008E+04  0.19326232008E+04  0.25500000920E-02 0.  1.
       -2   -1    0    0    0  501  0.00000000000E+00  0.00000000000E+00 -0.91317116447E+03  0.91317116448E+03  0.25500000920E-02 0. -1.
    10030    2    1    2    0    0  0.00000000000E+00  0.00000000000E+00  0.10194520363E+04  0.28457943653E+04  0.26569273824E+04 0.  0.
        2    1    3    3  502    0 -0.31045708055E+03 -0.11148504553E+04  0.12084318253E+04  0.16731953302E+04  0.25500000920E-02 0.  1.
       -2    1    3    3    0  502  0.31045708055E+03  0.11148504553E+04 -0.18897978894E+03  0.11725990351E+04  0.25500000920E-02 0. -1.
</event>
<event>
 5   0  0.1878160E-05  0.2702547E+04  0.7818609E-02  0.8334179E-01
       -2   -1    0    0    0  501  0.00000000000E+00  0.00000000000E+00  0.87492699792E+03  0.87492699792E+03  0.25500000920E-02 0.  1.
        2   -1    0    0  501    0  0.00000000000E+00  0.00000000000E+00 -0.20869620298E+04  0.20869620298E+04  0.25500000920E-02 0. -1.
    10030    2    1    2    0    0  0.00000000000E+00  0.00000000000E+00 -0.12120350319E+04  0.29618890277E+04  0.27025465202E+04 0.  0.
        1    1    3    3  502    0  0.88977693611E+03  0.56587768002E+03  0.32006663525E+03  0.11019814861E+04  0.50400001928E-02 0.  1.
       -1    1    3    3    0  502 -0.88977693611E+03 -0.56587768002E+03 -0.15321016671E+04  0.18599075416E+04  0.50400001928E-02 0. -1.
</event>
<event>
 5   0  0.7348964E-06  0.2662255E+04  0.7818609E-02  0.8347357E-01
        1   -1    0    0  501    0  0.00000000000E+00  0.00000000000E+00  0.10700294632E+04  0.10700294633E+04  0.50400001928E-02 0. -1.
       -1   -1    0    0    0  501  0.00000000000E+00  0.00000000000E+00 -0.16559363015E+04  0.16559363015E+04  0.50400001928E-02 0.  1.
    10030    2    1    2    0    0  0.00000000000E+00  0.00000000000E+00 -0.58590683821E+03  0.27259657647E+04  0.26622551582E+04 0.  0.
        1    1    3    3  502    0  0.53775727315E+03 -0.11221231660E+04 -0.77708698481E+03  0.14670403766E+04  0.50400001928E-02 0.  1.
       -1    1    3    3    0  502 -0.53775727315E+03  0.11221231660E+04  0.19118014660E+03  0.12589253882E+04  0.50400001928E-02 0. -1.
</event>
<event>
 5   0  0.1881699E-05  0.2719387E+04  0.7818609E-02  0.8328742E-01
       -2   -1    0    0    0  501  0.00000000000E+00  0.00000000000E+00  0.10433896741E+04  0.10433896741E+04  0.25500000920E-02 0.  1.
        2   -1    0    0  501    0  0.00000000000E+00  0.00000000000E+00 -0.17718846854E+04  0.17718846854E+04  0.25500000920E-02 0. -1.
    10030    2    1    2    0    0  0.00000000000E+00  0.00000000000E+00 -0.72849501133E+03  0.28152743596E+04  0.27193868313E+04 0.  0.
        4    1    3    3  502    0 -0.81805024507E+03 -0.67078429718E+03 -0.12485363979E+04  0.16364603651E+04  0.12699999809E+01 0. -1.
       -4    1    3    3    0  502  0.81805024507E+03  0.67078429718E+03  0.52004138659E+03  0.11788139944E+04  0.12699999809E+01 0.  1.
</event>
<event>
 5   0  0.1881699E-05  0.2673720E+04  0.7818609E-02  0.8343583E-01
        2   -1    0    0  501    0  0.00000000000E+00  0.00000000000E+00  0.10979839199E+04  0.10979839199E+04  0.25500000920E-02 0.  1.
       -2   -1    0    0    0  501  0.00000000000E+00  0.00000000000E+00 -0.16277057542E+04  0.16277057542E+04  0.25500000920E-02 0. -1.
    10030    2    1    2    0    0  0.00000000000E+00  0.00000000000E+00 -0.52972183433E+03  0.27256896741E+04  0.26737200635E+04 0.  0.
        4    1    3    3  502    0 -0.72232978927E+03 -0.53153761745E+02 -0.14103597570E+04  0.15854658318E+04  0.12699999809E+01 0. -1.
       -4    1    3    3    0  502  0.72232978927E+03  0.53153761745E+02  0.88063792265E+03  0.11402238423E+04  0.12699999809E+01 0.  1.
</event>
<event>
 5   0  0.1826851E-05  0.2669587E+04  0.7818609E-02  0.8344941E-01
        2   -1    0    0  501    0  0.00000000000E+00  0.00000000000E+00  0.21968490262E+04  0.21968490262E+04  0.25500000920E-02 0.  1.
       -2   -1    0    0    0  501  0.00000000000E+00  0.00000000000E+00 -0.81101325049E+03  0.81101325049E+03  0.25500000920E-02 0. -1.
    10030    2    1    2    0    0  0.00000000000E+00  0.00000000000E+00  0.13858357757E+04  0.30078622766E+04  0.26695869864E+04 0.  0.
        5    1    3    3  502    0  0.69157279749E+03 -0.81485480881E+03  0.15938600000E+04  0.19190292033E+04  0.46999998093E+01 0.  1.
       -5    1    3    3    0  502 -0.69157279749E+03  0.81485480881E+03 -0.20802422431E+03  0.10888330733E+04  0.46999998093E+01 0. -1.
</event>
<event>
 5   0  0.7754912E-06  0.2736787E+04  0.7818609E-02  0.8323167E-01
       -1   -1    0    0    0  501  0.00000000000E+00  0.00000000000E+00  0.81190676771E+03  0.81190676772E+03  0.50400001928E-02 0. -1.
        1   -1    0    0  501    0  0.00000000000E+00  0.00000000000E+00 -0.23062999640E+04  0.23062999641E+04  0.50400001928E-02 0.  1.
    10030    2    1    2    0    0  0.00000000000E+00  0.00000000000E+00 -0.14943931963E+04  0.31182067318E+04  0.27367868380E+04 0.  0.
        4    1    3    3  502    0 -0.54823309132E+03 -0.11280340179E+04 -0.12368163683E+03  0.12602852963E+04  0.12699999809E+01 0. -1.
       -4    1    3    3    0  502  0.54823309132E+03  0.11280340179E+04 -0.13707115595E+04  0.18579214354E+04  0.12699999809E+01 0.  1.
</event>
<event>
 5   0  0.6804685E-06  0.2704891E+04  0.7818609E-02  0.8333420E-01
       -1   -1    0    0    0  501  0.00000000000E+00  0.00000000000E+00  0.12688111735E+04  0.12688111735E+04  0.50400001928E-02 0.  1.
        1   -1    0    0  501    0  0.00000000000E+00  0.00000000000E+00 -0.14415926905E+04  0.14415926905E+04  0.50400001928E-02 0. -1.
    10030    2    1    2    0    0  0.00000000000E+00  0.00000000000E+00 -0.17278151699E+03  0.27104038639E+04  0.27048910612E+04 0.  0.
        2    1    3    3  502    0 -0.12694172794E+04 -0.16925943821E+03 -0.52206411242E+03  0.13829750266E+04  0.25500000920E-02 0.  1.
       -2    1    3    3    0  502  0.12694172794E+04  0.16925943821E+03  0.34928259542E+03  0.13274288373E+04  0.25500000920E-02 0. -1.
</event>
<event>
 5   0  0.1931119E-05  0.2694105E+04  0.7818609E-02  0.8336920E-01
       -2   -1    0    0    0  501  0.00000000000E+00  0.00000000000E+00  0.11437048887E+04  0.11437048887E+04  0.25500000920E-02 0.  1.
        2   -1    0    0  501    0  0.00000000000E+00  0.00000000000E+00 -0.15865552392E+04  0.15865552392E+04  0.25500000920E-02 0. -1.
    10030    2    1    2    0    0  0.00000000000E+00  0.00000000000E+00 -0.44285035048E+03  0.27302601279E+04  0.26941054049E+04 0.  0.
        3    1    3    3  502    0  0.26116433166E+03 -0.42269550012E+03  0.10474448510E+04  0.11593183429E+04  0.10100000352E+00 0.  1.
       -3    1    3    3    0  502 -0.26116433166E+03  0.42269550012E+03 -0.14902952015E+04  0.15709417850E+04  0.10100000352E+00 0. -1.
</event>
<event>
 5   0  0.1881699E-05  0.2613102E+04  0.7818609E-02  0.8363764E-01
       -2   -1    0    0    0  501  0.00000000000E+00  0.00000000000E+00  0.10425091208E+04  0.10425091208E+04  0.25500000920E-02 0.  1.
        2   -1    0    0  501    0  0.00000000000E+00  0.00000000000E+00 -0.16374682439E+04  0.16374682439E+04  0.25500000920E-02 0. -1.
    10030    2    1    2    0    0  0.00000000000E+00  0.00000000000E+00 -0.59495912316E+03  0.26799773647E+04  0.26131020487E+04 0.  0.
        4    1    3    3  502    0 -0.37231535408E+03  0.10478086590E+04 -0.10010031869E+04  0.14961720161E+04  0.12699999809E+01 0. -1.
       -4    1    3    3    0  502  0.37231535408E+03 -0.10478086590E+04  0.40604406378E+03  0.11838053486E+04  0.12699999809E+01 0.  1.
</event>
<event>
 5   0  0.1881699E-05  0.2673573E+04  0.7818609E-02  0.8343631E-01
        2   -1    0    0  501    0  0.00000000000E+00  0.00000000000E+00  0.13799751379E+04  0.13799751379E+04  0.25500000920E-02 0. -1.
       -2   -1    0    0    0  501  0.00000000000E+00  0.00000000000E+00 -0.12949494457E+04  0.12949494457E+04  0.25500000920E-02 0.  1.
    10030    2    1    2    0    0  0.00000000000E+00  0.00000000000E+00  0.85025692211E+02  0.26749245837E+04  0.26735729202E+04 0.  0.
        4    1    3    3  502    0  0.58835862397E+03  0.58438124902E+02  0.12420416378E+04  0.13755907559E+04  0.12699999809E+01 0. -1.
       -4    1    3    3    0  502 -0.58835862397E+03 -0.58438124902E+02 -0.11570159455E+04  0.12993338278E+04  0.12699999809E+01 0.  1.
</event>
<event>
 5   0  0.7351590E-06  0.2648186E+04  0.7818609E-02  0.8352015E-01
       -1   -1    0    0    0  501  0.00000000000E+00  0.00000000000E+00  0.15844812718E+04  0.15844812718E+04  0.50400001928E-02 0.  1.
        1   -1    0    0  501    0  0.00000000000E+00  0.00000000000E+00 -0.11064958804E+04  0.11064958805E+04  0.50400001928E-02 0. -1.
    10030    2    1    2    0    0  0.00000000000E+00  0.00000000000E+00  0.47798539137E+03  0.26909771523E+04  0.26481857940E+04 0.  0.
        3    1    3    3  502    0 -0.32990928774E+03  0.11137367563E+04 -0.40686575535E+03  0.12307678308E+04  0.10100000352E+00 0. -1.
       -3    1    3    3    0  502  0.32990928774E+03 -0.11137367563E+04  0.88485114673E+03  0.14602093214E+04  0.10100000352E+00 0.  1.
</event>
<event>
 5   0  0.7348964E-06  0.2650456E+04  0.7818609E-02  0.8351262E-01
       -1   -1    0    0    0  501  0.00000000000E+00  0.00000000000E+00  0.93997683100E+03  0.93997683102E+03  0.50400001928E-02 0. -1.
        1   -1    0    0  501    0  0.00000000000E+00  0.00000000000E+00 -0.18683749903E+04  0.18683749903E+04  0.50400001928E-02 0.  1.
    10030    2    1    2    0    0  0.00000000000E+00  0.00000000000E+00 -0.92839815928E+03  0.28083518213E+04  0.26504559627E+04 0.  0.
        1    1    3    3  502    0 -0.12243567829E+04 -0.23523509543E+03 -0.94023417597E+03  0.15615458327E+04  0.50400001928E-02 0.  1.
       -1    1    3    3    0  502  0.12243567829E+04  0.23523509543E+03  0.11836016692E+02  0.12468059886E+04  0.50400001928E-02 0. -1.
</event>
<event>
 5   0  0.7754912E-06  0.2706315E+04  0.7818609E-02  0.8332959E-01
        1   -1    0    0  501    0  0.00000000000E+00  0.00000000000E+00  0.15031730631E+04  0.15031730631E+04  0.50400001928E-02 0. -1.
       -1   -1    0    0    0  501  0.00000000000E+00  0.00000000000E+00 -0.12181133752E+04  0.12181133752E+04  0.50400001928E-02 0.  1.
    10030    2    1    2    0    0  0.00000000000E+00  0.00000000000E+00  0.28505968783E+03  0.27212864383E+04  0.27063149953E+04 0.  0.
        4    1    3    3  502    0  0.12183206378E+04  0.58883181385E+03  0.14016756943E+03  0.13603957666E+04  0.12699999809E+01 0. -1.
       -4    1    3    3    0  502 -0.12183206378E+04 -0.58883181385E+03  0.14489211841E+03  0.13608906717E+04  0.12699999809E+01 0.  1.
</event>
<event>
 5   0  0.1878160E-05  0.2687863E+04  0.7818609E-02  0.8338954E-01
       -2   -1    0    0    0  501  0.00000000000E+00  0.00000000000E+00  0.94073583757E+03  0.94073583757E+03  0.25500000920E-02 0. -1.
        2   -1    0    0  501    0  0.00000000000E+00  0.00000000000E+00 -0.19199355991E+04  0.19199355991E+04  0.25500000920E-02 0.  1.
    10030    2    1    2    0    0  0.00000000000E+00  0.00000000000E+00 -0.97919976153E+03  0.28606714367E+04  0.26878632584E+04 0.  0.
        1    1    3    3  502    0 -0.55972433626E+03 -0.12035352395E+04 -0.71376873353E+03  0.15070680842E+04  0.50400001928E-02 0. -1.
       -1    1    3    3    0  502  0.55972433626E+03  0.12035352395E+04 -0.26543102800E+03  0.13536033525E+04  0.50400001928E-02 0.  1.
</event>
<event>
 5   0  0.1881699E-05  0.2819674E+04  0.7818609E-02  0.8297186E-01
       -2   -1    0    0    0  501  0.00000000000E+00  0.00000000000E+00  0.13360134802E+04  0.13360134802E+04  0.25500000920E-02 0. -1.
        2   -1    0    0  501    0  0.00000000000E+00  0.00000000000E+00 -0.14877396216E+04  0.14877396216E+04  0.25500000920E-02 0.  1.
    10030    2    1    2    0    0  0.00000000000E+00  0.00000000000E+00 -0.15172614136E+03  0.28237531018E+04  0.28196738744E+04 0.  0.
        4    1    3    3  502    0 -0.65829961708E+03  0.92135185911E+03  0.76522753060E+03  0.13666829993E+04  0.12699999809E+01 0. -1.
       -4    1    3    3    0  502  0.65829961708E+03 -0.92135185911E+03 -0.91695367196E+03  0.14570701025E+04  0.12699999809E+01 0.  1.
</event>
<event>
 5   0  0.7600052E-06  0.2784344E+04  0.7818609E-02  0.8308145E-01
        1   -1    0    0  501    0  0.00000000000E+00  0.00000000000E+00  0.21446827614E+04  0.21446827614E+04  0.50400001928E-02 0. -1.
       -1   -1    0    0    0  501  0.00000000000E+00  0.00000000000E+00 -0.90369704824E+03  0.90369704826E+03  0.50400001928E-02 0.  1.
    10030    2    1    2    0    0  0.00000000000E+00  0.00000000000E+00  0.12409857132E+04  0.30483798097E+04  0.27843444334E+04 0.  0.
        5    1    3    3  502    0 -0.10835356894E+04  0.23708315333E+03  0.15416226742E+04  0.18991789203E+04  0.46999998093E+01 0. -1.
       -5    1    3    3    0  502  0.10835356894E+04 -0.23708315333E+03 -0.30063696102E+03  0.11492008894E+04  0.46999998093E+01 0.  1.
</event>
<event>
 5   0  0.1878160E-05  0.2588133E+04  0.7818609E-02  0.8372243E-01
       -2   -1    0    0    0  501  0.00000000000E+00  0.00000000000E+00  0.11842118298E+04  0.11842118298E+04  0.25500000920E-02 0. -1.
        2   -1    0    0  501    0  0.00000000000E+00  0.00000000000E+00 -0.14141118550E+04  0.14141118550E+04  0.25500000920E-02 0.  1.
    10030    2    1    2    0    0  0.00000000000E+00  0.00000000000E+00 -0.22990002511E+03  0.25983236848E+04  0.25881329080E+04 0.  0.
        1    1    3    3  502    0 -0.12783233186E+03  0.24543006029E+03  0.11541600070E+04  0.11868708191E+04  0.50400001928E-02 0. -1.
       -1    1    3    3    0  502  0.12783233186E+03 -0.24543006029E+03 -0.13840600321E+04  0.14114528657E+04  0.50400001928E-02 0.  1.
</event>
<event>
 5   0  0.7351590E-06  0.2220925E+04  0.7818609E-02  0.8509769E-01
       -1   -1    0    0    0  501  0.00000000000E+00  0.00000000000E+00  0.68499875224E+03  0.68499875226E+03  0.50400001928E-02 0.  1.
        1   -1    0    0  501    0  0.00000000000E+00  0.00000000000E+00 -0.18001887221E+04  0.18001887221E+04  0.50400001928E-02 0. -1.
    10030    2    1    2    0    0  0.00000000000E+00  0.00000000000E+00 -0.11151899699E+04  0.24851874744E+04  0.22209250581E+04 0.  0.
        3    1    3    3  502    0 -0.43974119120E+02  0.74741358027E+03 -0.14752781872E+04  0.16543900758E+04  0.10100000352E+00 0. -1.
       -3    1    3    3    0  502  0.43974119120E+02 -0.74741358027E+03  0.36008821727E+03  0.83079739861E+03  0.10100000352E+00 0.  1.
</event>
<event>
 5   0  0.6175875E-06  0.2718059E+04  0.7818609E-02  0.8329169E-01
       -3   -1    0    0    0  501  0.00000000000E+00  0.00000000000E+00  0.20111007040E+04  0.20111007066E+04  0.10100000352E+00 0.  1.
        3   -1    0    0  501    0  0.00000000000E+00  0.00000000000E+00 -0.91838354112E+03  0.91838354667E+03  0.10100000352E+00 0. -1.
    10030    2    1    2    0    0  0.00000000000E+00  0.00000000000E+00  0.10927171629E+04  0.29294842533E+04  0.27180594533E+04 0.  0.
        3    1    3    3  502    0 -0.29954612602E+03  0.31396270436E+03 -0.84171048274E+03  0.94698310877E+03  0.10100000352E+00 0. -1.
       -3    1    3    3    0  502  0.29954612602E+03 -0.31396270436E+03  0.19344276457E+04  0.19825011445E+04  0.10100000352E+00 0.  1.
</event>
<event>
 5   0  0.7600052E-06  0.2665432E+04  0.7818609E-02  0.8346309E-01
        1   -1    0    0  501    0  0.00000000000E+00  0.00000000000E+00  0.17998078268E+04  0.17998078268E+04  0.50400001928E-02 0.  1.
       -1   -1    0    0    0  501  0.00000000000E+00  0.00000000000E+00 -0.98684554023E+03  0.98684554024E+03  0.50400001928E-02 0. -1.
    10030    2    1    2    0    0  0.00000000000E+00  0.00000000000E+00  0.81296228659E+03  0.27866533671E+04  0.26654322930E+04 0.  0.
        5    1    3    3  502    0 -0.67420935992E+03  0.35676545626E+03  0.15490085496E+04  0.17266410827E+04  0.46999998093E+01 0.  1.
       -5    1    3    3    0  502  0.67420935992E+03 -0.35676545626E+03 -0.73604626298E+03  0.10600122844E+04  0.46999998093E+01 0. -1.
</event>
<event>
 5   0  0.6804685E-06  0.2704753E+04  0.7818609E-02  0.8333464E-01
        1   -1    0    0  501    0  0.00000000000E+00  0.00000000000E+00  0.14186973918E+04  0.14186973918E+04  0.50400001928E-02 0.  1.
       -1   -1    0    0    0  501  0.00000000000E+00  0.00000000000E+00 -0.12891559019E+04  0.12891559019E+04  0.50400001928E-02 0. -1.
    10030    2    1    2    0    0  0.00000000000E+00  0.00000000000E+00  0.12954148988E+03  0.27078532937E+04  0.27047529393E+04 0.  0.
        2    1    3    3  502    0  0.86869724934E+03  0.82291796342E+03  0.69564640410E+03  0.13841072231E+04  0.25500000920E-02 0.  1.
       -2    1    3    3    0  502 -0.86869724934E+03 -0.82291796342E+03 -0.56610491422E+03  0.13237460706E+04  0.25500000920E-02 0. -1.
</event>
<event>
 5   0  0.1826851E-05  0.2672564E+04  0.7818609E-02  0.8343962E-01
        2   -1    0    0  501    0  0.00000000000E+00  0.00000000000E+00  0.14299354444E+04  0.14299354444E+04  0.25500000920E-02 0.  1.
       -2   -1    0    0    0  501  0.00000000000E+00  0.00000000000E+00 -0.12487625462E+04  0.12487625462E+04  0.25500000920E-02 0. -1.
    10030    2    1    2    0    0  0.00000000000E+00  0.00000000000E+00  0.18117289814E+03  0.26786979906E+04  0.26725641818E+04 0.  0.
        5    1    3    3  502    0 -0.10570296544E+04  0.79369791119E+03 -0.10571931454E+03  0.13260719166E+04  0.46999998093E+01 0.  1.
       -5    1    3    3    0  502  0.10570296544E+04 -0.79369791119E+03  0.28689221268E+03  0.13526260740E+04  0.46999998093E+01 0. -1.
</event>
<event>
 5   0  0.1788003E-05  0.2712826E+04  0.7818609E-02  0.8330855E-01
        2   -1    0    0  501    0  0.00000000000E+00  0.00000000000E+00  0.24107764048E+04  0.24107764049E+04  0.25500000920E-02 0.  1.
       -2   -1    0    0    0  501  0.00000000000E+00  0.00000000000E+00 -0.76318017595E+03  0.76318017596E+03  0.25500000920E-02 0. -1.
    10030    2    1    2    0    0  0.00000000000E+00  0.00000000000E+00  0.16475962289E+04  0.31739565808E+04  0.27128263939E+04 0.  0.
        2    1    3    3  502    0  0.65050071436E+03  0.35135939805E+03 -0.50671936554E+03  0.89630860835E+03  0.25500000920E-02 0. -1.
       -2    1    3    3    0  502 -0.65050071436E+03 -0.35135939805E+03  0.21543155944E+04  0.22776479725E+04  0.25500000920E-02 0.  1.
</event>
<event>
 5   0  0.7348964E-06  0.2694577E+04  0.7818609E-02  0.8336767E-01
       -1   -1    0    0    0  501  0.00000000000E+00  0.00000000000E+00  0.15699271149E+04  0.15699271149E+04  0.50400001928E-02 0. -1.
        1   -1    0    0  501    0  0.00000000000E+00  0.00000000000E+00 -0.11562232159E+04  0.11562232159E+04  0.50400001928E-02 0.  1.
    10030    2    1    2    0    0  0.00000000000E+00  0.00000000000E+00  0.41370389898E+03  0.27261503308E+04  0.26945769074E+04 0.  0.
        1    1    3    3  502    0  0.32774542895E+03 -0.20976552206E+03 -0.10981331127E+04  0.11650386146E+04  0.50400001928E-02 0.  1.
       -1    1    3    3    0  502 -0.32774542895E+03  0.20976552206E+03  0.15118370117E+04  0.15611117161E+04  0.50400001928E-02 0. -1.
</event>
<event>
 5   0  0.1826851E-05  0.2641486E+04  0.7818609E-02  0.8354244E-01
        2   -1    0    0  501    0  0.00000000000E+00  0.00000000000E+00  0.21017705884E+04  0.21017705884E+04  0.25500000920E-02 0.  1.
       -2   -1    0    0    0  501  0.00000000000E+00  0.00000000000E+00 -0.82994873443E+03  0.82994873443E+03  0.25500000920E-02 0. -1.
    10030    2    1    2    0    0  0.00000000000E+00  0.00000000000E+00  0.12718218540E+04  0.29317193229E+04  0.26414858243E+04 0.  0.
        5    1    3    3  502    0  0.43040510789E+03  0.11984876041E+04  0.24710811274E+03  0.12971914290E+04  0.46999998093E+01 0. -1.
       -5    1    3    3    0  502 -0.43040510789E+03 -0.11984876041E+04  0.10247137413E+04  0.16345278938E+04  0.46999998093E+01 0.  1.
</event>
<event>
 5   0  0.7600052E-06  0.2644918E+04  0.7818609E-02  0.8353102E-01
        1   -1    0    0  501    0  0.00000000000E+00  0.00000000000E+00  0.95464870202E+03  0.95464870203E+03  0.50400001928E-02 0. -1.
       -1   -1    0    0    0  501  0.00000000000E+00  0.00000000000E+00 -0.18319811870E+04  0.18319811870E+04  0.50400001928E-02 0.  1.
    10030    2    1    2    0    0  0.00000000000E+00  0.00000000000E+00 -0.87733248495E+03  0.27866298890E+04  0.26449184957E+04 0.  0.
        5    1    3    3  502    0  0.10426911518E+04 -0.52355397032E+03 -0.10945668384E+04  0.15998163181E+04  0.46999998093E+01 0.  1.
       -5    1    3    3    0  502 -0.10426911518E+04  0.52355397032E+03  0.21723435343E+03  0.11868135709E+04  0.46999998093E+01 0. -1.
</event>
<event>
 5   0  0.1931119E-05  0.2691295E+04  0.7818609E-02  0.8337835E-01
        2   -1    0    0  501    0  0.00000000000E+00  0.00000000000E+00  0.14395538235E+04  0.14395538235E+04  0.25500000920E-02 0. -1.
       -2   -1    0    0    0  501  0.00000000000E+00  0.00000000000E+00 -0.12578667424E+04  0.12578667424E+04  0.25500000920E-02 0.  1.
    10030    2    1    2    0    0  0.00000000000E+00  0.00000000000E+00  0.18168708106E+03  0.26974205659E+04  0.26912947654E+04 0.  0.
        3    1    3    3  502    0  0.13161838886E+04 -0.21055178608E+03 -0.94224478422E+02  0.13362448675E+04  0.10100000352E+00 0. -1.
       -3    1    3    3    0  502 -0.13161838886E+04  0.21055178608E+03  0.27591155948E+03  0.13611756985E+04  0.10100000352E+00 0.  1.
</event>
<event>
 5   0  0.1826851E-05  0.2689209E+04  0.7818609E-02  0.8338515E-01
        2   -1    0    0  501    0  0.00000000000E+00  0.00000000000E+00  0.11808269873E+04  0.11808269873E+04  0.25500000920E-02 0. -1.
       -2   -1    0    0    0  501  0.00000000000E+00  0.00000000000E+00 -0.15310974959E+04  0.15310974959E+04  0.25500000920E-02 0.  1.
    10030    2    1    2    0    0  0.00000000000E+00  0.00000000000E+00 -0.35027050860E+03  0.27119244832E+04  0.26892089866E+04 0.  0.
        5    1    3    3  502    0 -0.12745542824E+04 -0.42506608237E+03 -0.12206602794E+03  0.13491078528E+04  0.46999998093E+01 0.  1.
       -5    1    3    3    0  502  0.12745542824E+04  0.42506608237E+03 -0.22820448066E+03  0.13628166304E+04  0.46999998093E+01 0. -1.
</event>
<event>
 5   0  0.7754912E-06  0.2685358E+04  0.7818609E-02  0.8339771E-01
        1   -1    0    0  501    0  0.00000000000E+00  0.00000000000E+00  0.14560686046E+04  0.14560686046E+04  0.50400001928E-02 0.  1.
       -1   -1    0    0    0  501  0.00000000000E+00  0.00000000000E+00 -0.12381197519E+04  0.12381197519E+04  0.50400001928E-02 0. -1.
    10030    2    1    2    0    0  0.00000000000E+00  0.00000000000E+00  0.21794885271E+03  0.26941883565E+04  0.26853582998E+04 0.  0.
        4    1    3    3  502    0 -0.27505551073E+03 -0.50061346253E+03  0.13280898877E+04  0.14457156482E+04  0.12699999809E+01 0.  1.
       -4    1    3    3    0  502  0.27505551073E+03  0.50061346253E+03 -0.11101410350E+04  0.12484727083E+04  0.12699999809E+01 0. -1.
</event>
<event>
 5   0  0.1931119E-05  0.2708546E+04  0.7818609E-02  0.8332237E-01
       -2   -1    0    0    0  501  0.00000000000E+00  0.00000000000E+00  0.85885422944E+03  0.85885422944E+03  0.25500000920E-02 0. -1.
        2   -1    0    0  501    0  0.00000000000E+00  0.00000000000E+00 -0.21354677074E+04  0.21354677074E+04  0.25500000920E-02 0.  1.
    10030    2    1    2    0    0  0.00000000000E+00  0.00000000000E+00 -0.12766134779E+04  0.29943219368E+04  0.27085460840E+04 0.  0.
        3    1    3    3  502    0  0.51611460534E+03  0.85733961181E+03  0.37046637130E+03  0.10670758353E+04  0.10100000352E+00 0. -1.
       -3    1    3    3    0  502 -0.51611460534E+03 -0.85733961181E+03 -0.16470798493E+04  0.19272461015E+04  0.10100000352E+00 0.  1.
</event>
<event>
 5   0  0.1788003E-05  0.2668880E+04  0.7818609E-02  0.8345174E-01
       -2   -1    0    0    0  501  0.00000000000E+00  0.00000000000E+00  0.17683920959E+04  0.17683920959E+04  0.25500000920E-02 0.  1.
        2   -1    0    0  501    0  0.00000000000E+00  0.00000000000E+00 -0.10069769281E+04  0.10069769281E+04  0.25500000920E-02 0. -1.
    10030    2    1    2    0    0  0.00000000000E+00  0.00000000000E+00  0.76141516779E+03  0.27753690240E+04  0.26688799452E+04 0.  0.
        2    1    3    3  502    0  0.10882298248E+04  0.21338906304E+03 -0.39116956682E+03  0.11759220526E+04  0.25500000920E-02 0. -1.
       -2    1    3    3    0  502 -0.10882298248E+04 -0.21338906304E+03  0.11525847346E+04  0.15994469714E+04  0.25500000920E-02 0.  1.
</event>
<event>
 5   0  0.1881699E-05  0.2734835E+04  0.7818609E-02  0.8323790E-01
       -2   -1    0    0    0  501  0.00000000000E+00  0.00000000000E+00  0.10221821609E+04  0.10221821609E+04  0.25500000920E-02 0.  1.
        2   -1    0    0  501    0  0.00000000000E+00  0.00000000000E+00 -0.18292537944E+04  0.18292537944E+04  0.25500000920E-02 0. -1.
    10030    2    1    2    0    0  0.00000000000E+00  0.00000000000E+00 -0.80707163348E+03  0.28514359552E+04  0.27348349832E+04 0.  0.
        4    1    3    3  502    0  0.11129906476E+04 -0.75242711826E+03 -0.66922223479E+03  0.15009179733E+04  0.12699999809E+01 0.  1.
       -4    1    3    3    0  502 -0.11129906476E+04  0.75242711826E+03 -0.13784939869E+03  0.13505179820E+04  0.12699999809E+01 0. -1.
</event>
<event>
 5   0  0.1826851E-05  0.2718225E+04  0.7818609E-02  0.8329116E-01
       -2   -1    0    0    0  501  0.00000000000E+00  0.00000000000E+00  0.87524244358E+03  0.87524244358E+03  0.25500000920E-02 0.  1.
        2   -1    0    0  501    0  0.00000000000E+00  0.00000000000E+00 -0.21104860542E+04  0.21104860542E+04  0.25500000920E-02 0. -1.
    10030    2    1    2    0    0  0.00000000000E+00  0.00000000000E+00 -0.12352436107E+04  0.29857284978E+04  0.27182251351E+04 0.  0.
        5    1    3    3  502    0  0.10229781060E+04  0.77834902811E+01  0.36520757809E+03  0.10862520211E+04  0.46999998093E+01 0.  1.
       -5    1    3    3    0  502 -0.10229781060E+04 -0.77834902811E+01 -0.16004511888E+04  0.18994764768E+04  0.46999998093E+01 0. -1.
</event>
<event>
 5   0  0.1878160E-05  0.2702648E+04  0.7818609E-02  0.8334146E-01
        2   -1    0    0  501    0  0.00000000000E+00  0.00000000000E+00  0.20751193669E+04  0.20751193669E+04  0.25500000920E-02 0.  1.
       -2   -1    0    0    0  501  0.00000000000E+00  0.00000000000E+00 -0.87998648032E+03  0.87998648032E+03  0.25500000920E-02 0. -1.
    10030    2    1    2    0    0  0.00000000000E+00  0.00000000000E+00  0.11951328866E+04  0.29551058472E+04  0.27026483219E+04 0.  0.
        1    1    3    3  502    0  0.98660320939E+03 -0.43650857729E+03 -0.29217155915E+03  0.11177163553E+04  0.50400001928E-02 0. -1.
       -1    1    3    3    0  502 -0.98660320939E+03  0.43650857729E+03  0.14873044458E+04  0.18373894920E+04  0.50400001928E-02 0.  1.
</event>
<event>
 5   0  0.1878160E-05  0.2644073E+04  0.7818609E-02  0.8353383E-01
        2   -1    0    0  501    0  0.00000000000E+00  0.00000000000E+00  0.13016828777E+04  0.13016828777E+04  0.25500000920E-02 0.  1.
       -2   -1    0    0    0  501  0.00000000000E+00  0.00000000000E+00 -0.13427079780E+04  0.13427079780E+04  0.25500000920E-02 0. -1.
    10030    2    1    2    0    0  0.00000000000E+00  0.00000000000E+00 -0.41025100345E+02  0.26443908557E+04  0.26440726047E+04 0.  0.
        1    1    3    3  502    0  0.12741081614E+04  0.15627543495E+03 -0.33678844550E+03  0.13271021345E+04  0.50400001928E-02 0. -1.
       -1    1    3    3    0  502 -0.12741081614E+04 -0.15627543495E+03  0.29576334516E+03  0.13172887211E+04  0.50400001928E-02 0.  1.
</event>
<event>
 5   0  0.7348964E-06  0.2251109E+04  0.7818609E-02  0.8497452E-01
        1   -1    0    0  501    0  0.00000000000E+00  0.00000000000E+00  0.11384666532E+04  0.11384666532E+04  0.50400001928E-02 0.  1.
       -1   -1    0    0    0  501  0.00000000000E+00  0.00000000000E+00 -0.11127885067E+04  0.11127885067E+04  0.50400001928E-02 0. -1.
    10030    2    1    2    0    0  0.00000000000E+00  0.00000000000E+00  0.25678146476E+02  0.22512551599E+04  0.22511087108E+04 0.  0.
        1    1    3    3  502    0  0.84603688700E+03  0.29119001731E+03  0.69574700297E+03  0.11334169279E+04  0.50400001928E-02 0.  1.
       -1    1    3    3    0  502 -0.84603688700E+03 -0.29119001731E+03 -0.67006885649E+03  0.11178382320E+04  0.50400001928E-02 0. -1.
</event>
<event>
 5   0  0.6804685E-06  0.1935811E+04  0.7818609E-02  0.8637234E-01
       -1   -1    0    0    0  501  0.00000000000E+00  0.00000000000E+00  0.63825904555E+03  0.63825904557E+03  0.50400001928E-02 0.  1.
        1   -1    0    0  501    0  0.00000000000E+00  0.00000000000E+00 -0.14678067259E+04  0.14678067259E+04  0.50400001928E-02 0. -1.
    10030    2    1    2    0    0  0.00000000000E+00  0.00000000000E+00 -0.82954768038E+03  0.21060657715E+04  0.19358108585E+04 0.  0.
        2    1    3    3  502    0 -0.71170828025E+03  0.18357932586E+03 -0.10999327622E+04  0.13229066960E+04  0.25500000920E-02 0. -1.
       -2    1    3    3    0  502  0.71170828025E+03 -0.18357932586E+03  0.27038508180E+03  0.78315907549E+03  0.25500000920E-02 0.  1.
</event>
<event>
 5   0  0.1878160E-05  0.2707282E+04  0.7818609E-02  0.8332646E-01
       -2   -1    0    0    0  501  0.00000000000E+00  0.00000000000E+00  0.11059746742E+04  0.11059746742E+04  0.25500000920E-02 0.  1.
        2   -1    0    0  501    0  0.00000000000E+00  0.00000000000E+00 -0.16567681649E+04  0.16567681649E+04  0.25500000920E-02 0. -1.
    10030    2    1    2    0    0  0.00000000000E+00  0.00000000000E+00 -0.55079349069E+03  0.27627428391E+04  0.27072817595E+04 0.  0.
        1    1    3    3  502    0 -0.24716635572E+02  0.23478146671E+03 -0.16355977854E+04  0.16525475378E+04  0.50400001928E-02 0. -1.
       -1    1    3    3    0  502  0.24716635572E+02 -0.23478146671E+03  0.10848042947E+04  0.11101953013E+04  0.50400001928E-02 0.  1.
</event>
<event>
 5   0  0.7600052E-06  0.2833003E+04  0.7818609E-02  0.8293095E-01
       -1   -1    0    0    0  501  0.00000000000E+00  0.00000000000E+00  0.11777949020E+04  0.11777949020E+04  0.50400001928E-02 0. -1.
        1   -1    0    0  501    0  0.00000000000E+00  0.00000000000E+00 -0.17035879436E+04  0.17035879436E+04  0.50400001928E-02 0.  1.
    10030    2    1    2    0    0  0.00000000000E+00  0.00000000000E+00 -0.52579304156E+03  0.28813828456E+04  0.28330034911E+04 0.  0.
        5    1    3    3  502    0 -0.30707896169E+03 -0.48482593948E+03  0.10542482758E+04  0.12003396175E+04  0.46999998093E+01 0. -1.
       -5    1    3    3    0  502  0.30707896169E+03  0.48482593948E+03 -0.15800413173E+04  0.16810432281E+04  0.46999998093E+01 0.  1.
</event>
<event>
 5   0  0.1826851E-05  0.2701184E+04  0.7818609E-02  0.8334621E-01
        2   -1    0    0  501    0  0.00000000000E+00  0.00000000000E+00  0.17697690057E+04  0.17697690057E+04  0.25500000920E-02 0.  1.
       -2   -1    0    0    0  501  0.00000000000E+00  0.00000000000E+00 -0.10306985629E+04  0.10306985629E+04  0.25500000920E-02 0. -1.
    10030    2    1    2    0    0  0.00000000000E+00  0.00000000000E+00  0.73907044278E+03  0.28004675686E+04  0.27011837190E+04 0.  0.
        5    1    3    3  502    0 -0.74741554873E+03 -0.29291729639E+03  0.14955710915E+04  0.16974055275E+04  0.46999998093E+01 0.  1.
       -5    1    3    3    0  502  0.74741554873E+03  0.29291729639E+03 -0.75650064875E+03  0.11030620411E+04  0.46999998093E+01 0. -1.
</event>
<event>
 5   0  0.7351590E-06  0.2491745E+04  0.7818609E-02  0.8405932E-01
        1   -1    0    0  501    0  0.00000000000E+00  0.00000000000E+00  0.94006646579E+03  0.94006646581E+03  0.50400001928E-02 0. -1.
       -1   -1    0    0    0  501  0.00000000000E+00  0.00000000000E+00 -0.16511584256E+04  0.16511584256E+04  0.50400001928E-02 0.  1.
    10030    2    1    2    0    0  0.00000000000E+00  0.00000000000E+00 -0.71109195983E+03  0.25912248914E+04  0.24917453045E+04 0.  0.
        3    1    3    3  502    0 -0.43345653875E+03 -0.95888391253E+03  0.33805716112E+03  0.11052717236E+04  0.10100000352E+00 0. -1.
       -3    1    3    3    0  502  0.43345653875E+03  0.95888391253E+03 -0.10491491210E+04  0.14859531678E+04  0.10100000352E+00 0.  1.
</event>
<event>
 5   0  0.1788003E-05  0.2268479E+04  0.7818609E-02  0.8490454E-01
       -2   -1    0    0    0  501  0.00000000000E+00  0.00000000000E+00  0.20005594665E+04  0.20005594665E+04  0.25500000920E-02 0. -1.
        2   -1    0    0  501    0  0.00000000000E+00  0.00000000000E+00 -0.64306982476E+03  0.64306982476E+03  0.25500000920E-02 0.  1.
    10030    2    1    2    0    0  0.00000000000E+00  0.00000000000E+00  0.13574896417E+04  0.26436292913E+04  0.22684791606E+04 0.  0.
        2    1    3    3  502    0 -0.79279697244E+03 -0.67426754356E+03  0.15324503647E+03  0.10519732891E+04  0.25500000920E-02 0.  1.
       -2    1    3    3    0  502  0.79279697244E+03  0.67426754356E+03  0.12042446053E+04  0.15916560021E+04  0.25500000920E-02 0. -1.
</event>
<event>
 5   0  0.7754912E-06  0.2622085E+04  0.7818609E-02  0.8360738E-01
        1   -1    0    0  501    0  0.00000000000E+00  0.00000000000E+00  0.16900109490E+04  0.16900109490E+04  0.50400001928E-02 0.  1.
       -1   -1    0    0    0  501  0.00000000000E+00  0.00000000000E+00 -0.10170542403E+04  0.10170542403E+04  0.50400001928E-02 0. -1.
    10030    2    1    2    0    0  0.00000000000E+00  0.00000000000E+00  0.67295670878E+03  0.27070651893E+04  0.26220852784E+04 0.  0.
        4    1    3    3  502    0  0.92329809689E+03 -0.82370568595E+03  0.78395454787E+03  0.14647719204E+04  0.12699999809E+01 0.  1.
       -4    1    3    3    0  502 -0.92329809689E+03  0.82370568595E+03 -0.11099783910E+03  0.12422932689E+04  0.12699999809E+01 0. -1.
</event>
<event>
 5   0  0.7600052E-06  0.2670415E+04  0.7818609E-02  0.8344669E-01
       -1   -1    0    0    0  501  0.00000000000E+00  0.00000000000E+00  0.15344809575E+04  0.15344809575E+04  0.50400001928E-02 0. -1.
        1   -1    0    0  501    0  0.00000000000E+00  0.00000000000E+00 -0.11618122583E+04  0.11618122583E+04  0.50400001928E-02 0.  1.
    10030    2    1    2    0    0  0.00000000000E+00  0.00000000000E+00  0.37266869915E+03  0.26962932158E+04  0.26704147892E+04 0.  0.
        5    1    3    3  502    0 -0.12919748487E+04 -0.24953535543E+03 -0.42332847471E+02  0.13165413261E+04  0.46999998093E+01 0.  1.
       -5    1    3    3    0  502  0.12919748487E+04  0.24953535543E+03  0.41500154662E+03  0.13797518897E+04  0.46999998093E+01 0. -1.
</event>
<event>
 5   0  0.7348964E-06  0.2717987E+04  0.7818609E-02  0.8329192E-01
       -1   -1    0    0    0  501  0.00000000000E+00  0.00000000000E+00  0.11483926837E+04  0.11483926837E+04  0.50400001928E-02 0. -1.
        1   -1    0    0  501    0  0.00000000000E+00  0.00000000000E+00 -0.16082160827E+04  0.16082160827E+04  0.50400001928E-02 0.  1.
    10030    2    1    2    0    0  0.00000000000E+00  0.00000000000E+00 -0.45982339896E+03  0.27566087664E+04  0.27179871840E+04 0.  0.
        1    1    3    3  502    0 -0.73575828720E+03  0.26296854534E+03  0.89781044993E+03  0.11901917144E+04  0.50400001928E-02 0. -1.
       -1    1    3    3    0  502  0.73575828720E+03 -0.26296854534E+03 -0.13576338489E+04  0.15664170520E+04  0.50400001928E-02 0.  1.
</event>
<event>
 5   0  0.6804685E-06  0.2766782E+04  0.7818609E-02  0.8313656E-01
        1   -1    0    0  501    0  0.00000000000E+00  0.00000000000E+00  0.16856676588E+04  0.16856676588E+04  0.50400001928E-02 0. -1.
       -1   -1    0    0    0  501  0.00000000000E+00  0.00000000000E+00 -0.11353187287E+04  0.11353187287E+04  0.50400001928E-02 0.  1.
    10030    2    1    2    0    0  0.00000000000E+00  0.00000000000E+00  0.55034893012E+03  0.28209863876E+04  0.27667815696E+04 0.  0.
        2    1    3    3  502    0 -0.10231982624E+04 -0.22318963647E+03 -0.64642651854E+03  0.12306971772E+04  0.25500000920E-02 0.  1.
       -2    1    3    3    0  502  0.10231982624E+04  0.22318963647E+03  0.11967754487E+04  0.15902892104E+04  0.25500000920E-02 0. -1.
</event>
<event>
 5   0  0.1931119E-05  0.2583677E+04  0.7818609E-02  0.8373767E-01
        2   -1    0    0  501    0  0.00000000000E+00  0.00000000000E+00  0.19361473671E+04  0.19361473671E+04  0.25500000920E-02 0. -1.
       -2   -1    0    0    0  501  0.00000000000E+00  0.00000000000E+00 -0.86194188303E+03  0.86194188303E+03  0.25500000920E-02 0.  1.
    10030    2    1    2    0    0  0.00000000000E+00  0.00000000000E+00  0.10742054841E+04  0.27980892501E+04  0.25836768431E+04 0.  0.
        3    1    3    3  502    0  0.34742641313E+03  0.12155627879E+04  0.24945084554E+03  0.12886131066E+04  0.10100000352E+00 0. -1.
       -3    1    3    3    0  502 -0.34742641313E+03 -0.12155627879E+04  0.82475463852E+03  0.15094761435E+04  0.10100000352E+00 0.  1.
</event>
<event>
 5   0  0.1878160E-05  0.2601067E+04  0.7818609E-02  0.8367839E-01
       -2   -1    0    0    0  501  0.00000000000E+00  0.00000000000E+00  0.10597762130E+04  0.10597762130E+04  0.25500000920E-02 0. -1.
        2   -1    0    0  501    0  0.00000000000E+00  0.00000000000E+00 -0.15959849283E+04  0.15959849283E+04  0.25500000920E-02 0.  1.
    10030    2    1    2    0    0  0.00000000000E+00  0.00000000000E+00 -0.53620871535E+03  0.26557611413E+04  0.26010665991E+04 0.  0.
        1    1    3    3  502    0 -0.75079799160E+03  0.80225427260E+03  0.44228248335E+03  0.11844506479E+04  0.50400001928E-02 0.  1.
       -1    1    3    3    0  502  0.75079799160E+03 -0.80225427260E+03 -0.97849119870E+03  0.14713104934E+04  0.50400001928E-02 0. -1.
</event>
<event>
 5   0  0.6804685E-06  0.2697780E+04  0.7818609E-02  0.8335726E-01
       -1   -1    0    0    0  501  0.00000000000E+00  0.00000000000E+00  0.16851236743E+04  0.16851236743E+04  0.50400001928E-02 0. -1.
        1   -1    0    0  501    0  0.00000000000E+00  0.00000000000E+00 -0.10797453080E+04  0.10797453080E+04  0.50400001928E-02 0.  1.
    10030    2    1    2    0    0  0.00000000000E+00  0.00000000000E+00  0.60537836626E+03  0.27648689823E+04  0.26977801102E+04 0.  0.
        2    1    3    3  502    0  0.82550322889E+03 -0.10166835436E+04  0.63383957312E+03  0.14549411030E+04  0.25500000920E-02 0.  1.
       -2    1    3    3    0  502 -0.82550322889E+03  0.10166835436E+04 -0.28461206857E+02  0.13099278793E+04  0.25500000920E-02 0. -1.
</event>
<event>
 5   0  0.7754912E-06  0.2873966E+04  0.7818609E-02  0.8280666E-01
        1   -1    0    0  501    0  0.00000000000E+00  0.00000000000E+00  0.23713658541E+04  0.23713658541E+04  0.50400001928E-02 0. -1.
       -1   -1    0    0    0  501  0.00000000000E+00  0.00000000000E+00 -0.87077257439E+03  0.87077257440E+03  0.50400001928E-02 0.  1.
    10030    2    1    2    0    0  0.00000000000E+00  0.00000000000E+00  0.15005932797E+04  0.32421384285E+04  0.28739661443E+04 0.  0.
        4    1    3    3  502    0 -0.71227664324E+03  0.91980441996E+03  0.17018863417E+04  0.20615035582E+04  0.12699999809E+01 0. -1.
       -4    1    3    3    0  502  0.71227664324E+03 -0.91980441996E+03 -0.20129306191E+03  0.11806348704E+04  0.12699999809E+01 0.  1.
</event>
<event>
 5   0  0.7351590E-06  0.2690409E+04  0.7818609E-02  0.8338123E-01
        1   -1    0    0  501    0  0.00000000000E+00  0.00000000000E+00  0.18973712620E+04  0.18973712620E+04  0.50400001928E-02 0. -1.
       -1   -1    0    0    0  501  0.00000000000E+00  0.00000000000E+00 -0.95372778852E+03  0.95372778853E+03  0.50400001928E-02 0.  1.
    10030    2    1    2    0    0  0.00000000000E+00  0.00000000000E+00  0.94364347349E+03  0.28510990505E+04  0.26904094095E+04 0.  0.
        3    1    3    3  502    0 -0.74002506283E+03  0.45224139955E+03 -0.61790331433E+03  0.10648774076E+04  0.10100000352E+00 0.  1.
       -3    1    3    3    0  502  0.74002506283E+03 -0.45224139955E+03  0.15615467878E+04  0.17862216430E+04  0.10100000352E+00 0. -1.
</event>
<event>
 5   0  0.7754912E-06  0.2626023E+04  0.7818609E-02  0.8359415E-01
       -1   -1    0    0    0  501  0.00000000000E+00  0.00000000000E+00  0.16691239412E+04  0.16691239412E+04  0.50400001928E-02 0. -1.
        1   -1    0    0  501    0  0.00000000000E+00  0.00000000000E+00 -0.10328766685E+04  0.10328766685E+04  0.50400001928E-02 0.  1.
    10030    2    1    2    0    0  0.00000000000E+00  0.00000000000E+00  0.63624727271E+03  0.27020006098E+04  0.26260229822E+04 0.  0.
        4    1    3    3  502    0 -0.29384992723E+03 -0.62403790829E+03  0.14676888530E+04  0.16216914851E+04  0.12699999809E+01 0. -1.
       -4    1    3    3    0  502  0.29384992723E+03  0.62403790829E+03 -0.83144158024E+03  0.10803091247E+04  0.12699999809E+01 0.  1.
</event>
<event>
 5   0  0.1788003E-05  0.2643723E+04  0.7818609E-02  0.8353499E-01
       -2   -1    0    0    0  501  0.00000000000E+00  0.00000000000E+00  0.86102933690E+03  0.86102933690E+03  0.25500000920E-02 0.  1.
        2   -1    0    0  501    0  0.00000000000E+00  0.00000000000E+00 -0.20293359228E+04  0.20293359228E+04  0.25500000920E-02 0. -1.
    10030    2    1    2    0    0  0.00000000000E+00  0.00000000000E+00 -0.11683065859E+04  0.28903652597E+04  0.26437229537E+04 0.  0.
        2    1    3    3  502    0 -0.13012656637E+04 -0.19269636209E+03 -0.44205226205E+03  0.13877443633E+04  0.25500000920E-02 0. -1.
       -2    1    3    3    0  502  0.13012656637E+04  0.19269636209E+03 -0.72625432389E+03  0.15026208965E+04  0.25500000920E-02 0.  1.
</event>
<event>
 5   0  0.1878160E-05  0.2687765E+04  0.7818609E-02  0.8338986E-01
        2   -1    0    0  501    0  0.00000000000E+00  0.00000000000E+00  0.20902051518E+04  0.20902051518E+04  0.25500000920E-02 0.  1.
       -2   -1    0    0    0  501  0.00000000000E+00  0.00000000000E+00 -0.86403971093E+03  0.86403971094E+03  0.25500000920E-02 0. -1.
    10030    2    1    2    0    0  0.00000000000E+00  0.00000000000E+00  0.12261654409E+04  0.29542448628E+04  0.26877650606E+04 0.  0.
        1    1    3    3  502    0  0.10165258343E+04 -0.71927974040E+03  0.57680097752E+02  0.12466014240E+04  0.50400001928E-02 0. -1.
       -1    1    3    3    0  502 -0.10165258343E+04  0.71927974040E+03  0.11684853431E+04  0.17076434387E+04  0.50400001928E-02 0.  1.
</event>
<event>
 5   0  0.7348964E-06  0.2646233E+04  0.7818609E-02  0.8352664E-01
       -1   -1    0    0    0  501  0.00000000000E+00  0.00000000000E+00  0.12143820307E+04  0.12143820307E+04  0.50400001928E-02 0. -1.
        1   -1    0    0  501    0  0.00000000000E+00  0.00000000000E+00 -0.14415864989E+04  0.14415864989E+04  0.50400001928E-02 0.  1.
    10030    2    1    2    0    0  0.00000000000E+00  0.00000000000E+00 -0.22720446817E+03  0.26559685297E+04  0.26462325975E+04 0.  0.
        1    1    3    3  502    0 -0.12990843608E+04  0.18875418486E+03 -0.27970559085E+03  0.13421935540E+04  0.50400001928E-02 0.  1.
       -1    1    3    3    0  502  0.12990843608E+04 -0.18875418486E+03  0.52501122674E+02  0.13137749757E+04  0.50400001928E-02 0. -1.
</event>
<event>
 5   0  0.1788003E-05  0.2693964E+04  0.7818609E-02  0.8336966E-01
       -2   -1    0    0    0  501  0.00000000000E+00  0.00000000000E+00  0.14343811987E+04  0.14343811987E+04  0.25500000920E-02 0. -1.
        2   -1    0    0  501    0  0.00000000000E+00  0.00000000000E+00 -0.12649082373E+04  0.12649082373E+04  0.25500000920E-02 0.  1.
    10030    2    1    2    0    0  0.00000000000E+00  0.00000000000E+00  0.16947296139E+03  0.26992894360E+04  0.26939640634E+04 0.  0.
        2    1    3    3  502    0  0.99732819530E+03  0.51884568409E+03  0.82815748588E+03  0.13963198754E+04  0.25500000920E-02 0. -1.
       -2    1    3    3    0  502 -0.99732819530E+03 -0.51884568409E+03 -0.65868452449E+03  0.13029695606E+04  0.25500000920E-02 0.  1.
</event>
<event>
 5   0  0.7351590E-06  0.2701944E+04  0.7818609E-02  0.8334374E-01
        1   -1    0    0  501    0  0.00000000000E+00  0.00000000000E+00  0.22034983133E+04  0.22034983133E+04  0.50400001928E-02 0. -1.
       -1   -1    0    0    0  501  0.00000000000E+00  0.00000000000E+00 -0.82828535996E+03  0.82828535997E+03  0.50400001928E-02 0.  1.
    10030    2    1    2    0    0  0.00000000000E+00  0.00000000000E+00  0.13752129534E+04  0.30317836733E+04  0.27019440362E+04 0.  0.
        3    1    3    3  502    0  0.99904770429E+03  0.22545953837E+03  0.16761774589E+04  0.19643062905E+04  0.10100000352E+00 0. -1.
       -3    1    3    3    0  502 -0.99904770429E+03 -0.22545953837E+03 -0.30096450559E+03  0.10674773828E+04  0.10100000352E+00 0.  1.
</event>
<event>
 5   0  0.1878160E-05  0.2680642E+04  0.7818609E-02  0.8341313E-01
        2   -1    0    0  501    0  0.00000000000E+00  0.00000000000E+00  0.20095371997E+04  0.20095371997E+04  0.25500000920E-02 0.  1.
       -2   -1    0    0    0  501  0.00000000000E+00  0.00000000000E+00 -0.89396741380E+03  0.89396741380E+03  0.25500000920E-02 0. -1.
    10030    2    1    2    0    0  0.00000000000E+00  0.00000000000E+00  0.11155697859E+04  0.29035046135E+04  0.26806422912E+04 0.  0.
        1    1    3    3  502    0  0.41925894453E+03 -0.52719844493E+03 -0.69732094092E+03  0.96952192218E+03  0.50400001928E-02 0. -1.
       -1    1    3    3    0  502 -0.41925894453E+03  0.52719844493E+03  0.18128907268E+04  0.19339826913E+04  0.50400001928E-02 0.  1.
</event>
<event>
 5   0  0.7351590E-06  0.2513043E+04  0.7818609E-02  0.8398353E-01
       -1   -1    0    0    0  501  0.00000000000E+00  0.00000000000E+00  0.11491376776E+04  0.11491376776E+04  0.50400001928E-02 0. -1.
        1   -1    0    0  501    0  0.00000000000E+00  0.00000000000E+00 -0.13739404653E+04  0.13739404653E+04  0.50400001928E-02 0.  1.
    10030    2    1    2    0    0  0.00000000000E+00  0.00000000000E+00 -0.22480278768E+03  0.25230781429E+04  0.25130433784E+04 0.  0.
        3    1    3    3  502    0  0.77864231077E+03  0.30251467148E+03  0.82998811900E+03  0.11775734637E+04  0.10100000352E+00 0. -1.
       -3    1    3    3    0  502 -0.77864231077E+03 -0.30251467148E+03 -0.10547909067E+04  0.13455046791E+04  0.10100000352E+00 0.  1.
</event>
<event>
 5   0  0.1826851E-05  0.2689642E+04  0.7818609E-02  0.8338374E-01
       -2   -1    0    0    0  501  0.00000000000E+00  0.00000000000E+00  0.98937895542E+03  0.98937895542E+03  0.25500000920E-02 0.  1.
        2   -1    0    0  501    0  0.00000000000E+00  0.00000000000E+00 -0.18279584597E+04  0.18279584597E+04  0.25500000920E-02 0. -1.
    10030    2    1    2    0    0  0.00000000000E+00  0.00000000000E+00 -0.83857950427E+03  0.28173374151E+04  0.26896420813E+04 0.  0.
        5    1    3    3  502    0 -0.12590184686E+04  0.90147850213E+01 -0.91428513946E+03  0.15560039129E+04  0.46999998093E+01 0. -1.
       -5    1    3    3    0  502  0.12590184686E+04 -0.90147850213E+01  0.75705635189E+02  0.12613335022E+04  0.46999998093E+01 0.  1.
</event>
<event>
 5   0  0.1878160E-05  0.2697225E+04  0.7818609E-02  0.8335906E-01
        2   -1    0    0  501    0  0.00000000000E+00  0.00000000000E+00  0.14047192567E+04  0.14047192567E+04  0.25500000920E-02 0.  1.
       -2   -1    0    0    0  501  0.00000000000E+00  0.00000000000E+00 -0.12947463912E+04  0.12947463912E+04  0.25500000920E-02 0. -1.
    10030    2    1    2    0    0  0.00000000000E+00  0.00000000000E+00  0.10997286550E+03  0.26994656479E+04  0.26972246389E+04 0.  0.
        1    1    3    3  502    0 -0.48838464979E+03 -0.88472881429E+03 -0.83877880461E+03  0.13133219423E+04  0.50400001928E-02 0. -1.
       -1    1    3    3    0  502  0.48838464979E+03  0.88472881429E+03  0.94875167011E+03  0.13861437056E+04  0.50400001928E-02 0.  1.
</event>
<event>
 5   0  0.6804685E-06  0.2783638E+04  0.7818609E-02  0.8308366E-01
       -1   -1    0    0    0  501  0.00000000000E+00  0.00000000000E+00  0.13257697740E+04  0.13257697740E+04  0.50400001928E-02 0.  1.
        1   -1    0    0  501    0  0.00000000000E+00  0.00000000000E+00 -0.14611583804E+04  0.14611583804E+04  0.50400001928E-02 0. -1.
    10030    2    1    2    0    0  0.00000000000E+00  0.00000000000E+00 -0.13538860638E+03  0.27869281544E+04  0.27836376314E+04 0.  0.
        2    1    3    3  502    0  0.74787713866E+03 -0.95032337878E+03  0.62212297679E+03  0.13599528437E+04  0.25500000920E-02 0.  1.
       -2    1    3    3    0  502 -0.74787713866E+03  0.95032337878E+03 -0.75751158317E+03  0.14269753107E+04  0.25500000920E-02 0. -1.
</event>
<event>
 5   0  0.1788003E-05  0.2700349E+04  0.7818609E-02  0.8334892E-01
       -2   -1    0    0    0  501  0.00000000000E+00  0.00000000000E+00  0.85351858626E+03  0.85351858627E+03  0.25500000920E-02 0.  1.
        2   -1    0    0  501    0  0.00000000000E+00  0.00000000000E+00 -0.21358313729E+04  0.21358313729E+04  0.25500000920E-02 0. -1.
    10030    2    1    2    0    0  0.00000000000E+00  0.00000000000E+00 -0.12823127866E+04  0.29893499592E+04  0.27003494395E+04 0.  0.
        2    1    3    3  502    0  0.96173955859E+03 -0.23779984239E+03 -0.16566535212E+04  0.19302830448E+04  0.25500000920E-02 0. -1.
       -2    1    3    3    0  502 -0.96173955859E+03  0.23779984239E+03  0.37434073457E+03  0.10590669144E+04  0.25500000920E-02 0.  1.
</event>
<event>
 5   0  0.1878160E-05  0.2747460E+04  0.7818609E-02  0.8319768E-01
        2   -1    0    0  501    0  0.00000000000E+00  0.00000000000E+00  0.21712690164E+04  0.21712690164E+04  0.25500000920E-02 0.  1.
       -2   -1    0    0    0  501  0.00000000000E+00  0.00000000000E+00 -0.86913862488E+03  0.86913862488E+03  0.25500000920E-02 0. -1.
    10030    2    1    2    0    0  0.00000000000E+00  0.00000000000E+00  0.13021303916E+04  0.30404076413E+04  0.27474597483E+04 0.  0.
        1    1    3    3  502    0 -0.45717841259E+03 -0.11069464859E+04 -0.93580080064E+02  0.12012909119E+04  0.50400001928E-02 0. -1.
       -1    1    3    3    0  502  0.45717841259E+03  0.11069464859E+04  0.13957104716E+04  0.18391167294E+04  0.50400001928E-02 0.  1.
</event>
<event>
 5   0  0.6804685E-06  0.2681659E+04  0.7818609E-02  0.8340981E-01
        1   -1    0    0  501    0  0.00000000000E+00  0.00000000000E+00  0.14450569865E+04  0.14450569865E+04  0.50400001928E-02 0. -1.
       -1   -1    0    0    0  501  0.00000000000E+00  0.00000000000E+00 -0.12441193114E+04  0.12441193114E+04  0.50400001928E-02 0.  1.
    10030    2    1    2    0    0  0.00000000000E+00  0.00000000000E+00  0.20093767507E+03  0.26891762979E+04  0.26816586681E+04 0.  0.
        2    1    3    3  502    0 -0.65071646925E+02 -0.21445462538E+03  0.14261423241E+04  0.14436436659E+04  0.25500000920E-02 0. -1.
       -2    1    3    3    0  502  0.65071646925E+02  0.21445462538E+03 -0.12252046490E+04  0.12455326320E+04  0.25500000920E-02 0.  1.
</event>
<event>
 5   0  0.7754912E-06  0.2678747E+04  0.7818609E-02  0.8341934E-01
       -1   -1    0    0    0  501  0.00000000000E+00  0.00000000000E+00  0.93015290778E+03  0.93015290779E+03  0.50400001928E-02 0. -1.
        1   -1    0    0  501    0  0.00000000000E+00  0.00000000000E+00 -0.19286307841E+04  0.19286307841E+04  0.50400001928E-02 0.  1.
    10030    2    1    2    0    0  0.00000000000E+00  0.00000000000E+00 -0.99847787629E+03  0.28587836919E+04  0.26787471190E+04 0.  0.
        4    1    3    3  502    0 -0.12190751413E+04 -0.11280572629E+03 -0.10789316236E+04  0.16318591830E+04  0.12699999809E+01 0.  1.
       -4    1    3    3    0  502  0.12190751413E+04  0.11280572629E+03  0.80453747280E+02  0.12269245088E+04  0.12699999809E+01 0. -1.
</event>
<event>
 5   0  0.1826851E-05  0.2592484E+04  0.7818609E-02  0.8370759E-01
       -2   -1    0    0    0  501  0.00000000000E+00  0.00000000000E+00  0.10870556810E+04  0.10870556810E+04  0.25500000920E-02 0.  1.
        2   -1    0    0  501    0  0.00000000000E+00  0.00000000000E+00 -0.15456833683E+04  0.15456833683E+04  0.25500000920E-02 0. -1.
    10030    2    1    2    0    0  0.00000000000E+00  0.00000000000E+00 -0.45862768724E+03  0.26327390493E+04  0.25924844351E+04 0.  0.
        5    1    3    3  502    0 -0.50300832729E+03  0.18820919994E+03  0.96874243874E+03  0.11076660521E+04  0.46999998093E+01 0.  1.
       -5    1    3    3    0  502  0.50300832729E+03 -0.18820919994E+03 -0.14273701260E+04  0.15250729972E+04  0.46999998093E+01 0. -1.
</event>
<event>
 5   0  0.7600052E-06  0.2692750E+04  0.7818609E-02  0.8337361E-01
       -1   -1    0    0    0  501  0.00000000000E+00  0.00000000000E+00  0.10932100035E+04  0.10932100035E+04  0.50400001928E-02 0. -1.
        1   -1    0    0  501    0  0.00000000000E+00  0.00000000000E+00 -0.16581673049E+04  0.16581673049E+04  0.50400001928E-02 0.  1.
    10030    2    1    2    0    0  0.00000000000E+00  0.00000000000E+00 -0.56495730141E+03  0.27513773084E+04  0.26927495875E+04 0.  0.
        5    1    3    3  502    0  0.10634565190E+04 -0.49451921081E+03  0.39313933421E+03  0.12369598392E+04  0.46999998093E+01 0. -1.
       -5    1    3    3    0  502 -0.10634565190E+04  0.49451921081E+03 -0.95809663562E+03  0.15144174692E+04  0.46999998093E+01 0.  1.
</event>
<event>
 5   0  0.7351590E-06  0.2676643E+04  0.7818609E-02  0.8342624E-01
        1   -1    0    0  501    0  0.00000000000E+00  0.00000000000E+00  0.13186111868E+04  0.13186111868E+04  0.50400001928E-02 0. -1.
       -1   -1    0    0    0  501  0.00000000000E+00  0.00000000000E+00 -0.13583262250E+04  0.13583262250E+04  0.50400001928E-02 0.  1.
    10030    2    1    2    0    0  0.00000000000E+00  0.00000000000E+00 -0.39715038122E+02  0.26769374118E+04  0.26766427895E+04 0.  0.
        3    1    3    3  502    0  0.10200715024E+04 -0.75439060586E+03 -0.44587751508E+03  0.13447891377E+04  0.10100000352E+00 0.  1.
       -3    1    3    3    0  502 -0.10200715024E+04  0.75439060586E+03  0.40616247696E+03  0.13321482741E+04  0.10100000352E+00 0. -1.
</event>
<event>
 5   0  0.1931119E-05  0.2488308E+04  0.7818609E-02  0.8407163E-01
       -2   -1    0    0    0  501  0.00000000000E+00  0.00000000000E+00  0.10774090576E+04  0.10774090576E+04  0.25500000920E-02 0.  1.
        2   -1    0    0  501    0  0.00000000000E+00  0.00000000000E+00 -0.14367048880E+04  0.14367048880E+04  0.25500000920E-02 0. -1.
    10030    2    1    2    0    0  0.00000000000E+00  0.00000000000E+00 -0.35929583041E+03  0.25141139455E+04  0.24883077457E+04 0.  0.
        3    1    3    3  502    0 -0.61966824470E+03  0.57094833780E+03  0.74524068975E+03  0.11248797419E+04  0.10100000352E+00 0.  1.
       -3    1    3    3    0  502  0.61966824470E+03 -0.57094833780E+03 -0.11045365202E+04  0.13892342036E+04  0.10100000352E+00 0. -1.
</event>
<event>
 5   0  0.1826851E-05  0.2714475E+04  0.7818609E-02  0.8330324E-01
       -2   -1    0    0    0  501  0.00000000000E+00  0.00000000000E+00  0.31683550070E+04  0.31683550070E+04  0.25500000920E-02 0. -1.
        2   -1    0    0  501    0  0.00000000000E+00  0.00000000000E+00 -0.58140362791E+03  0.58140362791E+03  0.25500000920E-02 0.  1.
    10030    2    1    2    0    0  0.00000000000E+00  0.00000000000E+00  0.25869513791E+04  0.37497586349E+04  0.27144746052E+04 0.  0.
        5    1    3    3  502    0  0.12975952378E+04 -0.34769696625E+03  0.15607117700E+04  0.20592449831E+04  0.46999998093E+01 0.  1.
       -5    1    3    3    0  502 -0.12975952378E+04  0.34769696625E+03  0.10262396091E+04  0.16905136518E+04  0.46999998093E+01 0. -1.
</event>
<event>
 5   0  0.7600052E-06  0.2685547E+04  0.7818609E-02  0.8339710E-01
        1   -1    0    0  501    0  0.00000000000E+00  0.00000000000E+00  0.21660118452E+04  0.21660118452E+04  0.50400001928E-02 0.  1.
       -1   -1    0    0    0  501  0.00000000000E+00  0.00000000000E+00 -0.83242429301E+03  0.83242429303E+03  0.50400001928E-02 0. -1.
    10030    2    1    2    0    0  0.00000000000E+00  0.00000000000E+00  0.13335875522E+04  0.29984361382E+04  0.26855471539E+04 0.  0.
        5    1    3    3  502    0  0.27488610315E+03  0.11417914207E+04 -0.60025598446E+02  0.11759571338E+04  0.46999998093E+01 0. -1.
       -5    1    3    3    0  502 -0.27488610315E+03 -0.11417914207E+04  0.13936131506E+04  0.18224790044E+04  0.46999998093E+01 0.  1.
</event>
<event>
 5   0  0.6804685E-06  0.2717083E+04  0.7818609E-02  0.8329483E-01
       -1   -1    0    0    0  501  0.00000000000E+00  0.00000000000E+00  0.76688475748E+03  0.76688475750E+03  0.50400001928E-02 0.  1.
        1   -1    0    0  501    0  0.00000000000E+00  0.00000000000E+00 -0.24066662242E+04  0.24066662242E+04  0.50400001928E-02 0. -1.
    10030    2    1    2    0    0  0.00000000000E+00  0.00000000000E+00 -0.16397814667E+04  0.31735509817E+04  0.27170834685E+04 0.  0.
        2    1    3    3  502    0 -0.84184253219E+03  0.10517587848E+03  0.41944095508E+03  0.94640981041E+03  0.25500000920E-02 0.  1.
       -2    1    3    3    0  502  0.84184253219E+03 -0.10517587848E+03 -0.20592224218E+04  0.22271411713E+04  0.25500000920E-02 0. -1.
</event>
<event>
 5   0  0.1881699E-05  0.2688425E+04  0.7818609E-02  0.8338770E-01
       -2   -1    0    0    0  501  0.00000000000E+00  0.00000000000E+00  0.11210093732E+04  0.11210093732E+04  0.25500000920E-02 0.  1.
        2   -1    0    0  501    0  0.00000000000E+00  0.00000000000E+00 -0.16118576524E+04  0.16118576524E+04  0.25500000920E-02 0. -1.
    10030    2    1    2    0    0  0.00000000000E+00  0.00000000000E+00 -0.49084827914E+03  0.27328670256E+04  0.26884252169E+04 0.  0.
        4    1    3    3  502    0  0.55408569869E+03 -0.48126992459E+03  0.89936927609E+03  0.11608179915E+04  0.12699999809E+01 0.  1.
       -4    1    3    3    0  502 -0.55408569869E+03  0.48126992459E+03 -0.13902175552E+04  0.15720490341E+04  0.12699999809E+01 0. -1.
</event>
<event>
 5   0  0.1826851E-05  0.2677168E+04  0.7818609E-02  0.8342451E-01
        2   -1    0    0  501    0  0.00000000000E+00  0.00000000000E+00  0.10740315048E+04  0.10740315048E+04  0.25500000920E-02 0. -1.
       -2   -1    0    0    0  501  0.00000000000E+00  0.00000000000E+00 -0.16683002460E+04  0.16683002460E+04  0.25500000920E-02 0.  1.
    10030    2    1    2    0    0  0.00000000000E+00  0.00000000000E+00 -0.59426874127E+03  0.27423317508E+04  0.26771679243E+04 0.  0.
        5    1    3    3  502    0 -0.13076839979E+04 -0.25830802856E+03 -0.42269219522E+03  0.13983745056E+04  0.46999998093E+01 0.  1.
       -5    1    3    3    0  502  0.13076839979E+04  0.25830802856E+03 -0.17157654605E+03  0.13439572452E+04  0.46999998093E+01 0. -1.
</event>
<event>
 5   0  0.7348964E-06  0.2753738E+04  0.7818609E-02  0.8317776E-01
       -1   -1    0    0    0  501  0.00000000000E+00  0.00000000000E+00  0.10119855381E+04  0.10119855381E+04  0.50400001928E-02 0. -1.
        1   -1    0    0  501    0  0.00000000000E+00  0.00000000000E+00 -0.18733162048E+04  0.18733162048E+04  0.50400001928E-02 0.  1.
    10030    2    1    2    0    0  0.00000000000E+00  0.00000000000E+00 -0.86133066670E+03  0.28853017429E+04  0.27537384825E+04 0.  0.
        1    1    3    3  502    0  0.12631471489E+04  0.27997032031E+03  0.62841508963E+02  0.12953274317E+04  0.50400001928E-02 0. -1.
       -1    1    3    3    0  502 -0.12631471489E+04 -0.27997032031E+03 -0.92417217567E+03  0.15899743112E+04  0.50400001928E-02 0.  1.
</event>
<event>
 5   0  0.1788003E-05  0.2723640E+04  0.7818609E-02  0.8327375E-01
       -2   -1    0    0    0  501  0.00000000000E+00  0.00000000000E+00  0.78062316683E+03  0.78062316683E+03  0.25500000920E-02 0.  1.
        2   -1    0    0  501    0  0.00000000000E+00  0.00000000000E+00 -0.23757342524E+04  0.23757342524E+04  0.25500000920E-02 0. -1.
    10030    2    1    2    0    0  0.00000000000E+00  0.00000000000E+00 -0.15951110856E+04  0.31563574193E+04  0.27236396206E+04 0.  0.
        2    1    3    3  502    0 -0.44908628521E+03 -0.95908573179E+03 -0.17897508964E+04  0.20795990488E+04  0.25500000920E-02 0. -1.
       -2    1    3    3    0  502  0.44908628521E+03  0.95908573179E+03  0.19463981079E+03  0.10767583705E+04  0.25500000920E-02 0.  1.
</event>
<event>
 5   0  0.6804685E-06  0.2691329E+04  0.7818609E-02  0.8337824E-01
       -1   -1    0    0    0  501  0.00000000000E+00  0.00000000000E+00  0.89847635269E+03  0.89847635271E+03  0.50400001928E-02 0.  1.
        1   -1    0    0  501    0  0.00000000000E+00  0.00000000000E+00 -0.20154264273E+04  0.20154264273E+04  0.50400001928E-02 0. -1.
    10030    2    1    2    0    0  0.00000000000E+00  0.00000000000E+00 -0.11169500746E+04  0.29139027801E+04  0.26913290290E+04 0.  0.
        2    1    3    3  502    0 -0.71682373503E+03 -0.46877382184E+03 -0.16822052123E+04  0.18876968876E+04  0.25500000920E-02 0. -1.
       -2    1    3    3    0  502  0.71682373503E+03  0.46877382184E+03  0.56525513762E+03  0.10262058925E+04  0.25500000920E-02 0.  1.
</event>
<event>
 5   0  0.1878160E-05  0.2526530E+04  0.7818609E-02  0.8393594E-01
       -2   -1    0    0    0  501  0.00000000000E+00  0.00000000000E+00  0.66410555237E+03  0.66410555238E+03  0.25500000920E-02 0.  1.
        2   -1    0    0  501    0  0.00000000000E+00  0.00000000000E+00 -0.24029900877E+04  0.24029900877E+04  0.25500000920E-02 0. -1.
    10030    2    1    2    0    0  0.00000000000E+00  0.00000000000E+00 -0.17388845353E+04  0.30670956401E+04  0.25265304744E+04 0.  0.
        1    1    3    3  502    0 -0.18850872411E+03 -0.12333026433E+04 -0.11100019156E+04  0.16699326938E+04  0.50400001928E-02 0.  1.
       -1    1    3    3    0  502  0.18850872411E+03  0.12333026433E+04 -0.62888261978E+03  0.13971629463E+04  0.50400001928E-02 0. -1.
</event>
<event>
 5   0  0.7351590E-06  0.2706191E+04  0.7818609E-02  0.8332999E-01
       -1   -1    0    0    0  501  0.00000000000E+00  0.00000000000E+00  0.14192495709E+04  0.14192495709E+04  0.50400001928E-02 0.  1.
        1   -1    0    0  501    0  0.00000000000E+00  0.00000000000E+00 -0.12900252252E+04  0.12900252252E+04  0.50400001928E-02 0. -1.
    10030    2    1    2    0    0  0.00000000000E+00  0.00000000000E+00  0.12922434568E+03  0.27092747961E+04  0.27061912329E+04 0.  0.
        3    1    3    3  502    0 -0.26739145838E+03 -0.35965278718E+03  0.13427890689E+04  0.14156026324E+04  0.10100000352E+00 0.  1.
       -3    1    3    3    0  502  0.26739145838E+03  0.35965278718E+03 -0.12135647232E+04  0.12936721636E+04  0.10100000352E+00 0. -1.
</event>
<event>
 5   0  0.7351590E-06  0.2438091E+04  0.7818609E-02  0.8425379E-01
       -1   -1    0    0    0  501  0.00000000000E+00  0.00000000000E+00  0.10032003530E+04  0.10032003530E+04  0.50400001928E-02 0.  1.
        1   -1    0    0  501    0  0.00000000000E+00  0.00000000000E+00 -0.14813311604E+04  0.14813311604E+04  0.50400001928E-02 0. -1.
    10030    2    1    2    0    0  0.00000000000E+00  0.00000000000E+00 -0.47813080743E+03  0.24845315135E+04  0.24380910099E+04 0.  0.
        3    1    3    3  502    0 -0.62839504452E+03 -0.97920361552E+03  0.13166623798E+03  0.11709210311E+04  0.10100000352E+00 0.  1.
       -3    1    3    3    0  502  0.62839504452E+03  0.97920361552E+03 -0.60979704541E+03  0.13136104824E+04  0.10100000352E+00 0. -1.
</event>
<event>
 5   0  0.1881699E-05  0.2679279E+04  0.7818609E-02  0.8341760E-01
        2   -1    0    0  501    0  0.00000000000E+00  0.00000000000E+00  0.90456750792E+03  0.90456750793E+03  0.25500000920E-02 0.  1.
       -2   -1    0    0    0  501  0.00000000000E+00  0.00000000000E+00 -0.19839694040E+04  0.19839694040E+04  0.25500000920E-02 0. -1.
    10030    2    1    2    0    0  0.00000000000E+00  0.00000000000E+00 -0.10794018961E+04  0.28885369120E+04  0.26792792013E+04 0.  0.
        4    1    3    3  502    0  0.10924044201E+04 -0.57125555961E+03 -0.11050135144E+04  0.16555170827E+04  0.12699999809E+01 0. -1.
       -4    1    3    3    0  502 -0.10924044201E+04  0.57125555961E+03  0.25611618293E+02  0.12330198292E+04  0.12699999809E+01 0.  1.
</event>
<event>
 5   0  0.1878160E-05  0.2721804E+04  0.7818609E-02  0.8327965E-01
        2   -1    0    0  501    0  0.00000000000E+00  0.00000000000E+00  0.17371749154E+04  0.17371749154E+04  0.25500000920E-02 0.  1.
       -2   -1    0    0    0  501  0.00000000000E+00  0.00000000000E+00 -0.10661298307E+04  0.10661298307E+04  0.25500000920E-02 0. -1.
    10030    2    1    2    0    0  0.00000000000E+00  0.00000000000E+00  0.67104508471E+03  0.28033047462E+04  0.27218038126E+04 0.  0.
        1    1    3    3  502    0 -0.22433566238E+03 -0.93450184588E+03 -0.65688251259E+03  0.11640939931E+04  0.50400001928E-02 0. -1.
       -1    1    3    3    0  502  0.22433566238E+03  0.93450184588E+03  0.13279275973E+04  0.16392107531E+04  0.50400001928E-02 0.  1.
</event>
<event>
 5   0  0.6804685E-06  0.2714644E+04  0.7818609E-02  0.8330269E-01
       -1   -1    0    0    0  501  0.00000000000E+00  0.00000000000E+00  0.16651692021E+04  0.16651692021E+04  0.50400001928E-02 0.  1.
        1   -1    0    0  501    0  0.00000000000E+00  0.00000000000E+00 -0.11063876282E+04  0.11063876282E+04  0.50400001928E-02 0. -1.
    10030    2    1    2    0    0  0.00000000000E+00  0.00000000000E+00  0.55878157392E+03  0.27715568304E+04  0.27146436997E+04 0.  0.
        2    1    3    3  502    0  0.10592937784E+04  0.25346824242E+03 -0.54751109871E+03  0.12190643388E+04  0.25500000920E-02 0. -1.
       -2    1    3    3    0  502 -0.10592937784E+04 -0.25346824242E+03  0.11062926726E+04  0.15524924916E+04  0.25500000920E-02 0.  1.
</event>
<event>
 5   0  0.7754912E-06  0.2677272E+04  0.7818609E-02  0.8342417E-01
        1   -1    0    0  501    0  0.00000000000E+00  0.00000000000E+00  0.18064249792E+04  0.18064249792E+04  0.50400001928E-02 0. -1.
       -1   -1    0    0    0  501  0.00000000000E+00  0.00000000000E+00 -0.99198523575E+03  0.99198523576E+03  0.50400001928E-02 0.  1.
    10030    2    1    2    0    0  0.00000000000E+00  0.00000000000E+00  0.81443974346E+03  0.27984102150E+04  0.26772724246E+04 0.  0.
        4    1    3    3  502    0  0.47677795925E+03 -0.12224519928E+04  0.68423825311E+03  0.14798275903E+04  0.12699999809E+01 0. -1.
       -4    1    3    3    0  502 -0.47677795925E+03  0.12224519928E+04  0.13020149035E+03  0.13185826247E+04  0.12699999809E+01 0.  1.
</event>
<event>
 5   0  0.7600052E-06  0.2731719E+04  0.7818609E-02  0.8324786E-01
       -1   -1    0    0    0  501  0.00000000000E+00  0.00000000000E+00  0.13115852289E+04  0.13115852289E+04  0.50400001928E-02 0.  1.
        1   -1    0    0  501    0  0.00000000000E+00  0.00000000000E+00 -0.14223796288E+04  0.14223796288E+04  0.50400001928E-02 0. -1.
    10030    2    1    2    0    0  0.00000000000E+00  0.00000000000E+00 -0.11079439991E+03  0.27339648577E+04  0.27317189541E+04 0.  0.
        5    1    3    3  502    0 -0.81361082990E+03 -0.21159499684E+03 -0.11327649349E+04  0.14106429431E+04  0.46999998093E+01 0. -1.
       -5    1    3    3    0  502  0.81361082990E+03  0.21159499684E+03  0.10219705350E+04  0.13233219146E+04  0.46999998093E+01 0.  1.
</event>
<event>
 5   0  0.1788003E-05  0.2678008E+04  0.7818609E-02  0.8342176E-01
       -2   -1    0    0    0  501  0.00000000000E+00  0.00000000000E+00  0.70711323473E+03  0.70711323473E+03  0.25500000920E-02 0. -1.
        2   -1    0    0  501    0  0.00000000000E+00  0.00000000000E+00 -0.25355644825E+04  0.25355644825E+04  0.25500000920E-02 0.  1.
    10030    2    1    2    0    0  0.00000000000E+00  0.00000000000E+00 -0.18284512478E+04  0.32426777172E+04  0.26780076199E+04 0.  0.
        2    1    3    3  502    0 -0.32841517114E+03  0.10722446409E+04 -0.18001923592E+04  0.21209096220E+04  0.25500000920E-02 0.  1.
       -2    1    3    3    0  502  0.32841517114E+03 -0.10722446409E+04 -0.28258888543E+02  0.11217680952E+04  0.25500000920E-02 0. -1.
</event>
<event>
 5   0  0.7754912E-06  0.2705319E+04  0.7818609E-02  0.8333281E-01
        1   -1    0    0  501    0  0.00000000000E+00  0.00000000000E+00  0.18905682672E+04  0.18905682672E+04  0.50400001928E-02 0. -1.
       -1   -1    0    0    0  501  0.00000000000E+00  0.00000000000E+00 -0.96779747469E+03  0.96779747470E+03  0.50400001928E-02 0.  1.
    10030    2    1    2    0    0  0.00000000000E+00  0.00000000000E+00  0.92277079249E+03  0.28583657419E+04  0.27053186095E+04 0.  0.
        4    1    3    3  502    0 -0.19268299362E+03 -0.98442999899E+03 -0.49739619918E+03  0.11196578722E+04  0.12699999809E+01 0.  1.
       -4    1    3    3    0  502  0.19268299362E+03  0.98442999899E+03  0.14201669917E+04  0.17387078697E+04  0.12699999809E+01 0. -1.
</event>
<event>
 5   0  0.1826851E-05  0.2706267E+04  0.7818609E-02  0.8332974E-01
        2   -1    0    0  501    0  0.00000000000E+00  0.00000000000E+00  0.21350339915E+04  0.21350339915E+04  0.25500000920E-02 0. -1.
       -2   -1    0    0    0  501  0.00000000000E+00  0.00000000000E+00 -0.85758374127E+03  0.85758374128E+03  0.25500000920E-02 0.  1.
    10030    2    1    2    0    0  0.00000000000E+00  0.00000000000E+00  0.12774502502E+04  0.29926177328E+04  0.27062671252E+04 0.  0.
        5    1    3    3  502    0  0.21828999315E+03 -0.30678400986E+03  0.20759301542E+04  0.21098045040E+04  0.46999998093E+01 0. -1.
       -5    1    3    3    0  502 -0.21828999315E+03  0.30678400986E+03 -0.79847990401E+03  0.88281322879E+03  0.46999998093E+01 0.  1.
</event>
<event>
 5   0  0.7600052E-06  0.2747559E+04  0.7818609E-02  0.8319737E-01
        1   -1    0    0  501    0  0.00000000000E+00  0.00000000000E+00  0.28204850016E+04  0.28204850016E+04  0.50400001928E-02 0. -1.
       -1   -1    0    0    0  501  0.00000000000E+00  0.00000000000E+00 -0.66912958830E+03  0.66912958832E+03  0.50400001928E-02 0.  1.
    10030    2    1    2    0    0  0.00000000000E+00  0.00000000000E+00  0.21513554133E+04  0.34896145899E+04  0.27475588933E+04 0.  0.
        5    1    3    3  502    0  0.40202761502E+03 -0.13123462933E+04  0.10019597485E+04  0.16993600044E+04  0.46999998093E+01 0.  1.
       -5    1    3    3    0  502 -0.40202761502E+03  0.13123462933E+04  0.11493956648E+04  0.17902545856E+04  0.46999998093E+01 0. -1.
</event>
<event>
 5   0  0.7348964E-06  0.2662123E+04  0.7818609E-02  0.8347400E-01
        1   -1    0    0  501    0  0.00000000000E+00  0.00000000000E+00  0.16110194923E+04  0.16110194923E+04  0.50400001928E-02 0. -1.
       -1   -1    0    0    0  501  0.00000000000E+00  0.00000000000E+00 -0.10997541001E+04  0.10997541002E+04  0.50400001928E-02 0.  1.
    10030    2    1    2    0    0  0.00000000000E+00  0.00000000000E+00  0.51126539212E+03  0.27107735924E+04  0.26621234322E+04 0.  0.
        1    1    3    3  502    0 -0.12141148318E+03  0.69356305215E+03  0.14058574487E+04  0.15723249097E+04  0.50400001928E-02 0. -1.
       -1    1    3    3    0  502  0.12141148318E+03 -0.69356305215E+03 -0.89459205657E+03  0.11384486827E+04  0.50400001928E-02 0.  1.
</event>
<event>
 5   0  0.1788003E-05  0.2732706E+04  0.7818609E-02  0.8324471E-01
        2   -1    0    0  501    0  0.00000000000E+00  0.00000000000E+00  0.15643790570E+04  0.15643790570E+04  0.25500000920E-02 0.  1.
       -2   -1    0    0    0  501  0.00000000000E+00  0.00000000000E+00 -0.11933935835E+04  0.11933935835E+04  0.25500000920E-02 0. -1.
    10030    2    1    2    0    0  0.00000000000E+00  0.00000000000E+00  0.37098547348E+03  0.27577726405E+04  0.27327055669E+04 0.  0.
        2    1    3    3  502    0  0.12349781166E+04  0.19048095791E+02  0.77513494832E+03  0.14582071068E+04  0.25500000920E-02 0.  1.
       -2    1    3    3    0  502 -0.12349781166E+04 -0.19048095791E+02 -0.40414947484E+03  0.12995655337E+04  0.25500000920E-02 0. -1.
</event>
<event>
 5   0  0.7600052E-06  0.2690729E+04  0.7818609E-02  0.8338019E-01
        1   -1    0    0  501    0  0.00000000000E+00  0.00000000000E+00  0.19254247594E+04  0.19254247594E+04  0.50400001928E-02 0. -1.
       -1   -1    0    0    0  501  0.00000000000E+00  0.00000000000E+00 -0.94005530019E+03  0.94005530021E+03  0.50400001928E-02 0.  1.
    10030    2    1    2    0    0  0.00000000000E+00  0.00000000000E+00  0.98536945918E+03  0.28654800596E+04  0.26907290835E+04 0.  0.
        5    1    3    3  502    0  0.21718424282E+03  0.53109124881E+03 -0.80320867109E+03  0.98711355436E+03  0.46999998093E+01 0.  1.
       -5    1    3    3    0  502 -0.21718424282E+03 -0.53109124881E+03  0.17885781303E+04  0.18783665052E+04  0.46999998093E+01 0. -1.
</event>
<event>
 5   0  0.1878160E-05  0.2689881E+04  0.7818609E-02  0.8338296E-01
       -2   -1    0    0    0  501  0.00000000000E+00  0.00000000000E+00  0.69206979602E+03  0.69206979603E+03  0.25500000920E-02 0. -1.
        2   -1    0    0  501    0  0.00000000000E+00  0.00000000000E+00 -0.26137036943E+04  0.26137036943E+04  0.25500000920E-02 0.  1.
    10030    2    1    2    0    0  0.00000000000E+00  0.00000000000E+00 -0.19216338983E+04  0.33057734903E+04  0.26898813227E+04 0.  0.
        1    1    3    3  502    0  0.64460345356E+03  0.44956499887E+03 -0.23021609432E+04  0.24326050458E+04  0.50400001928E-02 0.  1.
       -1    1    3    3    0  502 -0.64460345356E+03 -0.44956499887E+03  0.38052704492E+03  0.87316844451E+03  0.50400001928E-02 0. -1.
</event>
<event>
 5   0  0.7348964E-06  0.2683212E+04  0.7818609E-02  0.8340473E-01
        1   -1    0    0  501    0  0.00000000000E+00  0.00000000000E+00  0.24566837851E+04  0.24566837852E+04  0.50400001928E-02 0. -1.
       -1   -1    0    0    0  501  0.00000000000E+00  0.00000000000E+00 -0.73265717203E+03  0.73265717205E+03  0.50400001928E-02 0.  1.
    10030    2    1    2    0    0  0.00000000000E+00  0.00000000000E+00  0.17240266131E+04  0.31893409572E+04  0.26832122500E+04 0.  0.
        1    1    3    3  502    0  0.11998149396E+04  0.43006691856E+03  0.13598108307E+04  0.18637593566E+04  0.50400001928E-02 0. -1.
       -1    1    3    3    0  502 -0.11998149396E+04 -0.43006691856E+03  0.36421578238E+03  0.13255816006E+04  0.50400001928E-02 0.  1.
</event>
<event>
 5   0  0.6804685E-06  0.2672332E+04  0.7818609E-02  0.8344038E-01
        1   -1    0    0  501    0  0.00000000000E+00  0.00000000000E+00  0.18195119574E+04  0.18195119574E+04  0.50400001928E-02 0.  1.
       -1   -1    0    0    0  501  0.00000000000E+00  0.00000000000E+00 -0.98121920621E+03  0.98121920622E+03  0.50400001928E-02 0. -1.
    10030    2    1    2    0    0  0.00000000000E+00  0.00000000000E+00  0.83829275120E+03  0.28007311636E+04  0.26723323735E+04 0.  0.
        2    1    3    3  502    0 -0.20674118384E+03 -0.20236154722E+03 -0.94800250230E+03  0.99116136792E+03  0.25500000920E-02 0. -1.
       -2    1    3    3    0  502  0.20674118384E+03  0.20236154722E+03  0.17862952535E+04  0.18095697957E+04  0.25500000920E-02 0.  1.
</event>
<event>
 5   0  0.1881699E-05  0.2780757E+04  0.7818609E-02  0.8309268E-01
       -2   -1    0    0    0  501  0.00000000000E+00  0.00000000000E+00  0.12111916402E+04  0.12111916402E+04  0.25500000920E-02 0.  1.
        2   -1    0    0  501    0  0.00000000000E+00  0.00000000000E+00 -0.15960742788E+04  0.15960742788E+04  0.25500000920E-02 0. -1.
    10030    2    1    2    0    0  0.00000000000E+00  0.00000000000E+00 -0.38488263863E+03  0.28072659191E+04  0.27807566047E+04 0.  0.
        4    1    3    3  502    0  0.13002283412E+04 -0.20122989465E+03  0.26135814117E+03  0.13414160058E+04  0.12699999809E+01 0. -1.
       -4    1    3    3    0  502 -0.13002283412E+04  0.20122989465E+03 -0.64624077980E+03  0.14658499132E+04  0.12699999809E+01 0.  1.
</event>
<event>
 5   0  0.1788003E-05  0.2716626E+04  0.7818609E-02  0.8329631E-01
        2   -1    0    0  501    0  0.00000000000E+00  0.00000000000E+00  0.17491220243E+04  0.17491220243E+04  0.25500000920E-02 0.  1.
       -2   -1    0    0    0  501  0.00000000000E+00  0.00000000000E+00 -0.10548230330E+04  0.10548230330E+04  0.25500000920E-02 0. -1.
    10030    2    1    2    0    0  0.00000000000E+00  0.00000000000E+00  0.69429899131E+03  0.28039450572E+04  0.27166259946E+04 0.  0.
        2    1    3    3  502    0 -0.10753893378E+04 -0.64473505677E+03 -0.19200904652E+03  0.12684687601E+04  0.25500000920E-02 0.  1.
       -2    1    3    3    0  502  0.10753893378E+04  0.64473505677E+03  0.88630803783E+03  0.15354762972E+04  0.25500000920E-02 0. -1.
</event>
<event>
 5   0  0.1881699E-05  0.2732134E+04  0.7818609E-02  0.8324653E-01
        2   -1    0    0  501    0  0.00000000000E+00  0.00000000000E+00  0.21010556863E+04  0.21010556863E+04  0.25500000920E-02 0.  1.
       -2   -1    0    0    0  501  0.00000000000E+00  0.00000000000E+00 -0.88819138406E+03  0.88819138406E+03  0.25500000920E-02 0. -1.
    10030    2    1    2    0    0  0.00000000000E+00  0.00000000000E+00  0.12128643022E+04  0.29892470703E+04  0.27321343730E+04 0.  0.
        4    1    3    3  502    0  0.21732811228E+03  0.60379256428E+03  0.19258819685E+04  0.20299802803E+04  0.12699999809E+01 0.  1.
       -4    1    3    3    0  502 -0.21732811228E+03 -0.60379256428E+03 -0.71301766629E+03  0.95926679000E+03  0.12699999809E+01 0. -1.
</event>
<event>
 5   0  0.6804685E-06  0.2369993E+04  0.7818609E-02  0.8450824E-01
        1   -1    0    0  501    0  0.00000000000E+00  0.00000000000E+00  0.10283627326E+04  0.10283627326E+04  0.50400001928E-02 0.  1.
       -1   -1    0    0    0  501  0.00000000000E+00  0.00000000000E+00 -0.13654876151E+04  0.13654876152E+04  0.50400001928E-02 0. -1.
    10030    2    1    2    0    0  0.00000000000E+00  0.00000000000E+00 -0.33712488259E+03  0.23938503477E+04  0.23699928905E+04 0.  0.
        2    1    3    3  502    0 -0.18332916839E+03 -0.73783876144E+03 -0.10866683862E+04  0.13262216268E+04  0.25500000920E-02 0. -1.
       -2    1    3    3    0  502  0.18332916839E+03  0.73783876144E+03  0.74954350362E+03  0.10676287209E+04  0.25500000920E-02 0.  1.
</event>
<event>
 5   0  0.1878160E-05  0.2646080E+04  0.7818609E-02  0.8352715E-01
        2   -1    0    0  501    0  0.00000000000E+00  0.00000000000E+00  0.14597404186E+04  0.14597404186E+04  0.25500000920E-02 0.  1.
       -2   -1    0    0    0  501  0.00000000000E+00  0.00000000000E+00 -0.11991411737E+04  0.11991411737E+04  0.25500000920E-02 0. -1.
    10030    2    1    2    0    0  0.00000000000E+00  0.00000000000E+00  0.26059924498E+03  0.26588815923E+04  0.26460799979E+04 0.  0.
        1    1    3    3  502    0 -0.52879908793E+03  0.69359467202E+03  0.11299658213E+04  0.14274189300E+04  0.50400001928E-02 0. -1.
       -1    1    3    3    0  502  0.52879908793E+03 -0.69359467202E+03 -0.86936657634E+03  0.12314626623E+04  0.50400001928E-02 0.  1.
</event>
<event>
 5   0  0.7754912E-06  0.2723420E+04  0.7818609E-02  0.8327446E-01
        1   -1    0    0  501    0  0.00000000000E+00  0.00000000000E+00  0.12381873494E+04  0.12381873494E+04  0.50400001928E-02 0.  1.
       -1   -1    0    0    0  501  0.00000000000E+00  0.00000000000E+00 -0.14975553802E+04  0.14975553802E+04  0.50400001928E-02 0. -1.
    10030    2    1    2    0    0  0.00000000000E+00  0.00000000000E+00 -0.25936803081E+03  0.27357427297E+04  0.27234200021E+04 0.  0.
        4    1    3    3  502    0 -0.57487303467E+03 -0.98721966579E+03 -0.87409772916E+03  0.14384471237E+04  0.12699999809E+01 0. -1.
       -4    1    3    3    0  502  0.57487303467E+03  0.98721966579E+03  0.61472969835E+03  0.12972956060E+04  0.12699999809E+01 0.  1.
</event>
<event>
 5   0  0.6804685E-06  0.2692920E+04  0.7818609E-02  0.8337306E-01
       -1   -1    0    0    0  501  0.00000000000E+00  0.00000000000E+00  0.11809853767E+04  0.11809853767E+04  0.50400001928E-02 0.  1.
        1   -1    0    0  501    0  0.00000000000E+00  0.00000000000E+00 -0.15351206083E+04  0.15351206083E+04  0.50400001928E-02 0. -1.
    10030    2    1    2    0    0  0.00000000000E+00  0.00000000000E+00 -0.35413523161E+03  0.27161059849E+04  0.26929203403E+04 0.  0.
        2    1    3    3  502    0  0.90127911216E+03 -0.86362161938E+03  0.33206426150E+03  0.12916706288E+04  0.25500000920E-02 0. -1.
       -2    1    3    3    0  502 -0.90127911216E+03  0.86362161938E+03 -0.68619949311E+03  0.14244353561E+04  0.25500000920E-02 0.  1.
</event>
<event>
 5   0  0.7348964E-06  0.2738614E+04  0.7818609E-02  0.8322584E-01
       -1   -1    0    0    0  501  0.00000000000E+00  0.00000000000E+00  0.92900435945E+03  0.92900435946E+03  0.50400001928E-02 0.  1.
        1   -1    0    0  501    0  0.00000000000E+00  0.00000000000E+00 -0.20182915868E+04  0.20182915868E+04  0.50400001928E-02 0. -1.
    10030    2    1    2    0    0  0.00000000000E+00  0.00000000000E+00 -0.10892872274E+04  0.29472959463E+04  0.27386140165E+04 0.  0.
        1    1    3    3  502    0 -0.36099152900E+03  0.11770345908E+04  0.10042698472E+03  0.12352371802E+04  0.50400001928E-02 0.  1.
       -1    1    3    3    0  502  0.36099152900E+03 -0.11770345908E+04 -0.11897142121E+04  0.17120587661E+04  0.50400001928E-02 0. -1.
</event>
<event>
 5   0  0.1878160E-05  0.2715421E+04  0.7818609E-02  0.8330019E-01
       -2   -1    0    0    0  501  0.00000000000E+00  0.00000000000E+00  0.11472646772E+04  0.11472646772E+04  0.25500000920E-02 0. -1.
        2   -1    0    0  501    0  0.00000000000E+00  0.00000000000E+00 -0.16067590321E+04  0.16067590321E+04  0.25500000920E-02 0.  1.
    10030    2    1    2    0    0  0.00000000000E+00  0.00000000000E+00 -0.45949435482E+03  0.27540237093E+04  0.27154210593E+04 0.  0.
        1    1    3    3  502    0  0.68870474775E+03  0.25359834259E+03  0.92874845522E+03  0.11837229583E+04  0.50400001928E-02 0. -1.
       -1    1    3    3    0  502 -0.68870474775E+03 -0.25359834259E+03 -0.13882428100E+04  0.15703007510E+04  0.50400001928E-02 0.  1.
</event>
<event>
 5   0  0.7351590E-06  0.2757132E+04  0.7818609E-02  0.8316702E-01
       -1   -1    0    0    0  501  0.00000000000E+00  0.00000000000E+00  0.15180256287E+04  0.15180256288E+04  0.50400001928E-02 0. -1.
        1   -1    0    0  501    0  0.00000000000E+00  0.00000000000E+00 -0.12519181810E+04  0.12519181810E+04  0.50400001928E-02 0.  1.
    10030    2    1    2    0    0  0.00000000000E+00  0.00000000000E+00  0.26610744774E+03  0.27699438098E+04  0.27571317588E+04 0.  0.
        3    1    3    3  502    0 -0.47645909770E+03  0.35829694736E+03  0.13818317714E+04  0.15049415367E+04  0.10100000352E+00 0. -1.
       -3    1    3    3    0  502  0.47645909770E+03 -0.35829694736E+03 -0.11157243237E+04  0.12650022731E+04  0.10100000352E+00 0.  1.
</event>
<event>
 5   0  0.7600052E-06  0.2738362E+04  0.7818609E-02  0.8322664E-01
        1   -1    0    0  501    0  0.00000000000E+00  0.00000000000E+00  0.18572083040E+04  0.18572083040E+04  0.50400001928E-02 0. -1.
       -1   -1    0    0    0  501  0.00000000000E+00  0.00000000000E+00 -0.10093949855E+04  0.10093949855E+04  0.50400001928E-02 0.  1.
    10030    2    1    2    0    0  0.00000000000E+00  0.00000000000E+00  0.84781331850E+03  0.28666032896E+04  0.27383621011E+04 0.  0.
        5    1    3    3  502    0  0.87793696656E+03 -0.99069012534E+03  0.79013970117E+03  0.15416170338E+04  0.46999998093E+01 0.  1.
       -5    1    3    3    0  502 -0.87793696656E+03  0.99069012534E+03  0.57673617330E+02  0.13249862557E+04  0.46999998093E+01 0. -1.
</event>
<event>
 5   0  0.7351590E-06  0.2687436E+04  0.7818609E-02  0.8339093E-01
       -1   -1    0    0    0  501  0.00000000000E+00  0.00000000000E+00  0.19395806308E+04  0.19395806308E+04  0.50400001928E-02 0.  1.
        1   -1    0    0  501    0  0.00000000000E+00  0.00000000000E+00 -0.93091175409E+03  0.93091175411E+03  0.50400001928E-02 0. -1.
    10030    2    1    2    0    0  0.00000000000E+00  0.00000000000E+00  0.10086688767E+04  0.28704923849E+04  0.26874362558E+04 0.  0.
        3    1    3    3  502    0  0.29285862845E+03  0.38791199081E+03 -0.83372765100E+03  0.96506149811E+03  0.10100000352E+00 0. -1.
       -3    1    3    3    0  502 -0.29285862845E+03 -0.38791199081E+03  0.18423965277E+04  0.19054308868E+04  0.10100000352E+00 0.  1.
</event>
<event>
 5   0  0.1788003E-05  0.2691077E+04  0.7818609E-02  0.8337906E-01
        2   -1    0    0  501    0  0.00000000000E+00  0.00000000000E+00  0.10492874215E+04  0.10492874215E+04  0.25500000920E-02 0. -1.
       -2   -1    0    0    0  501  0.00000000000E+00  0.00000000000E+00 -0.17254318289E+04  0.17254318289E+04  0.25500000920E-02 0.  1.
    10030    2    1    2    0    0  0.00000000000E+00  0.00000000000E+00 -0.67614440741E+03  0.27747192504E+04  0.26910770444E+04 0.  0.
        2    1    3    3  502    0 -0.30119421782E+03 -0.20688358304E+03  0.99715028446E+03  0.10619922145E+04  0.25500000920E-02 0. -1.
       -2    1    3    3    0  502  0.30119421782E+03  0.20688358304E+03 -0.16732946919E+04  0.17127270359E+04  0.25500000920E-02 0.  1.
</event>
<event>
 5   0  0.1788003E-05  0.2693530E+04  0.7818609E-02  0.8337107E-01
        2   -1    0    0  501    0  0.00000000000E+00  0.00000000000E+00  0.17052487414E+04  0.17052487414E+04  0.25500000920E-02 0. -1.
       -2   -1    0    0    0  501  0.00000000000E+00  0.00000000000E+00 -0.10636433613E+04  0.10636433613E+04  0.25500000920E-02 0.  1.
    10030    2    1    2    0    0  0.00000000000E+00  0.00000000000E+00  0.64160538012E+03  0.27688921028E+04  0.26935303995E+04 0.  0.
        2    1    3    3  502    0 -0.12734509007E+04  0.28939078673E+03  0.65918151431E+03  0.14628549117E+04  0.25500000920E-02 0. -1.
       -2    1    3    3    0  502  0.12734509007E+04 -0.28939078673E+03 -0.17576134191E+02  0.13060371911E+04  0.25500000920E-02 0.  1.
</event>
<event>
 5   0  0.1881699E-05  0.2671414E+04  0.7818609E-02  0.8344340E-01
        2   -1    0    0  501    0  0.00000000000E+00  0.00000000000E+00  0.21800765448E+04  0.21800765448E+04  0.25500000920E-02 0.  1.
       -2   -1    0    0    0  501  0.00000000000E+00  0.00000000000E+00 -0.81837156984E+03  0.81837156984E+03  0.25500000920E-02 0. -1.
    10030    2    1    2    0    0  0.00000000000E+00  0.00000000000E+00  0.13617049750E+04  0.29984481147E+04  0.26714136066E+04 0.  0.
        4    1    3    3  502    0  0.19728873293E+03 -0.90815029378E+03  0.17577039463E+04  0.19882616970E+04  0.12699999809E+01 0.  1.
       -4    1    3    3    0  502 -0.19728873293E+03  0.90815029378E+03 -0.39599897129E+03  0.10101864176E+04  0.12699999809E+01 0. -1.
</event>
<event>
 5   0  0.7351590E-06  0.2438544E+04  0.7818609E-02  0.8425213E-01
       -1   -1    0    0    0  501  0.00000000000E+00  0.00000000000E+00  0.32798266056E+04  0.32798266056E+04  0.50400001928E-02 0.  1.
        1   -1    0    0  501    0  0.00000000000E+00  0.00000000000E+00 -0.45326298822E+03  0.45326298824E+03  0.50400001928E-02 0. -1.
    10030    2    1    2    0    0  0.00000000000E+00  0.00000000000E+00  0.28265636173E+04  0.37330895938E+04  0.24385438344E+04 0.  0.
        3    1    3    3  502    0  0.23225885563E+03  0.28362190154E+03  0.31934641344E+04  0.32144359920E+04  0.10100000352E+00 0.  1.
       -3    1    3    3    0  502 -0.23225885563E+03 -0.28362190154E+03 -0.36690051703E+03  0.51865360179E+03  0.10100000352E+00 0. -1.
</event>
<event>
 5   0  0.7754912E-06  0.2717273E+04  0.7818609E-02  0.8329422E-01
       -1   -1    0    0    0  501  0.00000000000E+00  0.00000000000E+00  0.12161836281E+04  0.12161836281E+04  0.50400001928E-02 0.  1.
        1   -1    0    0  501    0  0.00000000000E+00  0.00000000000E+00 -0.15177745117E+04  0.15177745118E+04  0.50400001928E-02 0. -1.
    10030    2    1    2    0    0  0.00000000000E+00  0.00000000000E+00 -0.30159088366E+03  0.27339581398E+04  0.27172725387E+04 0.  0.
        4    1    3    3  502    0  0.77169909602E+03  0.82700060076E+03  0.60644911272E+03  0.12834452180E+04  0.12699999809E+01 0.  1.
       -4    1    3    3    0  502 -0.77169909602E+03 -0.82700060076E+03 -0.90803999638E+03  0.14505129218E+04  0.12699999809E+01 0. -1.
</event>
<event>
 5   0  0.1826851E-05  0.2544119E+04  0.7818609E-02  0.8387434E-01
        2   -1    0    0  501    0  0.00000000000E+00  0.00000000000E+00  0.87655342590E+03  0.87655342591E+03  0.25500000920E-02 0. -1.
       -2   -1    0    0    0  501  0.00000000000E+00  0.00000000000E+00 -0.18460197490E+04  0.18460197490E+04  0.25500000920E-02 0.  1.
    10030    2    1    2    0    0  0.00000000000E+00  0.00000000000E+00 -0.96946632310E+03  0.27225731749E+04  0.25441186570E+04 0.  0.
        5    1    3    3  502    0 -0.67015611594E+03 -0.89375941139E+03 -0.11358502297E+04  0.15931393346E+04  0.46999998093E+01 0.  1.
       -5    1    3    3    0  502  0.67015611594E+03  0.89375941139E+03  0.16638390664E+03  0.11294338403E+04  0.46999998093E+01 0. -1.
</event>
<event>
 5   0  0.7600052E-06  0.2700999E+04  0.7818609E-02  0.8334681E-01
        1   -1    0    0  501    0  0.00000000000E+00  0.00000000000E+00  0.30746756697E+04  0.30746756697E+04  0.50400001928E-02 0. -1.
       -1   -1    0    0    0  501  0.00000000000E+00  0.00000000000E+00 -0.59318395865E+03  0.59318395867E+03  0.50400001928E-02 0.  1.
    10030    2    1    2    0    0  0.00000000000E+00  0.00000000000E+00  0.24814917111E+04  0.36678596284E+04  0.27009985453E+04 0.  0.
        5    1    3    3  502    0  0.39722980626E+03 -0.53853690293E+03 -0.35219471835E+03  0.75622531327E+03  0.46999998093E+01 0.  1.
       -5    1    3    3    0  502 -0.39722980626E+03  0.53853690293E+03  0.28336864294E+04  0.29116343151E+04  0.46999998093E+01 0. -1.
</event>
<event>
 5   0  0.6804685E-06  0.2508900E+04  0.7818609E-02  0.8399822E-01
        1   -1    0    0  501    0  0.00000000000E+00  0.00000000000E+00  0.11815421199E+04  0.11815421199E+04  0.50400001928E-02 0.  1.
       -1   -1    0    0    0  501  0.00000000000E+00  0.00000000000E+00 -0.13318571554E+04  0.13318571554E+04  0.50400001928E-02 0. -1.
    10030    2    1    2    0    0  0.00000000000E+00  0.00000000000E+00 -0.15031503557E+03  0.25133992753E+04  0.25089004180E+04 0.  0.
        2    1    3    3  502    0 -0.78950795701E+03  0.38619906719E+03 -0.97184510531E+03  0.13103264641E+04  0.25500000920E-02 0. -1.
       -2    1    3    3    0  502  0.78950795701E+03 -0.38619906719E+03  0.82153006974E+03  0.12030728113E+04  0.25500000920E-02 0.  1.
</event>
<event>
 5   0  0.1826851E-05  0.2702005E+04  0.7818609E-02  0.8334355E-01
       -2   -1    0    0    0  501  0.00000000000E+00  0.00000000000E+00  0.11598244047E+04  0.11598244047E+04  0.25500000920E-02 0.  1.
        2   -1    0    0  501    0  0.00000000000E+00  0.00000000000E+00 -0.15736926460E+04  0.15736926460E+04  0.25500000920E-02 0. -1.
    10030    2    1    2    0    0  0.00000000000E+00  0.00000000000E+00 -0.41386824138E+03  0.27335170507E+04  0.27020045420E+04 0.  0.
        5    1    3    3  502    0  0.11375557748E+04  0.21963256118E+03  0.49609021756E+03  0.12603171017E+04  0.46999998093E+01 0.  1.
       -5    1    3    3    0  502 -0.11375557748E+04 -0.21963256118E+03 -0.90995845894E+03  0.14731999490E+04  0.46999998093E+01 0. -1.
</event>
<event>
 5   0  0.7351590E-06  0.2713083E+04  0.7818609E-02  0.8330773E-01
       -1   -1    0    0    0  501  0.00000000000E+00  0.00000000000E+00  0.11019981735E+04  0.11019981735E+04  0.50400001928E-02 0. -1.
        1   -1    0    0  501    0  0.00000000000E+00  0.00000000000E+00 -0.16698798445E+04  0.16698798445E+04  0.50400001928E-02 0.  1.
    10030    2    1    2    0    0  0.00000000000E+00  0.00000000000E+00 -0.56788167101E+03  0.27718780181E+04  0.27130827770E+04 0.  0.
        3    1    3    3  502    0  0.83631100355E+02 -0.84383242081E+03  0.79785256488E+03  0.11643092548E+04  0.10100000352E+00 0. -1.
       -3    1    3    3    0  502 -0.83631100355E+02  0.84383242081E+03 -0.13657342359E+04  0.16075687633E+04  0.10100000352E+00 0.  1.
</event>
<event>
 5   0  0.7351590E-06  0.2705267E+04  0.7818609E-02  0.8333298E-01
       -1   -1    0    0    0  501  0.00000000000E+00  0.00000000000E+00  0.78428833536E+03  0.78428833538E+03  0.50400001928E-02 0.  1.
        1   -1    0    0  501    0  0.00000000000E+00  0.00000000000E+00 -0.23328372719E+04  0.23328372719E+04  0.50400001928E-02 0. -1.
    10030    2    1    2    0    0  0.00000000000E+00  0.00000000000E+00 -0.15485489365E+04  0.31171256073E+04  0.27052667600E+04 0.  0.
        3    1    3    3  502    0  0.12965045075E+03  0.73725704471E+03 -0.20724083332E+04  0.22034594390E+04  0.10100000352E+00 0. -1.
       -3    1    3    3    0  502 -0.12965045075E+03 -0.73725704471E+03  0.52385939671E+03  0.91366616829E+03  0.10100000352E+00 0.  1.
</event>
<event>
 5   0  0.7351590E-06  0.2677207E+04  0.7818609E-02  0.8342439E-01
        1   -1    0    0  501    0  0.00000000000E+00  0.00000000000E+00  0.13365370069E+04  0.13365370069E+04  0.50400001928E-02 0.  1.
       -1   -1    0    0    0  501  0.00000000000E+00  0.00000000000E+00 -0.13406733557E+04  0.13406733557E+04  0.50400001928E-02 0. -1.
    10030    2    1    2    0    0  0.00000000000E+00  0.00000000000E+00 -0.41363488179E+01  0.26772103626E+04  0.26772071672E+04 0.  0.
        3    1    3    3  502    0 -0.56525760004E+03 -0.27220353912E+03 -0.11845452188E+04  0.13404321343E+04  0.10100000352E+00 0. -1.
       -3    1    3    3    0  502  0.56525760004E+03  0.27220353912E+03  0.11804088700E+04  0.13367782283E+04  0.10100000352E+00 0.  1.
</event>
<event>
 5   0  0.6804685E-06  0.2731738E+04  0.7818609E-02  0.8324780E-01
        1   -1    0    0  501    0  0.00000000000E+00  0.00000000000E+00  0.15652805185E+04  0.15652805185E+04  0.50400001928E-02 0. -1.
       -1   -1    0    0    0  501  0.00000000000E+00  0.00000000000E+00 -0.11918618835E+04  0.11918618835E+04  0.50400001928E-02 0.  1.
    10030    2    1    2    0    0  0.00000000000E+00  0.00000000000E+00  0.37341863505E+03  0.27571424020E+04  0.27317380452E+04 0.  0.
        2    1    3    3  502    0 -0.80354529145E+03  0.45721898916E+02 -0.92710339749E+03  0.12277199343E+04  0.25500000920E-02 0.  1.
       -2    1    3    3    0  502  0.80354529145E+03 -0.45721898916E+02  0.13005220325E+04  0.15294224677E+04  0.25500000920E-02 0. -1.
</event>
<event>
 5   0  0.7754912E-06  0.1960463E+04  0.7818609E-02  0.8625332E-01
        1   -1    0    0  501    0  0.00000000000E+00  0.00000000000E+00  0.11401134599E+04  0.11401134599E+04  0.50400001928E-02 0. -1.
       -1   -1    0    0    0  501  0.00000000000E+00  0.00000000000E+00 -0.84277024096E+03  0.84277024098E+03  0.50400001928E-02 0.  1.
    10030    2    1    2    0    0  0.00000000000E+00  0.00000000000E+00  0.29734321896E+03  0.19828837009E+04  0.19604628998E+04 0.  0.
        4    1    3    3  502    0 -0.58594464803E+03 -0.60864938867E+02  0.94109605151E+03  0.11102698151E+04  0.12699999809E+01 0. -1.
       -4    1    3    3    0  502  0.58594464803E+03  0.60864938867E+02 -0.64375283255E+03  0.87261388578E+03  0.12699999809E+01 0.  1.
</event>
<event>
 5   0  0.7754912E-06  0.2879915E+04  0.7818609E-02  0.8278879E-01
       -1   -1    0    0    0  501  0.00000000000E+00  0.00000000000E+00  0.15250541355E+04  0.15250541355E+04  0.50400001928E-02 0.  1.
        1   -1    0    0  501    0  0.00000000000E+00  0.00000000000E+00 -0.13596090934E+04  0.13596090934E+04  0.50400001928E-02 0. -1.
    10030    2    1    2    0    0  0.00000000000E+00  0.00000000000E+00  0.16544504211E+03  0.28846632290E+04  0.28799149089E+04 0.  0.
        4    1    3    3  502    0 -0.25661247971E+03 -0.13933088188E+04 -0.17522183324E+03  0.14275376468E+04  0.12699999809E+01 0.  1.
       -4    1    3    3    0  502  0.25661247971E+03  0.13933088188E+04  0.34066687535E+03  0.14571255822E+04  0.12699999809E+01 0. -1.
</event>
<event>
 5   0  0.1931119E-05  0.2687075E+04  0.7818609E-02  0.8339211E-01
       -2   -1    0    0    0  501  0.00000000000E+00  0.00000000000E+00  0.77343259559E+03  0.77343259560E+03  0.25500000920E-02 0.  1.
        2   -1    0    0  501    0  0.00000000000E+00  0.00000000000E+00 -0.23338720247E+04  0.23338720247E+04  0.25500000920E-02 0. -1.
    10030    2    1    2    0    0  0.00000000000E+00  0.00000000000E+00 -0.15604394291E+04  0.31073046203E+04  0.26870747648E+04 0.  0.
        3    1    3    3  502    0  0.12469313473E+04  0.19797774086E+03 -0.24896015719E+03  0.12868621297E+04  0.10100000352E+00 0.  1.
       -3    1    3    3    0  502 -0.12469313473E+04 -0.19797774086E+03 -0.13114792719E+04  0.18204424906E+04  0.10100000352E+00 0. -1.
</event>
<event>
 5   0  0.1881699E-05  0.2679772E+04  0.7818609E-02  0.8341598E-01
        2   -1    0    0  501    0  0.00000000000E+00  0.00000000000E+00  0.22938339354E+04  0.22938339354E+04  0.25500000920E-02 0.  1.
       -2   -1    0    0    0  501  0.00000000000E+00  0.00000000000E+00 -0.78266129189E+03  0.78266129189E+03  0.25500000920E-02 0. -1.
    10030    2    1    2    0    0  0.00000000000E+00  0.00000000000E+00  0.15111726436E+04  0.30764952273E+04  0.26797724018E+04 0.  0.
        4    1    3    3  502    0 -0.12260459692E+04  0.46460486261E+03  0.43857864692E+03  0.13825336305E+04  0.12699999809E+01 0. -1.
       -4    1    3    3    0  502  0.12260459692E+04 -0.46460486261E+03  0.10725939966E+04  0.16939615968E+04  0.12699999809E+01 0.  1.
</event>
<event>
 5   0  0.1881699E-05  0.2687986E+04  0.7818609E-02  0.8338914E-01
        2   -1    0    0  501    0  0.00000000000E+00  0.00000000000E+00  0.18986057317E+04  0.18986057317E+04  0.25500000920E-02 0.  1.
       -2   -1    0    0    0  501  0.00000000000E+00  0.00000000000E+00 -0.95139111309E+03  0.95139111309E+03  0.25500000920E-02 0. -1.
    10030    2    1    2    0    0  0.00000000000E+00  0.00000000000E+00  0.94721461865E+03  0.28499968448E+04  0.26879855806E+04 0.  0.
        4    1    3    3  502    0 -0.38521190646E+03 -0.12737063526E+04  0.67365607110E+03  0.14914859036E+04  0.12699999809E+01 0. -1.
       -4    1    3    3    0  502  0.38521190646E+03  0.12737063526E+04  0.27355854755E+03  0.13585109412E+04  0.12699999809E+01 0.  1.
</event>
<event>
 5   0  0.7600052E-06  0.2676397E+04  0.7818609E-02  0.8342704E-01
       -1   -1    0    0    0  501  0.00000000000E+00  0.00000000000E+00  0.12071693548E+04  0.12071693549E+04  0.50400001928E-02 0.  1.
        1   -1    0    0  501    0  0.00000000000E+00  0.00000000000E+00 -0.14834502888E+04  0.14834502888E+04  0.50400001928E-02 0. -1.
    10030    2    1    2    0    0  0.00000000000E+00  0.00000000000E+00 -0.27628093394E+03  0.26906196436E+04  0.26763973756E+04 0.  0.
        5    1    3    3  502    0 -0.26375344653E+03  0.28545930532E+03  0.11491721028E+04  0.12131246875E+04  0.46999998093E+01 0.  1.
       -5    1    3    3    0  502  0.26375344653E+03 -0.28545930532E+03 -0.14254530367E+04  0.14774949562E+04  0.46999998093E+01 0. -1.
</event>
<event>
 5   0  0.7351590E-06  0.2731213E+04  0.7818609E-02  0.8324948E-01
       -1   -1    0    0    0  501  0.00000000000E+00  0.00000000000E+00  0.20386492666E+04  0.20386492666E+04  0.50400001928E-02 0.  1.
        1   -1    0    0  501    0  0.00000000000E+00  0.00000000000E+00 -0.91476282434E+03  0.91476282435E+03  0.50400001928E-02 0. -1.
    10030    2    1    2    0    0  0.00000000000E+00  0.00000000000E+00  0.11238864423E+04  0.29534120910E+04  0.27312125959E+04 0.  0.
        3    1    3    3  502    0 -0.91709087823E+03  0.83004090466E+03  0.11876894088E+04  0.17148264415E+04  0.10100000352E+00 0.  1.
       -3    1    3    3    0  502  0.91709087823E+03 -0.83004090466E+03 -0.63802966576E+02  0.12385856495E+04  0.10100000352E+00 0. -1.
</event>
<event>
 5   0  0.1881699E-05  0.2142624E+04  0.7818609E-02  0.8542696E-01
        2   -1    0    0  501    0  0.00000000000E+00  0.00000000000E+00  0.60176748770E+03  0.60176748770E+03  0.25500000920E-02 0. -1.
       -2   -1    0    0    0  501  0.00000000000E+00  0.00000000000E+00 -0.19072308734E+04  0.19072308734E+04  0.25500000920E-02 0.  1.
    10030    2    1    2    0    0  0.00000000000E+00  0.00000000000E+00 -0.13054633857E+04  0.25089983611E+04  0.21426241212E+04 0.  0.
        4    1    3    3  502    0 -0.23611213950E+03 -0.38953988906E+03 -0.17881831914E+04  0.18452888680E+04  0.12699999809E+01 0.  1.
       -4    1    3    3    0  502  0.23611213950E+03  0.38953988906E+03  0.48271980565E+03  0.66370949312E+03  0.12699999809E+01 0. -1.
</event>
<event>
 5   0  0.1826851E-05  0.2703181E+04  0.7818609E-02  0.8333973E-01
        2   -1    0    0  501    0  0.00000000000E+00  0.00000000000E+00  0.17576902881E+04  0.17576902881E+04  0.25500000920E-02 0.  1.
       -2   -1    0    0    0  501  0.00000000000E+00  0.00000000000E+00 -0.10393169860E+04  0.10393169860E+04  0.25500000920E-02 0. -1.
    10030    2    1    2    0    0  0.00000000000E+00  0.00000000000E+00  0.71837330210E+03  0.27970072741E+04  0.27031813647E+04 0.  0.
        5    1    3    3  502    0  0.60006475721E+03  0.17366135261E+03 -0.88097177256E+03  0.10799858019E+04  0.46999998093E+01 0. -1.
       -5    1    3    3    0  502 -0.60006475721E+03 -0.17366135261E+03  0.15993450747E+04  0.17170214722E+04  0.46999998093E+01 0.  1.
</event>
<event>
 5   0  0.7600052E-06  0.2693922E+04  0.7818609E-02  0.8336980E-01
        1   -1    0    0  501    0  0.00000000000E+00  0.00000000000E+00  0.12644934544E+04  0.12644934544E+04  0.50400001928E-02 0.  1.
       -1   -1    0    0    0  501  0.00000000000E+00  0.00000000000E+00 -0.14348071665E+04  0.14348071665E+04  0.50400001928E-02 0. -1.
    10030    2    1    2    0    0  0.00000000000E+00  0.00000000000E+00 -0.17031371214E+03  0.26993006209E+04  0.26939222486E+04 0.  0.
        5    1    3    3  502    0  0.46670917014E+03  0.49863924262E+03  0.10781190464E+04  0.12762528401E+04  0.46999998093E+01 0.  1.
       -5    1    3    3    0  502 -0.46670917014E+03 -0.49863924262E+03 -0.12484327585E+04  0.14230477808E+04  0.46999998093E+01 0. -1.
</event>
<event>
 5   0  0.7351590E-06  0.2685192E+04  0.7818609E-02  0.8339826E-01
       -1   -1    0    0    0  501  0.00000000000E+00  0.00000000000E+00  0.86148090705E+03  0.86148090706E+03  0.50400001928E-02 0.  1.
        1   -1    0    0  501    0  0.00000000000E+00  0.00000000000E+00 -0.20924015427E+04  0.20924015427E+04  0.50400001928E-02 0. -1.
    10030    2    1    2    0    0  0.00000000000E+00  0.00000000000E+00 -0.12309206356E+04  0.29538824498E+04  0.26851919700E+04 0.  0.
        3    1    3    3  502    0 -0.76939020811E+03  0.75586728413E+03 -0.14950074607E+04  0.18434597803E+04  0.10100000352E+00 0.  1.
       -3    1    3    3    0  502  0.76939020811E+03 -0.75586728413E+03  0.26408682510E+03  0.11104226695E+04  0.10100000352E+00 0. -1.
</event>
<event>
 5   0  0.1788003E-05  0.2683865E+04  0.7818609E-02  0.8340259E-01
        2   -1    0    0  501    0  0.00000000000E+00  0.00000000000E+00  0.16569731917E+04  0.16569731917E+04  0.25500000920E-02 0. -1.
       -2   -1    0    0    0  501  0.00000000000E+00  0.00000000000E+00 -0.10867909371E+04  0.10867909371E+04  0.25500000920E-02 0.  1.
    10030    2    1    2    0    0  0.00000000000E+00  0.00000000000E+00  0.57018225465E+03  0.27437641288E+04  0.26838654569E+04 0.  0.
        2    1    3    3  502    0  0.10650062658E+04 -0.38510917680E+03  0.10210437078E+04  0.15248205394E+04  0.25500000920E-02 0.  1.
       -2    1    3    3    0  502 -0.10650062658E+04  0.38510917680E+03 -0.45086145316E+03  0.12189435894E+04  0.25500000920E-02 0. -1.
</event>
<event>
 5   0  0.1826851E-05  0.2695725E+04  0.7818609E-02  0.8336393E-01
        2   -1    0    0  501    0  0.00000000000E+00  0.00000000000E+00  0.15401591273E+04  0.15401591273E+04  0.25500000920E-02 0. -1.
       -2   -1    0    0    0  501  0.00000000000E+00  0.00000000000E+00 -0.11795750632E+04  0.11795750632E+04  0.25500000920E-02 0.  1.
    10030    2    1    2    0    0  0.00000000000E+00  0.00000000000E+00  0.36058406410E+03  0.27197341905E+04  0.26957249859E+04 0.  0.
        5    1    3    3  502    0  0.36293742553E+03 -0.11157204892E+04  0.84964301650E+03  0.14486100684E+04  0.46999998093E+01 0. -1.
       -5    1    3    3    0  502 -0.36293742553E+03  0.11157204892E+04 -0.48905895240E+03  0.12711241221E+04  0.46999998093E+01 0.  1.
</event>
<event>
 5   0  0.1878160E-05  0.2924016E+04  0.7818609E-02  0.8265768E-01
       -2   -1    0    0    0  501  0.00000000000E+00  0.00000000000E+00  0.22634280721E+04  0.22634280721E+04  0.25500000920E-02 0.  1.
        2   -1    0    0  501    0  0.00000000000E+00  0.00000000000E+00 -0.94434972770E+03  0.94434972770E+03  0.25500000920E-02 0. -1.
    10030    2    1    2    0    0  0.00000000000E+00  0.00000000000E+00  0.13190783444E+04  0.32077777998E+04  0.29240161994E+04 0.  0.
        1    1    3    3  502    0  0.61828029870E+03  0.69337253341E+03  0.18980014511E+04  0.21131600759E+04  0.50400001928E-02 0.  1.
       -1    1    3    3    0  502 -0.61828029870E+03 -0.69337253341E+03 -0.57892310676E+03  0.10946177239E+04  0.50400001928E-02 0. -1.
</event>
<event>
 5   0  0.1881699E-05  0.2794740E+04  0.7818609E-02  0.8304903E-01
        2   -1    0    0  501    0  0.00000000000E+00  0.00000000000E+00  0.13599220787E+04  0.13599220787E+04  0.25500000920E-02 0. -1.
       -2   -1    0    0    0  501  0.00000000000E+00  0.00000000000E+00 -0.14358492591E+04  0.14358492591E+04  0.25500000920E-02 0.  1.
    10030    2    1    2    0    0  0.00000000000E+00  0.00000000000E+00 -0.75927180361E+02  0.27957713378E+04  0.27947401375E+04 0.  0.
        4    1    3    3  502    0 -0.95057099801E+03 -0.98085589057E+03  0.25706555043E+03  0.13898733073E+04  0.12699999809E+01 0. -1.
       -4    1    3    3    0  502  0.95057099801E+03  0.98085589057E+03 -0.33299273079E+03  0.14058980304E+04  0.12699999809E+01 0.  1.
</event>
<event>
 5   0  0.1826851E-05  0.2678925E+04  0.7818609E-02  0.8341876E-01
        2   -1    0    0  501    0  0.00000000000E+00  0.00000000000E+00  0.15782576608E+04  0.15782576608E+04  0.25500000920E-02 0.  1.
       -2   -1    0    0    0  501  0.00000000000E+00  0.00000000000E+00 -0.11367974023E+04  0.11367974023E+04  0.25500000920E-02 0. -1.
    10030    2    1    2    0    0  0.00000000000E+00  0.00000000000E+00  0.44146025849E+03  0.27150550631E+04  0.26789245670E+04 0.  0.
        5    1    3    3  502    0 -0.38979353425E+03  0.59632113208E+03  0.13703117186E+04  0.15444462399E+04  0.46999998093E+01 0.  1.
       -5    1    3    3    0  502  0.38979353425E+03 -0.59632113208E+03 -0.92885146012E+03  0.11706088232E+04  0.46999998093E+01 0. -1.
</event>
<event>
 5   0  0.1931119E-05  0.2679886E+04  0.7818609E-02  0.8341561E-01
       -2   -1    0    0    0  501  0.00000000000E+00  0.00000000000E+00  0.68576301609E+03  0.68576301609E+03  0.25500000920E-02 0. -1.
        2   -1    0    0  501    0  0.00000000000E+00  0.00000000000E+00 -0.26181743961E+04  0.26181743961E+04  0.25500000920E-02 0.  1.
    10030    2    1    2    0    0  0.00000000000E+00  0.00000000000E+00 -0.19324113800E+04  0.33039374122E+04  0.26798859457E+04 0.  0.
        3    1    3    3  502    0 -0.37567190007E+02  0.27814446932E+03 -0.25815276668E+04  0.25967404075E+04  0.10100000352E+00 0.  1.
       -3    1    3    3    0  502  0.37567190007E+02 -0.27814446932E+03  0.64911628672E+03  0.70719700470E+03  0.10100000352E+00 0. -1.
</event>
<event>
 5   0  0.7754912E-06  0.2355870E+04  0.7818609E-02  0.8456212E-01
       -1   -1    0    0    0  501  0.00000000000E+00  0.00000000000E+00  0.11973015190E+04  0.11973015191E+04  0.50400001928E-02 0.  1.
        1   -1    0    0  501    0  0.00000000000E+00  0.00000000000E+00 -0.11588816857E+04  0.11588816857E+04  0.50400001928E-02 0. -1.
    10030    2    1    2    0    0  0.00000000000E+00  0.00000000000E+00  0.38419833358E+02  0.23561832048E+04  0.23558699478E+04 0.  0.
        4    1    3    3  502    0 -0.10232174741E+04  0.30748113889E+03 -0.47685053081E+03  0.11700028597E+04  0.12699999809E+01 0. -1.
       -4    1    3    3    0  502  0.10232174741E+04 -0.30748113889E+03  0.51527036417E+03  0.11861803451E+04  0.12699999809E+01 0.  1.
</event>
<event>
 5   0  0.1826851E-05  0.2626156E+04  0.7818609E-02  0.8359371E-01
        2   -1    0    0  501    0  0.00000000000E+00  0.00000000000E+00  0.10876859709E+04  0.10876859709E+04  0.25500000920E-02 0.  1.
       -2   -1    0    0    0  501  0.00000000000E+00  0.00000000000E+00 -0.15851759979E+04  0.15851759979E+04  0.25500000920E-02 0. -1.
    10030    2    1    2    0    0  0.00000000000E+00  0.00000000000E+00 -0.49749002705E+03  0.26728619688E+04  0.26261558936E+04 0.  0.
        5    1    3    3  502    0  0.23771219141E+03 -0.10961639059E+04  0.44608926417E+03  0.12071040204E+04  0.46999998093E+01 0.  1.
       -5    1    3    3    0  502 -0.23771219141E+03  0.10961639059E+04 -0.94357929123E+03  0.14657579484E+04  0.46999998093E+01 0. -1.
</event>
<event>
 5   0  0.7600052E-06  0.2698187E+04  0.7818609E-02  0.8335594E-01
       -1   -1    0    0    0  501  0.00000000000E+00  0.00000000000E+00  0.19750056146E+04  0.19750056146E+04  0.50400001928E-02 0. -1.
        1   -1    0    0  501    0  0.00000000000E+00  0.00000000000E+00 -0.92154309755E+03  0.92154309756E+03  0.50400001928E-02 0.  1.
    10030    2    1    2    0    0  0.00000000000E+00  0.00000000000E+00  0.10534625171E+04  0.28965487122E+04  0.26981866442E+04 0.  0.
        5    1    3    3  502    0  0.43781355565E+03  0.23416291768E+03 -0.81988752307E+03  0.95851480010E+03  0.46999998093E+01 0.  1.
       -5    1    3    3    0  502 -0.43781355565E+03 -0.23416291768E+03  0.18733500401E+04  0.19380339121E+04  0.46999998093E+01 0. -1.
</event>
<event>
 5   0  0.7600052E-06  0.2714397E+04  0.7818609E-02  0.8330349E-01
        1   -1    0    0  501    0  0.00000000000E+00  0.00000000000E+00  0.15868006331E+04  0.15868006331E+04  0.50400001928E-02 0.  1.
       -1   -1    0    0    0  501  0.00000000000E+00  0.00000000000E+00 -0.11608182407E+04  0.11608182407E+04  0.50400001928E-02 0. -1.
    10030    2    1    2    0    0  0.00000000000E+00  0.00000000000E+00  0.42598239242E+03  0.27476188738E+04  0.27143965217E+04 0.  0.
        5    1    3    3  502    0 -0.85182226452E+03 -0.68161309712E+03  0.10301934069E+04  0.15005059581E+04  0.46999998093E+01 0.  1.
       -5    1    3    3    0  502  0.85182226452E+03  0.68161309712E+03 -0.60421101451E+03  0.12471129157E+04  0.46999998093E+01 0. -1.
</event>
<event>
 5   0  0.7600052E-06  0.2663435E+04  0.7818609E-02  0.8346967E-01
       -1   -1    0    0    0  501  0.00000000000E+00  0.00000000000E+00  0.11252179340E+04  0.11252179340E+04  0.50400001928E-02 0. -1.
        1   -1    0    0  501    0  0.00000000000E+00  0.00000000000E+00 -0.15761143671E+04  0.15761143671E+04  0.50400001928E-02 0.  1.
    10030    2    1    2    0    0  0.00000000000E+00  0.00000000000E+00 -0.45089643317E+03  0.27013323011E+04  0.26634354897E+04 0.  0.
        5    1    3    3  502    0  0.84939592799E+03 -0.30782943753E+02  0.81433591470E+03  0.11771092150E+04  0.46999998093E+01 0. -1.
       -5    1    3    3    0  502 -0.84939592799E+03  0.30782943753E+02 -0.12652323479E+04  0.15242230861E+04  0.46999998093E+01 0.  1.
</event>
<event>
 5   0  0.7348964E-06  0.2746299E+04  0.7818609E-02  0.8320137E-01
        1   -1    0    0  501    0  0.00000000000E+00  0.00000000000E+00  0.16801665328E+04  0.16801665328E+04  0.50400001928E-02 0. -1.
       -1   -1    0    0    0  501  0.00000000000E+00  0.00000000000E+00 -0.11222336747E+04  0.11222336747E+04  0.50400001928E-02 0.  1.
    10030    2    1    2    0    0  0.00000000000E+00  0.00000000000E+00  0.55793285813E+03  0.28024002075E+04  0.27462989365E+04 0.  0.
        1    1    3    3  502    0  0.12299899074E+04 -0.18927180727E+03  0.87120199106E+03  0.15191089160E+04  0.50400001928E-02 0. -1.
       -1    1    3    3    0  502 -0.12299899074E+04  0.18927180727E+03 -0.31326913294E+03  0.12832912916E+04  0.50400001928E-02 0.  1.
</event>
<event>
 5   0  0.1931119E-05  0.2683980E+04  0.7818609E-02  0.8340222E-01
       -2   -1    0    0    0  501  0.00000000000E+00  0.00000000000E+00  0.11361648704E+04  0.11361648704E+04  0.25500000920E-02 0. -1.
        2   -1    0    0  501    0  0.00000000000E+00  0.00000000000E+00 -0.15851017290E+04  0.15851017290E+04  0.25500000920E-02 0.  1.
    10030    2    1    2    0    0  0.00000000000E+00  0.00000000000E+00 -0.44893685861E+03  0.27212665993E+04  0.26839798065E+04 0.  0.
        3    1    3    3  502    0 -0.18902138420E+03  0.12207712454E+04  0.30714905830E+03  0.12729305053E+04  0.10100000352E+00 0. -1.
       -3    1    3    3    0  502  0.18902138420E+03 -0.12207712454E+04 -0.75608591691E+03  0.14483360940E+04  0.10100000352E+00 0.  1.
</event>
<event>
 5   0  0.6804685E-06  0.2699300E+04  0.7818609E-02  0.8335232E-01
        1   -1    0    0  501    0  0.00000000000E+00  0.00000000000E+00  0.15411575707E+04  0.15411575707E+04  0.50400001928E-02 0.  1.
       -1   -1    0    0    0  501  0.00000000000E+00  0.00000000000E+00 -0.11819398106E+04  0.11819398107E+04  0.50400001928E-02 0. -1.
    10030    2    1    2    0    0  0.00000000000E+00  0.00000000000E+00  0.35921776002E+03  0.27230973813E+04  0.26993002703E+04 0.  0.
        2    1    3    3  502    0  0.12630269709E+04 -0.61880742959E+02 -0.29623706722E+03  0.12987774081E+04  0.25500000920E-02 0. -1.
       -2    1    3    3    0  502 -0.12630269709E+04  0.61880742959E+02  0.65545482725E+03  0.14243199733E+04  0.25500000920E-02 0.  1.
</event>
<event>
 5   0  0.7754912E-06  0.2727805E+04  0.7818609E-02  0.8326039E-01
       -1   -1    0    0    0  501  0.00000000000E+00  0.00000000000E+00  0.11263042942E+04  0.11263042942E+04  0.50400001928E-02 0. -1.
        1   -1    0    0  501    0  0.00000000000E+00  0.00000000000E+00 -0.16516232497E+04  0.16516232497E+04  0.50400001928E-02 0.  1.
    10030    2    1    2    0    0  0.00000000000E+00  0.00000000000E+00 -0.52531895554E+03  0.27779275439E+04  0.27278052412E+04 0.  0.
        4    1    3    3  502    0 -0.78150175304E+03  0.60850499340E+03 -0.12175481358E+04  0.15695376367E+04  0.12699999809E+01 0.  1.
       -4    1    3    3    0  502  0.78150175304E+03 -0.60850499340E+03  0.69222918025E+03  0.12083899072E+04  0.12699999809E+01 0. -1.
</event>
<event>
 5   0  0.1788003E-05  0.2696891E+04  0.7818609E-02  0.8336014E-01
       -2   -1    0    0    0  501  0.00000000000E+00  0.00000000000E+00  0.80373756015E+03  0.80373756015E+03  0.25500000920E-02 0.  1.
        2   -1    0    0  501    0  0.00000000000E+00  0.00000000000E+00 -0.22623127937E+04  0.22623127937E+04  0.25500000920E-02 0. -1.
    10030    2    1    2    0    0  0.00000000000E+00  0.00000000000E+00 -0.14585752335E+04  0.30660503538E+04  0.26968913698E+04 0.  0.
        2    1    3    3  502    0 -0.10318420815E+03  0.17324038882E+03 -0.22450758692E+04  0.22541128790E+04  0.25500000920E-02 0. -1.
       -2    1    3    3    0  502  0.10318420815E+03 -0.17324038882E+03  0.78650063563E+03  0.81193747480E+03  0.25500000920E-02 0.  1.
</event>
<event>
 5   0  0.1788003E-05  0.2776051E+04  0.7818609E-02  0.8310742E-01
        2   -1    0    0  501    0  0.00000000000E+00  0.00000000000E+00  0.18797951913E+04  0.18797951913E+04  0.25500000920E-02 0. -1.
       -2   -1    0    0    0  501  0.00000000000E+00  0.00000000000E+00 -0.10249068741E+04  0.10249068741E+04  0.25500000920E-02 0.  1.
    10030    2    1    2    0    0  0.00000000000E+00  0.00000000000E+00  0.85488831716E+03  0.29047020654E+04  0.27760511620E+04 0.  0.
        2    1    3    3  502    0 -0.10925002789E+04 -0.85567498943E+03  0.45845665739E+03  0.14614783795E+04  0.25500000920E-02 0. -1.
       -2    1    3    3    0  502  0.10925002789E+04  0.85567498943E+03  0.39643165977E+03  0.14432236860E+04  0.25500000920E-02 0.  1.
</event>
<event>
 5   0  0.7348964E-06  0.2689415E+04  0.7818609E-02  0.8338448E-01
        1   -1    0    0  501    0  0.00000000000E+00  0.00000000000E+00  0.14687394271E+04  0.14687394271E+04  0.50400001928E-02 0.  1.
       -1   -1    0    0    0  501  0.00000000000E+00  0.00000000000E+00 -0.12311494362E+04  0.12311494362E+04  0.50400001928E-02 0. -1.
    10030    2    1    2    0    0  0.00000000000E+00  0.00000000000E+00  0.23758999085E+03  0.26998888633E+04  0.26894145962E+04 0.  0.
        1    1    3    3  502    0  0.27027344113E+03  0.11161864195E+04  0.82103192466E+03  0.14117412218E+04  0.50400001928E-02 0.  1.
       -1    1    3    3    0  502 -0.27027344113E+03 -0.11161864195E+04 -0.58344193382E+03  0.12881476415E+04  0.50400001928E-02 0. -1.
</event>
<event>
 5   0  0.1826851E-05  0.2678822E+04  0.7818609E-02  0.8341909E-01
       -2   -1    0    0    0  501  0.00000000000E+00  0.00000000000E+00  0.87311582220E+03  0.87311582220E+03  0.25500000920E-02 0.  1.
        2   -1    0    0  501    0  0.00000000000E+00  0.00000000000E+00 -0.20547351770E+04  0.20547351770E+04  0.25500000920E-02 0. -1.
    10030    2    1    2    0    0  0.00000000000E+00  0.00000000000E+00 -0.11816193548E+04  0.29278509992E+04  0.26788219750E+04 0.  0.
        5    1    3    3  502    0 -0.51571796080E+03 -0.10666479701E+04 -0.12736239835E+04  0.17394950556E+04  0.46999998093E+01 0.  1.
       -5    1    3    3    0  502  0.51571796080E+03  0.10666479701E+04  0.92004628629E+02  0.11883559437E+04  0.46999998093E+01 0. -1.
</event>
<event>
 5   0  0.7351590E-06  0.2716686E+04  0.7818609E-02  0.8329611E-01
        1   -1    0    0  501    0  0.00000000000E+00  0.00000000000E+00  0.15792850476E+04  0.15792850476E+04  0.50400001928E-02 0. -1.
       -1   -1    0    0    0  501  0.00000000000E+00  0.00000000000E+00 -0.11683106629E+04  0.11683106630E+04  0.50400001928E-02 0.  1.
    10030    2    1    2    0    0  0.00000000000E+00  0.00000000000E+00  0.41097438470E+03  0.27475957106E+04  0.27166858935E+04 0.  0.
        3    1    3    3  502    0 -0.44793152346E+03 -0.47774494204E+03 -0.99810022812E+03  0.11937700595E+04  0.10100000352E+00 0.  1.
       -3    1    3    3    0  502  0.44793152346E+03  0.47774494204E+03  0.14090746128E+04  0.15538256511E+04  0.10100000352E+00 0. -1.
</event>
<event>
 5   0  0.1881699E-05  0.2696045E+04  0.7818609E-02  0.8336289E-01
        2   -1    0    0  501    0  0.00000000000E+00  0.00000000000E+00  0.23814568978E+04  0.23814568978E+04  0.25500000920E-02 0.  1.
       -2   -1    0    0    0  501  0.00000000000E+00  0.00000000000E+00 -0.76304756638E+03  0.76304756638E+03  0.25500000920E-02 0. -1.
    10030    2    1    2    0    0  0.00000000000E+00  0.00000000000E+00  0.16184093315E+04  0.31445044642E+04  0.26960451705E+04 0.  0.
        4    1    3    3  502    0  0.85142274637E+03 -0.57650529571E+03 -0.20750924758E+03  0.10489712817E+04  0.12699999809E+01 0. -1.
       -4    1    3    3    0  502 -0.85142274637E+03  0.57650529571E+03  0.18259185790E+04  0.20955331826E+04  0.12699999809E+01 0.  1.
</event>
<event>
 5   0  0.6804685E-06  0.2727124E+04  0.7818609E-02  0.8326257E-01
        1   -1    0    0  501    0  0.00000000000E+00  0.00000000000E+00  0.23009901656E+04  0.23009901656E+04  0.50400001928E-02 0. -1.
       -1   -1    0    0    0  501  0.00000000000E+00  0.00000000000E+00 -0.80804412805E+03  0.80804412807E+03  0.50400001928E-02 0.  1.
    10030    2    1    2    0    0  0.00000000000E+00  0.00000000000E+00  0.14929460375E+04  0.31090342936E+04  0.27271241937E+04 0.  0.
        2    1    3    3  502    0 -0.99671476470E+03  0.46206186907E+03  0.16672708574E+04  0.19966806467E+04  0.25500000920E-02 0. -1.
       -2    1    3    3    0  502  0.99671476470E+03 -0.46206186907E+03 -0.17432481987E+03  0.11123536469E+04  0.25500000920E-02 0.  1.
</event>
<event>
 5   0  0.7351590E-06  0.2612826E+04  0.7818609E-02  0.8363858E-01
        1   -1    0    0  501    0  0.00000000000E+00  0.00000000000E+00  0.15247255289E+04  0.15247255289E+04  0.50400001928E-02 0.  1.
       -1   -1    0    0    0  501  0.00000000000E+00  0.00000000000E+00 -0.11193587129E+04  0.11193587129E+04  0.50400001928E-02 0. -1.
    10030    2    1    2    0    0  0.00000000000E+00  0.00000000000E+00  0.40536681600E+03  0.26440842417E+04  0.26128259073E+04 0.  0.
        3    1    3    3  502    0  0.27440040866E+03  0.12119358957E+04  0.61078279334E+03  0.13846081866E+04  0.10100000352E+00 0.  1.
       -3    1    3    3    0  502 -0.27440040866E+03 -0.12119358957E+04 -0.20541597734E+03  0.12594760551E+04  0.10100000352E+00 0. -1.
</event>
<event>
 5   0  0.7348964E-06  0.2761075E+04  0.7818609E-02  0.8315456E-01
        1   -1    0    0  501    0  0.00000000000E+00  0.00000000000E+00  0.19827146149E+04  0.19827146149E+04  0.50400001928E-02 0.  1.
       -1   -1    0    0    0  501  0.00000000000E+00  0.00000000000E+00 -0.96124939692E+03  0.96124939694E+03  0.50400001928E-02 0. -1.
    10030    2    1    2    0    0  0.00000000000E+00  0.00000000000E+00  0.10214652180E+04  0.29439640119E+04  0.27610745936E+04 0.  0.
        1    1    3    3  502    0  0.53393475781E+03 -0.12315745006E+04  0.16684606219E+03  0.13526639215E+04  0.50400001928E-02 0. -1.
       -1    1    3    3    0  502 -0.53393475781E+03  0.12315745006E+04  0.85461915583E+03  0.15913000904E+04  0.50400001928E-02 0.  1.
</event>
<event>
 5   0  0.7351590E-06  0.2650173E+04  0.7818609E-02  0.8351356E-01
       -1   -1    0    0    0  501  0.00000000000E+00  0.00000000000E+00  0.95762225069E+03  0.95762225071E+03  0.50400001928E-02 0. -1.
        1   -1    0    0  501    0  0.00000000000E+00  0.00000000000E+00 -0.18335557626E+04  0.18335557626E+04  0.50400001928E-02 0.  1.
    10030    2    1    2    0    0  0.00000000000E+00  0.00000000000E+00 -0.87593351193E+03  0.27911780133E+04  0.26501726708E+04 0.  0.
        3    1    3    3  502    0 -0.99515104975E+03  0.58305883333E+03 -0.11250338645E+04  0.16112058904E+04  0.10100000352E+00 0.  1.
       -3    1    3    3    0  502  0.99515104975E+03 -0.58305883333E+03  0.24910035257E+03  0.11799721229E+04  0.10100000352E+00 0. -1.
</event>
<event>
 5   0  0.1881699E-05  0.2673279E+04  0.7818609E-02  0.8343727E-01
        2   -1    0    0  501    0  0.00000000000E+00  0.00000000000E+00  0.10666660708E+04  0.10666660708E+04  0.25500000920E-02 0. -1.
       -2   -1    0    0    0  501  0.00000000000E+00  0.00000000000E+00 -0.16749428773E+04  0.16749428773E+04  0.25500000920E-02 0.  1.
    10030    2    1    2    0    0  0.00000000000E+00  0.00000000000E+00 -0.60827680650E+03  0.27416089482E+04  0.26732786894E+04 0.  0.
        4    1    3    3  502    0  0.84673645797E+02  0.11734778824E+04 -0.95468913541E+03  0.15151412228E+04  0.12699999809E+01 0.  1.
       -4    1    3    3    0  502 -0.84673645797E+02 -0.11734778824E+04  0.34641232891E+03  0.12264677254E+04  0.12699999809E+01 0. -1.
</event>
<event>
 5   0  0.1878160E-05  0.2660634E+04  0.7818609E-02  0.8347892E-01
       -2   -1    0    0    0  501  0.00000000000E+00  0.00000000000E+00  0.27782891869E+04  0.27782891869E+04  0.25500000920E-02 0.  1.
        2   -1    0    0  501    0  0.00000000000E+00  0.00000000000E+00 -0.63699051737E+03  0.63699051738E+03  0.25500000920E-02 0. -1.
    10030    2    1    2    0    0  0.00000000000E+00  0.00000000000E+00  0.21412986695E+04  0.34152797043E+04  0.26606344105E+04 0.  0.
        1    1    3    3  502    0  0.12039994643E+03  0.72669320332E+03 -0.35132743674E+03  0.81609443491E+03  0.50400001928E-02 0. -1.
       -1    1    3    3    0  502 -0.12039994643E+03 -0.72669320332E+03  0.24926261063E+04  0.25991852694E+04  0.50400001928E-02 0.  1.
</event>
<event>
 5   0  0.6804685E-06  0.3171234E+04  0.7818609E-02  0.8196456E-01
       -1   -1    0    0    0  501  0.00000000000E+00  0.00000000000E+00  0.12041461844E+04  0.12041461844E+04  0.50400001928E-02 0.  1.
        1   -1    0    0  501    0  0.00000000000E+00  0.00000000000E+00 -0.20879373398E+04  0.20879373398E+04  0.50400001928E-02 0. -1.
    10030    2    1    2    0    0  0.00000000000E+00  0.00000000000E+00 -0.88379115535E+03  0.32920835242E+04  0.31712343219E+04 0.  0.
        2    1    3    3  502    0  0.28974459452E+03 -0.59706105632E+03 -0.19368243358E+04  0.20473696156E+04  0.25500000920E-02 0. -1.
       -2    1    3    3    0  502 -0.28974459452E+03  0.59706105632E+03  0.10530331805E+04  0.12447139086E+04  0.25500000920E-02 0.  1.
</event>
<event>
 5   0  0.6804685E-06  0.2698047E+04  0.7818609E-02  0.8335639E-01
       -1   -1    0    0    0  501  0.00000000000E+00  0.00000000000E+00  0.62358316034E+03  0.62358316036E+03  0.50400001928E-02 0.  1.
        1   -1    0    0  501    0  0.00000000000E+00  0.00000000000E+00 -0.29183989978E+04  0.29183989978E+04  0.50400001928E-02 0. -1.
    10030    2    1    2    0    0  0.00000000000E+00  0.00000000000E+00 -0.22948158374E+04  0.35419821581E+04  0.26980470494E+04 0.  0.
        2    1    3    3  502    0 -0.39873427549E+02  0.44326100428E+03 -0.28192479894E+04  0.28541600225E+04  0.25500000920E-02 0. -1.
       -2    1    3    3    0  502  0.39873427549E+02 -0.44326100428E+03  0.52443215202E+03  0.68782213560E+03  0.25500000920E-02 0.  1.
</event>
<event>
 5   0  0.6175875E-06  0.2674417E+04  0.7818609E-02  0.8343354E-01
       -3   -1    0    0    0  501  0.00000000000E+00  0.00000000000E+00  0.12394339292E+04  0.12394339333E+04  0.10100000352E+00 0.  1.
        3   -1    0    0  501    0  0.00000000000E+00  0.00000000000E+00 -0.14426964724E+04  0.14426964760E+04  0.10100000352E+00 0. -1.
    10030    2    1    2    0    0  0.00000000000E+00  0.00000000000E+00 -0.20326254328E+03  0.26821304093E+04  0.26744172956E+04 0.  0.
        3    1    3    3  502    0  0.26750435561E+03 -0.94587172167E+03  0.80756763303E+03  0.12721624842E+04  0.10100000352E+00 0.  1.
       -3    1    3    3    0  502 -0.26750435561E+03  0.94587172167E+03 -0.10108301763E+04  0.14099679250E+04  0.10100000352E+00 0. -1.
</event>
<event>
 5   0  0.1881699E-05  0.2658385E+04  0.7818609E-02  0.8348635E-01
        2   -1    0    0  501    0  0.00000000000E+00  0.00000000000E+00  0.16275370953E+04  0.16275370953E+04  0.25500000920E-02 0. -1.
       -2   -1    0    0    0  501  0.00000000000E+00  0.00000000000E+00 -0.10855373860E+04  0.10855373860E+04  0.25500000920E-02 0.  1.
    10030    2    1    2    0    0  0.00000000000E+00  0.00000000000E+00  0.54199970927E+03  0.27130744812E+04  0.26583847456E+04 0.  0.
        4    1    3    3  502    0  0.85411773570E+03 -0.66326311756E+03  0.10597615986E+04  0.15141107385E+04  0.12699999809E+01 0. -1.
       -4    1    3    3    0  502 -0.85411773570E+03  0.66326311756E+03 -0.51776188932E+03  0.11989637428E+04  0.12699999809E+01 0.  1.
</event>
<event>
 5   0  0.7351590E-06  0.2705064E+04  0.7818609E-02  0.8333364E-01
        1   -1    0    0  501    0  0.00000000000E+00  0.00000000000E+00  0.78885076926E+03  0.78885076927E+03  0.50400001928E-02 0.  1.
       -1   -1    0    0    0  501  0.00000000000E+00  0.00000000000E+00 -0.23189976153E+04  0.23189976153E+04  0.50400001928E-02 0. -1.
    10030    2    1    2    0    0  0.00000000000E+00  0.00000000000E+00 -0.15301468460E+04  0.31078483846E+04  0.27050641787E+04 0.  0.
        3    1    3    3  502    0  0.10242142708E+03 -0.23114750136E+03 -0.22916082954E+04  0.23055125040E+04  0.10100000352E+00 0. -1.
       -3    1    3    3    0  502 -0.10242142708E+03  0.23114750136E+03  0.76146144941E+03  0.80233588057E+03  0.10100000352E+00 0.  1.
</event>
<event>
 5   0  0.1881699E-05  0.2138190E+04  0.7818609E-02  0.8544604E-01
       -2   -1    0    0    0  501  0.00000000000E+00  0.00000000000E+00  0.12978734857E+04  0.12978734857E+04  0.25500000920E-02 0.  1.
        2   -1    0    0  501    0  0.00000000000E+00  0.00000000000E+00 -0.88064389369E+03  0.88064389369E+03  0.25500000920E-02 0. -1.
    10030    2    1    2    0    0  0.00000000000E+00  0.00000000000E+00  0.41722959200E+03  0.21785173794E+04  0.21381902254E+04 0.  0.
        4    1    3    3  502    0  0.16253434954E+03  0.59036824092E+03  0.11015055311E+04  0.12602651001E+04  0.12699999809E+01 0.  1.
       -4    1    3    3    0  502 -0.16253434954E+03 -0.59036824092E+03 -0.68427593909E+03  0.91825227927E+03  0.12699999809E+01 0. -1.
</event>
<event>
 5   0  0.7351590E-06  0.2691004E+04  0.7818609E-02  0.8337930E-01
        1   -1    0    0  501    0  0.00000000000E+00  0.00000000000E+00  0.12234707968E+04  0.12234707968E+04  0.50400001928E-02 0. -1.
       -1   -1    0    0    0  501  0.00000000000E+00  0.00000000000E+00 -0.14797046937E+04  0.14797046937E+04  0.50400001928E-02 0.  1.
    10030    2    1    2    0    0  0.00000000000E+00  0.00000000000E+00 -0.25623389694E+03  0.27031754906E+04  0.26910038875E+04 0.  0.
        3    1    3    3  502    0  0.11629374084E+04 -0.65000443611E+03 -0.31724036062E+03  0.13695147460E+04  0.10100000352E+00 0. -1.
       -3    1    3    3    0  502 -0.11629374084E+04  0.65000443611E+03  0.61006463680E+02  0.13336607446E+04  0.10100000352E+00 0.  1.
</event>
<event>
 5   0  0.7351590E-06  0.2695186E+04  0.7818609E-02  0.8336569E-01
       -1   -1    0    0    0  501  0.00000000000E+00  0.00000000000E+00  0.15842975785E+04  0.15842975786E+04  0.50400001928E-02 0. -1.
        1   -1    0    0  501    0  0.00000000000E+00  0.00000000000E+00 -0.11462536290E+04  0.11462536290E+04  0.50400001928E-02 0.  1.
    10030    2    1    2    0    0  0.00000000000E+00  0.00000000000E+00  0.43804394958E+03  0.27305512075E+04  0.26951859667E+04 0.  0.
        3    1    3    3  502    0  0.28509916176E+03 -0.21396230085E+03  0.15356691114E+04  0.15764964409E+04  0.10100000352E+00 0. -1.
       -3    1    3    3    0  502 -0.28509916176E+03  0.21396230085E+03 -0.10976251619E+04  0.11540547666E+04  0.10100000352E+00 0.  1.
</event>
<event>
 5   0  0.1881699E-05  0.2609741E+04  0.7818609E-02  0.8364900E-01
       -2   -1    0    0    0  501  0.00000000000E+00  0.00000000000E+00  0.14028348908E+04  0.14028348908E+04  0.25500000920E-02 0. -1.
        2   -1    0    0  501    0  0.00000000000E+00  0.00000000000E+00 -0.12137470267E+04  0.12137470267E+04  0.25500000920E-02 0.  1.
    10030    2    1    2    0    0  0.00000000000E+00  0.00000000000E+00  0.18908786410E+03  0.26165819174E+04  0.26097407362E+04 0.  0.
        4    1    3    3  502    0  0.67682633581E+03  0.89052562369E+03 -0.57919623210E+03  0.12596029785E+04  0.12699999809E+01 0.  1.
       -4    1    3    3    0  502 -0.67682633581E+03 -0.89052562369E+03  0.76828409620E+03  0.13569789389E+04  0.12699999809E+01 0. -1.
</event>
<event>
 5   0  0.1878160E-05  0.2687224E+04  0.7818609E-02  0.8339162E-01
        2   -1    0    0  501    0  0.00000000000E+00  0.00000000000E+00  0.24317271320E+04  0.24317271320E+04  0.25500000920E-02 0. -1.
       -2   -1    0    0    0  501  0.00000000000E+00  0.00000000000E+00 -0.74239152836E+03  0.74239152836E+03  0.25500000920E-02 0.  1.
    10030    2    1    2    0    0  0.00000000000E+00  0.00000000000E+00  0.16893356036E+04  0.31741186603E+04  0.26872243093E+04 0.  0.
        1    1    3    3  502    0  0.12874641142E+04 -0.20056815291E+03  0.45738527768E+03  0.13809390723E+04  0.50400001928E-02 0.  1.
       -1    1    3    3    0  502 -0.12874641142E+04  0.20056815291E+03  0.12319503259E+04  0.17931795880E+04  0.50400001928E-02 0. -1.
</event>
<event>
 5   0  0.1788003E-05  0.2695897E+04  0.7818609E-02  0.8336337E-01
        2   -1    0    0  501    0  0.00000000000E+00  0.00000000000E+00  0.21935162808E+04  0.21935162808E+04  0.25500000920E-02 0. -1.
       -2   -1    0    0    0  501  0.00000000000E+00  0.00000000000E+00 -0.82833448519E+03  0.82833448519E+03  0.25500000920E-02 0.  1.
    10030    2    1    2    0    0  0.00000000000E+00  0.00000000000E+00  0.13651817956E+04  0.30218507660E+04  0.26958970152E+04 0.  0.
        2    1    3    3  502    0  0.71148477940E+03  0.11141469582E+04  0.97794762938E+03  0.16443587205E+04  0.25500000920E-02 0.  1.
       -2    1    3    3    0  502 -0.71148477940E+03 -0.11141469582E+04  0.38723416621E+03  0.13774920455E+04  0.25500000920E-02 0. -1.
</event>
<event>
 5   0  0.1881699E-05  0.2368069E+04  0.7818609E-02  0.8451556E-01
       -2   -1    0    0    0  501  0.00000000000E+00  0.00000000000E+00  0.13879011813E+04  0.13879011813E+04  0.25500000920E-02 0. -1.
        2   -1    0    0  501    0  0.00000000000E+00  0.00000000000E+00 -0.10101137230E+04  0.10101137230E+04  0.25500000920E-02 0.  1.
    10030    2    1    2    0    0  0.00000000000E+00  0.00000000000E+00  0.37778745825E+03  0.23980149043E+04  0.23680692806E+04 0.  0.
        4    1    3    3  502    0 -0.64252185205E+03 -0.73109329720E+03 -0.49387626014E+03  0.10914426750E+04  0.12699999809E+01 0.  1.
       -4    1    3    3    0  502  0.64252185205E+03  0.73109329720E+03  0.87166371840E+03  0.13065722293E+04  0.12699999809E+01 0. -1.
</event>
<event>
 5   0  0.7348964E-06  0.2444153E+04  0.7818609E-02  0.8423156E-01
       -1   -1    0    0    0  501  0.00000000000E+00  0.00000000000E+00  0.12682544261E+04  0.12682544262E+04  0.50400001928E-02 0.  1.
        1   -1    0    0  501    0  0.00000000000E+00  0.00000000000E+00 -0.11775801056E+04  0.11775801056E+04  0.50400001928E-02 0. -1.
    10030    2    1    2    0    0  0.00000000000E+00  0.00000000000E+00  0.90674320536E+02  0.24458345318E+04  0.24441531712E+04 0.  0.
        1    1    3    3  502    0 -0.44244207723E+03 -0.11525885781E+03  0.11794444492E+04  0.12649619776E+04  0.50400001928E-02 0.  1.
       -1    1    3    3    0  502  0.44244207723E+03  0.11525885781E+03 -0.10887701287E+04  0.11808725542E+04  0.50400001928E-02 0. -1.
</event>
<event>
 5   0  0.7351590E-06  0.2722575E+04  0.7818609E-02  0.8327717E-01
        1   -1    0    0  501    0  0.00000000000E+00  0.00000000000E+00  0.19381026735E+04  0.19381026735E+04  0.50400001928E-02 0. -1.
       -1   -1    0    0    0  501  0.00000000000E+00  0.00000000000E+00 -0.95614296916E+03  0.95614296918E+03  0.50400001928E-02 0.  1.
    10030    2    1    2    0    0  0.00000000000E+00  0.00000000000E+00  0.98195970433E+03  0.28942456427E+04  0.27225746967E+04 0.  0.
        3    1    3    3  502    0 -0.44095564058E+03  0.91127564961E+03  0.14584401974E+04  0.17753627815E+04  0.10100000352E+00 0. -1.
       -3    1    3    3    0  502  0.44095564058E+03 -0.91127564961E+03 -0.47648049304E+03  0.11188828611E+04  0.10100000352E+00 0.  1.
</event>
<event>
 5   0  0.1788003E-05  0.2648070E+04  0.7818609E-02  0.8352054E-01
        2   -1    0    0  501    0  0.00000000000E+00  0.00000000000E+00  0.16578718287E+04  0.16578718287E+04  0.25500000920E-02 0. -1.
       -2   -1    0    0    0  501  0.00000000000E+00  0.00000000000E+00 -0.10574208889E+04  0.10574208889E+04  0.25500000920E-02 0.  1.
    10030    2    1    2    0    0  0.00000000000E+00  0.00000000000E+00  0.60045093978E+03  0.27152927176E+04  0.26480697142E+04 0.  0.
        2    1    3    3  502    0 -0.87539384615E+03 -0.14733246384E+03 -0.70708068349E+03  0.11348939747E+04  0.25500000920E-02 0.  1.
       -2    1    3    3    0  502  0.87539384615E+03  0.14733246384E+03  0.13075316233E+04  0.15803987429E+04  0.25500000920E-02 0. -1.
</event>
<event>
 5   0  0.6804685E-06  0.2676241E+04  0.7818609E-02  0.8342755E-01
        1   -1    0    0  501    0  0.00000000000E+00  0.00000000000E+00  0.12421427777E+04  0.12421427777E+04  0.50400001928E-02 0. -1.
       -1   -1    0    0    0  501  0.00000000000E+00  0.00000000000E+00 -0.14415141063E+04  0.14415141063E+04  0.50400001928E-02 0.  1.
    10030    2    1    2    0    0  0.00000000000E+00  0.00000000000E+00 -0.19937132856E+03  0.26836568840E+04  0.26762408981E+04 0.  0.
        2    1    3    3  502    0 -0.84910015089E+03 -0.18555439080E+03  0.92056418987E+03  0.12660331456E+04  0.25500000920E-02 0. -1.
       -2    1    3    3    0  502  0.84910015089E+03  0.18555439080E+03 -0.11199355184E+04  0.14176237384E+04  0.25500000920E-02 0.  1.
</event>
<event>
 5   0  0.7754912E-06  0.2366175E+04  0.7818609E-02  0.8452277E-01
        1   -1    0    0  501    0  0.00000000000E+00  0.00000000000E+00  0.10621228195E+04  0.10621228195E+04  0.50400001928E-02 0.  1.
       -1   -1    0    0    0  501  0.00000000000E+00  0.00000000000E+00 -0.13178283607E+04  0.13178283607E+04  0.50400001928E-02 0. -1.
    10030    2    1    2    0    0  0.00000000000E+00  0.00000000000E+00 -0.25570554120E+03  0.23799511802E+04  0.23661746124E+04 0.  0.
        4    1    3    3  502    0 -0.10334768274E+03  0.11146025594E+04 -0.51306347554E+03  0.12313632087E+04  0.12699999809E+01 0.  1.
       -4    1    3    3    0  502  0.10334768274E+03 -0.11146025594E+04  0.25735793433E+03  0.11485879715E+04  0.12699999809E+01 0. -1.
</event>
<event>
 5   0  0.7754912E-06  0.2715240E+04  0.7818609E-02  0.8330077E-01
       -1   -1    0    0    0  501  0.00000000000E+00  0.00000000000E+00  0.15298441766E+04  0.15298441766E+04  0.50400001928E-02 0. -1.
        1   -1    0    0  501    0  0.00000000000E+00  0.00000000000E+00 -0.12047839337E+04  0.12047839337E+04  0.50400001928E-02 0.  1.
    10030    2    1    2    0    0  0.00000000000E+00  0.00000000000E+00  0.32506024293E+03  0.27346281104E+04  0.27152397206E+04 0.  0.
        4    1    3    3  502    0 -0.13119052027E+04 -0.27512553020E+03  0.37933629430E+03  0.13930854085E+04  0.12699999809E+01 0. -1.
       -4    1    3    3    0  502  0.13119052027E+04  0.27512553020E+03 -0.54276051379E+02  0.13415427019E+04  0.12699999809E+01 0.  1.
</event>
<event>
 5   0  0.1788003E-05  0.2717313E+04  0.7818609E-02  0.8329409E-01
        2   -1    0    0  501    0  0.00000000000E+00  0.00000000000E+00  0.18367764823E+04  0.18367764823E+04  0.25500000920E-02 0. -1.
       -2   -1    0    0    0  501  0.00000000000E+00  0.00000000000E+00 -0.10049930796E+04  0.10049930796E+04  0.25500000920E-02 0.  1.
    10030    2    1    2    0    0  0.00000000000E+00  0.00000000000E+00  0.83178340263E+03  0.28417695619E+04  0.27173131240E+04 0.  0.
        2    1    3    3  502    0 -0.92916465369E+03  0.18562369001E+03  0.14342167986E+04  0.17189476238E+04  0.25500000920E-02 0. -1.
       -2    1    3    3    0  502  0.92916465369E+03 -0.18562369001E+03 -0.60243339601E+03  0.11228219381E+04  0.25500000920E-02 0.  1.
</event>
<event>
 5   0  0.7348964E-06  0.2431981E+04  0.7818609E-02  0.8427626E-01
       -1   -1    0    0    0  501  0.00000000000E+00  0.00000000000E+00  0.84266097156E+03  0.84266097157E+03  0.50400001928E-02 0.  1.
        1   -1    0    0  501    0  0.00000000000E+00  0.00000000000E+00 -0.17547190237E+04  0.17547190237E+04  0.50400001928E-02 0. -1.
    10030    2    1    2    0    0  0.00000000000E+00  0.00000000000E+00 -0.91205805212E+03  0.25973799953E+04  0.24319812806E+04 0.  0.
        1    1    3    3  502    0  0.51970396924E+03 -0.81746923958E+03 -0.12410599132E+04  0.15743499869E+04  0.50400001928E-02 0. -1.
       -1    1    3    3    0  502 -0.51970396924E+03  0.81746923958E+03  0.32900186106E+03  0.10230300083E+04  0.50400001928E-02 0.  1.
</event>
<event>
 5   0  0.1788003E-05  0.2695727E+04  0.7818609E-02  0.8336393E-01
        2   -1    0    0  501    0  0.00000000000E+00  0.00000000000E+00  0.16486842828E+04  0.16486842828E+04  0.25500000920E-02 0. -1.
       -2   -1    0    0    0  501  0.00000000000E+00  0.00000000000E+00 -0.11019304686E+04  0.11019304686E+04  0.25500000920E-02 0.  1.
    10030    2    1    2    0    0  0.00000000000E+00  0.00000000000E+00  0.54675381419E+03  0.27506147513E+04  0.26957265768E+04 0.  0.
        2    1    3    3  502    0 -0.40570423042E+03 -0.11483472596E+04  0.86257527368E+03  0.14924253596E+04  0.25500000920E-02 0. -1.
       -2    1    3    3    0  502  0.40570423042E+03  0.11483472596E+04 -0.31582145949E+03  0.12581893917E+04  0.25500000920E-02 0.  1.
</event>
<event>
 5   0  0.1788003E-05  0.2577779E+04  0.7818609E-02  0.8375788E-01
       -2   -1    0    0    0  501  0.00000000000E+00  0.00000000000E+00  0.20671080635E+04  0.20671080635E+04  0.25500000920E-02 0. -1.
        2   -1    0    0  501    0  0.00000000000E+00  0.00000000000E+00 -0.80365256309E+03  0.80365256310E+03  0.25500000920E-02 0.  1.
    10030    2    1    2    0    0  0.00000000000E+00  0.00000000000E+00  0.12634555004E+04  0.28707606266E+04  0.25777794269E+04 0.  0.
        2    1    3    3  502    0 -0.72250107719E+03  0.10622032612E+04  0.51517564393E+03  0.13840843612E+04  0.25500000920E-02 0.  1.
       -2    1    3    3    0  502  0.72250107719E+03 -0.10622032612E+04  0.74827985651E+03  0.14866762655E+04  0.25500000920E-02 0. -1.
</event>
<event>
 5   0  0.1788003E-05  0.2665090E+04  0.7818609E-02  0.8346422E-01
        2   -1    0    0  501    0  0.00000000000E+00  0.00000000000E+00  0.15771858380E+04  0.15771858380E+04  0.25500000920E-02 0.  1.
       -2   -1    0    0    0  501  0.00000000000E+00  0.00000000000E+00 -0.11258506174E+04  0.11258506174E+04  0.25500000920E-02 0. -1.
    10030    2    1    2    0    0  0.00000000000E+00  0.00000000000E+00  0.45133522068E+03  0.27030364554E+04  0.26650896041E+04 0.  0.
        2    1    3    3  502    0  0.65849542215E+03 -0.74343474333E+03 -0.67544445313E+03  0.12010564715E+04  0.25500000920E-02 0. -1.
       -2    1    3    3    0  502 -0.65849542215E+03  0.74343474333E+03  0.11267796738E+04  0.15019799839E+04  0.25500000920E-02 0.  1.
</event>
<event>
 5   0  0.1878160E-05  0.2709974E+04  0.7818609E-02  0.8331776E-01
        2   -1    0    0  501    0  0.00000000000E+00  0.00000000000E+00  0.22160044971E+04  0.22160044971E+04  0.25500000920E-02 0.  1.
       -2   -1    0    0    0  501  0.00000000000E+00  0.00000000000E+00 -0.82851341260E+03  0.82851341261E+03  0.25500000920E-02 0. -1.
    10030    2    1    2    0    0  0.00000000000E+00  0.00000000000E+00  0.13874910845E+04  0.30445179097E+04  0.27099737624E+04 0.  0.
        1    1    3    3  502    0 -0.59333685663E+02  0.95387969818E+03 -0.38534043616E+03  0.10304825164E+04  0.50400001928E-02 0. -1.
       -1    1    3    3    0  502  0.59333685663E+02 -0.95387969818E+03  0.17728315207E+04  0.20140353933E+04  0.50400001928E-02 0.  1.
</event>
<event>
 5   0  0.6804685E-06  0.2701740E+04  0.7818609E-02  0.8334440E-01
        1   -1    0    0  501    0  0.00000000000E+00  0.00000000000E+00  0.15865370417E+04  0.15865370418E+04  0.50400001928E-02 0.  1.
       -1   -1    0    0    0  501  0.00000000000E+00  0.00000000000E+00 -0.11502097142E+04  0.11502097143E+04  0.50400001928E-02 0. -1.
    10030    2    1    2    0    0  0.00000000000E+00  0.00000000000E+00  0.43632732751E+03  0.27367467560E+04  0.27017404150E+04 0.  0.
        2    1    3    3  502    0 -0.57006364433E+03  0.21529718074E+03 -0.10030797316E+04  0.11736670663E+04  0.25500000920E-02 0. -1.
       -2    1    3    3    0  502  0.57006364433E+03 -0.21529718074E+03  0.14394070591E+04  0.15630796897E+04  0.25500000920E-02 0.  1.
</event>
<event>
 5   0  0.1881699E-05  0.2666300E+04  0.7818609E-02  0.8346023E-01
       -2   -1    0    0    0  501  0.00000000000E+00  0.00000000000E+00  0.11526271967E+04  0.11526271967E+04  0.25500000920E-02 0. -1.
        2   -1    0    0  501    0  0.00000000000E+00  0.00000000000E+00 -0.15419456172E+04  0.15419456172E+04  0.25500000920E-02 0.  1.
    10030    2    1    2    0    0  0.00000000000E+00  0.00000000000E+00 -0.38931842046E+03  0.26945728139E+04  0.26662996487E+04 0.  0.
        4    1    3    3  502    0 -0.10705687867E+04 -0.70922904814E+02  0.60502115848E+03  0.12317466463E+04  0.12699999809E+01 0. -1.
       -4    1    3    3    0  502  0.10705687867E+04  0.70922904814E+02 -0.99433957894E+03  0.14628261676E+04  0.12699999809E+01 0.  1.
</event>
<event>
 5   0  0.1826851E-05  0.2733605E+04  0.7818609E-02  0.8324183E-01
       -2   -1    0    0    0  501  0.00000000000E+00  0.00000000000E+00  0.88993607581E+03  0.88993607581E+03  0.25500000920E-02 0. -1.
        2   -1    0    0  501    0  0.00000000000E+00  0.00000000000E+00 -0.20991939498E+04  0.20991939498E+04  0.25500000920E-02 0.  1.
    10030    2    1    2    0    0  0.00000000000E+00  0.00000000000E+00 -0.12092578740E+04  0.29891300256E+04  0.27336045259E+04 0.  0.
        5    1    3    3  502    0 -0.64860797436E+03 -0.10798616958E+04 -0.11846172835E+04  0.17292003311E+04  0.46999998093E+01 0.  1.
       -5    1    3    3    0  502  0.64860797436E+03  0.10798616958E+04 -0.24640590467E+02  0.12599296946E+04  0.46999998093E+01 0. -1.
</event>
<event>
 5   0  0.7600052E-06  0.2744622E+04  0.7818609E-02  0.8320670E-01
        1   -1    0    0  501    0  0.00000000000E+00  0.00000000000E+00  0.11504067120E+04  0.11504067120E+04  0.50400001928E-02 0. -1.
       -1   -1    0    0    0  501  0.00000000000E+00  0.00000000000E+00 -0.16370189843E+04  0.16370189843E+04  0.50400001928E-02 0.  1.
    10030    2    1    2    0    0  0.00000000000E+00  0.00000000000E+00 -0.48661227233E+03  0.27874256963E+04  0.27446221068E+04 0.  0.
        5    1    3    3  502    0  0.11851731579E+04  0.18561789837E+03 -0.92012725184E+03  0.15118682707E+04  0.46999998093E+01 0.  1.
       -5    1    3    3    0  502 -0.11851731579E+04 -0.18561789837E+03  0.43351497951E+03  0.12755574256E+04  0.46999998093E+01 0. -1.
</event>
<event>
 5   0  0.1826851E-05  0.2670079E+04  0.7818609E-02  0.8344779E-01
       -2   -1    0    0    0  501  0.00000000000E+00  0.00000000000E+00  0.81068071182E+03  0.81068071183E+03  0.25500000920E-02 0.  1.
        2   -1    0    0  501    0  0.00000000000E+00  0.00000000000E+00 -0.21985602442E+04  0.21985602442E+04  0.25500000920E-02 0. -1.
    10030    2    1    2    0    0  0.00000000000E+00  0.00000000000E+00 -0.13878795323E+04  0.30092409560E+04  0.26700789380E+04 0.  0.
        5    1    3    3  502    0  0.66295914086E+03 -0.28186030028E+03  0.57282041425E+03  0.92038327250E+03  0.46999998093E+01 0.  1.
       -5    1    3    3    0  502 -0.66295914086E+03  0.28186030028E+03 -0.19606999466E+04  0.20888576835E+04  0.46999998093E+01 0. -1.
</event>
<event>
 5   0  0.7600052E-06  0.2728891E+04  0.7818609E-02  0.8325691E-01
        1   -1    0    0  501    0  0.00000000000E+00  0.00000000000E+00  0.16600349755E+04  0.16600349755E+04  0.50400001928E-02 0. -1.
       -1   -1    0    0    0  501  0.00000000000E+00  0.00000000000E+00 -0.11214893485E+04  0.11214893485E+04  0.50400001928E-02 0.  1.
    10030    2    1    2    0    0  0.00000000000E+00  0.00000000000E+00  0.53854562697E+03  0.27815243240E+04  0.27288910151E+04 0.  0.
        5    1    3    3  502    0  0.21211052927E+02 -0.13201590137E+04 -0.81486079518E+02  0.13228498787E+04  0.46999998093E+01 0.  1.
       -5    1    3    3    0  502 -0.21211052927E+02  0.13201590137E+04  0.62003170649E+03  0.14586744453E+04  0.46999998093E+01 0. -1.
</event>
<event>
 5   0  0.1826851E-05  0.2702477E+04  0.7818609E-02  0.8334202E-01
        2   -1    0    0  501    0  0.00000000000E+00  0.00000000000E+00  0.92276341717E+03  0.92276341717E+03  0.25500000920E-02 0. -1.
       -2   -1    0    0    0  501  0.00000000000E+00  0.00000000000E+00 -0.19786719794E+04  0.19786719794E+04  0.25500000920E-02 0.  1.
    10030    2    1    2    0    0  0.00000000000E+00  0.00000000000E+00 -0.10559085622E+04  0.29014353966E+04  0.27024774687E+04 0.  0.
        5    1    3    3  502    0  0.10371285745E+04  0.85697881393E+03 -0.39310625711E+03  0.14016429599E+04  0.46999998093E+01 0.  1.
       -5    1    3    3    0  502 -0.10371285745E+04 -0.85697881393E+03 -0.66280230514E+03  0.14997924367E+04  0.46999998093E+01 0. -1.
</event>
<event>
 5   0  0.1788003E-05  0.2710226E+04  0.7818609E-02  0.8331694E-01
        2   -1    0    0  501    0  0.00000000000E+00  0.00000000000E+00  0.12109170904E+04  0.12109170904E+04  0.25500000920E-02 0. -1.
       -2   -1    0    0    0  501  0.00000000000E+00  0.00000000000E+00 -0.15164803018E+04  0.15164803018E+04  0.25500000920E-02 0.  1.
    10030    2    1    2    0    0  0.00000000000E+00  0.00000000000E+00 -0.30556321137E+03  0.27273973922E+04  0.27102264959E+04 0.  0.
        2    1    3    3  502    0 -0.70954292113E+03  0.97143705116E+03 -0.78058567220E+03  0.14340345508E+04  0.25500000920E-02 0.  1.
       -2    1    3    3    0  502  0.70954292113E+03 -0.97143705116E+03  0.47502246084E+03  0.12933628414E+04  0.25500000920E-02 0. -1.
</event>
<event>
 5   0  0.7348964E-06  0.2716124E+04  0.7818609E-02  0.8329792E-01
        1   -1    0    0  501    0  0.00000000000E+00  0.00000000000E+00  0.14340295474E+04  0.14340295474E+04  0.50400001928E-02 0.  1.
       -1   -1    0    0    0  501  0.00000000000E+00  0.00000000000E+00 -0.12861185881E+04  0.12861185881E+04  0.50400001928E-02 0. -1.
    10030    2    1    2    0    0  0.00000000000E+00  0.00000000000E+00  0.14791095930E+03  0.27201481355E+04  0.27161237503E+04 0.  0.
        1    1    3    3  502    0  0.51717279944E+03  0.11078188803E+04  0.66610278666E+03  0.13922727098E+04  0.50400001928E-02 0.  1.
       -1    1    3    3    0  502 -0.51717279944E+03 -0.11078188803E+04 -0.51819182736E+03  0.13278754256E+04  0.50400001928E-02 0. -1.
</event>
<event>
 5   0  0.7351590E-06  0.2677335E+04  0.7818609E-02  0.8342397E-01
       -1   -1    0    0    0  501  0.00000000000E+00  0.00000000000E+00  0.13003638491E+04  0.13003638491E+04  0.50400001928E-02 0. -1.
        1   -1    0    0  501    0  0.00000000000E+00  0.00000000000E+00 -0.13780989739E+04  0.13780989739E+04  0.50400001928E-02 0.  1.
    10030    2    1    2    0    0  0.00000000000E+00  0.00000000000E+00 -0.77735124772E+02  0.26784628230E+04  0.26773345597E+04 0.  0.
        3    1    3    3  502    0 -0.40943353797E+03 -0.57133530739E+03  0.11008975072E+04  0.13061528191E+04  0.10100000352E+00 0. -1.
       -3    1    3    3    0  502  0.40943353797E+03  0.57133530739E+03 -0.11786326319E+04  0.13723100039E+04  0.10100000352E+00 0.  1.
</event>
<event>
 5   0  0.1881699E-05  0.2706735E+04  0.7818609E-02  0.8332823E-01
       -2   -1    0    0    0  501  0.00000000000E+00  0.00000000000E+00  0.13106040154E+04  0.13106040154E+04  0.25500000920E-02 0.  1.
        2   -1    0    0  501    0  0.00000000000E+00  0.00000000000E+00 -0.13975265615E+04  0.13975265615E+04  0.25500000920E-02 0. -1.
    10030    2    1    2    0    0  0.00000000000E+00  0.00000000000E+00 -0.86922546119E+02  0.27081305768E+04  0.27067352460E+04 0.  0.
        4    1    3    3  502    0  0.51180805091E+03  0.10363085170E+04 -0.74789772045E+03  0.13766755016E+04  0.12699999809E+01 0. -1.
       -4    1    3    3    0  502 -0.51180805091E+03 -0.10363085170E+04  0.66097517433E+03  0.13314550753E+04  0.12699999809E+01 0.  1.
</event>
<event>
 5   0  0.1881699E-05  0.2621373E+04  0.7818609E-02  0.8360977E-01
       -2   -1    0    0    0  501  0.00000000000E+00  0.00000000000E+00  0.64881270936E+03  0.64881270937E+03  0.25500000920E-02 0. -1.
        2   -1    0    0  501    0  0.00000000000E+00  0.00000000000E+00 -0.26477582191E+04  0.26477582191E+04  0.25500000920E-02 0.  1.
    10030    2    1    2    0    0  0.00000000000E+00  0.00000000000E+00 -0.19989455098E+04  0.32965709285E+04  0.26213730630E+04 0.  0.
        4    1    3    3  502    0 -0.92629716277E+03 -0.20067879337E+03 -0.21379761869E+04  0.23386411012E+04  0.12699999809E+01 0.  1.
       -4    1    3    3    0  502  0.92629716277E+03  0.20067879337E+03  0.13903067710E+03  0.95792982726E+03  0.12699999809E+01 0. -1.
</event>
<event>
 5   0  0.1878160E-05  0.2603713E+04  0.7818609E-02  0.8366941E-01
       -2   -1    0    0    0  501  0.00000000000E+00  0.00000000000E+00  0.11322830339E+04  0.11322830339E+04  0.25500000920E-02 0. -1.
        2   -1    0    0  501    0  0.00000000000E+00  0.00000000000E+00 -0.14968255406E+04  0.14968255406E+04  0.25500000920E-02 0.  1.
    10030    2    1    2    0    0  0.00000000000E+00  0.00000000000E+00 -0.36454250671E+03  0.26291085744E+04  0.26037128599E+04 0.  0.
        1    1    3    3  502    0 -0.28503425144E+03 -0.12669900765E+04 -0.27438484117E+03  0.13273264179E+04  0.50400001928E-02 0.  1.
       -1    1    3    3    0  502  0.28503425144E+03  0.12669900765E+04 -0.90157665539E+02  0.13017821566E+04  0.50400001928E-02 0. -1.
</event>
<event>
 5   0  0.6175875E-06  0.2717314E+04  0.7818609E-02  0.8329409E-01
       -4   -1    0    0    0  501  0.00000000000E+00  0.00000000000E+00  0.22532559988E+04  0.22532563567E+04  0.12699999809E+01 0.  1.
        4   -1    0    0  501    0  0.00000000000E+00  0.00000000000E+00 -0.81923553169E+03  0.81923651609E+03  0.12699999809E+01 0. -1.
    10030    2    1    2    0    0  0.00000000000E+00  0.00000000000E+00  0.14340204671E+04  0.30724928728E+04  0.27173144377E+04 0.  0.
        3    1    3    3  502    0 -0.10465973348E+02 -0.60327627461E+03 -0.65943865449E+03  0.89381829771E+03  0.10100000352E+00 0. -1.
       -3    1    3    3    0  502  0.10465973348E+02  0.60327627461E+03  0.20934591216E+04  0.21786745751E+04  0.10100000352E+00 0.  1.
</event>
<event>
 5   0  0.7351590E-06  0.2596515E+04  0.7818609E-02  0.8369386E-01
       -1   -1    0    0    0  501  0.00000000000E+00  0.00000000000E+00  0.20535563053E+04  0.20535563053E+04  0.50400001928E-02 0. -1.
        1   -1    0    0  501    0  0.00000000000E+00  0.00000000000E+00 -0.82075785152E+03  0.82075785154E+03  0.50400001928E-02 0.  1.
    10030    2    1    2    0    0  0.00000000000E+00  0.00000000000E+00  0.12327984538E+04  0.28743141568E+04  0.25965149421E+04 0.  0.
        3    1    3    3  502    0 -0.10732624233E+04 -0.60015133871E+03  0.10773623586E+04  0.16348649854E+04  0.10100000352E+00 0. -1.
       -3    1    3    3    0  502  0.10732624233E+04  0.60015133871E+03  0.15543609516E+03  0.12394491714E+04  0.10100000352E+00 0.  1.
</event>
<event>
 5   0  0.7348964E-06  0.2676204E+04  0.7818609E-02  0.8342767E-01
       -1   -1    0    0    0  501  0.00000000000E+00  0.00000000000E+00  0.15983702622E+04  0.15983702622E+04  0.50400001928E-02 0. -1.
        1   -1    0    0  501    0  0.00000000000E+00  0.00000000000E+00 -0.11202145040E+04  0.11202145040E+04  0.50400001928E-02 0.  1.
    10030    2    1    2    0    0  0.00000000000E+00  0.00000000000E+00  0.47815575820E+03  0.27185847661E+04  0.26762044394E+04 0.  0.
        1    1    3    3  502    0 -0.39700312726E+03 -0.12272319466E+04 -0.12266217930E+03  0.12956680687E+04  0.50400001928E-02 0.  1.
       -1    1    3    3    0  502  0.39700312726E+03  0.12272319466E+04  0.60081793750E+03  0.14229166975E+04  0.50400001928E-02 0. -1.
</event>
<event>
 5   0  0.1788003E-05  0.2688229E+04  0.7818609E-02  0.8338834E-01
        2   -1    0    0  501    0  0.00000000000E+00  0.00000000000E+00  0.16465453446E+04  0.16465453447E+04  0.25500000920E-02 0. -1.
       -2   -1    0    0    0  501  0.00000000000E+00  0.00000000000E+00 -0.10972333473E+04  0.10972333473E+04  0.25500000920E-02 0.  1.
    10030    2    1    2    0    0  0.00000000000E+00  0.00000000000E+00  0.54931199730E+03  0.27437786920E+04  0.26882294992E+04 0.  0.
        2    1    3    3  502    0 -0.46768499316E+03  0.22318901019E+03  0.15404857156E+04  0.16253119169E+04  0.25500000920E-02 0. -1.
       -2    1    3    3    0  502  0.46768499316E+03 -0.22318901019E+03 -0.99117371834E+03  0.11184667751E+04  0.25500000920E-02 0.  1.
</event>
<event>
 5   0  0.7600052E-06  0.2735534E+04  0.7818609E-02  0.8323567E-01
        1   -1    0    0  501    0  0.00000000000E+00  0.00000000000E+00  0.23355700756E+04  0.23355700756E+04  0.50400001928E-02 0.  1.
       -1   -1    0    0    0  501  0.00000000000E+00  0.00000000000E+00 -0.80099774433E+03  0.80099774435E+03  0.50400001928E-02 0. -1.
    10030    2    1    2    0    0  0.00000000000E+00  0.00000000000E+00  0.15345723313E+04  0.31365678200E+04  0.27355338509E+04 0.  0.
        5    1    3    3  502    0 -0.10327143060E+04  0.46704413394E+03 -0.11054600980E+03  0.11388026919E+04  0.46999998093E+01 0. -1.
       -5    1    3    3    0  502  0.10327143060E+04 -0.46704413394E+03  0.16451183411E+04  0.19977651281E+04  0.46999998093E+01 0.  1.
</event>
<event>
 5   0  0.7351590E-06  0.2650417E+04  0.7818609E-02  0.8351275E-01
        1   -1    0    0  501    0  0.00000000000E+00  0.00000000000E+00  0.13128302740E+04  0.13128302740E+04  0.50400001928E-02 0.  1.
       -1   -1    0    0    0  501  0.00000000000E+00  0.00000000000E+00 -0.13377035703E+04  0.13377035703E+04  0.50400001928E-02 0. -1.
    10030    2    1    2    0    0  0.00000000000E+00  0.00000000000E+00 -0.24873296309E+02  0.26505338443E+04  0.26504171330E+04 0.  0.
        3    1    3    3  502    0 -0.52367183394E+03 -0.28300772424E+03 -0.11964871694E+04  0.13363783590E+04  0.10100000352E+00 0. -1.
       -3    1    3    3    0  502  0.52367183394E+03  0.28300772424E+03  0.11716138731E+04  0.13141554853E+04  0.10100000352E+00 0.  1.
</event>
<event>
 5   0  0.6804685E-06  0.2709582E+04  0.7818609E-02  0.8331902E-01
       -1   -1    0    0    0  501  0.00000000000E+00  0.00000000000E+00  0.13288813617E+04  0.13288813617E+04  0.50400001928E-02 0. -1.
        1   -1    0    0  501    0  0.00000000000E+00  0.00000000000E+00 -0.13812062902E+04  0.13812062902E+04  0.50400001928E-02 0.  1.
    10030    2    1    2    0    0  0.00000000000E+00  0.00000000000E+00 -0.52324928509E+02  0.27100876520E+04  0.27095824740E+04 0.  0.
        2    1    3    3  502    0  0.12665437646E+04  0.33521187286E+03  0.31880644809E+03  0.13483833500E+04  0.25500000920E-02 0. -1.
       -2    1    3    3    0  502 -0.12665437646E+04 -0.33521187286E+03 -0.37113137660E+03  0.13617043019E+04  0.25500000920E-02 0.  1.
</event>
<event>
 5   0  0.1788003E-05  0.2719928E+04  0.7818609E-02  0.8328568E-01
        2   -1    0    0  501    0  0.00000000000E+00  0.00000000000E+00  0.78070248924E+03  0.78070248925E+03  0.25500000920E-02 0. -1.
       -2   -1    0    0    0  501  0.00000000000E+00  0.00000000000E+00 -0.23690227745E+04  0.23690227745E+04  0.25500000920E-02 0.  1.
    10030    2    1    2    0    0  0.00000000000E+00  0.00000000000E+00 -0.15883202853E+04  0.31497252638E+04  0.27199279234E+04 0.  0.
        2    1    3    3  502    0 -0.37380030688E+03 -0.15870997683E+03 -0.22971703499E+04  0.23327895624E+04  0.25500000920E-02 0.  1.
       -2    1    3    3    0  502  0.37380030688E+03  0.15870997683E+03  0.70885006456E+03  0.81693570139E+03  0.25500000920E-02 0. -1.
</event>
<event>
 5   0  0.1826851E-05  0.2688506E+04  0.7818609E-02  0.8338744E-01
       -2   -1    0    0    0  501  0.00000000000E+00  0.00000000000E+00  0.86966529121E+03  0.86966529121E+03  0.25500000920E-02 0.  1.
        2   -1    0    0  501    0  0.00000000000E+00  0.00000000000E+00 -0.20778289560E+04  0.20778289560E+04  0.25500000920E-02 0. -1.
    10030    2    1    2    0    0  0.00000000000E+00  0.00000000000E+00 -0.12081636648E+04  0.29474942473E+04  0.26885056996E+04 0.  0.
        5    1    3    3  502    0 -0.11680958688E+04 -0.64522461935E+03 -0.78164313398E+03  0.15465286441E+04  0.46999998093E+01 0.  1.
       -5    1    3    3    0  502  0.11680958688E+04  0.64522461935E+03 -0.42652053085E+03  0.14009656032E+04  0.46999998093E+01 0. -1.
</event>
<event>
 5   0  0.7600052E-06  0.2697533E+04  0.7818609E-02  0.8335806E-01
        1   -1    0    0  501    0  0.00000000000E+00  0.00000000000E+00  0.13302645917E+04  0.13302645917E+04  0.50400001928E-02 0. -1.
       -1   -1    0    0    0  501  0.00000000000E+00  0.00000000000E+00 -0.13675255808E+04  0.13675255808E+04  0.50400001928E-02 0.  1.
    10030    2    1    2    0    0  0.00000000000E+00  0.00000000000E+00 -0.37260989097E+02  0.26977901724E+04  0.26975328419E+04 0.  0.
        5    1    3    3  502    0 -0.27809490675E+03  0.12073367132E+04 -0.55173861445E+03  0.13562581999E+04  0.46999998093E+01 0.  1.
       -5    1    3    3    0  502  0.27809490675E+03 -0.12073367132E+04  0.51447762536E+03  0.13415319725E+04  0.46999998093E+01 0. -1.
</event>
<event>
 5   0  0.7348964E-06  0.2668874E+04  0.7818609E-02  0.8345175E-01
        1   -1    0    0  501    0  0.00000000000E+00  0.00000000000E+00  0.27631815507E+04  0.27631815507E+04  0.50400001928E-02 0.  1.
       -1   -1    0    0    0  501  0.00000000000E+00  0.00000000000E+00 -0.64444640526E+03  0.64444640528E+03  0.50400001928E-02 0. -1.
    10030    2    1    2    0    0  0.00000000000E+00  0.00000000000E+00  0.21187351454E+04  0.34076279559E+04  0.26688742327E+04 0.  0.
        1    1    3    3  502    0  0.10969536774E+04 -0.68859659489E+03  0.64909864689E+03  0.14487241608E+04  0.50400001928E-02 0.  1.
       -1    1    3    3    0  502 -0.10969536774E+04  0.68859659489E+03  0.14696364985E+04  0.19589037951E+04  0.50400001928E-02 0. -1.
</event>
<event>
 5   0  0.7600052E-06  0.2680506E+04  0.7818609E-02  0.8341358E-01
       -1   -1    0    0    0  501  0.00000000000E+00  0.00000000000E+00  0.91387228323E+03  0.91387228324E+03  0.50400001928E-02 0. -1.
        1   -1    0    0  501    0  0.00000000000E+00  0.00000000000E+00 -0.19655679089E+04  0.19655679089E+04  0.50400001928E-02 0.  1.
    10030    2    1    2    0    0  0.00000000000E+00  0.00000000000E+00 -0.10516956256E+04  0.28794401921E+04  0.26805059468E+04 0.  0.
        5    1    3    3  502    0  0.85826105643E+03 -0.79179276521E+03 -0.12324725048E+04  0.16978098802E+04  0.46999998093E+01 0. -1.
       -5    1    3    3    0  502 -0.85826105643E+03  0.79179276521E+03  0.18077687920E+03  0.11816303119E+04  0.46999998093E+01 0.  1.
</event>
<event>
 5   0  0.1826851E-05  0.2674183E+04  0.7818609E-02  0.8343431E-01
       -2   -1    0    0    0  501  0.00000000000E+00  0.00000000000E+00  0.92512346961E+03  0.92512346961E+03  0.25500000920E-02 0. -1.
        2   -1    0    0  501    0  0.00000000000E+00  0.00000000000E+00 -0.19325134269E+04  0.19325134269E+04  0.25500000920E-02 0.  1.
    10030    2    1    2    0    0  0.00000000000E+00  0.00000000000E+00 -0.10073899573E+04  0.28576368965E+04  0.26741828857E+04 0.  0.
        5    1    3    3  502    0 -0.79544830584E+03 -0.64924344430E+03 -0.14189176470E+04  0.17514578031E+04  0.46999998093E+01 0.  1.
       -5    1    3    3    0  502  0.79544830584E+03  0.64924344430E+03  0.41152768970E+03  0.11061790934E+04  0.46999998093E+01 0. -1.
</event>
<event>
 5   0  0.1788003E-05  0.2627754E+04  0.7818609E-02  0.8358835E-01
       -2   -1    0    0    0  501  0.00000000000E+00  0.00000000000E+00  0.11413989361E+04  0.11413989361E+04  0.25500000920E-02 0.  1.
        2   -1    0    0  501    0  0.00000000000E+00  0.00000000000E+00 -0.15124180656E+04  0.15124180656E+04  0.25500000920E-02 0. -1.
    10030    2    1    2    0    0  0.00000000000E+00  0.00000000000E+00 -0.37101912951E+03  0.26538170017E+04  0.26277536955E+04 0.  0.
        2    1    3    3  502    0  0.82717901219E+03 -0.19450175605E+03 -0.11975548687E+04  0.14683983502E+04  0.25500000920E-02 0.  1.
       -2    1    3    3    0  502 -0.82717901219E+03  0.19450175605E+03  0.82653573914E+03  0.11854186515E+04  0.25500000920E-02 0. -1.
</event>
<event>
 5   0  0.1788003E-05  0.2075296E+04  0.7818609E-02  0.8572204E-01
        2   -1    0    0  501    0  0.00000000000E+00  0.00000000000E+00  0.13768808822E+04  0.13768808822E+04  0.25500000920E-02 0.  1.
       -2   -1    0    0    0  501  0.00000000000E+00  0.00000000000E+00 -0.78199477524E+03  0.78199477524E+03  0.25500000920E-02 0. -1.
    10030    2    1    2    0    0  0.00000000000E+00  0.00000000000E+00  0.59488610700E+03  0.21588756575E+04  0.20752962738E+04 0.  0.
        2    1    3    3  502    0  0.56236892181E+03  0.79525704524E+03  0.66965325575E+03  0.11820017154E+04  0.25500000920E-02 0. -1.
       -2    1    3    3    0  502 -0.56236892181E+03 -0.79525704524E+03 -0.74767148746E+02  0.97687394210E+03  0.25500000920E-02 0.  1.
</event>
<event>
 5   0  0.1826851E-05  0.2702633E+04  0.7818609E-02  0.8334151E-01
        2   -1    0    0  501    0  0.00000000000E+00  0.00000000000E+00  0.14345594797E+04  0.14345594797E+04  0.25500000920E-02 0.  1.
       -2   -1    0    0    0  501  0.00000000000E+00  0.00000000000E+00 -0.12729034806E+04  0.12729034806E+04  0.25500000920E-02 0. -1.
    10030    2    1    2    0    0  0.00000000000E+00  0.00000000000E+00  0.16165599906E+03  0.27074629603E+04  0.27026326090E+04 0.  0.
        5    1    3    3  502    0 -0.24498628829E+03  0.21221108421E+03 -0.12333786344E+04  0.12752634126E+04  0.46999998093E+01 0. -1.
       -5    1    3    3    0  502  0.24498628829E+03 -0.21221108421E+03  0.13950346335E+04  0.14321995477E+04  0.46999998093E+01 0.  1.
</event>
<event>
 5   0  0.1878160E-05  0.2722773E+04  0.7818609E-02  0.8327654E-01
       -2   -1    0    0    0  501  0.00000000000E+00  0.00000000000E+00  0.10547112754E+04  0.10547112754E+04  0.25500000920E-02 0. -1.
        2   -1    0    0  501    0  0.00000000000E+00  0.00000000000E+00 -0.17572329289E+04  0.17572329289E+04  0.25500000920E-02 0.  1.
    10030    2    1    2    0    0  0.00000000000E+00  0.00000000000E+00 -0.70252165344E+03  0.28119442043E+04  0.27227731331E+04 0.  0.
        1    1    3    3  502    0  0.12596991659E+04 -0.63569798298E+02  0.17785633997E+03  0.12737801951E+04  0.50400001928E-02 0. -1.
       -1    1    3    3    0  502 -0.12596991659E+04  0.63569798298E+02 -0.88037799341E+03  0.15381640092E+04  0.50400001928E-02 0.  1.
</event>
<event>
 5   0  0.1788003E-05  0.2703523E+04  0.7818609E-02  0.8333863E-01
       -2   -1    0    0    0  501  0.00000000000E+00  0.00000000000E+00  0.12868692254E+04  0.12868692254E+04  0.25500000920E-02 0.  1.
        2   -1    0    0  501    0  0.00000000000E+00  0.00000000000E+00 -0.14199262280E+04  0.14199262280E+04  0.25500000920E-02 0. -1.
    10030    2    1    2    0    0  0.00000000000E+00  0.00000000000E+00 -0.13305700266E+03  0.27067954534E+04  0.27035231570E+04 0.  0.
        2    1    3    3  502    0 -0.11135517393E+04  0.75532874260E+03 -0.19606972551E+03  0.13597655396E+04  0.25500000920E-02 0.  1.
       -2    1    3    3    0  502  0.11135517393E+04 -0.75532874260E+03  0.63012722853E+02  0.13470299138E+04  0.25500000920E-02 0. -1.
</event>
<event>
 5   0  0.1878160E-05  0.2709865E+04  0.7818609E-02  0.8331811E-01
       -2   -1    0    0    0  501  0.00000000000E+00  0.00000000000E+00  0.14624324381E+04  0.14624324381E+04  0.25500000920E-02 0.  1.
        2   -1    0    0  501    0  0.00000000000E+00  0.00000000000E+00 -0.12553347173E+04  0.12553347173E+04  0.25500000920E-02 0. -1.
    10030    2    1    2    0    0  0.00000000000E+00  0.00000000000E+00  0.20709772080E+03  0.27177671553E+04  0.27098650971E+04 0.  0.
        1    1    3    3  502    0 -0.72690295843E+03  0.11016799028E+04 -0.20353952867E+03  0.13354830059E+04  0.50400001928E-02 0.  1.
       -1    1    3    3    0  502  0.72690295843E+03 -0.11016799028E+04  0.41063724947E+03  0.13822841495E+04  0.50400001928E-02 0. -1.
</event>
<event>
 5   0  0.7754912E-06  0.2667359E+04  0.7818609E-02  0.8345674E-01
        1   -1    0    0  501    0  0.00000000000E+00  0.00000000000E+00  0.13674466670E+04  0.13674466670E+04  0.50400001928E-02 0. -1.
       -1   -1    0    0    0  501  0.00000000000E+00  0.00000000000E+00 -0.13007463945E+04  0.13007463945E+04  0.50400001928E-02 0.  1.
    10030    2    1    2    0    0  0.00000000000E+00  0.00000000000E+00  0.66700272517E+02  0.26681930615E+04  0.26673592347E+04 0.  0.
        4    1    3    3  502    0  0.11281703710E+04  0.16471028607E+03 -0.65882126003E+03  0.13167934272E+04  0.12699999809E+01 0.  1.
       -4    1    3    3    0  502 -0.11281703710E+04 -0.16471028607E+03  0.72552153255E+03  0.13513996342E+04  0.12699999809E+01 0. -1.
</event>
<event>
 5   0  0.7348964E-06  0.2711350E+04  0.7818609E-02  0.8331332E-01
       -1   -1    0    0    0  501  0.00000000000E+00  0.00000000000E+00  0.86506408671E+03  0.86506408672E+03  0.50400001928E-02 0. -1.
        1   -1    0    0  501    0  0.00000000000E+00  0.00000000000E+00 -0.21245303816E+04  0.21245303816E+04  0.50400001928E-02 0.  1.
    10030    2    1    2    0    0  0.00000000000E+00  0.00000000000E+00 -0.12594662949E+04  0.29895944683E+04  0.27113501687E+04 0.  0.
        1    1    3    3  502    0 -0.33625117508E+03  0.13004938744E+04 -0.83156347997E+03  0.15798249875E+04  0.50400001928E-02 0.  1.
       -1    1    3    3    0  502  0.33625117508E+03 -0.13004938744E+04 -0.42790281492E+03  0.14097694808E+04  0.50400001928E-02 0. -1.
</event>
<event>
 5   0  0.7754912E-06  0.2702843E+04  0.7818609E-02  0.8334083E-01
        1   -1    0    0  501    0  0.00000000000E+00  0.00000000000E+00  0.12220983842E+04  0.12220983842E+04  0.50400001928E-02 0.  1.
       -1   -1    0    0    0  501  0.00000000000E+00  0.00000000000E+00 -0.14944297554E+04  0.14944297554E+04  0.50400001928E-02 0. -1.
    10030    2    1    2    0    0  0.00000000000E+00  0.00000000000E+00 -0.27233137120E+03  0.27165281396E+04  0.27028430879E+04 0.  0.
        4    1    3    3  502    0  0.41724846800E+03  0.11742283476E+04 -0.66171868528E+03  0.14109506468E+04  0.12699999809E+01 0. -1.
       -4    1    3    3    0  502 -0.41724846800E+03 -0.11742283476E+04  0.38938731408E+03  0.13055774928E+04  0.12699999809E+01 0.  1.
</event>
<event>
 5   0  0.1881699E-05  0.2724954E+04  0.7818609E-02  0.8326953E-01
       -2   -1    0    0    0  501  0.00000000000E+00  0.00000000000E+00  0.10113426458E+04  0.10113426458E+04  0.25500000920E-02 0.  1.
        2   -1    0    0  501    0  0.00000000000E+00  0.00000000000E+00 -0.18355242750E+04  0.18355242750E+04  0.25500000920E-02 0. -1.
    10030    2    1    2    0    0  0.00000000000E+00  0.00000000000E+00 -0.82418162917E+03  0.28468669208E+04  0.27249542944E+04 0.  0.
        4    1    3    3  502    0 -0.51690681064E+03 -0.44054181913E+03 -0.16460657867E+04  0.17806751338E+04  0.12699999809E+01 0. -1.
       -4    1    3    3    0  502  0.51690681064E+03  0.44054181913E+03  0.82188415750E+03  0.10661917869E+04  0.12699999809E+01 0.  1.
</event>
<event>
 5   0  0.7600052E-06  0.2713006E+04  0.7818609E-02  0.8330797E-01
        1   -1    0    0  501    0  0.00000000000E+00  0.00000000000E+00  0.17813312352E+04  0.17813312352E+04  0.50400001928E-02 0.  1.
       -1   -1    0    0    0  501  0.00000000000E+00  0.00000000000E+00 -0.10329918298E+04  0.10329918298E+04  0.50400001928E-02 0. -1.
    10030    2    1    2    0    0  0.00000000000E+00  0.00000000000E+00  0.74833940542E+03  0.28143230650E+04  0.27130061645E+04 0.  0.
        5    1    3    3  502    0 -0.76325286120E+03 -0.45014346439E+03  0.14396064553E+04  0.16904652924E+04  0.46999998093E+01 0.  1.
       -5    1    3    3    0  502  0.76325286120E+03  0.45014346439E+03 -0.69126704992E+03  0.11238577726E+04  0.46999998093E+01 0. -1.
</event>
<event>
 5   0  0.6804685E-06  0.2686333E+04  0.7818609E-02  0.8339453E-01
        1   -1    0    0  501    0  0.00000000000E+00  0.00000000000E+00  0.16340839497E+04  0.16340839497E+04  0.50400001928E-02 0. -1.
       -1   -1    0    0    0  501  0.00000000000E+00  0.00000000000E+00 -0.11040410997E+04  0.11040410997E+04  0.50400001928E-02 0.  1.
    10030    2    1    2    0    0  0.00000000000E+00  0.00000000000E+00  0.53004285001E+03  0.27381250494E+04  0.26863326978E+04 0.  0.
        2    1    3    3  502    0  0.10229482396E+04 -0.67601261082E+03  0.82393611831E+03  0.14772565376E+04  0.25500000920E-02 0. -1.
       -2    1    3    3    0  502 -0.10229482396E+04  0.67601261082E+03 -0.29389326830E+03  0.12608685118E+04  0.25500000920E-02 0.  1.
</event>
<event>
 5   0  0.7754912E-06  0.2149432E+04  0.7818609E-02  0.8539775E-01
       -1   -1    0    0    0  501  0.00000000000E+00  0.00000000000E+00  0.11128130765E+04  0.11128130766E+04  0.50400001928E-02 0.  1.
        1   -1    0    0  501    0  0.00000000000E+00  0.00000000000E+00 -0.10379232006E+04  0.10379232006E+04  0.50400001928E-02 0. -1.
    10030    2    1    2    0    0  0.00000000000E+00  0.00000000000E+00  0.74889875933E+02  0.21507362772E+04  0.21494320274E+04 0.  0.
        4    1    3    3  502    0 -0.44215541518E+03 -0.47337954098E+03  0.89553354598E+03  0.11052472782E+04  0.12699999809E+01 0.  1.
       -4    1    3    3    0  502  0.44215541518E+03  0.47337954098E+03 -0.82064367005E+03  0.10454889990E+04  0.12699999809E+01 0. -1.
</event>
<event>
 5   0  0.7348964E-06  0.2691174E+04  0.7818609E-02  0.8337874E-01
        1   -1    0    0  501    0  0.00000000000E+00  0.00000000000E+00  0.22721388497E+04  0.22721388497E+04  0.50400001928E-02 0.  1.
       -1   -1    0    0    0  501  0.00000000000E+00  0.00000000000E+00 -0.79687210026E+03  0.79687210028E+03  0.50400001928E-02 0. -1.
    10030    2    1    2    0    0  0.00000000000E+00  0.00000000000E+00  0.14752667494E+04  0.30690109500E+04  0.26911737642E+04 0.  0.
        1    1    3    3  502    0 -0.70046261043E+03 -0.10791995957E+04  0.28824623332E+03  0.13184860739E+04  0.50400001928E-02 0.  1.
       -1    1    3    3    0  502  0.70046261043E+03  0.10791995957E+04  0.11870205161E+04  0.17505248761E+04  0.50400001928E-02 0. -1.
</event>
<event>
 5   0  0.1931119E-05  0.2720875E+04  0.7818609E-02  0.8328263E-01
       -2   -1    0    0    0  501  0.00000000000E+00  0.00000000000E+00  0.69631434678E+03  0.69631434678E+03  0.25500000920E-02 0.  1.
        2   -1    0    0  501    0  0.00000000000E+00  0.00000000000E+00 -0.26579815046E+04  0.26579815046E+04  0.25500000920E-02 0. -1.
    10030    2    1    2    0    0  0.00000000000E+00  0.00000000000E+00 -0.19616671578E+04  0.33542958513E+04  0.27208753408E+04 0.  0.
        3    1    3    3  502    0 -0.10149952490E+04  0.87117506018E+03 -0.67478782951E+03  0.14981655336E+04  0.10100000352E+00 0.  1.
       -3    1    3    3    0  502  0.10149952490E+04 -0.87117506018E+03 -0.12868793283E+04  0.18561303178E+04  0.10100000352E+00 0. -1.
</event>
<event>
 5   0  0.6804685E-06  0.2726784E+04  0.7818609E-02  0.8326366E-01
        1   -1    0    0  501    0  0.00000000000E+00  0.00000000000E+00  0.12006587930E+04  0.12006587930E+04  0.50400001928E-02 0.  1.
       -1   -1    0    0    0  501  0.00000000000E+00  0.00000000000E+00 -0.15481818668E+04  0.15481818669E+04  0.50400001928E-02 0. -1.
    10030    2    1    2    0    0  0.00000000000E+00  0.00000000000E+00 -0.34752307385E+03  0.27488406599E+04  0.27267843124E+04 0.  0.
        2    1    3    3  502    0  0.31384620257E+03 -0.13266292900E+04 -0.19375779923E+03  0.13769483639E+04  0.25500000920E-02 0. -1.
       -2    1    3    3    0  502 -0.31384620257E+03  0.13266292900E+04 -0.15376527462E+03  0.13718922960E+04  0.25500000920E-02 0.  1.
</event>
<event>
 5   0  0.1931119E-05  0.2699588E+04  0.7818609E-02  0.8335139E-01
       -2   -1    0    0    0  501  0.00000000000E+00  0.00000000000E+00  0.13312052618E+04  0.13312052618E+04  0.25500000920E-02 0. -1.
        2   -1    0    0  501    0  0.00000000000E+00  0.00000000000E+00 -0.13686419567E+04  0.13686419567E+04  0.25500000920E-02 0.  1.
    10030    2    1    2    0    0  0.00000000000E+00  0.00000000000E+00 -0.37436694907E+02  0.26998472185E+04  0.26995876532E+04 0.  0.
        3    1    3    3  502    0  0.31074116733E+03  0.12705722195E+04  0.31452462420E+03  0.13453027865E+04  0.10100000352E+00 0. -1.
       -3    1    3    3    0  502 -0.31074116733E+03 -0.12705722195E+04 -0.35196131911E+03  0.13545444320E+04  0.10100000352E+00 0.  1.
</event>
<event>
 5   0  0.6175875E-06  0.2386366E+04  0.7818609E-02  0.8444625E-01
        3   -1    0    0  501    0  0.00000000000E+00  0.00000000000E+00  0.11539245608E+04  0.11539245652E+04  0.10100000352E+00 0.  1.
       -3   -1    0    0    0  501  0.00000000000E+00  0.00000000000E+00 -0.12337774474E+04  0.12337774515E+04  0.10100000352E+00 0. -1.
    10030    2    1    2    0    0  0.00000000000E+00  0.00000000000E+00 -0.79852886553E+02  0.23877020167E+04  0.23863663669E+04 0.  0.
        2    1    3    3  502    0  0.65570461190E+03  0.40559603532E+03 -0.95105647072E+03  0.12243222992E+04  0.25500000920E-02 0. -1.
       -2    1    3    3    0  502 -0.65570461190E+03 -0.40559603532E+03  0.87120358416E+03  0.11633797175E+04  0.25500000920E-02 0.  1.
</event>
<event>
 5   0  0.1826851E-05  0.2818421E+04  0.7818609E-02  0.8297572E-01
       -2   -1    0    0    0  501  0.00000000000E+00  0.00000000000E+00  0.19686277575E+04  0.19686277575E+04  0.25500000920E-02 0. -1.
        2   -1    0    0  501    0  0.00000000000E+00  0.00000000000E+00 -0.10087606276E+04  0.10087606276E+04  0.25500000920E-02 0.  1.
    10030    2    1    2    0    0  0.00000000000E+00  0.00000000000E+00  0.95986712991E+03  0.29773883852E+04  0.28184209567E+04 0.  0.
        5    1    3    3  502    0  0.25126248690E+03  0.86813795655E+03 -0.66227980256E+03  0.11204610550E+04  0.46999998093E+01 0.  1.
       -5    1    3    3    0  502 -0.25126248690E+03 -0.86813795655E+03  0.16221469325E+04  0.18569273301E+04  0.46999998093E+01 0. -1.
</event>
<event>
 5   0  0.7351590E-06  0.2689166E+04  0.7818609E-02  0.8338529E-01
       -1   -1    0    0    0  501  0.00000000000E+00  0.00000000000E+00  0.15014487697E+04  0.15014487698E+04  0.50400001928E-02 0.  1.
        1   -1    0    0  501    0  0.00000000000E+00  0.00000000000E+00 -0.12041063143E+04  0.12041063143E+04  0.50400001928E-02 0. -1.
    10030    2    1    2    0    0  0.00000000000E+00  0.00000000000E+00  0.29734245545E+03  0.27055550841E+04  0.26891663721E+04 0.  0.
        3    1    3    3  502    0  0.37674264606E+03 -0.11138814443E+04  0.80474738061E+03  0.14248807845E+04  0.10100000352E+00 0.  1.
       -3    1    3    3    0  502 -0.37674264606E+03  0.11138814443E+04 -0.50740492516E+03  0.12806742996E+04  0.10100000352E+00 0. -1.
</event>
<event>
 5   0  0.7600052E-06  0.2283688E+04  0.7818609E-02  0.8484381E-01
       -1   -1    0    0    0  501  0.00000000000E+00  0.00000000000E+00  0.10714997548E+04  0.10714997548E+04  0.50400001928E-02 0.  1.
        1   -1    0    0  501    0  0.00000000000E+00  0.00000000000E+00 -0.12168063735E+04  0.12168063735E+04  0.50400001928E-02 0. -1.
    10030    2    1    2    0    0  0.00000000000E+00  0.00000000000E+00 -0.14530661869E+03  0.22883061283E+04  0.22836880092E+04 0.  0.
        5    1    3    3  502    0 -0.69795874661E+03  0.82138742599E+03 -0.45019358839E+03  0.11681267365E+04  0.46999998093E+01 0. -1.
       -5    1    3    3    0  502  0.69795874661E+03 -0.82138742599E+03  0.30488696970E+03  0.11201793918E+04  0.46999998093E+01 0.  1.
</event>
<event>
 5   0  0.1826851E-05  0.2713418E+04  0.7818609E-02  0.8330664E-01
       -2   -1    0    0    0  501  0.00000000000E+00  0.00000000000E+00  0.10506736849E+04  0.10506736849E+04  0.25500000920E-02 0. -1.
        2   -1    0    0  501    0  0.00000000000E+00  0.00000000000E+00 -0.17518845344E+04  0.17518845344E+04  0.25500000920E-02 0.  1.
    10030    2    1    2    0    0  0.00000000000E+00  0.00000000000E+00 -0.70121084955E+03  0.28025582193E+04  0.27134177557E+04 0.  0.
        5    1    3    3  502    0 -0.20007273497E+03  0.13413220828E+04 -0.39010927353E+03  0.14111631246E+04  0.46999998093E+01 0.  1.
       -5    1    3    3    0  502  0.20007273497E+03 -0.13413220828E+04 -0.31110157602E+03  0.13913950947E+04  0.46999998093E+01 0. -1.
</event>
<event>
 5   0  0.7351590E-06  0.2747526E+04  0.7818609E-02  0.8319747E-01
       -1   -1    0    0    0  501  0.00000000000E+00  0.00000000000E+00  0.98003265515E+03  0.98003265516E+03  0.50400001928E-02 0.  1.
        1   -1    0    0  501    0  0.00000000000E+00  0.00000000000E+00 -0.19256756055E+04  0.19256756055E+04  0.50400001928E-02 0. -1.
    10030    2    1    2    0    0  0.00000000000E+00  0.00000000000E+00 -0.94564295037E+03  0.29057082607E+04  0.27475261430E+04 0.  0.
        3    1    3    3  502    0  0.66565118826E+03  0.36997377344E+03  0.73635579939E+03  0.10593356272E+04  0.10100000352E+00 0.  1.
       -3    1    3    3    0  502 -0.66565118826E+03 -0.36997377344E+03 -0.16819987498E+04  0.18463726335E+04  0.10100000352E+00 0. -1.
</event>
<event>
 5   0  0.6804685E-06  0.2663255E+04  0.7818609E-02  0.8347027E-01
        1   -1    0    0  501    0  0.00000000000E+00  0.00000000000E+00  0.12194917064E+04  0.12194917064E+04  0.50400001928E-02 0. -1.
       -1   -1    0    0    0  501  0.00000000000E+00  0.00000000000E+00 -0.14540741527E+04  0.14540741527E+04  0.50400001928E-02 0.  1.
    10030    2    1    2    0    0  0.00000000000E+00  0.00000000000E+00 -0.23458244632E+03  0.26735658591E+04  0.26632546778E+04 0.  0.
        2    1    3    3  502    0  0.84779726937E+03 -0.10051185581E+04 -0.32836187692E+03  0.13553025670E+04  0.25500000920E-02 0.  1.
       -2    1    3    3    0  502 -0.84779726937E+03  0.10051185581E+04  0.93779430594E+02  0.13182632921E+04  0.25500000920E-02 0. -1.
</event>
<event>
 5   0  0.1788003E-05  0.2700787E+04  0.7818609E-02  0.8334750E-01
        2   -1    0    0  501    0  0.00000000000E+00  0.00000000000E+00  0.23140916318E+04  0.23140916318E+04  0.25500000920E-02 0. -1.
       -2   -1    0    0    0  501  0.00000000000E+00  0.00000000000E+00 -0.78802543924E+03  0.78802543924E+03  0.25500000920E-02 0.  1.
    10030    2    1    2    0    0  0.00000000000E+00  0.00000000000E+00  0.15260661926E+04  0.31021170711E+04  0.27007873479E+04 0.  0.
        2    1    3    3  502    0  0.86527208859E+03  0.10316535874E+04  0.88105482556E+03  0.16091185529E+04  0.25500000920E-02 0. -1.
       -2    1    3    3    0  502 -0.86527208859E+03 -0.10316535874E+04  0.64501136703E+03  0.14929985182E+04  0.25500000920E-02 0.  1.
</event>
<event>
 5   0  0.1788003E-05  0.2713899E+04  0.7818609E-02  0.8330509E-01
       -2   -1    0    0    0  501  0.00000000000E+00  0.00000000000E+00  0.13642222115E+04  0.13642222115E+04  0.25500000920E-02 0. -1.
        2   -1    0    0  501    0  0.00000000000E+00  0.00000000000E+00 -0.13497159954E+04  0.13497159954E+04  0.25500000920E-02 0.  1.
    10030    2    1    2    0    0  0.00000000000E+00  0.00000000000E+00  0.14506216101E+02  0.27139382069E+04  0.27138994382E+04 0.  0.
        2    1    3    3  502    0 -0.79392496524E+03  0.74054884521E+03  0.82125681080E+03  0.13613200182E+04  0.25500000920E-02 0. -1.
       -2    1    3    3    0  502  0.79392496524E+03 -0.74054884521E+03 -0.80675059469E+03  0.13526181888E+04  0.25500000920E-02 0.  1.
</event>
<event>
 5   0  0.1881699E-05  0.2706854E+04  0.7818609E-02  0.8332784E-01
        2   -1    0    0  501    0  0.00000000000E+00  0.00000000000E+00  0.11400848871E+04  0.11400848871E+04  0.25500000920E-02 0. -1.
       -2   -1    0    0    0  501  0.00000000000E+00  0.00000000000E+00 -0.16066919890E+04  0.16066919890E+04  0.25500000920E-02 0.  1.
    10030    2    1    2    0    0  0.00000000000E+00  0.00000000000E+00 -0.46660710183E+03  0.27467768761E+04  0.27068544511E+04 0.  0.
        4    1    3    3  502    0 -0.84184908939E+03  0.10077646322E+04 -0.56595573636E+03  0.14298975318E+04  0.12699999809E+01 0.  1.
       -4    1    3    3    0  502  0.84184908939E+03 -0.10077646322E+04  0.99348634530E+02  0.13168793442E+04  0.12699999809E+01 0. -1.
</event>
<event>
 5   0  0.1878160E-05  0.2559159E+04  0.7818609E-02  0.8382208E-01
       -2   -1    0    0    0  501  0.00000000000E+00  0.00000000000E+00  0.96260599931E+03  0.96260599931E+03  0.25500000920E-02 0. -1.
        2   -1    0    0  501    0  0.00000000000E+00  0.00000000000E+00 -0.17009277698E+04  0.17009277698E+04  0.25500000920E-02 0.  1.
    10030    2    1    2    0    0  0.00000000000E+00  0.00000000000E+00 -0.73832177052E+03  0.26635337691E+04  0.25591586708E+04 0.  0.
        1    1    3    3  502    0 -0.38965973301E+03  0.78113950803E+03 -0.13428982803E+04  0.16016833113E+04  0.50400001928E-02 0.  1.
       -1    1    3    3    0  502  0.38965973301E+03 -0.78113950803E+03  0.60457650979E+03  0.10618504578E+04  0.50400001928E-02 0. -1.
</event>
<event>
 5   0  0.6804685E-06  0.2639556E+04  0.7818609E-02  0.8354888E-01
        1   -1    0    0  501    0  0.00000000000E+00  0.00000000000E+00  0.10660382706E+04  0.10660382706E+04  0.50400001928E-02 0. -1.
       -1   -1    0    0    0  501  0.00000000000E+00  0.00000000000E+00 -0.16339135637E+04  0.16339135637E+04  0.50400001928E-02 0.  1.
    10030    2    1    2    0    0  0.00000000000E+00  0.00000000000E+00 -0.56787529310E+03  0.26999518343E+04  0.26395563186E+04 0.  0.
        2    1    3    3  502    0  0.69366241973E+01 -0.13124854631E+04 -0.42548079789E+03  0.13797463959E+04  0.25500000920E-02 0.  1.
       -2    1    3    3    0  502 -0.69366241973E+01  0.13124854631E+04 -0.14239449521E+03  0.13202054385E+04  0.25500000920E-02 0. -1.
</event>
<event>
 5   0  0.1788003E-05  0.2760387E+04  0.7818609E-02  0.8315673E-01
       -2   -1    0    0    0  501  0.00000000000E+00  0.00000000000E+00  0.67254891384E+03  0.67254891385E+03  0.25500000920E-02 0.  1.
        2   -1    0    0  501    0  0.00000000000E+00  0.00000000000E+00 -0.28324094502E+04  0.28324094502E+04  0.25500000920E-02 0. -1.
    10030    2    1    2    0    0  0.00000000000E+00  0.00000000000E+00 -0.21598605364E+04  0.35049583641E+04  0.27603868564E+04 0.  0.
        2    1    3    3  502    0 -0.80428711168E+03  0.43982788140E+03  0.23017951170E+03  0.94515021604E+03  0.25500000920E-02 0.  1.
       -2    1    3    3    0  502  0.80428711168E+03 -0.43982788140E+03 -0.23900400481E+04  0.25598081480E+04  0.25500000920E-02 0. -1.
</event>
<event>
 5   0  0.1931119E-05  0.2699373E+04  0.7818609E-02  0.8335208E-01
        2   -1    0    0  501    0  0.00000000000E+00  0.00000000000E+00  0.21811477796E+04  0.21811477796E+04  0.25500000920E-02 0.  1.
       -2   -1    0    0    0  501  0.00000000000E+00  0.00000000000E+00 -0.83518118178E+03  0.83518118178E+03  0.25500000920E-02 0. -1.
    10030    2    1    2    0    0  0.00000000000E+00  0.00000000000E+00  0.13459665978E+04  0.30163289614E+04  0.26993729496E+04 0.  0.
        3    1    3    3  502    0  0.13454348332E+04 -0.61675689216E+02  0.57521852025E+03  0.14645392236E+04  0.10100000352E+00 0. -1.
       -3    1    3    3    0  502 -0.13454348332E+04  0.61675689216E+02  0.77074807758E+03  0.15517897378E+04  0.10100000352E+00 0.  1.
</event>
<event>
 5   0  0.7351590E-06  0.2686137E+04  0.7818609E-02  0.8339517E-01
        1   -1    0    0  501    0  0.00000000000E+00  0.00000000000E+00  0.21283616912E+04  0.21283616912E+04  0.50400001928E-02 0. -1.
       -1   -1    0    0    0  501  0.00000000000E+00  0.00000000000E+00 -0.84752202860E+03  0.84752202861E+03  0.50400001928E-02 0.  1.
    10030    2    1    2    0    0  0.00000000000E+00  0.00000000000E+00  0.12808396626E+04  0.29758837198E+04  0.26861373145E+04 0.  0.
        3    1    3    3  502    0  0.48557435176E+03  0.25942585439E+03  0.19976134387E+04  0.20720867949E+04  0.10100000352E+00 0. -1.
       -3    1    3    3    0  502 -0.48557435176E+03 -0.25942585439E+03 -0.71677377614E+03  0.90379692485E+03  0.10100000352E+00 0.  1.
</event>
<event>
 5   0  0.1826851E-05  0.2691757E+04  0.7818609E-02  0.8337684E-01
       -2   -1    0    0    0  501  0.00000000000E+00  0.00000000000E+00  0.11604668735E+04  0.11604668735E+04  0.25500000920E-02 0.  1.
        2   -1    0    0  501    0  0.00000000000E+00  0.00000000000E+00 -0.15609142283E+04  0.15609142283E+04  0.25500000920E-02 0. -1.
    10030    2    1    2    0    0  0.00000000000E+00  0.00000000000E+00 -0.40044735477E+03  0.27213811018E+04  0.26917572360E+04 0.  0.
        5    1    3    3  502    0  0.97407956657E+03  0.38201701093E+03  0.65561443854E+03  0.12347551906E+04  0.46999998093E+01 0.  1.
       -5    1    3    3    0  502 -0.97407956657E+03 -0.38201701093E+03 -0.10560617933E+04  0.14866259112E+04  0.46999998093E+01 0. -1.
</event>
<event>
 5   0  0.7754912E-06  0.2359463E+04  0.7818609E-02  0.8454838E-01
        1   -1    0    0  501    0  0.00000000000E+00  0.00000000000E+00  0.15682780795E+04  0.15682780795E+04  0.50400001928E-02 0. -1.
       -1   -1    0    0    0  501  0.00000000000E+00  0.00000000000E+00 -0.88744837693E+03  0.88744837694E+03  0.50400001928E-02 0.  1.
    10030    2    1    2    0    0  0.00000000000E+00  0.00000000000E+00  0.68082970252E+03  0.24557264564E+04  0.23594625119E+04 0.  0.
        4    1    3    3  502    0 -0.35607428182E+03  0.77966575365E+03 -0.50327248692E+03  0.99395794206E+03  0.12699999809E+01 0.  1.
       -4    1    3    3    0  502  0.35607428182E+03 -0.77966575365E+03  0.11841021894E+04  0.14617685143E+04  0.12699999809E+01 0. -1.
</event>
<event>
 5   0  0.1878160E-05  0.2263239E+04  0.7818609E-02  0.8492558E-01
       -2   -1    0    0    0  501  0.00000000000E+00  0.00000000000E+00  0.68245137387E+03  0.68245137388E+03  0.25500000920E-02 0.  1.
        2   -1    0    0  501    0  0.00000000000E+00  0.00000000000E+00 -0.18764164931E+04  0.18764164931E+04  0.25500000920E-02 0. -1.
    10030    2    1    2    0    0  0.00000000000E+00  0.00000000000E+00 -0.11939651193E+04  0.25588678670E+04  0.22632392836E+04 0.  0.
        1    1    3    3  502    0 -0.15941613110E+03  0.36614648554E+03  0.60013528156E+03  0.72085997803E+03  0.50400001928E-02 0.  1.
       -1    1    3    3    0  502  0.15941613110E+03 -0.36614648554E+03 -0.17941004008E+04  0.18380078890E+04  0.50400001928E-02 0. -1.
</event>
<event>
 5   0  0.1788003E-05  0.2700068E+04  0.7818609E-02  0.8334983E-01
        2   -1    0    0  501    0  0.00000000000E+00  0.00000000000E+00  0.20864134487E+04  0.20864134487E+04  0.25500000920E-02 0.  1.
       -2   -1    0    0    0  501  0.00000000000E+00  0.00000000000E+00 -0.87355266206E+03  0.87355266206E+03  0.25500000920E-02 0. -1.
    10030    2    1    2    0    0  0.00000000000E+00  0.00000000000E+00  0.12128607866E+04  0.29599661107E+04  0.27000681638E+04 0.  0.
        2    1    3    3  502    0  0.85517999432E+03 -0.90860356830E+03  0.41354512697E+02  0.12484404122E+04  0.25500000920E-02 0. -1.
       -2    1    3    3    0  502 -0.85517999432E+03  0.90860356830E+03  0.11715062739E+04  0.17115256986E+04  0.25500000920E-02 0.  1.
</event>
<event>
 5   0  0.7600052E-06  0.2808503E+04  0.7818609E-02  0.8300633E-01
       -1   -1    0    0    0  501  0.00000000000E+00  0.00000000000E+00  0.15522838182E+04  0.15522838182E+04  0.50400001928E-02 0.  1.
        1   -1    0    0  501    0  0.00000000000E+00  0.00000000000E+00 -0.12703361092E+04  0.12703361092E+04  0.50400001928E-02 0. -1.
    10030    2    1    2    0    0  0.00000000000E+00  0.00000000000E+00  0.28194770898E+03  0.28226199274E+04  0.28085029364E+04 0.  0.
        5    1    3    3  502    0  0.43206619147E+03  0.66451761423E+03  0.13059531695E+04  0.15276781809E+04  0.46999998093E+01 0.  1.
       -5    1    3    3    0  502 -0.43206619147E+03 -0.66451761423E+03 -0.10240054606E+04  0.12949417464E+04  0.46999998093E+01 0. -1.
</event>
<event>
 5   0  0.1881699E-05  0.2699828E+04  0.7818609E-02  0.8335061E-01
        2   -1    0    0  501    0  0.00000000000E+00  0.00000000000E+00  0.17842964308E+04  0.17842964308E+04  0.25500000920E-02 0. -1.
       -2   -1    0    0    0  501  0.00000000000E+00  0.00000000000E+00 -0.10212808884E+04  0.10212808884E+04  0.25500000920E-02 0.  1.
    10030    2    1    2    0    0  0.00000000000E+00  0.00000000000E+00  0.76301554238E+03  0.28055773192E+04  0.26998280271E+04 0.  0.
        4    1    3    3  502    0  0.12224457388E+04  0.10643001230E+03  0.96618717330E+03  0.15618003069E+04  0.12699999809E+01 0. -1.
       -4    1    3    3    0  502 -0.12224457388E+04 -0.10643001230E+03 -0.20317163091E+03  0.12437770123E+04  0.12699999809E+01 0.  1.
</event>
<event>
 5   0  0.1826851E-05  0.2805674E+04  0.7818609E-02  0.8301509E-01
       -2   -1    0    0    0  501  0.00000000000E+00  0.00000000000E+00  0.10421560759E+04  0.10421560759E+04  0.25500000920E-02 0.  1.
        2   -1    0    0  501    0  0.00000000000E+00  0.00000000000E+00 -0.18883465503E+04  0.18883465503E+04  0.25500000920E-02 0. -1.
    10030    2    1    2    0    0  0.00000000000E+00  0.00000000000E+00 -0.84619047445E+03  0.29305026262E+04  0.28056741299E+04 0.  0.
        5    1    3    3  502    0  0.11804272136E+04 -0.72412168418E+03 -0.65704528166E+03  0.15328050144E+04  0.46999998093E+01 0.  1.
       -5    1    3    3    0  502 -0.11804272136E+04  0.72412168418E+03 -0.18914519279E+03  0.13976976118E+04  0.46999998093E+01 0. -1.
</event>
<event>
 5   0  0.7754912E-06  0.2700045E+04  0.7818609E-02  0.8334990E-01
        1   -1    0    0  501    0  0.00000000000E+00  0.00000000000E+00  0.95685359389E+03  0.95685359390E+03  0.50400001928E-02 0. -1.
       -1   -1    0    0    0  501  0.00000000000E+00  0.00000000000E+00 -0.19047440389E+04  0.19047440389E+04  0.50400001928E-02 0.  1.
    10030    2    1    2    0    0  0.00000000000E+00  0.00000000000E+00 -0.94789044501E+03  0.28615976328E+04  0.27000453175E+04 0.  0.
        4    1    3    3  502    0  0.75198105807E+03  0.72471716010E+03  0.43273515730E+03  0.11304653038E+04  0.12699999809E+01 0. -1.
       -4    1    3    3    0  502 -0.75198105807E+03 -0.72471716010E+03 -0.13806256023E+04  0.17311323290E+04  0.12699999809E+01 0.  1.
</event>
<event>
 5   0  0.1931119E-05  0.2732971E+04  0.7818609E-02  0.8324386E-01
        2   -1    0    0  501    0  0.00000000000E+00  0.00000000000E+00  0.15922496658E+04  0.15922496658E+04  0.25500000920E-02 0. -1.
       -2   -1    0    0    0  501  0.00000000000E+00  0.00000000000E+00 -0.11727319731E+04  0.11727319731E+04  0.25500000920E-02 0.  1.
    10030    2    1    2    0    0  0.00000000000E+00  0.00000000000E+00  0.41951769275E+03  0.27649816389E+04  0.27329706125E+04 0.  0.
        3    1    3    3  502    0 -0.49944862508E+03  0.22066246296E+03 -0.10575670430E+04  0.11902054076E+04  0.10100000352E+00 0.  1.
       -3    1    3    3    0  502  0.49944862508E+03 -0.22066246296E+03  0.14770847358E+04  0.15747762313E+04  0.10100000352E+00 0. -1.
</event>
<event>
 5   0  0.6175875E-06  0.2696471E+04  0.7818609E-02  0.8336151E-01
        3   -1    0    0  501    0  0.00000000000E+00  0.00000000000E+00  0.13196179373E+04  0.13196179412E+04  0.10100000352E+00 0.  1.
       -3   -1    0    0    0  501  0.00000000000E+00  0.00000000000E+00 -0.13774740008E+04  0.13774740045E+04  0.10100000352E+00 0. -1.
    10030    2    1    2    0    0  0.00000000000E+00  0.00000000000E+00 -0.57856063557E+02  0.26970919457E+04  0.26964713311E+04 0.  0.
        1    1    3    3  502    0 -0.35051719042E+03  0.38487478067E+03 -0.12728977209E+04  0.13752307099E+04  0.50400001928E-02 0. -1.
       -1    1    3    3    0  502  0.35051719042E+03 -0.38487478067E+03  0.12150416573E+04  0.13218612358E+04  0.50400001928E-02 0.  1.
</event>
<event>
 5   0  0.7351590E-06  0.2623169E+04  0.7818609E-02  0.8360374E-01
        1   -1    0    0  501    0  0.00000000000E+00  0.00000000000E+00  0.11442831301E+04  0.11442831301E+04  0.50400001928E-02 0. -1.
       -1   -1    0    0    0  501  0.00000000000E+00  0.00000000000E+00 -0.15033460275E+04  0.15033460275E+04  0.50400001928E-02 0.  1.
    10030    2    1    2    0    0  0.00000000000E+00  0.00000000000E+00 -0.35906289741E+03  0.26476291576E+04  0.26231686930E+04 0.  0.
        3    1    3    3  502    0 -0.82154320313E+03  0.97672149868E+03 -0.48456697599E+03  0.13651825098E+04  0.10100000352E+00 0.  1.
       -3    1    3    3    0  502  0.82154320313E+03 -0.97672149868E+03  0.12550407858E+03  0.12824466478E+04  0.10100000352E+00 0. -1.
</event>
<event>
 5   0  0.7351590E-06  0.2757247E+04  0.7818609E-02  0.8316666E-01
       -1   -1    0    0    0  501  0.00000000000E+00  0.00000000000E+00  0.22506377639E+04  0.22506377639E+04  0.50400001928E-02 0. -1.
        1   -1    0    0  501    0  0.00000000000E+00  0.00000000000E+00 -0.84447294430E+03  0.84447294432E+03  0.50400001928E-02 0.  1.
    10030    2    1    2    0    0  0.00000000000E+00  0.00000000000E+00  0.14061648196E+04  0.30951107082E+04  0.27572469596E+04 0.  0.
        3    1    3    3  502    0  0.10642793917E+04 -0.19380937190E+03 -0.25624319449E+03  0.11117163673E+04  0.10100000352E+00 0.  1.
       -3    1    3    3    0  502 -0.10642793917E+04  0.19380937190E+03  0.16624080141E+04  0.19833943410E+04  0.10100000352E+00 0. -1.
</event>
<event>
 5   0  0.7348964E-06  0.2704648E+04  0.7818609E-02  0.8333498E-01
       -1   -1    0    0    0  501  0.00000000000E+00  0.00000000000E+00  0.13812696285E+04  0.13812696285E+04  0.50400001928E-02 0.  1.
        1   -1    0    0  501    0  0.00000000000E+00  0.00000000000E+00 -0.13239851714E+04  0.13239851714E+04  0.50400001928E-02 0. -1.
    10030    2    1    2    0    0  0.00000000000E+00  0.00000000000E+00  0.57284457086E+02  0.27052548000E+04  0.27046482255E+04 0.  0.
        1    1    3    3  502    0 -0.88400332533E+03  0.10156930554E+04  0.15391505381E+03  0.13552800839E+04  0.50400001928E-02 0. -1.
       -1    1    3    3    0  502  0.88400332533E+03 -0.10156930554E+04 -0.96630596725E+02  0.13499747161E+04  0.50400001928E-02 0.  1.
</event>
<event>
 5   0  0.1931119E-05  0.2683992E+04  0.7818609E-02  0.8340218E-01
       -2   -1    0    0    0  501  0.00000000000E+00  0.00000000000E+00  0.13049982242E+04  0.13049982242E+04  0.25500000920E-02 0.  1.
        2   -1    0    0  501    0  0.00000000000E+00  0.00000000000E+00 -0.13800432035E+04  0.13800432035E+04  0.25500000920E-02 0. -1.
    10030    2    1    2    0    0  0.00000000000E+00  0.00000000000E+00 -0.75044979297E+02  0.26850414277E+04  0.26839924962E+04 0.  0.
        3    1    3    3  502    0  0.11039246739E+03  0.13082467623E+04 -0.31558404728E+03  0.13502923347E+04  0.10100000352E+00 0. -1.
       -3    1    3    3    0  502 -0.11039246739E+03 -0.13082467623E+04  0.24053906799E+03  0.13347490930E+04  0.10100000352E+00 0.  1.
</event>
<event>
 5   0  0.1931119E-05  0.2711382E+04  0.7818609E-02  0.8331321E-01
       -2   -1    0    0    0  501  0.00000000000E+00  0.00000000000E+00  0.71908424477E+03  0.71908424477E+03  0.25500000920E-02 0. -1.
        2   -1    0    0  501    0  0.00000000000E+00  0.00000000000E+00 -0.25558872145E+04  0.25558872145E+04  0.25500000920E-02 0.  1.
    10030    2    1    2    0    0  0.00000000000E+00  0.00000000000E+00 -0.18368029697E+04  0.32749714593E+04  0.27113821032E+04 0.  0.
        3    1    3    3  502    0  0.95675084796E+03 -0.65104546448E+03 -0.17713476124E+04  0.21158697399E+04  0.10100000352E+00 0.  1.
       -3    1    3    3    0  502 -0.95675084796E+03  0.65104546448E+03 -0.65455357295E+02  0.11591017194E+04  0.10100000352E+00 0. -1.
</event>
<event>
 5   0  0.1826851E-05  0.2539786E+04  0.7818609E-02  0.8388947E-01
       -2   -1    0    0    0  501  0.00000000000E+00  0.00000000000E+00  0.67230578663E+03  0.67230578664E+03  0.25500000920E-02 0.  1.
        2   -1    0    0  501    0  0.00000000000E+00  0.00000000000E+00 -0.23986538487E+04  0.23986538487E+04  0.25500000920E-02 0. -1.
    10030    2    1    2    0    0  0.00000000000E+00  0.00000000000E+00 -0.17263480621E+04  0.30709596354E+04  0.25397864970E+04 0.  0.
        5    1    3    3  502    0  0.73512316658E+03  0.94703486213E+03 -0.13694643871E+04  0.18200922773E+04  0.46999998093E+01 0. -1.
       -5    1    3    3    0  502 -0.73512316658E+03 -0.94703486213E+03 -0.35688367497E+03  0.12508673581E+04  0.46999998093E+01 0.  1.
</event>
<event>
 5   0  0.6804685E-06  0.2109401E+04  0.7818609E-02  0.8557113E-01
       -1   -1    0    0    0  501  0.00000000000E+00  0.00000000000E+00  0.56887078108E+03  0.56887078110E+03  0.50400001928E-02 0. -1.
        1   -1    0    0  501    0  0.00000000000E+00  0.00000000000E+00 -0.19554415279E+04  0.19554415280E+04  0.50400001928E-02 0.  1.
    10030    2    1    2    0    0  0.00000000000E+00  0.00000000000E+00 -0.13865707469E+04  0.25243123091E+04  0.21094013837E+04 0.  0.
        2    1    3    3  502    0 -0.92059365203E+03 -0.28220616921E+03 -0.12083661469E+04  0.15450830848E+04  0.25500000920E-02 0.  1.
       -2    1    3    3    0  502  0.92059365203E+03  0.28220616921E+03 -0.17820459996E+03  0.97922922421E+03  0.25500000920E-02 0. -1.
</event>
<event>
 5   0  0.7754912E-06  0.2740306E+04  0.7818609E-02  0.8322044E-01
       -1   -1    0    0    0  501  0.00000000000E+00  0.00000000000E+00  0.13054928150E+04  0.13054928150E+04  0.50400001928E-02 0.  1.
        1   -1    0    0  501    0  0.00000000000E+00  0.00000000000E+00 -0.14380159575E+04  0.14380159575E+04  0.50400001928E-02 0. -1.
    10030    2    1    2    0    0  0.00000000000E+00  0.00000000000E+00 -0.13252314257E+03  0.27435087725E+04  0.27403061876E+04 0.  0.
        4    1    3    3  502    0  0.44871108762E+03  0.89446371530E+03 -0.10032564768E+04  0.14170152255E+04  0.12699999809E+01 0. -1.
       -4    1    3    3    0  502 -0.44871108762E+03 -0.89446371530E+03  0.87073333421E+03  0.13264935470E+04  0.12699999809E+01 0.  1.
</event>
<event>
 5   0  0.1788003E-05  0.2698031E+04  0.7818609E-02  0.8335644E-01
       -2   -1    0    0    0  501  0.00000000000E+00  0.00000000000E+00  0.85620697584E+03  0.85620697585E+03  0.25500000920E-02 0. -1.
        2   -1    0    0  501    0  0.00000000000E+00  0.00000000000E+00 -0.21254706840E+04  0.21254706840E+04  0.25500000920E-02 0.  1.
    10030    2    1    2    0    0  0.00000000000E+00  0.00000000000E+00 -0.12692637082E+04  0.29816776599E+04  0.26980310055E+04 0.  0.
        2    1    3    3  502    0 -0.52087510590E+03  0.65309966722E+03  0.53596886185E+03  0.99252842385E+03  0.25500000920E-02 0. -1.
       -2    1    3    3    0  502  0.52087510590E+03 -0.65309966722E+03 -0.18052325700E+04  0.19891492360E+04  0.25500000920E-02 0.  1.
</event>
<event>
 5   0  0.1931119E-05  0.2723683E+04  0.7818609E-02  0.8327361E-01
        2   -1    0    0  501    0  0.00000000000E+00  0.00000000000E+00  0.21203377224E+04  0.21203377224E+04  0.25500000920E-02 0.  1.
       -2   -1    0    0    0  501  0.00000000000E+00  0.00000000000E+00 -0.87467796282E+03  0.87467796282E+03  0.25500000920E-02 0. -1.
    10030    2    1    2    0    0  0.00000000000E+00  0.00000000000E+00  0.12456597596E+04  0.29950156852E+04  0.27236832999E+04 0.  0.
        3    1    3    3  502    0 -0.42181941662E+02 -0.12609156441E+03  0.21131834130E+04  0.21173621669E+04  0.10100000352E+00 0.  1.
       -3    1    3    3    0  502  0.42181941662E+02  0.12609156441E+03 -0.86752365339E+03  0.87765351831E+03  0.10100000352E+00 0. -1.
</event>
<event>
 5   0  0.7348964E-06  0.2732230E+04  0.7818609E-02  0.8324623E-01
       -1   -1    0    0    0  501  0.00000000000E+00  0.00000000000E+00  0.10169558420E+04  0.10169558420E+04  0.50400001928E-02 0. -1.
        1   -1    0    0  501    0  0.00000000000E+00  0.00000000000E+00 -0.18351530003E+04  0.18351530003E+04  0.50400001928E-02 0.  1.
    10030    2    1    2    0    0  0.00000000000E+00  0.00000000000E+00 -0.81819715835E+03  0.28521088423E+04  0.27322295398E+04 0.  0.
        1    1    3    3  502    0  0.57643829208E+03 -0.19478983245E+03 -0.16858939412E+04  0.17923343897E+04  0.50400001928E-02 0.  1.
       -1    1    3    3    0  502 -0.57643829208E+03  0.19478983245E+03  0.86769678286E+03  0.10597744526E+04  0.50400001928E-02 0. -1.
</event>
<event>
 5   0  0.1826851E-05  0.2427724E+04  0.7818609E-02  0.8429197E-01
        2   -1    0    0  501    0  0.00000000000E+00  0.00000000000E+00  0.12408495131E+04  0.12408495131E+04  0.25500000920E-02 0. -1.
       -2   -1    0    0    0  501  0.00000000000E+00  0.00000000000E+00 -0.11874612046E+04  0.11874612046E+04  0.25500000920E-02 0.  1.
    10030    2    1    2    0    0  0.00000000000E+00  0.00000000000E+00  0.53388308456E+02  0.24283107177E+04  0.24277237549E+04 0.  0.
        5    1    3    3  502    0  0.85304400065E+03 -0.85511637898E+03  0.14726573456E+03  0.12168062193E+04  0.46999998093E+01 0.  1.
       -5    1    3    3    0  502 -0.85304400065E+03  0.85511637898E+03 -0.93877426103E+02  0.12115044985E+04  0.46999998093E+01 0. -1.
</event>
<event>
 5   0  0.7348964E-06  0.2670078E+04  0.7818609E-02  0.8344779E-01
        1   -1    0    0  501    0  0.00000000000E+00  0.00000000000E+00  0.30901265177E+04  0.30901265177E+04  0.50400001928E-02 0.  1.
       -1   -1    0    0    0  501  0.00000000000E+00  0.00000000000E+00 -0.57678212805E+03  0.57678212807E+03  0.50400001928E-02 0. -1.
    10030    2    1    2    0    0  0.00000000000E+00  0.00000000000E+00  0.25133443897E+04  0.36669086458E+04  0.26700784624E+04 0.  0.
        1    1    3    3  502    0  0.24491483648E+03  0.41854260235E+03  0.29648964448E+04  0.30042922820E+04  0.50400001928E-02 0.  1.
       -1    1    3    3    0  502 -0.24491483648E+03 -0.41854260235E+03 -0.45155205511E+03  0.66261636383E+03  0.50400001928E-02 0. -1.
</event>
<event>
 5   0  0.7600052E-06  0.2714633E+04  0.7818609E-02  0.8330273E-01
        1   -1    0    0  501    0  0.00000000000E+00  0.00000000000E+00  0.15116411163E+04  0.15116411163E+04  0.50400001928E-02 0. -1.
       -1   -1    0    0    0  501  0.00000000000E+00  0.00000000000E+00 -0.12187467231E+04  0.12187467231E+04  0.50400001928E-02 0.  1.
    10030    2    1    2    0    0  0.00000000000E+00  0.00000000000E+00  0.29289439318E+03  0.27303878395E+04  0.27146326876E+04 0.  0.
        5    1    3    3  502    0 -0.10237022644E+04  0.72697857158E+03  0.66501820736E+03  0.14208221127E+04  0.46999998093E+01 0.  1.
       -5    1    3    3    0  502  0.10237022644E+04 -0.72697857158E+03 -0.37212381418E+03  0.13095657268E+04  0.46999998093E+01 0. -1.
</event>
<event>
 5   0  0.1788003E-05  0.2707695E+04  0.7818609E-02  0.8332513E-01
        2   -1    0    0  501    0  0.00000000000E+00  0.00000000000E+00  0.23469118122E+04  0.23469118122E+04  0.25500000920E-02 0.  1.
       -2   -1    0    0    0  501  0.00000000000E+00  0.00000000000E+00 -0.78098483161E+03  0.78098483162E+03  0.25500000920E-02 0. -1.
    10030    2    1    2    0    0  0.00000000000E+00  0.00000000000E+00  0.15659269805E+04  0.31278966438E+04  0.27076946109E+04 0.  0.
        2    1    3    3  502    0  0.88089711724E+03 -0.70115201448E+03 -0.85587916569E+02  0.11291231864E+04  0.25500000920E-02 0. -1.
       -2    1    3    3    0  502 -0.88089711724E+03  0.70115201448E+03  0.16515148971E+04  0.19987734574E+04  0.25500000920E-02 0.  1.
</event>
<event>
 5   0  0.7348964E-06  0.2729341E+04  0.7818609E-02  0.8325547E-01
        1   -1    0    0  501    0  0.00000000000E+00  0.00000000000E+00  0.10194195576E+04  0.10194195576E+04  0.50400001928E-02 0.  1.
       -1   -1    0    0    0  501  0.00000000000E+00  0.00000000000E+00 -0.18268487222E+04  0.18268487222E+04  0.50400001928E-02 0. -1.
    10030    2    1    2    0    0  0.00000000000E+00  0.00000000000E+00 -0.80742916464E+03  0.28462682798E+04  0.27293408113E+04 0.  0.
        1    1    3    3  502    0  0.40414792753E+03 -0.67032448770E+03 -0.15694851949E+04  0.17538398568E+04  0.50400001928E-02 0. -1.
       -1    1    3    3    0  502 -0.40414792753E+03  0.67032448770E+03  0.76205603025E+03  0.10924284230E+04  0.50400001928E-02 0.  1.
</event>
<event>
 5   0  0.6804685E-06  0.2683059E+04  0.7818609E-02  0.8340523E-01
        1   -1    0    0  501    0  0.00000000000E+00  0.00000000000E+00  0.11017183826E+04  0.11017183826E+04  0.50400001928E-02 0. -1.
       -1   -1    0    0    0  501  0.00000000000E+00  0.00000000000E+00 -0.16335405499E+04  0.16335405499E+04  0.50400001928E-02 0.  1.
    10030    2    1    2    0    0  0.00000000000E+00  0.00000000000E+00 -0.53182216726E+03  0.27352589325E+04  0.26830591888E+04 0.  0.
        2    1    3    3  502    0  0.24523797917E+02  0.55075425896E+03  0.98089983907E+03  0.11252093871E+04  0.25500000920E-02 0. -1.
       -2    1    3    3    0  502 -0.24523797917E+02 -0.55075425896E+03 -0.15127220063E+04  0.16100495455E+04  0.25500000920E-02 0.  1.
</event>
<event>
 5   0  0.1826851E-05  0.2683192E+04  0.7818609E-02  0.8340479E-01
       -2   -1    0    0    0  501  0.00000000000E+00  0.00000000000E+00  0.15916027244E+04  0.15916027244E+04  0.25500000920E-02 0.  1.
        2   -1    0    0  501    0  0.00000000000E+00  0.00000000000E+00 -0.11308598118E+04  0.11308598118E+04  0.25500000920E-02 0. -1.
    10030    2    1    2    0    0  0.00000000000E+00  0.00000000000E+00  0.46074291259E+03  0.27224625363E+04  0.26831917990E+04 0.  0.
        5    1    3    3  502    0  0.86647418824E+03  0.88211008027E+02  0.12657469258E+04  0.15364556847E+04  0.46999998093E+01 0.  1.
       -5    1    3    3    0  502 -0.86647418824E+03 -0.88211008027E+02 -0.80500401320E+03  0.11860068516E+04  0.46999998093E+01 0. -1.
</event>
<event>
 5   0  0.1881699E-05  0.2665400E+04  0.7818609E-02  0.8346320E-01
       -2   -1    0    0    0  501  0.00000000000E+00  0.00000000000E+00  0.12490289776E+04  0.12490289776E+04  0.25500000920E-02 0. -1.
        2   -1    0    0  501    0  0.00000000000E+00  0.00000000000E+00 -0.14219759333E+04  0.14219759333E+04  0.25500000920E-02 0.  1.
    10030    2    1    2    0    0  0.00000000000E+00  0.00000000000E+00 -0.17294695569E+03  0.26710049109E+04  0.26653998920E+04 0.  0.
        4    1    3    3  502    0  0.84898051660E+03  0.93460537314E+03 -0.51378830332E+03  0.13631709924E+04  0.12699999809E+01 0.  1.
       -4    1    3    3    0  502 -0.84898051660E+03 -0.93460537314E+03  0.34084134762E+03  0.13078339184E+04  0.12699999809E+01 0. -1.
</event>
<event>
 5   0  0.6804685E-06  0.2797330E+04  0.7818609E-02  0.8304098E-01
       -1   -1    0    0    0  501  0.00000000000E+00  0.00000000000E+00  0.10515549540E+04  0.10515549540E+04  0.50400001928E-02 0.  1.
        1   -1    0    0  501    0  0.00000000000E+00  0.00000000000E+00 -0.18603538098E+04  0.18603538098E+04  0.50400001928E-02 0. -1.
    10030    2    1    2    0    0  0.00000000000E+00  0.00000000000E+00 -0.80879885587E+03  0.29119087638E+04  0.27973303451E+04 0.  0.
        2    1    3    3  502    0 -0.13476074725E+04  0.34577145103E+03 -0.25477445283E+03  0.14143952128E+04  0.25500000920E-02 0. -1.
       -2    1    3    3    0  502  0.13476074725E+04 -0.34577145103E+03 -0.55402440304E+03  0.14975135510E+04  0.25500000920E-02 0.  1.
</event>
<event>
 5   0  0.7351590E-06  0.2701658E+04  0.7818609E-02  0.8334467E-01
        1   -1    0    0  501    0  0.00000000000E+00  0.00000000000E+00  0.15665786498E+04  0.15665786498E+04  0.50400001928E-02 0.  1.
       -1   -1    0    0    0  501  0.00000000000E+00  0.00000000000E+00 -0.11647923474E+04  0.11647923474E+04  0.50400001928E-02 0. -1.
    10030    2    1    2    0    0  0.00000000000E+00  0.00000000000E+00  0.40178630240E+03  0.27313709973E+04  0.27016578784E+04 0.  0.
        3    1    3    3  502    0 -0.44463494655E+03  0.10229661924E+04 -0.56944411583E+03  0.12523684273E+04  0.10100000352E+00 0. -1.
       -3    1    3    3    0  502  0.44463494655E+03 -0.10229661924E+04  0.97123041824E+03  0.14790025700E+04  0.10100000352E+00 0.  1.
</event>
<event>
 5   0  0.6804685E-06  0.2697239E+04  0.7818609E-02  0.8335901E-01
       -1   -1    0    0    0  501  0.00000000000E+00  0.00000000000E+00  0.14343414560E+04  0.14343414560E+04  0.50400001928E-02 0. -1.
        1   -1    0    0  501    0  0.00000000000E+00  0.00000000000E+00 -0.12680209167E+04  0.12680209167E+04  0.50400001928E-02 0.  1.
    10030    2    1    2    0    0  0.00000000000E+00  0.00000000000E+00  0.16632053928E+03  0.27023623728E+04  0.26972393057E+04 0.  0.
        2    1    3    3  502    0  0.10122067217E+04 -0.12756862588E+03 -0.80052336524E+03  0.12967936845E+04  0.25500000920E-02 0.  1.
       -2    1    3    3    0  502 -0.10122067217E+04  0.12756862588E+03  0.96684390452E+03  0.14055686883E+04  0.25500000920E-02 0. -1.
</event>
<event>
 5   0  0.1931119E-05  0.2537725E+04  0.7818609E-02  0.8389668E-01
        2   -1    0    0  501    0  0.00000000000E+00  0.00000000000E+00  0.16395035644E+04  0.16395035644E+04  0.25500000920E-02 0. -1.
       -2   -1    0    0    0  501  0.00000000000E+00  0.00000000000E+00 -0.98201153887E+03  0.98201153888E+03  0.25500000920E-02 0.  1.
    10030    2    1    2    0    0  0.00000000000E+00  0.00000000000E+00  0.65749202555E+03  0.26215151033E+04  0.25377245070E+04 0.  0.
        3    1    3    3  502    0 -0.79626565532E+03 -0.50809216989E+03  0.12039596638E+04  0.15302664896E+04  0.10100000352E+00 0. -1.
       -3    1    3    3    0  502  0.79626565532E+03  0.50809216989E+03 -0.54646763828E+03  0.10912486137E+04  0.10100000352E+00 0.  1.
</event>
<event>
 5   0  0.6175875E-06  0.2679292E+04  0.7818609E-02  0.8341755E-01
       -3   -1    0    0    0  501  0.00000000000E+00  0.00000000000E+00  0.12108461609E+04  0.12108461652E+04  0.10100000352E+00 0. -1.
        3   -1    0    0  501    0  0.00000000000E+00  0.00000000000E+00 -0.14821468586E+04  0.14821468621E+04  0.10100000352E+00 0.  1.
    10030    2    1    2    0    0  0.00000000000E+00  0.00000000000E+00 -0.27130069767E+03  0.26929930272E+04  0.26792923275E+04 0.  0.
        3    1    3    3  502    0  0.10741816109E+04  0.66051365056E+03 -0.59018778856E+03  0.13922880635E+04  0.10100000352E+00 0.  1.
       -3    1    3    3    0  502 -0.10741816109E+04 -0.66051365056E+03  0.31888709088E+03  0.13007049637E+04  0.10100000352E+00 0. -1.
</event>
<event>
 5   0  0.7754912E-06  0.2579434E+04  0.7818609E-02  0.8375221E-01
        1   -1    0    0  501    0  0.00000000000E+00  0.00000000000E+00  0.16688190875E+04  0.16688190875E+04  0.50400001928E-02 0.  1.
       -1   -1    0    0    0  501  0.00000000000E+00  0.00000000000E+00 -0.99673497531E+03  0.99673497532E+03  0.50400001928E-02 0. -1.
    10030    2    1    2    0    0  0.00000000000E+00  0.00000000000E+00  0.67208411223E+03  0.26655540629E+04  0.25794343194E+04 0.  0.
        4    1    3    3  502    0 -0.20329282062E+03  0.60274101222E+03 -0.82335377701E+03  0.10404507455E+04  0.12699999809E+01 0. -1.
       -4    1    3    3    0  502  0.20329282062E+03 -0.60274101222E+03  0.14954378892E+04  0.16251033174E+04  0.12699999809E+01 0.  1.
</event>
<event>
 5   0  0.7351590E-06  0.2724444E+04  0.7818609E-02  0.8327117E-01
        1   -1    0    0  501    0  0.00000000000E+00  0.00000000000E+00  0.25474805253E+04  0.25474805253E+04  0.50400001928E-02 0. -1.
       -1   -1    0    0    0  501  0.00000000000E+00  0.00000000000E+00 -0.72842531015E+03  0.72842531016E+03  0.50400001928E-02 0.  1.
    10030    2    1    2    0    0  0.00000000000E+00  0.00000000000E+00  0.18190552151E+04  0.32759058354E+04  0.27244443777E+04 0.  0.
        3    1    3    3  502    0  0.56461937410E+03  0.76274041884E+03 -0.26556916710E+03  0.98544151367E+03  0.10100000352E+00 0.  1.
       -3    1    3    3    0  502 -0.56461937410E+03 -0.76274041884E+03  0.20846243822E+04  0.22904643218E+04  0.10100000352E+00 0. -1.
</event>
<event>
 5   0  0.1878160E-05  0.2799185E+04  0.7818609E-02  0.8303521E-01
        2   -1    0    0  501    0  0.00000000000E+00  0.00000000000E+00  0.17924342634E+04  0.17924342634E+04  0.25500000920E-02 0. -1.
       -2   -1    0    0    0  501  0.00000000000E+00  0.00000000000E+00 -0.10928484594E+04  0.10928484594E+04  0.25500000920E-02 0.  1.
    10030    2    1    2    0    0  0.00000000000E+00  0.00000000000E+00  0.69958580400E+03  0.28852827228E+04  0.27991848980E+04 0.  0.
        1    1    3    3  502    0 -0.67027834565E+03 -0.47511824759E+03  0.15177145193E+04  0.17258237952E+04  0.50400001928E-02 0. -1.
       -1    1    3    3    0  502  0.67027834565E+03  0.47511824759E+03 -0.81812871535E+03  0.11594589276E+04  0.50400001928E-02 0.  1.
</event>
<event>
 5   0  0.7348964E-06  0.2714602E+04  0.7818609E-02  0.8330283E-01
       -1   -1    0    0    0  501  0.00000000000E+00  0.00000000000E+00  0.16153285073E+04  0.16153285073E+04  0.50400001928E-02 0. -1.
        1   -1    0    0  501    0  0.00000000000E+00  0.00000000000E+00 -0.11404896773E+04  0.11404896773E+04  0.50400001928E-02 0.  1.
    10030    2    1    2    0    0  0.00000000000E+00  0.00000000000E+00  0.47483882992E+03  0.27558181846E+04  0.27146016194E+04 0.  0.
        1    1    3    3  502    0  0.47666167856E+03 -0.37756629466E+03 -0.99447227644E+03  0.11656490773E+04  0.50400001928E-02 0.  1.
       -1    1    3    3    0  502 -0.47666167856E+03  0.37756629466E+03  0.14693111064E+04  0.15901691073E+04  0.50400001928E-02 0. -1.
</event>
<event>
 5   0  0.1931119E-05  0.2657148E+04  0.7818609E-02  0.8349044E-01
       -2   -1    0    0    0  501  0.00000000000E+00  0.00000000000E+00  0.12011424621E+04  0.12011424621E+04  0.25500000920E-02 0. -1.
        2   -1    0    0  501    0  0.00000000000E+00  0.00000000000E+00 -0.14695247393E+04  0.14695247393E+04  0.25500000920E-02 0.  1.
    10030    2    1    2    0    0  0.00000000000E+00  0.00000000000E+00 -0.26838227718E+03  0.26706672014E+04  0.26571477667E+04 0.  0.
        3    1    3    3  502    0  0.88893156802E+03  0.58007194654E+03 -0.93727198203E+03  0.14160372786E+04  0.10100000352E+00 0.  1.
       -3    1    3    3    0  502 -0.88893156802E+03 -0.58007194654E+03  0.66888970485E+03  0.12546299228E+04  0.10100000352E+00 0. -1.
</event>
<event>
 5   0  0.1931119E-05  0.2195226E+04  0.7818609E-02  0.8520418E-01
        2   -1    0    0  501    0  0.00000000000E+00  0.00000000000E+00  0.17376152015E+04  0.17376152015E+04  0.25500000920E-02 0. -1.
       -2   -1    0    0    0  501  0.00000000000E+00  0.00000000000E+00 -0.69333761770E+03  0.69333761771E+03  0.25500000920E-02 0.  1.
    10030    2    1    2    0    0  0.00000000000E+00  0.00000000000E+00  0.10442775838E+04  0.24309528192E+04  0.21952257144E+04 0.  0.
        3    1    3    3  502    0  0.85577971962E+03  0.68672439577E+03  0.55355116974E+03  0.12289703951E+04  0.10100000352E+00 0. -1.
       -3    1    3    3    0  502 -0.85577971962E+03 -0.68672439577E+03  0.49072641406E+03  0.12019824241E+04  0.10100000352E+00 0.  1.
</event>
<event>
 5   0  0.1881699E-05  0.2675532E+04  0.7818609E-02  0.8342988E-01
       -2   -1    0    0    0  501  0.00000000000E+00  0.00000000000E+00  0.89416146654E+03  0.89416146655E+03  0.25500000920E-02 0.  1.
        2   -1    0    0  501    0  0.00000000000E+00  0.00000000000E+00 -0.20014483319E+04  0.20014483319E+04  0.25500000920E-02 0. -1.
    10030    2    1    2    0    0  0.00000000000E+00  0.00000000000E+00 -0.11072868654E+04  0.28956097984E+04  0.26755320784E+04 0.  0.
        4    1    3    3  502    0 -0.24271125635E+03 -0.89169037081E+03 -0.16004682939E+04  0.18481127790E+04  0.12699999809E+01 0. -1.
       -4    1    3    3    0  502  0.24271125635E+03  0.89169037081E+03  0.49318142853E+03  0.10474970194E+04  0.12699999809E+01 0.  1.
</event>
<event>
 5   0  0.7600052E-06  0.2624957E+04  0.7818609E-02  0.8359773E-01
       -1   -1    0    0    0  501  0.00000000000E+00  0.00000000000E+00  0.12242239362E+04  0.12242239362E+04  0.50400001928E-02 0. -1.
        1   -1    0    0  501    0  0.00000000000E+00  0.00000000000E+00 -0.14070950793E+04  0.14070950793E+04  0.50400001928E-02 0.  1.
    10030    2    1    2    0    0  0.00000000000E+00  0.00000000000E+00 -0.18287114313E+03  0.26313190155E+04  0.26249567437E+04 0.  0.
        5    1    3    3  502    0 -0.38265657547E+03 -0.49336671478E+03  0.10658063822E+04  0.12352336234E+04  0.46999998093E+01 0. -1.
       -5    1    3    3    0  502  0.38265657547E+03  0.49336671478E+03 -0.12486775253E+04  0.13960853921E+04  0.46999998093E+01 0.  1.
</event>
<event>
 5   0  0.1881699E-05  0.2400435E+04  0.7818609E-02  0.8439341E-01
        2   -1    0    0  501    0  0.00000000000E+00  0.00000000000E+00  0.78846951498E+03  0.78846951498E+03  0.25500000920E-02 0. -1.
       -2   -1    0    0    0  501  0.00000000000E+00  0.00000000000E+00 -0.18269855120E+04  0.18269855120E+04  0.25500000920E-02 0.  1.
    10030    2    1    2    0    0  0.00000000000E+00  0.00000000000E+00 -0.10385159971E+04  0.26154550270E+04  0.24004352777E+04 0.  0.
        4    1    3    3  502    0  0.99139090483E+03 -0.53898483016E+03 -0.96473336079E+03  0.14846119505E+04  0.12699999809E+01 0.  1.
       -4    1    3    3    0  502 -0.99139090483E+03  0.53898483016E+03 -0.73782636261E+02  0.11308430765E+04  0.12699999809E+01 0. -1.
</event>
<event>
 5   0  0.7600052E-06  0.2639869E+04  0.7818609E-02  0.8354783E-01
        1   -1    0    0  501    0  0.00000000000E+00  0.00000000000E+00  0.11680961683E+04  0.11680961683E+04  0.50400001928E-02 0. -1.
       -1   -1    0    0    0  501  0.00000000000E+00  0.00000000000E+00 -0.14915098023E+04  0.14915098023E+04  0.50400001928E-02 0.  1.
    10030    2    1    2    0    0  0.00000000000E+00  0.00000000000E+00 -0.32341363401E+03  0.26596059706E+04  0.26398688490E+04 0.  0.
        5    1    3    3  502    0 -0.61409724813E+03  0.11379555925E+04  0.10512508274E+03  0.12973556697E+04  0.46999998093E+01 0. -1.
       -5    1    3    3    0  502  0.61409724813E+03 -0.11379555925E+04 -0.42853871675E+03  0.13622503009E+04  0.46999998093E+01 0.  1.
</event>
<event>
 5   0  0.1878160E-05  0.2721457E+04  0.7818609E-02  0.8328076E-01
       -2   -1    0    0    0  501  0.00000000000E+00  0.00000000000E+00  0.10384310072E+04  0.10384310072E+04  0.25500000920E-02 0.  1.
        2   -1    0    0  501    0  0.00000000000E+00  0.00000000000E+00 -0.17830576727E+04  0.17830576727E+04  0.25500000920E-02 0. -1.
    10030    2    1    2    0    0  0.00000000000E+00  0.00000000000E+00 -0.74462666553E+03  0.28214886800E+04  0.27214572383E+04 0.  0.
        1    1    3    3  502    0  0.71498265165E+03 -0.10821760722E+04  0.54242557252E+02  0.12981708279E+04  0.50400001928E-02 0.  1.
       -1    1    3    3    0  502 -0.71498265165E+03  0.10821760722E+04 -0.79886922278E+03  0.15233178521E+04  0.50400001928E-02 0. -1.
</event>
<event>
 5   0  0.6804685E-06  0.2708741E+04  0.7818609E-02  0.8332174E-01
        1   -1    0    0  501    0  0.00000000000E+00  0.00000000000E+00  0.12590563720E+04  0.12590563720E+04  0.50400001928E-02 0.  1.
       -1   -1    0    0    0  501  0.00000000000E+00  0.00000000000E+00 -0.14569001996E+04  0.14569001997E+04  0.50400001928E-02 0. -1.
    10030    2    1    2    0    0  0.00000000000E+00  0.00000000000E+00 -0.19784382763E+03  0.27159565717E+04  0.27087410211E+04 0.  0.
        2    1    3    3  502    0 -0.65096021013E+03 -0.11406272521E+04  0.23292762766E+03  0.13338047095E+04  0.25500000920E-02 0.  1.
       -2    1    3    3    0  502  0.65096021013E+03  0.11406272521E+04 -0.43077145528E+03  0.13821518622E+04  0.25500000920E-02 0. -1.
</event>
<event>
 5   0  0.1826851E-05  0.2671357E+04  0.7818609E-02  0.8344359E-01
        2   -1    0    0  501    0  0.00000000000E+00  0.00000000000E+00  0.21268194700E+04  0.21268194700E+04  0.25500000920E-02 0.  1.
       -2   -1    0    0    0  501  0.00000000000E+00  0.00000000000E+00 -0.83882852218E+03  0.83882852219E+03  0.25500000920E-02 0. -1.
    10030    2    1    2    0    0  0.00000000000E+00  0.00000000000E+00  0.12879909478E+04  0.29656479922E+04  0.26713568335E+04 0.  0.
        5    1    3    3  502    0  0.76990380025E+03  0.10324969933E+04  0.25115870479E+03  0.13122136594E+04  0.46999998093E+01 0. -1.
       -5    1    3    3    0  502 -0.76990380025E+03 -0.10324969933E+04  0.10368322430E+04  0.16534343328E+04  0.46999998093E+01 0.  1.
</event>
<event>
 5   0  0.7351590E-06  0.2632119E+04  0.7818609E-02  0.8357372E-01
       -1   -1    0    0    0  501  0.00000000000E+00  0.00000000000E+00  0.10520026795E+04  0.10520026795E+04  0.50400001928E-02 0.  1.
        1   -1    0    0  501    0  0.00000000000E+00  0.00000000000E+00 -0.16463960186E+04  0.16463960186E+04  0.50400001928E-02 0. -1.
    10030    2    1    2    0    0  0.00000000000E+00  0.00000000000E+00 -0.59439333910E+03  0.26983986981E+04  0.26321193158E+04 0.  0.
        3    1    3    3  502    0  0.33212762956E+03 -0.30740531832E+03  0.96972390368E+03  0.10701267456E+04  0.10100000352E+00 0.  1.
       -3    1    3    3    0  502 -0.33212762956E+03  0.30740531832E+03 -0.15641172428E+04  0.16282719525E+04  0.10100000352E+00 0. -1.
</event>
<event>
 5   0  0.7351590E-06  0.3027784E+04  0.7818609E-02  0.8235841E-01
       -1   -1    0    0    0  501  0.00000000000E+00  0.00000000000E+00  0.15645933451E+04  0.15645933451E+04  0.50400001928E-02 0.  1.
        1   -1    0    0  501    0  0.00000000000E+00  0.00000000000E+00 -0.14648339924E+04  0.14648339924E+04  0.50400001928E-02 0. -1.
    10030    2    1    2    0    0  0.00000000000E+00  0.00000000000E+00  0.99759352643E+02  0.30294273375E+04  0.30277843491E+04 0.  0.
        3    1    3    3  502    0 -0.20731552384E+03  0.12076413913E+04  0.93945833118E+03  0.15440075850E+04  0.10100000352E+00 0.  1.
       -3    1    3    3    0  502  0.20731552384E+03 -0.12076413913E+04 -0.83969897854E+03  0.14854197525E+04  0.10100000352E+00 0. -1.
</event>
<event>
 5   0  0.7351590E-06  0.1983109E+04  0.7818609E-02  0.8614559E-01
       -1   -1    0    0    0  501  0.00000000000E+00  0.00000000000E+00  0.11476333385E+04  0.11476333385E+04  0.50400001928E-02 0. -1.
        1   -1    0    0  501    0  0.00000000000E+00  0.00000000000E+00 -0.85670220023E+03  0.85670220025E+03  0.50400001928E-02 0.  1.
    10030    2    1    2    0    0  0.00000000000E+00  0.00000000000E+00  0.29093113827E+03  0.20043355388E+04  0.19831086770E+04 0.  0.
        3    1    3    3  502    0  0.53873565399E+02 -0.21908983041E+00  0.11461530089E+04  0.11474184673E+04  0.10100000352E+00 0. -1.
       -3    1    3    3    0  502 -0.53873565399E+02  0.21908983041E+00 -0.85522187067E+03  0.85691707144E+03  0.10100000352E+00 0.  1.
</event>
<event>
 5   0  0.6804685E-06  0.2686536E+04  0.7818609E-02  0.8339387E-01
        1   -1    0    0  501    0  0.00000000000E+00  0.00000000000E+00  0.74893444849E+03  0.74893444851E+03  0.50400001928E-02 0.  1.
       -1   -1    0    0    0  501  0.00000000000E+00  0.00000000000E+00 -0.24092473305E+04  0.24092473305E+04  0.50400001928E-02 0. -1.
    10030    2    1    2    0    0  0.00000000000E+00  0.00000000000E+00 -0.16603128820E+04  0.31581817791E+04  0.26865355541E+04 0.  0.
        2    1    3    3  502    0  0.11903806045E+04  0.47669697128E+03 -0.13005598800E+04  0.18263904258E+04  0.25500000920E-02 0. -1.
       -2    1    3    3    0  502 -0.11903806045E+04 -0.47669697128E+03 -0.35975300203E+03  0.13317913532E+04  0.25500000920E-02 0.  1.
</event>
<event>
 5   0  0.7600052E-06  0.2561721E+04  0.7818609E-02  0.8381321E-01
       -1   -1    0    0    0  501  0.00000000000E+00  0.00000000000E+00  0.12364105124E+04  0.12364105125E+04  0.50400001928E-02 0. -1.
        1   -1    0    0  501    0  0.00000000000E+00  0.00000000000E+00 -0.13269082025E+04  0.13269082026E+04  0.50400001928E-02 0.  1.
    10030    2    1    2    0    0  0.00000000000E+00  0.00000000000E+00 -0.90497690108E+02  0.25633187150E+04  0.25617207113E+04 0.  0.
        5    1    3    3  502    0  0.99745108015E+03  0.15710491464E+01 -0.84928604914E+03  0.13100458041E+04  0.46999998093E+01 0.  1.
       -5    1    3    3    0  502 -0.99745108015E+03 -0.15710491464E+01  0.75878835903E+03  0.12532729109E+04  0.46999998093E+01 0. -1.
</event>
<event>
 5   0  0.1826851E-05  0.2636758E+04  0.7818609E-02  0.8355821E-01
       -2   -1    0    0    0  501  0.00000000000E+00  0.00000000000E+00  0.76034915122E+03  0.76034915122E+03  0.25500000920E-02 0.  1.
        2   -1    0    0  501    0  0.00000000000E+00  0.00000000000E+00 -0.22859542329E+04  0.22859542330E+04  0.25500000920E-02 0. -1.
    10030    2    1    2    0    0  0.00000000000E+00  0.00000000000E+00 -0.15256050817E+04  0.30463033842E+04  0.26367581313E+04 0.  0.
        5    1    3    3  502    0  0.81859837025E+03  0.21510459995E+03  0.40500292725E+03  0.93830844703E+03  0.46999998093E+01 0.  1.
       -5    1    3    3    0  502 -0.81859837025E+03 -0.21510459995E+03 -0.19306080090E+04  0.21079949371E+04  0.46999998093E+01 0. -1.
</event>
<event>
 5   0  0.6175875E-06  0.2702561E+04  0.7818609E-02  0.8334174E-01
       -3   -1    0    0    0  501  0.00000000000E+00  0.00000000000E+00  0.15109046546E+04  0.15109046580E+04  0.10100000352E+00 0. -1.
        3   -1    0    0  501    0  0.00000000000E+00  0.00000000000E+00 -0.12085203477E+04  0.12085203519E+04  0.10100000352E+00 0.  1.
    10030    2    1    2    0    0  0.00000000000E+00  0.00000000000E+00  0.30238430688E+03  0.27194250099E+04  0.27025610290E+04 0.  0.
        3    1    3    3  502    0  0.86604204080E+02 -0.13452659537E+04  0.24514633086E+03  0.13701596652E+04  0.10100000352E+00 0. -1.
       -3    1    3    3    0  502 -0.86604204080E+02  0.13452659537E+04  0.57237976020E+02  0.13492653447E+04  0.10100000352E+00 0.  1.
</event>
<event>
 5   0  0.1878160E-05  0.2702065E+04  0.7818609E-02  0.8334335E-01
       -2   -1    0    0    0  501  0.00000000000E+00  0.00000000000E+00  0.13588043285E+04  0.13588043285E+04  0.25500000920E-02 0. -1.
        2   -1    0    0  501    0  0.00000000000E+00  0.00000000000E+00 -0.13433050158E+04  0.13433050158E+04  0.25500000920E-02 0.  1.
    10030    2    1    2    0    0  0.00000000000E+00  0.00000000000E+00  0.15499312739E+02  0.27021093443E+04  0.27020648918E+04 0.  0.
        1    1    3    3  502    0  0.28340830007E+03  0.38977567329E+03  0.12699286237E+04  0.13582945370E+04  0.50400001928E-02 0. -1.
       -1    1    3    3    0  502 -0.28340830007E+03 -0.38977567329E+03 -0.12544293109E+04  0.13438148072E+04  0.50400001928E-02 0.  1.
</event>
<event>
 5   0  0.7348964E-06  0.2691214E+04  0.7818609E-02  0.8337861E-01
        1   -1    0    0  501    0  0.00000000000E+00  0.00000000000E+00  0.84676606626E+03  0.84676606627E+03  0.50400001928E-02 0.  1.
       -1   -1    0    0    0  501  0.00000000000E+00  0.00000000000E+00 -0.21383221031E+04  0.21383221031E+04  0.50400001928E-02 0. -1.
    10030    2    1    2    0    0  0.00000000000E+00  0.00000000000E+00 -0.12915560368E+04  0.29850881693E+04  0.26912142952E+04 0.  0.
        1    1    3    3  502    0  0.96451842417E+03  0.47330562658E+03  0.25283940887E+03  0.11037399030E+04  0.50400001928E-02 0.  1.
       -1    1    3    3    0  502 -0.96451842417E+03 -0.47330562658E+03 -0.15443954457E+04  0.18813482664E+04  0.50400001928E-02 0. -1.
</event>
<event>
 5   0  0.1881699E-05  0.2677207E+04  0.7818609E-02  0.8342439E-01
        2   -1    0    0  501    0  0.00000000000E+00  0.00000000000E+00  0.17122573358E+04  0.17122573358E+04  0.25500000920E-02 0.  1.
       -2   -1    0    0    0  501  0.00000000000E+00  0.00000000000E+00 -0.10464894638E+04  0.10464894638E+04  0.25500000920E-02 0. -1.
    10030    2    1    2    0    0  0.00000000000E+00  0.00000000000E+00  0.66576787200E+03  0.27587467996E+04  0.26772069484E+04 0.  0.
        4    1    3    3  502    0 -0.25741011649E+02 -0.93155626854E+03 -0.65731933333E+03  0.11404078218E+04  0.12699999809E+01 0. -1.
       -4    1    3    3    0  502  0.25741011649E+02  0.93155626854E+03  0.13230872053E+04  0.16183389778E+04  0.12699999809E+01 0.  1.
</event>
<event>
 5   0  0.1931119E-05  0.2719087E+04  0.7818609E-02  0.8328839E-01
       -2   -1    0    0    0  501  0.00000000000E+00  0.00000000000E+00  0.15905327537E+04  0.15905327537E+04  0.25500000920E-02 0.  1.
        2   -1    0    0  501    0  0.00000000000E+00  0.00000000000E+00 -0.11620999102E+04  0.11620999102E+04  0.25500000920E-02 0. -1.
    10030    2    1    2    0    0  0.00000000000E+00  0.00000000000E+00  0.42843284348E+03  0.27526326639E+04  0.27190865895E+04 0.  0.
        3    1    3    3  502    0 -0.10162752944E+04 -0.38682594373E+03 -0.61188314519E+03  0.12477382652E+04  0.10100000352E+00 0. -1.
       -3    1    3    3    0  502  0.10162752944E+04  0.38682594373E+03  0.10403159887E+04  0.15048943987E+04  0.10100000352E+00 0.  1.
</event>
<event>
 5   0  0.7351590E-06  0.2702293E+04  0.7818609E-02  0.8334261E-01
       -1   -1    0    0    0  501  0.00000000000E+00  0.00000000000E+00  0.10903096272E+04  0.10903096272E+04  0.50400001928E-02 0.  1.
        1   -1    0    0  501    0  0.00000000000E+00  0.00000000000E+00 -0.16743834778E+04  0.16743834778E+04  0.50400001928E-02 0. -1.
    10030    2    1    2    0    0  0.00000000000E+00  0.00000000000E+00 -0.58407385056E+03  0.27646931050E+04  0.27022926751E+04 0.  0.
        3    1    3    3  502    0 -0.84487015190E+03 -0.66111445114E+02 -0.13686775177E+04  0.16097995075E+04  0.10100000352E+00 0. -1.
       -3    1    3    3    0  502  0.84487015190E+03  0.66111445114E+02  0.78460366714E+03  0.11548935975E+04  0.10100000352E+00 0.  1.
</event>
<event>
 5   0  0.7600052E-06  0.2710353E+04  0.7818609E-02  0.8331654E-01
       -1   -1    0    0    0  501  0.00000000000E+00  0.00000000000E+00  0.20904231304E+04  0.20904231305E+04  0.50400001928E-02 0. -1.
        1   -1    0    0  501    0  0.00000000000E+00  0.00000000000E+00 -0.87853174003E+03  0.87853174005E+03  0.50400001928E-02 0.  1.
    10030    2    1    2    0    0  0.00000000000E+00  0.00000000000E+00  0.12118913904E+04  0.29689548705E+04  0.27103527964E+04 0.  0.
        5    1    3    3  502    0 -0.10910413380E+03  0.28481078436E+03 -0.84043886009E+03  0.89408079190E+03  0.46999998093E+01 0.  1.
       -5    1    3    3    0  502  0.10910413380E+03 -0.28481078436E+03  0.20523302505E+04  0.20748740786E+04  0.46999998093E+01 0. -1.
</event>
<event>
 5   0  0.7754912E-06  0.2730854E+04  0.7818609E-02  0.8325063E-01
       -1   -1    0    0    0  501  0.00000000000E+00  0.00000000000E+00  0.12814711035E+04  0.12814711036E+04  0.50400001928E-02 0. -1.
        1   -1    0    0  501    0  0.00000000000E+00  0.00000000000E+00 -0.14548828895E+04  0.14548828896E+04  0.50400001928E-02 0.  1.
    10030    2    1    2    0    0  0.00000000000E+00  0.00000000000E+00 -0.17341178600E+03  0.27363539931E+04  0.27308536263E+04 0.  0.
        4    1    3    3  502    0  0.92682405263E+03  0.39889190445E+03 -0.10084887697E+04  0.14265934205E+04  0.12699999809E+01 0.  1.
       -4    1    3    3    0  502 -0.92682405263E+03 -0.39889190445E+03  0.83507698368E+03  0.13097605726E+04  0.12699999809E+01 0. -1.
</event>
<event>
 5   0  0.1826851E-05  0.2595868E+04  0.7818609E-02  0.8369606E-01
        2   -1    0    0  501    0  0.00000000000E+00  0.00000000000E+00  0.18303531666E+04  0.18303531666E+04  0.25500000920E-02 0. -1.
       -2   -1    0    0    0  501  0.00000000000E+00  0.00000000000E+00 -0.92038632830E+03  0.92038632831E+03  0.25500000920E-02 0.  1.
    10030    2    1    2    0    0  0.00000000000E+00  0.00000000000E+00  0.90996683831E+03  0.27507394949E+04  0.25958675086E+04 0.  0.
        5    1    3    3  502    0  0.47648019628E+03 -0.70102265770E+03  0.14965518908E+04  0.17199290090E+04  0.46999998093E+01 0. -1.
       -5    1    3    3    0  502 -0.47648019628E+03  0.70102265770E+03 -0.58658505251E+03  0.10308104859E+04  0.46999998093E+01 0.  1.
</event>
<event>
 5   0  0.1788003E-05  0.2660813E+04  0.7818609E-02  0.8347833E-01
        2   -1    0    0  501    0  0.00000000000E+00  0.00000000000E+00  0.16150765755E+04  0.16150765755E+04  0.25500000920E-02 0. -1.
       -2   -1    0    0    0  501  0.00000000000E+00  0.00000000000E+00 -0.10959113853E+04  0.10959113853E+04  0.25500000920E-02 0.  1.
    10030    2    1    2    0    0  0.00000000000E+00  0.00000000000E+00  0.51916519023E+03  0.27109879608E+04  0.26608125129E+04 0.  0.
        2    1    3    3  502    0 -0.46181373077E+03 -0.82273953079E+03 -0.69608619612E+03  0.11724795307E+04  0.25500000920E-02 0.  1.
       -2    1    3    3    0  502  0.46181373077E+03  0.82273953079E+03  0.12152513864E+04  0.15385084301E+04  0.25500000920E-02 0. -1.
</event>
<event>
 5   0  0.1931119E-05  0.2751774E+04  0.7818609E-02  0.8318399E-01
       -2   -1    0    0    0  501  0.00000000000E+00  0.00000000000E+00  0.25577690715E+04  0.25577690715E+04  0.25500000920E-02 0.  1.
        2   -1    0    0  501    0  0.00000000000E+00  0.00000000000E+00 -0.74012370493E+03  0.74012370493E+03  0.25500000920E-02 0. -1.
    10030    2    1    2    0    0  0.00000000000E+00  0.00000000000E+00  0.18176453666E+04  0.32978927764E+04  0.27517743523E+04 0.  0.
        3    1    3    3  502    0  0.77400281641E+03  0.40979623589E+03 -0.36293091164E+03  0.94801485832E+03  0.10100000352E+00 0. -1.
       -3    1    3    3    0  502 -0.77400281641E+03 -0.40979623589E+03  0.21805762782E+04  0.23498779181E+04  0.10100000352E+00 0.  1.
</event>
<event>
 5   0  0.1788003E-05  0.2360843E+04  0.7818609E-02  0.8454311E-01
       -2   -1    0    0    0  501  0.00000000000E+00  0.00000000000E+00  0.11835198266E+04  0.11835198266E+04  0.25500000920E-02 0.  1.
        2   -1    0    0  501    0  0.00000000000E+00  0.00000000000E+00 -0.11773311097E+04  0.11773311097E+04  0.25500000920E-02 0. -1.
    10030    2    1    2    0    0  0.00000000000E+00  0.00000000000E+00  0.61887169777E+01  0.23608509363E+04  0.23608428248E+04 0.  0.
        2    1    3    3  502    0 -0.95834428466E+03  0.23808188976E+03 -0.64365971456E+03  0.11787300719E+04  0.25500000920E-02 0. -1.
       -2    1    3    3    0  502  0.95834428466E+03 -0.23808188976E+03  0.64984843154E+03  0.11821208644E+04  0.25500000920E-02 0.  1.
</event>
<event>
 5   0  0.1931119E-05  0.2758968E+04  0.7818609E-02  0.8316121E-01
       -2   -1    0    0    0  501  0.00000000000E+00  0.00000000000E+00  0.10381502558E+04  0.10381502558E+04  0.25500000920E-02 0.  1.
        2   -1    0    0  501    0  0.00000000000E+00  0.00000000000E+00 -0.18330456260E+04  0.18330456260E+04  0.25500000920E-02 0. -1.
    10030    2    1    2    0    0  0.00000000000E+00  0.00000000000E+00 -0.79489537024E+03  0.28711958818E+04  0.27589684924E+04 0.  0.
        3    1    3    3  502    0 -0.13531407487E+04  0.86665486350E+02 -0.13319764144E+03  0.13624398754E+04  0.10100000352E+00 0. -1.
       -3    1    3    3    0  502  0.13531407487E+04 -0.86665486350E+02 -0.66169772879E+03  0.15087560064E+04  0.10100000352E+00 0.  1.
</event>
<event>
 5   0  0.1826851E-05  0.2715317E+04  0.7818609E-02  0.8330052E-01
        2   -1    0    0  501    0  0.00000000000E+00  0.00000000000E+00  0.21516890765E+04  0.21516890765E+04  0.25500000920E-02 0. -1.
       -2   -1    0    0    0  501  0.00000000000E+00  0.00000000000E+00 -0.85664641939E+03  0.85664641939E+03  0.25500000920E-02 0.  1.
    10030    2    1    2    0    0  0.00000000000E+00  0.00000000000E+00  0.12950426571E+04  0.30083354959E+04  0.27153171034E+04 0.  0.
        5    1    3    3  502    0  0.26053516834E+03  0.94729173321E+03 -0.39059650565E+03  0.10572738160E+04  0.46999998093E+01 0.  1.
       -5    1    3    3    0  502 -0.26053516834E+03 -0.94729173321E+03  0.16856391627E+04  0.19510616799E+04  0.46999998093E+01 0. -1.
</event>
<event>
 5   0  0.1881699E-05  0.2675640E+04  0.7818609E-02  0.8342952E-01
       -2   -1    0    0    0  501  0.00000000000E+00  0.00000000000E+00  0.87172313070E+03  0.87172313070E+03  0.25500000920E-02 0.  1.
        2   -1    0    0  501    0  0.00000000000E+00  0.00000000000E+00 -0.20531323716E+04  0.20531323716E+04  0.25500000920E-02 0. -1.
    10030    2    1    2    0    0  0.00000000000E+00  0.00000000000E+00 -0.11814092409E+04  0.29248555023E+04  0.26756404682E+04 0.  0.
        4    1    3    3  502    0 -0.53670129193E+03  0.41664943475E+03 -0.18504846487E+04  0.19712787921E+04  0.12699999809E+01 0. -1.
       -4    1    3    3    0  502  0.53670129193E+03 -0.41664943475E+03  0.66907540773E+03  0.95357671027E+03  0.12699999809E+01 0.  1.
</event>
<event>
 5   0  0.1881699E-05  0.2683222E+04  0.7818609E-02  0.8340469E-01
        2   -1    0    0  501    0  0.00000000000E+00  0.00000000000E+00  0.13817078285E+04  0.13817078285E+04  0.25500000920E-02 0.  1.
       -2   -1    0    0    0  501  0.00000000000E+00  0.00000000000E+00 -0.13026779187E+04  0.13026779187E+04  0.25500000920E-02 0. -1.
    10030    2    1    2    0    0  0.00000000000E+00  0.00000000000E+00  0.79029909803E+02  0.26843857472E+04  0.26832221513E+04 0.  0.
        4    1    3    3  502    0  0.74368936137E+02 -0.40281100767E+03 -0.12385879726E+04  0.13045647648E+04  0.12699999809E+01 0. -1.
       -4    1    3    3    0  502 -0.74368936137E+02  0.40281100767E+03  0.13176178824E+04  0.13798209824E+04  0.12699999809E+01 0.  1.
</event>
<event>
 5   0  0.7348964E-06  0.2819791E+04  0.7818609E-02  0.8297150E-01
       -1   -1    0    0    0  501  0.00000000000E+00  0.00000000000E+00  0.69860403976E+03  0.69860403978E+03  0.50400001928E-02 0. -1.
        1   -1    0    0  501    0  0.00000000000E+00  0.00000000000E+00 -0.28453970004E+04  0.28453970004E+04  0.50400001928E-02 0.  1.
    10030    2    1    2    0    0  0.00000000000E+00  0.00000000000E+00 -0.21467929606E+04  0.35440010402E+04  0.28197913676E+04 0.  0.
        1    1    3    3  502    0 -0.11011159268E+04 -0.79892419338E+03 -0.15387120415E+04  0.20538673028E+04  0.50400001928E-02 0.  1.
       -1    1    3    3    0  502  0.11011159268E+04  0.79892419338E+03 -0.60808091910E+03  0.14901337373E+04  0.50400001928E-02 0. -1.
</event>
<event>
 5   0  0.1788003E-05  0.2826444E+04  0.7818609E-02  0.8295105E-01
       -2   -1    0    0    0  501  0.00000000000E+00  0.00000000000E+00  0.94868727610E+03  0.94868727611E+03  0.25500000920E-02 0. -1.
        2   -1    0    0  501    0  0.00000000000E+00  0.00000000000E+00 -0.21052203979E+04  0.21052203979E+04  0.25500000920E-02 0.  1.
    10030    2    1    2    0    0  0.00000000000E+00  0.00000000000E+00 -0.11565331218E+04  0.30539076740E+04  0.28264435638E+04 0.  0.
        2    1    3    3  502    0 -0.91441633351E+03 -0.84052523888E+03 -0.13067324711E+04  0.18028282390E+04  0.25500000920E-02 0.  1.
       -2    1    3    3    0  502  0.91441633351E+03  0.84052523888E+03  0.15019934932E+03  0.12510794350E+04  0.25500000920E-02 0. -1.
</event>
<event>
 5   0  0.7600052E-06  0.2713301E+04  0.7818609E-02  0.8330702E-01
       -1   -1    0    0    0  501  0.00000000000E+00  0.00000000000E+00  0.81712444715E+03  0.81712444717E+03  0.50400001928E-02 0.  1.
        1   -1    0    0  501    0  0.00000000000E+00  0.00000000000E+00 -0.22524121726E+04  0.22524121726E+04  0.50400001928E-02 0. -1.
    10030    2    1    2    0    0  0.00000000000E+00  0.00000000000E+00 -0.14352877255E+04  0.30695366198E+04  0.27133013481E+04 0.  0.
        5    1    3    3  502    0  0.15249497680E+03  0.90483068468E+03  0.41280275081E+03  0.10061816372E+04  0.46999998093E+01 0.  1.
       -5    1    3    3    0  502 -0.15249497680E+03 -0.90483068468E+03 -0.18480904763E+04  0.20633549826E+04  0.46999998093E+01 0. -1.
</event>
<event>
 5   0  0.7348964E-06  0.2689659E+04  0.7818609E-02  0.8338368E-01
        1   -1    0    0  501    0  0.00000000000E+00  0.00000000000E+00  0.12894609227E+04  0.12894609227E+04  0.50400001928E-02 0. -1.
       -1   -1    0    0    0  501  0.00000000000E+00  0.00000000000E+00 -0.14025756492E+04  0.14025756492E+04  0.50400001928E-02 0.  1.
    10030    2    1    2    0    0  0.00000000000E+00  0.00000000000E+00 -0.11311472649E+03  0.26920365719E+04  0.26896590793E+04 0.  0.
        1    1    3    3  502    0 -0.13146044289E+04 -0.28227058046E+03 -0.83132776600E+02  0.13471349389E+04  0.50400001928E-02 0.  1.
       -1    1    3    3    0  502  0.13146044289E+04  0.28227058046E+03 -0.29981949889E+02  0.13449016330E+04  0.50400001928E-02 0. -1.
</event>
<event>
 5   0  0.7600052E-06  0.2664364E+04  0.7818609E-02  0.8346661E-01
       -1   -1    0    0    0  501  0.00000000000E+00  0.00000000000E+00  0.92393296874E+03  0.92393296875E+03  0.50400001928E-02 0.  1.
        1   -1    0    0  501    0  0.00000000000E+00  0.00000000000E+00 -0.19208204794E+04  0.19208204794E+04  0.50400001928E-02 0. -1.
    10030    2    1    2    0    0  0.00000000000E+00  0.00000000000E+00 -0.99688751064E+03  0.28447534481E+04  0.26643643654E+04 0.  0.
        5    1    3    3  502    0 -0.37917492680E+02  0.64307221614E+03 -0.17434564769E+04  0.18586667771E+04  0.46999998093E+01 0. -1.
       -5    1    3    3    0  502  0.37917492680E+02 -0.64307221614E+03  0.74656896626E+03  0.98608667104E+03  0.46999998093E+01 0.  1.
</event>
<event>
 5   0  0.1878160E-05  0.2696759E+04  0.7818609E-02  0.8336057E-01
        2   -1    0    0  501    0  0.00000000000E+00  0.00000000000E+00  0.20809203184E+04  0.20809203184E+04  0.25500000920E-02 0. -1.
       -2   -1    0    0    0  501  0.00000000000E+00  0.00000000000E+00 -0.87371301282E+03  0.87371301283E+03  0.25500000920E-02 0.  1.
    10030    2    1    2    0    0  0.00000000000E+00  0.00000000000E+00  0.12072073056E+04  0.29546333312E+04  0.26967589146E+04 0.  0.
        1    1    3    3  502    0  0.85647605943E+03  0.10599958350E+03  0.17386932114E+04  0.19410927942E+04  0.50400001928E-02 0. -1.
       -1    1    3    3    0  502 -0.85647605943E+03 -0.10599958350E+03 -0.53148590587E+03  0.10135405370E+04  0.50400001928E-02 0.  1.
</event>
<event>
 5   0  0.1931119E-05  0.2696870E+04  0.7818609E-02  0.8336021E-01
        2   -1    0    0  501    0  0.00000000000E+00  0.00000000000E+00  0.16951265744E+04  0.16951265744E+04  0.25500000920E-02 0.  1.
       -2   -1    0    0    0  501  0.00000000000E+00  0.00000000000E+00 -0.10726499439E+04  0.10726499439E+04  0.25500000920E-02 0. -1.
    10030    2    1    2    0    0  0.00000000000E+00  0.00000000000E+00  0.62247663049E+03  0.27677765183E+04  0.26968703528E+04 0.  0.
        3    1    3    3  502    0 -0.37562639038E+03  0.20232387406E+03 -0.10015521694E+04  0.10886399282E+04  0.10100000352E+00 0. -1.
       -3    1    3    3    0  502  0.37562639038E+03 -0.20232387406E+03  0.16240287999E+04  0.16791365901E+04  0.10100000352E+00 0.  1.
</event>
<event>
 5   0  0.1826851E-05  0.2977388E+04  0.7818609E-02  0.8250217E-01
        2   -1    0    0  501    0  0.00000000000E+00  0.00000000000E+00  0.16262114961E+04  0.16262114961E+04  0.25500000920E-02 0. -1.
       -2   -1    0    0    0  501  0.00000000000E+00  0.00000000000E+00 -0.13628054781E+04  0.13628054781E+04  0.25500000920E-02 0.  1.
    10030    2    1    2    0    0  0.00000000000E+00  0.00000000000E+00  0.26340601802E+03  0.29890169743E+04  0.29773880738E+04 0.  0.
        5    1    3    3  502    0  0.28690805209E+03 -0.62440206382E+03 -0.11940584515E+04  0.13776762476E+04  0.46999998093E+01 0.  1.
       -5    1    3    3    0  502 -0.28690805209E+03  0.62440206382E+03  0.14574644695E+04  0.16113407267E+04  0.46999998093E+01 0. -1.
</event>
<event>
 5   0  0.7600052E-06  0.2804546E+04  0.7818609E-02  0.8301858E-01
        1   -1    0    0  501    0  0.00000000000E+00  0.00000000000E+00  0.88704336618E+03  0.88704336620E+03  0.50400001928E-02 0.  1.
       -1   -1    0    0    0  501  0.00000000000E+00  0.00000000000E+00 -0.22167684282E+04  0.22167684282E+04  0.50400001928E-02 0. -1.
    10030    2    1    2    0    0  0.00000000000E+00  0.00000000000E+00 -0.13297250621E+04  0.31038117944E+04  0.28045461156E+04 0.  0.
        5    1    3    3  502    0  0.61498611736E+03  0.52987686665E+03 -0.19302749362E+04  0.20940298082E+04  0.46999998093E+01 0. -1.
       -5    1    3    3    0  502 -0.61498611736E+03 -0.52987686665E+03  0.60054987416E+03  0.10097819862E+04  0.46999998093E+01 0.  1.
</event>
<event>
 5   0  0.1931119E-05  0.2673638E+04  0.7818609E-02  0.8343609E-01
       -2   -1    0    0    0  501  0.00000000000E+00  0.00000000000E+00  0.11960300815E+04  0.11960300815E+04  0.25500000920E-02 0.  1.
        2   -1    0    0  501    0  0.00000000000E+00  0.00000000000E+00 -0.14941810316E+04  0.14941810316E+04  0.25500000920E-02 0. -1.
    10030    2    1    2    0    0  0.00000000000E+00  0.00000000000E+00 -0.29815095013E+03  0.26902111132E+04  0.26736383159E+04 0.  0.
        3    1    3    3  502    0  0.81570354154E+03  0.81348906613E+03  0.53332357627E+03  0.12694765754E+04  0.10100000352E+00 0.  1.
       -3    1    3    3    0  502 -0.81570354154E+03 -0.81348906613E+03 -0.83147452640E+03  0.14207345377E+04  0.10100000352E+00 0. -1.
</event>
<event>
 5   0  0.1881699E-05  0.2696792E+04  0.7818609E-02  0.8336047E-01
       -2   -1    0    0    0  501  0.00000000000E+00  0.00000000000E+00  0.10138403441E+04  0.10138403441E+04  0.25500000920E-02 0. -1.
        2   -1    0    0  501    0  0.00000000000E+00  0.00000000000E+00 -0.17933514712E+04  0.17933514712E+04  0.25500000920E-02 0.  1.
    10030    2    1    2    0    0  0.00000000000E+00  0.00000000000E+00 -0.77951112710E+03  0.28071918153E+04  0.26967922223E+04 0.  0.
        4    1    3    3  502    0 -0.77225985848E+02  0.51197936235E+03 -0.16857471503E+04  0.17634715161E+04  0.12699999809E+01 0.  1.
       -4    1    3    3    0  502  0.77225985848E+02 -0.51197936235E+03  0.90623602318E+03  0.10437202992E+04  0.12699999809E+01 0. -1.
</event>
<event>
 5   0  0.1826851E-05  0.2696157E+04  0.7818609E-02  0.8336253E-01
        2   -1    0    0  501    0  0.00000000000E+00  0.00000000000E+00  0.24828579758E+04  0.24828579758E+04  0.25500000920E-02 0.  1.
       -2   -1    0    0    0  501  0.00000000000E+00  0.00000000000E+00 -0.73194494847E+03  0.73194494848E+03  0.25500000920E-02 0. -1.
    10030    2    1    2    0    0  0.00000000000E+00  0.00000000000E+00  0.17509130273E+04  0.32148029243E+04  0.26961567856E+04 0.  0.
        5    1    3    3  502    0 -0.88853640155E+03 -0.93501282291E+03  0.13426861370E+04  0.18618738057E+04  0.46999998093E+01 0.  1.
       -5    1    3    3    0  502  0.88853640155E+03  0.93501282291E+03  0.40822689032E+03  0.13529291186E+04  0.46999998093E+01 0. -1.
</event>
<event>
 5   0  0.7600052E-06  0.2712083E+04  0.7818609E-02  0.8331095E-01
       -1   -1    0    0    0  501  0.00000000000E+00  0.00000000000E+00  0.12555490173E+04  0.12555490173E+04  0.50400001928E-02 0. -1.
        1   -1    0    0  501    0  0.00000000000E+00  0.00000000000E+00 -0.14645771219E+04  0.14645771219E+04  0.50400001928E-02 0.  1.
    10030    2    1    2    0    0  0.00000000000E+00  0.00000000000E+00 -0.20902810454E+03  0.27201261392E+04  0.27120828647E+04 0.  0.
        5    1    3    3  502    0 -0.19696065630E+03 -0.81478093395E+02  0.12386342175E+04  0.12568488352E+04  0.46999998093E+01 0. -1.
       -5    1    3    3    0  502  0.19696065630E+03  0.81478093395E+02 -0.14476623220E+04  0.14632773040E+04  0.46999998093E+01 0.  1.
</event>
<event>
 5   0  0.1931119E-05  0.2698201E+04  0.7818609E-02  0.8335589E-01
       -2   -1    0    0    0  501  0.00000000000E+00  0.00000000000E+00  0.11453049755E+04  0.11453049755E+04  0.25500000920E-02 0. -1.
        2   -1    0    0  501    0  0.00000000000E+00  0.00000000000E+00 -0.15891598132E+04  0.15891598132E+04  0.25500000920E-02 0.  1.
    10030    2    1    2    0    0  0.00000000000E+00  0.00000000000E+00 -0.44385483772E+03  0.27344647887E+04  0.26982013571E+04 0.  0.
        3    1    3    3  502    0 -0.10938453706E+04 -0.10130436476E+02  0.57828735293E+03  0.12373425529E+04  0.10100000352E+00 0. -1.
       -3    1    3    3    0  502  0.10938453706E+04  0.10130436476E+02 -0.10221421906E+04  0.14971222357E+04  0.10100000352E+00 0.  1.
</event>
<event>
 5   0  0.1878160E-05  0.2702572E+04  0.7818609E-02  0.8334171E-01
        2   -1    0    0  501    0  0.00000000000E+00  0.00000000000E+00  0.25477653039E+04  0.25477653039E+04  0.25500000920E-02 0. -1.
       -2   -1    0    0    0  501  0.00000000000E+00  0.00000000000E+00 -0.71669631359E+03  0.71669631359E+03  0.25500000920E-02 0.  1.
    10030    2    1    2    0    0  0.00000000000E+00  0.00000000000E+00  0.18310689903E+04  0.32644616175E+04  0.27025721091E+04 0.  0.
        1    1    3    3  502    0  0.11241971483E+04  0.80542584454E+02  0.15121324655E+02  0.11271801057E+04  0.50400001928E-02 0.  1.
       -1    1    3    3    0  502 -0.11241971483E+04 -0.80542584454E+02  0.18159476656E+04  0.21372815118E+04  0.50400001928E-02 0. -1.
</event>
<event>
 5   0  0.1881699E-05  0.2691527E+04  0.7818609E-02  0.8337759E-01
       -2   -1    0    0    0  501  0.00000000000E+00  0.00000000000E+00  0.90115757527E+03  0.90115757527E+03  0.25500000920E-02 0. -1.
        2   -1    0    0  501    0  0.00000000000E+00  0.00000000000E+00 -0.20097251498E+04  0.20097251498E+04  0.25500000920E-02 0.  1.
    10030    2    1    2    0    0  0.00000000000E+00  0.00000000000E+00 -0.11085675745E+04  0.29108827251E+04  0.26915267362E+04 0.  0.
        4    1    3    3  502    0 -0.66632763030E+03 -0.11643429103E+04 -0.66970816052E+03  0.14993990653E+04  0.12699999809E+01 0.  1.
       -4    1    3    3    0  502  0.66632763030E+03  0.11643429103E+04 -0.43885941403E+03  0.14114836598E+04  0.12699999809E+01 0. -1.
</event>
<event>
 5   0  0.1878160E-05  0.2657109E+04  0.7818609E-02  0.8349057E-01
        2   -1    0    0  501    0  0.00000000000E+00  0.00000000000E+00  0.18691379668E+04  0.18691379668E+04  0.25500000920E-02 0. -1.
       -2   -1    0    0    0  501  0.00000000000E+00  0.00000000000E+00 -0.94431578758E+03  0.94431578759E+03  0.25500000920E-02 0.  1.
    10030    2    1    2    0    0  0.00000000000E+00  0.00000000000E+00  0.92482217924E+03  0.28134537544E+04  0.26571085723E+04 0.  0.
        1    1    3    3  502    0 -0.40613905465E+03 -0.10217395736E+04 -0.32722814163E+03  0.11471612549E+04  0.50400001928E-02 0.  1.
       -1    1    3    3    0  502  0.40613905465E+03  0.10217395736E+04  0.12520503209E+04  0.16662924995E+04  0.50400001928E-02 0. -1.
</event>
<event>
 5   0  0.1931119E-05  0.2697585E+04  0.7818609E-02  0.8335789E-01
        2   -1    0    0  501    0  0.00000000000E+00  0.00000000000E+00  0.24180629458E+04  0.24180629458E+04  0.25500000920E-02 0.  1.
       -2   -1    0    0    0  501  0.00000000000E+00  0.00000000000E+00 -0.75235459595E+03  0.75235459595E+03  0.25500000920E-02 0. -1.
    10030    2    1    2    0    0  0.00000000000E+00  0.00000000000E+00  0.16657083498E+04  0.31704175417E+04  0.26975846756E+04 0.  0.
        3    1    3    3  502    0  0.10938093657E+04 -0.60378293002E+03  0.14301323981E+04  0.18990132810E+04  0.10100000352E+00 0.  1.
       -3    1    3    3    0  502 -0.10938093657E+04  0.60378293002E+03  0.23557595170E+03  0.12714042607E+04  0.10100000352E+00 0. -1.
</event>
<event>
 5   0  0.1788003E-05  0.2665789E+04  0.7818609E-02  0.8346191E-01
        2   -1    0    0  501    0  0.00000000000E+00  0.00000000000E+00  0.78834634993E+03  0.78834634993E+03  0.25500000920E-02 0. -1.
       -2   -1    0    0    0  501  0.00000000000E+00  0.00000000000E+00 -0.22535886595E+04  0.22535886595E+04  0.25500000920E-02 0.  1.
    10030    2    1    2    0    0  0.00000000000E+00  0.00000000000E+00 -0.14652423095E+04  0.30419350094E+04  0.26657894845E+04 0.  0.
        2    1    3    3  502    0  0.79249420774E+03  0.78040851977E+03 -0.15707859418E+04  0.19246955609E+04  0.25500000920E-02 0.  1.
       -2    1    3    3    0  502 -0.79249420774E+03 -0.78040851977E+03  0.10554363227E+03  0.11172394485E+04  0.25500000920E-02 0. -1.
</event>
<event>
 5   0  0.1878160E-05  0.2697711E+04  0.7818609E-02  0.8335748E-01
        2   -1    0    0  501    0  0.00000000000E+00  0.00000000000E+00  0.16425176896E+04  0.16425176896E+04  0.25500000920E-02 0. -1.
       -2   -1    0    0    0  501  0.00000000000E+00  0.00000000000E+00 -0.11076966391E+04  0.11076966391E+04  0.25500000920E-02 0.  1.
    10030    2    1    2    0    0  0.00000000000E+00  0.00000000000E+00  0.53482105047E+03  0.27502143287E+04  0.26977111220E+04 0.  0.
        1    1    3    3  502    0  0.12187314006E+04  0.54944046662E+03  0.84417012699E+02  0.13395212896E+04  0.50400001928E-02 0.  1.
       -1    1    3    3    0  502 -0.12187314006E+04 -0.54944046662E+03  0.45040403777E+03  0.14106930391E+04  0.50400001928E-02 0. -1.
</event>
<event>
 5   0  0.1788003E-05  0.2700057E+04  0.7818609E-02  0.8334987E-01
        2   -1    0    0  501    0  0.00000000000E+00  0.00000000000E+00  0.13592464731E+04  0.13592464732E+04  0.25500000920E-02 0. -1.
       -2   -1    0    0    0  501  0.00000000000E+00  0.00000000000E+00 -0.13408727715E+04  0.13408727715E+04  0.25500000920E-02 0.  1.
    10030    2    1    2    0    0  0.00000000000E+00  0.00000000000E+00  0.18373701625E+02  0.27001192447E+04  0.27000567295E+04 0.  0.
        2    1    3    3  502    0 -0.41013830508E+03 -0.60515523451E+03  0.11441802204E+04  0.13577829959E+04  0.25500000920E-02 0. -1.
       -2    1    3    3    0  502  0.41013830508E+03  0.60515523451E+03 -0.11258065188E+04  0.13423362488E+04  0.25500000920E-02 0.  1.
</event>
<event>
 5   0  0.7348964E-06  0.2694864E+04  0.7818609E-02  0.8336673E-01
       -1   -1    0    0    0  501  0.00000000000E+00  0.00000000000E+00  0.22150491369E+04  0.22150491369E+04  0.50400001928E-02 0.  1.
        1   -1    0    0  501    0  0.00000000000E+00  0.00000000000E+00 -0.81965367699E+03  0.81965367701E+03  0.50400001928E-02 0. -1.
    10030    2    1    2    0    0  0.00000000000E+00  0.00000000000E+00  0.13953954599E+04  0.30347028139E+04  0.26948641300E+04 0.  0.
        1    1    3    3  502    0 -0.12179950734E+03 -0.57211015463E+03 -0.66922434131E+03  0.88882302403E+03  0.50400001928E-02 0. -1.
       -1    1    3    3    0  502  0.12179950734E+03  0.57211015463E+03  0.20646198012E+04  0.21458797899E+04  0.50400001928E-02 0.  1.
</event>
<event>
 5   0  0.6804685E-06  0.2742300E+04  0.7818609E-02  0.8321409E-01
        1   -1    0    0  501    0  0.00000000000E+00  0.00000000000E+00  0.12291009992E+04  0.12291009993E+04  0.50400001928E-02 0. -1.
       -1   -1    0    0    0  501  0.00000000000E+00  0.00000000000E+00 -0.15296162843E+04  0.15296162843E+04  0.50400001928E-02 0.  1.
    10030    2    1    2    0    0  0.00000000000E+00  0.00000000000E+00 -0.30051528503E+03  0.27587172835E+04  0.27423004237E+04 0.  0.
        2    1    3    3  502    0  0.11183994086E+04 -0.76021319382E+03  0.77618993957E+02  0.13545353615E+04  0.25500000920E-02 0.  1.
       -2    1    3    3    0  502 -0.11183994086E+04  0.76021319382E+03 -0.37813427898E+03  0.14041819221E+04  0.25500000920E-02 0. -1.
</event>
<event>
 5   0  0.7754912E-06  0.2703358E+04  0.7818609E-02  0.8333916E-01
       -1   -1    0    0    0  501  0.00000000000E+00  0.00000000000E+00  0.10678219778E+04  0.10678219778E+04  0.50400001928E-02 0.  1.
        1   -1    0    0  501    0  0.00000000000E+00  0.00000000000E+00 -0.17109930810E+04  0.17109930810E+04  0.50400001928E-02 0. -1.
    10030    2    1    2    0    0  0.00000000000E+00  0.00000000000E+00 -0.64317110322E+03  0.27788150588E+04  0.27033579236E+04 0.  0.
        4    1    3    3  502    0  0.38723313489E+03 -0.28667793731E+03  0.97655857575E+03  0.10889453638E+04  0.12699999809E+01 0.  1.
       -4    1    3    3    0  502 -0.38723313489E+03  0.28667793731E+03 -0.16197296790E+04  0.16898696951E+04  0.12699999809E+01 0. -1.
</event>
<event>
 5   0  0.6175875E-06  0.2694180E+04  0.7818609E-02  0.8336896E-01
       -3   -1    0    0    0  501  0.00000000000E+00  0.00000000000E+00  0.10921517597E+04  0.10921517644E+04  0.10100000352E+00 0.  1.
        3   -1    0    0  501    0  0.00000000000E+00  0.00000000000E+00 -0.16615379141E+04  0.16615379171E+04  0.10100000352E+00 0. -1.
    10030    2    1    2    0    0  0.00000000000E+00  0.00000000000E+00 -0.56938615434E+03  0.27536896815E+04  0.26941800737E+04 0.  0.
        4    1    3    3  502    0 -0.77569826327E+02  0.12977476592E+03 -0.16528379894E+04  0.16597390156E+04  0.12699999809E+01 0. -1.
       -4    1    3    3    0  502  0.77569826327E+02 -0.12977476592E+03  0.10834518350E+04  0.10939506660E+04  0.12699999809E+01 0.  1.
</event>
<event>
 5   0  0.1931119E-05  0.2707182E+04  0.7818609E-02  0.8332679E-01
        2   -1    0    0  501    0  0.00000000000E+00  0.00000000000E+00  0.25221491715E+04  0.25221491715E+04  0.25500000920E-02 0. -1.
       -2   -1    0    0    0  501  0.00000000000E+00  0.00000000000E+00 -0.72644713985E+03  0.72644713986E+03  0.25500000920E-02 0.  1.
    10030    2    1    2    0    0  0.00000000000E+00  0.00000000000E+00  0.17957020317E+04  0.32485963114E+04  0.27071815986E+04 0.  0.
        3    1    3    3  502    0 -0.76167563485E+03  0.57176100244E+03  0.20520584750E+04  0.22623006900E+04  0.10100000352E+00 0. -1.
       -3    1    3    3    0  502  0.76167563485E+03 -0.57176100244E+03 -0.25635644333E+03  0.98629562145E+03  0.10100000352E+00 0.  1.
</event>
<event>
 5   0  0.1931119E-05  0.2627887E+04  0.7818609E-02  0.8358790E-01
       -2   -1    0    0    0  501  0.00000000000E+00  0.00000000000E+00  0.70024282235E+03  0.70024282235E+03  0.25500000920E-02 0. -1.
        2   -1    0    0  501    0  0.00000000000E+00  0.00000000000E+00 -0.24654987082E+04  0.24654987082E+04  0.25500000920E-02 0.  1.
    10030    2    1    2    0    0  0.00000000000E+00  0.00000000000E+00 -0.17652558859E+04  0.31657415306E+04  0.26278871924E+04 0.  0.
        3    1    3    3  502    0  0.12027225874E+04  0.50554885008E+03 -0.69473582354E+03  0.14780998399E+04  0.10100000352E+00 0. -1.
       -3    1    3    3    0  502 -0.12027225874E+04 -0.50554885008E+03 -0.10705200623E+04  0.16876416907E+04  0.10100000352E+00 0.  1.
</event>
<event>
 5   0  0.7351590E-06  0.2694981E+04  0.7818609E-02  0.8336635E-01
        1   -1    0    0  501    0  0.00000000000E+00  0.00000000000E+00  0.18099689374E+04  0.18099689374E+04  0.50400001928E-02 0. -1.
       -1   -1    0    0    0  501  0.00000000000E+00  0.00000000000E+00 -0.10031829538E+04  0.10031829538E+04  0.50400001928E-02 0.  1.
    10030    2    1    2    0    0  0.00000000000E+00  0.00000000000E+00  0.80678598356E+03  0.28131518912E+04  0.26949805082E+04 0.  0.
        3    1    3    3  502    0 -0.26462882571E+03 -0.34959279415E+03  0.17334243663E+04  0.17880166613E+04  0.10100000352E+00 0. -1.
       -3    1    3    3    0  502  0.26462882571E+03  0.34959279415E+03 -0.92663838273E+03  0.10251352299E+04  0.10100000352E+00 0.  1.
</event>
<event>
 5   0  0.7754912E-06  0.2758254E+04  0.7818609E-02  0.8316347E-01
       -1   -1    0    0    0  501  0.00000000000E+00  0.00000000000E+00  0.14812805301E+04  0.14812805301E+04  0.50400001928E-02 0.  1.
        1   -1    0    0  501    0  0.00000000000E+00  0.00000000000E+00 -0.12840179293E+04  0.12840179293E+04  0.50400001928E-02 0. -1.
    10030    2    1    2    0    0  0.00000000000E+00  0.00000000000E+00  0.19726260082E+03  0.27652984594E+04  0.27582536206E+04 0.  0.
        4    1    3    3  502    0 -0.18945057987E+03  0.81473146866E+03  0.11979309536E+04  0.14610677844E+04  0.12699999809E+01 0.  1.
       -4    1    3    3    0  502  0.18945057987E+03 -0.81473146866E+03 -0.10006683528E+04  0.13042306749E+04  0.12699999809E+01 0. -1.
</event>
<event>
 5   0  0.6175875E-06  0.2647815E+04  0.7818609E-02  0.8352138E-01
       -3   -1    0    0    0  501  0.00000000000E+00  0.00000000000E+00  0.94086660090E+03  0.94086660632E+03  0.10100000352E+00 0. -1.
        3   -1    0    0  501    0  0.00000000000E+00  0.00000000000E+00 -0.18628906091E+04  0.18628906118E+04  0.10100000352E+00 0.  1.
    10030    2    1    2    0    0  0.00000000000E+00  0.00000000000E+00 -0.92202400816E+03  0.28037572181E+04  0.26478153762E+04 0.  0.
        2    1    3    3  502    0 -0.32977920414E+03  0.58802691331E+03  0.74547812637E+03  0.10051206948E+04  0.25500000920E-02 0. -1.
       -2    1    3    3    0  502  0.32977920414E+03 -0.58802691331E+03 -0.16675021345E+04  0.17986365233E+04  0.25500000920E-02 0.  1.
</event>
<event>
 5   0  0.1881699E-05  0.2679484E+04  0.7818609E-02  0.8341692E-01
       -2   -1    0    0    0  501  0.00000000000E+00  0.00000000000E+00  0.10725224944E+04  0.10725224944E+04  0.25500000920E-02 0.  1.
        2   -1    0    0  501    0  0.00000000000E+00  0.00000000000E+00 -0.16735399490E+04  0.16735399490E+04  0.25500000920E-02 0. -1.
    10030    2    1    2    0    0  0.00000000000E+00  0.00000000000E+00 -0.60101745458E+03  0.27460624434E+04  0.26794844583E+04 0.  0.
        4    1    3    3  502    0  0.17164304956E+03 -0.11781325763E+04 -0.93014369225E+03  0.15108363925E+04  0.12699999809E+01 0. -1.
       -4    1    3    3    0  502 -0.17164304956E+03  0.11781325763E+04  0.32912623766E+03  0.12352260509E+04  0.12699999809E+01 0.  1.
</event>
<event>
 5   0  0.1881699E-05  0.2688534E+04  0.7818609E-02  0.8338735E-01
        2   -1    0    0  501    0  0.00000000000E+00  0.00000000000E+00  0.14360363170E+04  0.14360363170E+04  0.25500000920E-02 0. -1.
       -2   -1    0    0    0  501  0.00000000000E+00  0.00000000000E+00 -0.12583617375E+04  0.12583617375E+04  0.25500000920E-02 0.  1.
    10030    2    1    2    0    0  0.00000000000E+00  0.00000000000E+00  0.17767457951E+03  0.26943980545E+04  0.26885335445E+04 0.  0.
        4    1    3    3  502    0  0.12740937970E+04  0.34072860281E+03 -0.17180800368E+03  0.13300114989E+04  0.12699999809E+01 0. -1.
       -4    1    3    3    0  502 -0.12740937970E+04 -0.34072860281E+03  0.34948258319E+03  0.13643865556E+04  0.12699999809E+01 0.  1.
</event>
<event>
 5   0  0.1931119E-05  0.2671207E+04  0.7818609E-02  0.8344408E-01
        2   -1    0    0  501    0  0.00000000000E+00  0.00000000000E+00  0.97425657138E+03  0.97425657138E+03  0.25500000920E-02 0. -1.
       -2   -1    0    0    0  501  0.00000000000E+00  0.00000000000E+00 -0.18309717270E+04  0.18309717270E+04  0.25500000920E-02 0.  1.
    10030    2    1    2    0    0  0.00000000000E+00  0.00000000000E+00 -0.85671515566E+03  0.28052282984E+04  0.26712066465E+04 0.  0.
        3    1    3    3  502    0 -0.32704928739E+02  0.10668266019E+04 -0.12715407201E+04  0.16601218100E+04  0.10100000352E+00 0.  1.
       -3    1    3    3    0  502  0.32704928739E+02 -0.10668266019E+04  0.41482556442E+03  0.11451064885E+04  0.10100000352E+00 0. -1.
</event>
<event>
 5   0  0.7348964E-06  0.2128023E+04  0.7818609E-02  0.8548999E-01
       -1   -1    0    0    0  501  0.00000000000E+00  0.00000000000E+00  0.14411942381E+04  0.14411942381E+04  0.50400001928E-02 0. -1.
        1   -1    0    0  501    0  0.00000000000E+00  0.00000000000E+00 -0.78554312569E+03  0.78554312571E+03  0.50400001928E-02 0.  1.
    10030    2    1    2    0    0  0.00000000000E+00  0.00000000000E+00  0.65565111243E+03  0.22267373638E+04  0.21280227692E+04 0.  0.
        1    1    3    3  502    0 -0.31594038293E+02 -0.43527743437E+03 -0.68757821582E+03  0.81438837849E+03  0.50400001928E-02 0.  1.
       -1    1    3    3    0  502  0.31594038293E+02  0.43527743437E+03  0.13432293282E+04  0.14123489853E+04  0.50400001928E-02 0. -1.
</event>
<event>
 5   0  0.1881699E-05  0.2739785E+04  0.7818609E-02  0.8322210E-01
       -2   -1    0    0    0  501  0.00000000000E+00  0.00000000000E+00  0.95817882156E+03  0.95817882156E+03  0.25500000920E-02 0. -1.
        2   -1    0    0  501    0  0.00000000000E+00  0.00000000000E+00 -0.19585126501E+04  0.19585126501E+04  0.25500000920E-02 0.  1.
    10030    2    1    2    0    0  0.00000000000E+00  0.00000000000E+00 -0.10003338285E+04  0.29166914716E+04  0.27397849135E+04 0.  0.
        4    1    3    3  502    0 -0.40985655402E+03  0.11543314006E+04 -0.11530703976E+04  0.16822711827E+04  0.12699999809E+01 0. -1.
       -4    1    3    3    0  502  0.40985655402E+03 -0.11543314006E+04  0.15273656905E+03  0.12344202890E+04  0.12699999809E+01 0.  1.
</event>
<event>
 5   0  0.7754912E-06  0.2171388E+04  0.7818609E-02  0.8530432E-01
       -1   -1    0    0    0  501  0.00000000000E+00  0.00000000000E+00  0.12190081498E+04  0.12190081498E+04  0.50400001928E-02 0.  1.
        1   -1    0    0  501    0  0.00000000000E+00  0.00000000000E+00 -0.96695976471E+03  0.96695976472E+03  0.50400001928E-02 0. -1.
    10030    2    1    2    0    0  0.00000000000E+00  0.00000000000E+00  0.25204838509E+03  0.21859679145E+04  0.21713883427E+04 0.  0.
        4    1    3    3  502    0  0.12389995763E+03  0.53778799461E+02  0.12105162988E+04  0.12180290150E+04  0.12699999809E+01 0.  1.
       -4    1    3    3    0  502 -0.12389995763E+03 -0.53778799461E+02 -0.95846791370E+03  0.96793889955E+03  0.12699999809E+01 0. -1.
</event>
<event>
 5   0  0.1878160E-05  0.2724847E+04  0.7818609E-02  0.8326988E-01
       -2   -1    0    0    0  501  0.00000000000E+00  0.00000000000E+00  0.10217169783E+04  0.10217169783E+04  0.25500000920E-02 0.  1.
        2   -1    0    0  501    0  0.00000000000E+00  0.00000000000E+00 -0.18167434726E+04  0.18167434726E+04  0.25500000920E-02 0. -1.
    10030    2    1    2    0    0  0.00000000000E+00  0.00000000000E+00 -0.79502649432E+03  0.28384604509E+04  0.27248468956E+04 0.  0.
        1    1    3    3  502    0 -0.10754827102E+04  0.42383407208E+03 -0.11486177169E+04  0.16296076338E+04  0.50400001928E-02 0. -1.
       -1    1    3    3    0  502  0.10754827102E+04 -0.42383407208E+03  0.35359122254E+03  0.12088528171E+04  0.50400001928E-02 0.  1.
</event>
<event>
 5   0  0.1826851E-05  0.2675655E+04  0.7818609E-02  0.8342947E-01
       -2   -1    0    0    0  501  0.00000000000E+00  0.00000000000E+00  0.19002249472E+04  0.19002249472E+04  0.25500000920E-02 0. -1.
        2   -1    0    0  501    0  0.00000000000E+00  0.00000000000E+00 -0.94187949087E+03  0.94187949087E+03  0.25500000920E-02 0.  1.
    10030    2    1    2    0    0  0.00000000000E+00  0.00000000000E+00  0.95834545629E+03  0.28421044380E+04  0.26756553633E+04 0.  0.
        5    1    3    3  502    0  0.17612432243E+03 -0.12704227595E+04  0.75020736935E+02  0.12847738968E+04  0.46999998093E+01 0.  1.
       -5    1    3    3    0  502 -0.17612432243E+03  0.12704227595E+04  0.88332471935E+03  0.15573305412E+04  0.46999998093E+01 0. -1.
</event>
<event>
 5   0  0.7348964E-06  0.2658608E+04  0.7818609E-02  0.8348562E-01
        1   -1    0    0  501    0  0.00000000000E+00  0.00000000000E+00  0.23189524878E+04  0.23189524878E+04  0.50400001928E-02 0. -1.
       -1   -1    0    0    0  501  0.00000000000E+00  0.00000000000E+00 -0.76200294751E+03  0.76200294753E+03  0.50400001928E-02 0.  1.
    10030    2    1    2    0    0  0.00000000000E+00  0.00000000000E+00  0.15569495403E+04  0.30809554353E+04  0.26586076287E+04 0.  0.
        1    1    3    3  502    0  0.12125310826E+04  0.27294949291E+03  0.13248815992E+04  0.18166024066E+04  0.50400001928E-02 0. -1.
       -1    1    3    3    0  502 -0.12125310826E+04 -0.27294949291E+03  0.23206794106E+03  0.12643530287E+04  0.50400001928E-02 0.  1.
</event>
<event>
 5   0  0.7348964E-06  0.2691481E+04  0.7818609E-02  0.8337774E-01
        1   -1    0    0  501    0  0.00000000000E+00  0.00000000000E+00  0.18468802166E+04  0.18468802166E+04  0.50400001928E-02 0.  1.
       -1   -1    0    0    0  501  0.00000000000E+00  0.00000000000E+00 -0.98058230696E+03  0.98058230697E+03  0.50400001928E-02 0. -1.
    10030    2    1    2    0    0  0.00000000000E+00  0.00000000000E+00  0.86629790966E+03  0.28274625236E+04  0.26914814237E+04 0.  0.
        1    1    3    3  502    0  0.38500469114E+03  0.15194837450E+03 -0.91205402377E+03  0.10015784857E+04  0.50400001928E-02 0. -1.
       -1    1    3    3    0  502 -0.38500469114E+03 -0.15194837450E+03  0.17783519334E+04  0.18258840379E+04  0.50400001928E-02 0.  1.
</event>
<event>
 5   0  0.7754912E-06  0.2791394E+04  0.7818609E-02  0.8305945E-01
       -1   -1    0    0    0  501  0.00000000000E+00  0.00000000000E+00  0.13741674958E+04  0.13741674958E+04  0.50400001928E-02 0. -1.
        1   -1    0    0  501    0  0.00000000000E+00  0.00000000000E+00 -0.14175634559E+04  0.14175634559E+04  0.50400001928E-02 0.  1.
    10030    2    1    2    0    0  0.00000000000E+00  0.00000000000E+00 -0.43395960113E+02  0.27917309517E+04  0.27913936478E+04 0.  0.
        4    1    3    3  502    0  0.87833293679E+03  0.10690671842E+04 -0.20500847782E+03  0.13987149392E+04  0.12699999809E+01 0.  1.
       -4    1    3    3    0  502 -0.87833293679E+03 -0.10690671842E+04  0.16161251770E+03  0.13930160125E+04  0.12699999809E+01 0. -1.
</event>
<event>
 5   0  0.1881699E-05  0.3086712E+04  0.7818609E-02  0.8219394E-01
        2   -1    0    0  501    0  0.00000000000E+00  0.00000000000E+00  0.12043858553E+04  0.12043858553E+04  0.25500000920E-02 0. -1.
       -2   -1    0    0    0  501  0.00000000000E+00  0.00000000000E+00 -0.19777283418E+04  0.19777283418E+04  0.25500000920E-02 0.  1.
    10030    2    1    2    0    0  0.00000000000E+00  0.00000000000E+00 -0.77334248647E+03  0.31821141970E+04  0.30867121929E+04 0.  0.
        4    1    3    3  502    0  0.50729779710E+03 -0.19697094501E+03 -0.18755376404E+04  0.19528931516E+04  0.12699999809E+01 0.  1.
       -4    1    3    3    0  502 -0.50729779710E+03  0.19697094501E+03  0.11021951540E+04  0.12292210454E+04  0.12699999809E+01 0. -1.
</event>
<event>
 5   0  0.7348964E-06  0.2714114E+04  0.7818609E-02  0.8330440E-01
        1   -1    0    0  501    0  0.00000000000E+00  0.00000000000E+00  0.23559265854E+04  0.23559265854E+04  0.50400001928E-02 0.  1.
       -1   -1    0    0    0  501  0.00000000000E+00  0.00000000000E+00 -0.78168968615E+03  0.78168968617E+03  0.50400001928E-02 0. -1.
    10030    2    1    2    0    0  0.00000000000E+00  0.00000000000E+00  0.15742368993E+04  0.31376162716E+04  0.27141138614E+04 0.  0.
        1    1    3    3  502    0  0.27386529072E+03  0.57701507095E+03  0.21713032653E+04  0.22632954866E+04  0.50400001928E-02 0.  1.
       -1    1    3    3    0  502 -0.27386529072E+03 -0.57701507095E+03 -0.59706636607E+03  0.87432078500E+03  0.50400001928E-02 0. -1.
</event>
<event>
 5   0  0.1878160E-05  0.2662558E+04  0.7818609E-02  0.8347257E-01
       -2   -1    0    0    0  501  0.00000000000E+00  0.00000000000E+00  0.99962620799E+03  0.99962620799E+03  0.25500000920E-02 0. -1.
        2   -1    0    0  501    0  0.00000000000E+00  0.00000000000E+00 -0.17729663306E+04  0.17729663306E+04  0.25500000920E-02 0.  1.
    10030    2    1    2    0    0  0.00000000000E+00  0.00000000000E+00 -0.77334012265E+03  0.27725925386E+04  0.26625578754E+04 0.  0.
        1    1    3    3  502    0 -0.14926934852E+03 -0.11439013373E+04 -0.10785938315E+04  0.15792897964E+04  0.50400001928E-02 0.  1.
       -1    1    3    3    0  502  0.14926934852E+03  0.11439013373E+04  0.30525370882E+03  0.11933027422E+04  0.50400001928E-02 0. -1.
</event>
<event>
 5   0  0.6175875E-06  0.2761940E+04  0.7818609E-02  0.8315183E-01
        3   -1    0    0  501    0  0.00000000000E+00  0.00000000000E+00  0.72950020318E+03  0.72950021017E+03  0.10100000352E+00 0. -1.
       -3   -1    0    0    0  501  0.00000000000E+00  0.00000000000E+00 -0.26142255220E+04  0.26142255239E+04  0.10100000352E+00 0.  1.
    10030    2    1    2    0    0  0.00000000000E+00  0.00000000000E+00 -0.18847253188E+04  0.33437257341E+04  0.27619399446E+04 0.  0.
        4    1    3    3  502    0  0.12987931261E+04 -0.22435774839E+03 -0.14413425318E+04  0.19531179920E+04  0.12699999809E+01 0.  1.
       -4    1    3    3    0  502 -0.12987931261E+04  0.22435774839E+03 -0.44338278704E+03  0.13906077421E+04  0.12699999809E+01 0. -1.
</event>
<event>
 5   0  0.1931119E-05  0.2719894E+04  0.7818609E-02  0.8328579E-01
       -2   -1    0    0    0  501  0.00000000000E+00  0.00000000000E+00  0.16081279104E+04  0.16081279104E+04  0.25500000920E-02 0. -1.
        2   -1    0    0  501    0  0.00000000000E+00  0.00000000000E+00 -0.11500678187E+04  0.11500678187E+04  0.25500000920E-02 0.  1.
    10030    2    1    2    0    0  0.00000000000E+00  0.00000000000E+00  0.45806009172E+03  0.27581957292E+04  0.27198942319E+04 0.  0.
        3    1    3    3  502    0  0.11545952154E+04  0.16000512321E+03 -0.48138081136E+03  0.12611182524E+04  0.10100000352E+00 0.  1.
       -3    1    3    3    0  502 -0.11545952154E+04 -0.16000512321E+03  0.93944090308E+03  0.14970774768E+04  0.10100000352E+00 0. -1.
</event>
<event>
 5   0  0.7348964E-06  0.2701640E+04  0.7818609E-02  0.8334473E-01
        1   -1    0    0  501    0  0.00000000000E+00  0.00000000000E+00  0.20944729224E+04  0.20944729224E+04  0.50400001928E-02 0. -1.
       -1   -1    0    0    0  501  0.00000000000E+00  0.00000000000E+00 -0.87120438833E+03  0.87120438835E+03  0.50400001928E-02 0.  1.
    10030    2    1    2    0    0  0.00000000000E+00  0.00000000000E+00  0.12232685340E+04  0.29656773107E+04  0.27016395031E+04 0.  0.
        1    1    3    3  502    0  0.11281893516E+04 -0.15442577777E+03 -0.18605962831E+03  0.11538096547E+04  0.50400001928E-02 0.  1.
       -1    1    3    3    0  502 -0.11281893516E+04  0.15442577777E+03  0.14093281623E+04  0.18118676561E+04  0.50400001928E-02 0. -1.
</event>
<event>
 5   0  0.6175875E-06  0.2680891E+04  0.7818609E-02  0.8341232E-01
        3   -1    0    0  501    0  0.00000000000E+00  0.00000000000E+00  0.83296197041E+03  0.83296197653E+03  0.10100000352E+00 0. -1.
       -3   -1    0    0    0  501  0.00000000000E+00  0.00000000000E+00 -0.21571138044E+04  0.21571138068E+04  0.10100000352E+00 0.  1.
    10030    2    1    2    0    0  0.00000000000E+00  0.00000000000E+00 -0.13241518340E+04  0.29900757833E+04  0.26808907308E+04 0.  0.
        1    1    3    3  502    0 -0.63384032173E+03  0.11798075939E+04 -0.60003447632E+03  0.14675629066E+04  0.50400001928E-02 0.  1.
       -1    1    3    3    0  502  0.63384032173E+03 -0.11798075939E+04 -0.72411735770E+03  0.15225128767E+04  0.50400001928E-02 0. -1.
</event>
<event>
 5   0  0.1826851E-05  0.2703072E+04  0.7818609E-02  0.8334009E-01
       -2   -1    0    0    0  501  0.00000000000E+00  0.00000000000E+00  0.21174347852E+04  0.21174347852E+04  0.25500000920E-02 0. -1.
        2   -1    0    0  501    0  0.00000000000E+00  0.00000000000E+00 -0.86267126364E+03  0.86267126365E+03  0.25500000920E-02 0.  1.
    10030    2    1    2    0    0  0.00000000000E+00  0.00000000000E+00  0.12547635216E+04  0.29801060489E+04  0.27030724310E+04 0.  0.
        5    1    3    3  502    0 -0.13483141843E+03  0.13400419682E+04  0.75180217788E+03  0.15424398181E+04  0.46999998093E+01 0.  1.
       -5    1    3    3    0  502  0.13483141843E+03 -0.13400419682E+04  0.50296134371E+03  0.14376662308E+04  0.46999998093E+01 0. -1.
</event>
<event>
 5   0  0.7348964E-06  0.2607414E+04  0.7818609E-02  0.8365687E-01
       -1   -1    0    0    0  501  0.00000000000E+00  0.00000000000E+00  0.87161750877E+03  0.87161750879E+03  0.50400001928E-02 0. -1.
        1   -1    0    0  501    0  0.00000000000E+00  0.00000000000E+00 -0.19499967386E+04  0.19499967386E+04  0.50400001928E-02 0.  1.
    10030    2    1    2    0    0  0.00000000000E+00  0.00000000000E+00 -0.10783792298E+04  0.28216142474E+04  0.26074135072E+04 0.  0.
        1    1    3    3  502    0 -0.54344812558E+03  0.60621035615E+03  0.56270571178E+03  0.98967902837E+03  0.50400001928E-02 0. -1.
       -1    1    3    3    0  502  0.54344812558E+03 -0.60621035615E+03 -0.16410849416E+04  0.18319352190E+04  0.50400001928E-02 0.  1.
</event>
<event>
 5   0  0.7600052E-06  0.2701218E+04  0.7818609E-02  0.8334610E-01
       -1   -1    0    0    0  501  0.00000000000E+00  0.00000000000E+00  0.22151736968E+04  0.22151736968E+04  0.50400001928E-02 0. -1.
        1   -1    0    0  501    0  0.00000000000E+00  0.00000000000E+00 -0.82347692770E+03  0.82347692771E+03  0.50400001928E-02 0.  1.
    10030    2    1    2    0    0  0.00000000000E+00  0.00000000000E+00  0.13916967691E+04  0.30386506246E+04  0.27012178218E+04 0.  0.
        5    1    3    3  502    0 -0.10564650190E+04 -0.70622790499E+03  0.18127194144E+03  0.12836501848E+04  0.46999998093E+01 0.  1.
       -5    1    3    3    0  502  0.10564650190E+04  0.70622790499E+03  0.12104248277E+04  0.17550004398E+04  0.46999998093E+01 0. -1.
</event>
<event>
 5   0  0.7351590E-06  0.2633943E+04  0.7818609E-02  0.8356762E-01
        1   -1    0    0  501    0  0.00000000000E+00  0.00000000000E+00  0.98063631182E+03  0.98063631184E+03  0.50400001928E-02 0. -1.
       -1   -1    0    0    0  501  0.00000000000E+00  0.00000000000E+00 -0.17686618388E+04  0.17686618388E+04  0.50400001928E-02 0.  1.
    10030    2    1    2    0    0  0.00000000000E+00  0.00000000000E+00 -0.78802552694E+03  0.27492981506E+04  0.26339430688E+04 0.  0.
        3    1    3    3  502    0  0.19095470675E+03 -0.77961644303E+02  0.96367294200E+03  0.98549848673E+03  0.10100000352E+00 0. -1.
       -3    1    3    3    0  502 -0.19095470675E+03  0.77961644303E+02 -0.17516984689E+04  0.17637996639E+04  0.10100000352E+00 0.  1.
</event>
<event>
 5   0  0.1881699E-05  0.2768442E+04  0.7818609E-02  0.8313133E-01
        2   -1    0    0  501    0  0.00000000000E+00  0.00000000000E+00  0.31090578034E+04  0.31090578034E+04  0.25500000920E-02 0.  1.
       -2   -1    0    0    0  501  0.00000000000E+00  0.00000000000E+00 -0.61628555486E+03  0.61628555487E+03  0.25500000920E-02 0. -1.
    10030    2    1    2    0    0  0.00000000000E+00  0.00000000000E+00  0.24927722485E+04  0.37253433583E+04  0.27684417375E+04 0.  0.
        4    1    3    3  502    0  0.12986981873E+04  0.28995787674E+03  0.73332020576E+03  0.15193593022E+04  0.12699999809E+01 0. -1.
       -4    1    3    3    0  502 -0.12986981873E+04 -0.28995787674E+03  0.17594520428E+04  0.22059840561E+04  0.12699999809E+01 0.  1.
</event>
<event>
 5   0  0.6804685E-06  0.2702108E+04  0.7818609E-02  0.8334321E-01
       -1   -1    0    0    0  501  0.00000000000E+00  0.00000000000E+00  0.10306740412E+04  0.10306740412E+04  0.50400001928E-02 0. -1.
        1   -1    0    0  501    0  0.00000000000E+00  0.00000000000E+00 -0.17710221769E+04  0.17710221769E+04  0.50400001928E-02 0.  1.
    10030    2    1    2    0    0  0.00000000000E+00  0.00000000000E+00 -0.74034813573E+03  0.28016962181E+04  0.27021077581E+04 0.  0.
        2    1    3    3  502    0 -0.11993423635E+04  0.62149031044E+03 -0.34325027084E+03  0.13937334965E+04  0.25500000920E-02 0. -1.
       -2    1    3    3    0  502  0.11993423635E+04 -0.62149031044E+03 -0.39709786490E+03  0.14079627215E+04  0.25500000920E-02 0.  1.
</event>
<event>
 5   0  0.1878160E-05  0.2696338E+04  0.7818609E-02  0.8336194E-01
        2   -1    0    0  501    0  0.00000000000E+00  0.00000000000E+00  0.18756008723E+04  0.18756008723E+04  0.25500000920E-02 0.  1.
       -2   -1    0    0    0  501  0.00000000000E+00  0.00000000000E+00 -0.96905435951E+03  0.96905435951E+03  0.25500000920E-02 0. -1.
    10030    2    1    2    0    0  0.00000000000E+00  0.00000000000E+00  0.90654651276E+03  0.28446552318E+04  0.26963376658E+04 0.  0.
        1    1    3    3  502    0  0.33736458145E+03 -0.18302841687E+03  0.18167428015E+04  0.18568437385E+04  0.50400001928E-02 0.  1.
       -1    1    3    3    0  502 -0.33736458145E+03  0.18302841687E+03 -0.91019628876E+03  0.98781149330E+03  0.50400001928E-02 0. -1.
</event>
<event>
 5   0  0.1881699E-05  0.2739261E+04  0.7818609E-02  0.8322377E-01
        2   -1    0    0  501    0  0.00000000000E+00  0.00000000000E+00  0.16264466533E+04  0.16264466533E+04  0.25500000920E-02 0. -1.
       -2   -1    0    0    0  501  0.00000000000E+00  0.00000000000E+00 -0.11533658474E+04  0.11533658474E+04  0.25500000920E-02 0.  1.
    10030    2    1    2    0    0  0.00000000000E+00  0.00000000000E+00  0.47308080595E+03  0.27798125007E+04  0.27392612307E+04 0.  0.
        4    1    3    3  502    0 -0.63882493364E+03 -0.37958491869E+03  0.14040959714E+04  0.15886060292E+04  0.12699999809E+01 0. -1.
       -4    1    3    3    0  502  0.63882493364E+03  0.37958491869E+03 -0.93101516546E+03  0.11912064714E+04  0.12699999809E+01 0.  1.
</event>
<event>
 5   0  0.1881699E-05  0.2669503E+04  0.7818609E-02  0.8344969E-01
       -2   -1    0    0    0  501  0.00000000000E+00  0.00000000000E+00  0.87191756920E+03  0.87191756921E+03  0.25500000920E-02 0. -1.
        2   -1    0    0  501    0  0.00000000000E+00  0.00000000000E+00 -0.20432681579E+04  0.20432681579E+04  0.25500000920E-02 0.  1.
    10030    2    1    2    0    0  0.00000000000E+00  0.00000000000E+00 -0.11713505887E+04  0.29151857271E+04  0.26695028792E+04 0.  0.
        4    1    3    3  502    0 -0.27242783237E+03 -0.49475956507E+03 -0.19063384557E+04  0.19882484431E+04  0.12699999809E+01 0.  1.
       -4    1    3    3    0  502  0.27242783237E+03  0.49475956507E+03  0.73498786694E+03  0.92693728403E+03  0.12699999809E+01 0. -1.
</event>
<event>
 5   0  0.1788003E-05  0.2731365E+04  0.7818609E-02  0.8324899E-01
       -2   -1    0    0    0  501  0.00000000000E+00  0.00000000000E+00  0.17307492867E+04  0.17307492867E+04  0.25500000920E-02 0. -1.
        2   -1    0    0  501    0  0.00000000000E+00  0.00000000000E+00 -0.10776190901E+04  0.10776190902E+04  0.25500000920E-02 0.  1.
    10030    2    1    2    0    0  0.00000000000E+00  0.00000000000E+00  0.65313019658E+03  0.28083683769E+04  0.27313648395E+04 0.  0.
        2    1    3    3  502    0  0.85732601666E+03  0.73343601073E+03  0.11177737542E+04  0.15881921944E+04  0.25500000920E-02 0. -1.
       -2    1    3    3    0  502 -0.85732601666E+03 -0.73343601073E+03 -0.46464355763E+03  0.12201761825E+04  0.25500000920E-02 0.  1.
</event>
<event>
 5   0  0.1931119E-05  0.2754202E+04  0.7818609E-02  0.8317630E-01
        2   -1    0    0  501    0  0.00000000000E+00  0.00000000000E+00  0.16213114628E+04  0.16213114628E+04  0.25500000920E-02 0.  1.
       -2   -1    0    0    0  501  0.00000000000E+00  0.00000000000E+00 -0.11696747563E+04  0.11696747563E+04  0.25500000920E-02 0. -1.
    10030    2    1    2    0    0  0.00000000000E+00  0.00000000000E+00  0.45163670657E+03  0.27909862191E+04  0.27542019462E+04 0.  0.
        3    1    3    3  502    0 -0.37913311124E+03 -0.75326231902E+03 -0.87741889492E+03  0.12169675282E+04  0.10100000352E+00 0. -1.
       -3    1    3    3    0  502  0.37913311124E+03  0.75326231902E+03  0.13290556015E+04  0.15740186909E+04  0.10100000352E+00 0.  1.
</event>
<event>
 5   0  0.7351590E-06  0.2675548E+04  0.7818609E-02  0.8342983E-01
       -1   -1    0    0    0  501  0.00000000000E+00  0.00000000000E+00  0.10442931254E+04  0.10442931254E+04  0.50400001928E-02 0.  1.
        1   -1    0    0  501    0  0.00000000000E+00  0.00000000000E+00 -0.17137324855E+04  0.17137324855E+04  0.50400001928E-02 0. -1.
    10030    2    1    2    0    0  0.00000000000E+00  0.00000000000E+00 -0.66943936010E+03  0.27580256109E+04  0.26755478342E+04 0.  0.
        3    1    3    3  502    0  0.72212023416E+02 -0.33419524426E+03  0.99849331171E+03  0.10554098452E+04  0.10100000352E+00 0.  1.
       -3    1    3    3    0  502 -0.72212023416E+02  0.33419524426E+03 -0.16679326718E+04  0.17026157657E+04  0.10100000352E+00 0. -1.
</event>
<event>
 5   0  0.7754912E-06  0.2699424E+04  0.7818609E-02  0.8335192E-01
       -1   -1    0    0    0  501  0.00000000000E+00  0.00000000000E+00  0.11334642937E+04  0.11334642937E+04  0.50400001928E-02 0.  1.
        1   -1    0    0  501    0  0.00000000000E+00  0.00000000000E+00 -0.16072159456E+04  0.16072159456E+04  0.50400001928E-02 0. -1.
    10030    2    1    2    0    0  0.00000000000E+00  0.00000000000E+00 -0.47375165192E+03  0.27406802393E+04  0.26994235582E+04 0.  0.
        4    1    3    3  502    0  0.13826654292E+02  0.12400468959E+04  0.30400715800E+03  0.12768435477E+04  0.12699999809E+01 0.  1.
       -4    1    3    3    0  502 -0.13826654292E+02 -0.12400468959E+04 -0.77775880993E+03  0.14638366916E+04  0.12699999809E+01 0. -1.
</event>
<event>
 5   0  0.1931119E-05  0.2699251E+04  0.7818609E-02  0.8335248E-01
       -2   -1    0    0    0  501  0.00000000000E+00  0.00000000000E+00  0.15198990942E+04  0.15198990942E+04  0.25500000920E-02 0. -1.
        2   -1    0    0  501    0  0.00000000000E+00  0.00000000000E+00 -0.11984276409E+04  0.11984276409E+04  0.25500000920E-02 0.  1.
    10030    2    1    2    0    0  0.00000000000E+00  0.00000000000E+00  0.32147145330E+03  0.27183267351E+04  0.26992510709E+04 0.  0.
        3    1    3    3  502    0  0.62608727494E+03 -0.19434350675E+03 -0.10273192978E+04  0.12186630479E+04  0.10100000352E+00 0.  1.
       -3    1    3    3    0  502 -0.62608727494E+03  0.19434350675E+03  0.13487907511E+04  0.14996636872E+04  0.10100000352E+00 0. -1.
</event>
<event>
 5   0  0.1788003E-05  0.2732419E+04  0.7818609E-02  0.8324562E-01
       -2   -1    0    0    0  501  0.00000000000E+00  0.00000000000E+00  0.11182634091E+04  0.11182634091E+04  0.25500000920E-02 0.  1.
        2   -1    0    0  501    0  0.00000000000E+00  0.00000000000E+00 -0.16691309288E+04  0.16691309288E+04  0.25500000920E-02 0. -1.
    10030    2    1    2    0    0  0.00000000000E+00  0.00000000000E+00 -0.55086751978E+03  0.27873943379E+04  0.27324187400E+04 0.  0.
        2    1    3    3  502    0  0.14304589768E+03  0.13586491479E+04 -0.26343242288E+03  0.13913253672E+04  0.25500000920E-02 0.  1.
       -2    1    3    3    0  502 -0.14304589768E+03 -0.13586491479E+04 -0.28743509690E+03  0.13960689707E+04  0.25500000920E-02 0. -1.
</event>
<event>
 5   0  0.7348964E-06  0.2678973E+04  0.7818609E-02  0.8341860E-01
       -1   -1    0    0    0  501  0.00000000000E+00  0.00000000000E+00  0.16050119490E+04  0.16050119490E+04  0.50400001928E-02 0. -1.
        1   -1    0    0  501    0  0.00000000000E+00  0.00000000000E+00 -0.11178882947E+04  0.11178882947E+04  0.50400001928E-02 0.  1.
    10030    2    1    2    0    0  0.00000000000E+00  0.00000000000E+00  0.48712365427E+03  0.27229002437E+04  0.26789729902E+04 0.  0.
        1    1    3    3  502    0  0.95227185487E+03 -0.27874158324E+03 -0.67102921703E+03  0.11978308586E+04  0.50400001928E-02 0.  1.
       -1    1    3    3    0  502 -0.95227185487E+03  0.27874158324E+03  0.11581528713E+04  0.15250693850E+04  0.50400001928E-02 0. -1.
</event>
<event>
 5   0  0.1878160E-05  0.2677287E+04  0.7818609E-02  0.8342412E-01
        2   -1    0    0  501    0  0.00000000000E+00  0.00000000000E+00  0.13607957089E+04  0.13607957089E+04  0.25500000920E-02 0. -1.
       -2   -1    0    0    0  501  0.00000000000E+00  0.00000000000E+00 -0.13168518836E+04  0.13168518836E+04  0.25500000920E-02 0.  1.
    10030    2    1    2    0    0  0.00000000000E+00  0.00000000000E+00  0.43943825257E+02  0.26776475925E+04  0.26772869793E+04 0.  0.
        1    1    3    3  502    0 -0.11634534019E+04  0.34114779514E+03  0.58946419788E+03  0.13481371136E+04  0.50400001928E-02 0. -1.
       -1    1    3    3    0  502  0.11634534019E+04 -0.34114779514E+03 -0.54552037263E+03  0.13295104789E+04  0.50400001928E-02 0.  1.
</event>
<event>
 5   0  0.6804685E-06  0.2709319E+04  0.7818609E-02  0.8331988E-01
        1   -1    0    0  501    0  0.00000000000E+00  0.00000000000E+00  0.75139917640E+03  0.75139917642E+03  0.50400001928E-02 0. -1.
       -1   -1    0    0    0  501  0.00000000000E+00  0.00000000000E+00 -0.24422473247E+04  0.24422473247E+04  0.50400001928E-02 0.  1.
    10030    2    1    2    0    0  0.00000000000E+00  0.00000000000E+00 -0.16908481483E+04  0.31936465011E+04  0.27093191974E+04 0.  0.
        2    1    3    3  502    0  0.12683936895E+04 -0.47405829815E+03 -0.89181417054E+03  0.16213840805E+04  0.25500000920E-02 0.  1.
       -2    1    3    3    0  502 -0.12683936895E+04  0.47405829815E+03 -0.79903397771E+03  0.15722624206E+04  0.25500000920E-02 0. -1.
</event>
<event>
 5   0  0.1826851E-05  0.2709139E+04  0.7818609E-02  0.8332046E-01
       -2   -1    0    0    0  501  0.00000000000E+00  0.00000000000E+00  0.89337212514E+03  0.89337212514E+03  0.25500000920E-02 0.  1.
        2   -1    0    0  501    0  0.00000000000E+00  0.00000000000E+00 -0.20538564160E+04  0.20538564160E+04  0.25500000920E-02 0. -1.
    10030    2    1    2    0    0  0.00000000000E+00  0.00000000000E+00 -0.11604842908E+04  0.29472285411E+04  0.27091386609E+04 0.  0.
        5    1    3    3  502    0 -0.97802035595E+03 -0.35946928051E+03  0.36132379406E+03  0.11028685119E+04  0.46999998093E+01 0.  1.
       -5    1    3    3    0  502  0.97802035595E+03  0.35946928051E+03 -0.15218080849E+04  0.18443600292E+04  0.46999998093E+01 0. -1.
</event>
<event>
 5   0  0.6804685E-06  0.2568190E+04  0.7818609E-02  0.8379087E-01
        1   -1    0    0  501    0  0.00000000000E+00  0.00000000000E+00  0.16224585140E+04  0.16224585140E+04  0.50400001928E-02 0.  1.
       -1   -1    0    0    0  501  0.00000000000E+00  0.00000000000E+00 -0.10162972233E+04  0.10162972233E+04  0.50400001928E-02 0. -1.
    10030    2    1    2    0    0  0.00000000000E+00  0.00000000000E+00  0.60616129066E+03  0.26387557373E+04  0.25681900885E+04 0.  0.
        2    1    3    3  502    0  0.57198818120E+03 -0.12526127613E+03  0.14773024312E+04  0.15891140110E+04  0.25500000920E-02 0.  1.
       -2    1    3    3    0  502 -0.57198818120E+03  0.12526127613E+03 -0.87114114057E+03  0.10496417263E+04  0.25500000920E-02 0. -1.
</event>
<event>
 5   0  0.7351590E-06  0.2669726E+04  0.7818609E-02  0.8344895E-01
        1   -1    0    0  501    0  0.00000000000E+00  0.00000000000E+00  0.12340050771E+04  0.12340050771E+04  0.50400001928E-02 0.  1.
       -1   -1    0    0    0  501  0.00000000000E+00  0.00000000000E+00 -0.14439642555E+04  0.14439642555E+04  0.50400001928E-02 0. -1.
    10030    2    1    2    0    0  0.00000000000E+00  0.00000000000E+00 -0.20995917841E+03  0.26779693326E+04  0.26697259953E+04 0.  0.
        3    1    3    3  502    0 -0.11694090429E+04 -0.38495581212E+03 -0.62247051181E+03  0.13795571880E+04  0.10100000352E+00 0. -1.
       -3    1    3    3    0  502  0.11694090429E+04  0.38495581212E+03  0.41251133341E+03  0.12984121446E+04  0.10100000352E+00 0.  1.
</event>
<event>
 5   0  0.7600052E-06  0.2687398E+04  0.7818609E-02  0.8339106E-01
       -1   -1    0    0    0  501  0.00000000000E+00  0.00000000000E+00  0.78136626636E+03  0.78136626638E+03  0.50400001928E-02 0. -1.
        1   -1    0    0  501    0  0.00000000000E+00  0.00000000000E+00 -0.23107300840E+04  0.23107300840E+04  0.50400001928E-02 0.  1.
    10030    2    1    2    0    0  0.00000000000E+00  0.00000000000E+00 -0.15293638177E+04  0.30920963504E+04  0.26873976545E+04 0.  0.
        5    1    3    3  502    0  0.11960755613E+04 -0.45131612112E+02 -0.14672692062E+04  0.18935507979E+04  0.46999998093E+01 0.  1.
       -5    1    3    3    0  502 -0.11960755613E+04  0.45131612112E+02 -0.62094611461E+02  0.11985455525E+04  0.46999998093E+01 0. -1.
</event>
<event>
 5   0  0.1878160E-05  0.2325790E+04  0.7818609E-02  0.8467822E-01
       -2   -1    0    0    0  501  0.00000000000E+00  0.00000000000E+00  0.92453355381E+03  0.92453355382E+03  0.25500000920E-02 0. -1.
        2   -1    0    0  501    0  0.00000000000E+00  0.00000000000E+00 -0.14627097282E+04  0.14627097282E+04  0.25500000920E-02 0.  1.
    10030    2    1    2    0    0  0.00000000000E+00  0.00000000000E+00 -0.53817617443E+03  0.23872432821E+04  0.23257895204E+04 0.  0.
        1    1    3    3  502    0 -0.28826539921E+03  0.95179522522E+02 -0.14213216423E+04  0.14533792666E+04  0.50400001928E-02 0.  1.
       -1    1    3    3    0  502  0.28826539921E+03 -0.95179522522E+02  0.88314546785E+03  0.93386401542E+03  0.50400001928E-02 0. -1.
</event>
<event>
 5   0  0.7351590E-06  0.2733442E+04  0.7818609E-02  0.8324235E-01
       -1   -1    0    0    0  501  0.00000000000E+00  0.00000000000E+00  0.12391390469E+04  0.12391390469E+04  0.50400001928E-02 0.  1.
        1   -1    0    0  501    0  0.00000000000E+00  0.00000000000E+00 -0.15074390638E+04  0.15074390638E+04  0.50400001928E-02 0. -1.
    10030    2    1    2    0    0  0.00000000000E+00  0.00000000000E+00 -0.26830001689E+03  0.27465781107E+04  0.27334422290E+04 0.  0.
        3    1    3    3  502    0  0.10875116087E+04  0.75478500125E+03  0.20740217402E+03  0.13399244640E+04  0.10100000352E+00 0.  1.
       -3    1    3    3    0  502 -0.10875116087E+04 -0.75478500125E+03 -0.47570219091E+03  0.14066536467E+04  0.10100000352E+00 0. -1.
</event>
<event>
 5   0  0.1788003E-05  0.2645082E+04  0.7818609E-02  0.8353047E-01
       -2   -1    0    0    0  501  0.00000000000E+00  0.00000000000E+00  0.12987984041E+04  0.12987984041E+04  0.25500000920E-02 0. -1.
        2   -1    0    0  501    0  0.00000000000E+00  0.00000000000E+00 -0.13467177533E+04  0.13467177533E+04  0.25500000920E-02 0.  1.
    10030    2    1    2    0    0  0.00000000000E+00  0.00000000000E+00 -0.47919349229E+02  0.26455161574E+04  0.26450821301E+04 0.  0.
        2    1    3    3  502    0 -0.61560954389E+02  0.56159770213E+03  0.11720346598E+04  0.13010945292E+04  0.25500000920E-02 0. -1.
       -2    1    3    3    0  502  0.61560954389E+02 -0.56159770213E+03 -0.12199540090E+04  0.13444216282E+04  0.25500000920E-02 0.  1.
</event>
<event>
 5   0  0.7754912E-06  0.2726854E+04  0.7818609E-02  0.8326344E-01
        1   -1    0    0  501    0  0.00000000000E+00  0.00000000000E+00  0.14322390270E+04  0.14322390270E+04  0.50400001928E-02 0. -1.
       -1   -1    0    0    0  501  0.00000000000E+00  0.00000000000E+00 -0.12979211519E+04  0.12979211519E+04  0.50400001928E-02 0.  1.
    10030    2    1    2    0    0  0.00000000000E+00  0.00000000000E+00  0.13431787516E+03  0.27301601789E+04  0.27268541052E+04 0.  0.
        4    1    3    3  502    0  0.12793641423E+03 -0.11154752655E+04 -0.70726376523E+03  0.13269801960E+04  0.12699999809E+01 0.  1.
       -4    1    3    3    0  502 -0.12793641423E+03  0.11154752655E+04  0.84158164039E+03  0.14031799829E+04  0.12699999809E+01 0. -1.
</event>
<event>
 5   0  0.7600052E-06  0.2724325E+04  0.7818609E-02  0.8327155E-01
       -1   -1    0    0    0  501  0.00000000000E+00  0.00000000000E+00  0.99381374513E+03  0.99381374515E+03  0.50400001928E-02 0.  1.
        1   -1    0    0  501    0  0.00000000000E+00  0.00000000000E+00 -0.18670359745E+04  0.18670359745E+04  0.50400001928E-02 0. -1.
    10030    2    1    2    0    0  0.00000000000E+00  0.00000000000E+00 -0.87322222935E+03  0.28608497196E+04  0.27243245138E+04 0.  0.
        5    1    3    3  502    0  0.38084692358E+03 -0.74858289837E+03  0.68953121166E+03  0.10866904420E+04  0.46999998093E+01 0.  1.
       -5    1    3    3    0  502 -0.38084692358E+03  0.74858289837E+03 -0.15627534410E+04  0.17741592776E+04  0.46999998093E+01 0. -1.
</event>
<event>
 5   0  0.1826851E-05  0.2724844E+04  0.7818609E-02  0.8326989E-01
       -2   -1    0    0    0  501  0.00000000000E+00  0.00000000000E+00  0.11438108278E+04  0.11438108278E+04  0.25500000920E-02 0.  1.
        2   -1    0    0  501    0  0.00000000000E+00  0.00000000000E+00 -0.16228156600E+04  0.16228156600E+04  0.25500000920E-02 0. -1.
    10030    2    1    2    0    0  0.00000000000E+00  0.00000000000E+00 -0.47900483223E+03  0.27666264878E+04  0.27248443063E+04 0.  0.
        5    1    3    3  502    0  0.50595890672E+03 -0.12009196619E+04  0.16404593310E+03  0.13134441777E+04  0.46999998093E+01 0. -1.
       -5    1    3    3    0  502 -0.50595890672E+03  0.12009196619E+04 -0.64305076533E+03  0.14531823101E+04  0.46999998093E+01 0.  1.
</event>
<event>
 5   0  0.7600052E-06  0.2862873E+04  0.7818609E-02  0.8284010E-01
       -1   -1    0    0    0  501  0.00000000000E+00  0.00000000000E+00  0.81498878028E+03  0.81498878029E+03  0.50400001928E-02 0. -1.
        1   -1    0    0  501    0  0.00000000000E+00  0.00000000000E+00 -0.25141578799E+04  0.25141578800E+04  0.50400001928E-02 0.  1.
    10030    2    1    2    0    0  0.00000000000E+00  0.00000000000E+00 -0.16991690997E+04  0.33291466602E+04  0.28628730073E+04 0.  0.
        5    1    3    3  502    0  0.46809413190E+03  0.85296242742E+03  0.37133465266E+03  0.10414262015E+04  0.46999998093E+01 0. -1.
       -5    1    3    3    0  502 -0.46809413190E+03 -0.85296242742E+03 -0.20705037523E+04  0.22877204587E+04  0.46999998093E+01 0.  1.
</event>
<event>
 5   0  0.6804685E-06  0.2690542E+04  0.7818609E-02  0.8338080E-01
       -1   -1    0    0    0  501  0.00000000000E+00  0.00000000000E+00  0.10560012043E+04  0.10560012043E+04  0.50400001928E-02 0.  1.
        1   -1    0    0  501    0  0.00000000000E+00  0.00000000000E+00 -0.17137798580E+04  0.17137798580E+04  0.50400001928E-02 0. -1.
    10030    2    1    2    0    0  0.00000000000E+00  0.00000000000E+00 -0.65777865371E+03  0.27697810624E+04  0.26905416511E+04 0.  0.
        2    1    3    3  502    0 -0.53132028609E+03 -0.48485293979E+03  0.84141591905E+03  0.11069617737E+04  0.25500000920E-02 0.  1.
       -2    1    3    3    0  502  0.53132028609E+03  0.48485293979E+03 -0.14991945728E+04  0.16628192886E+04  0.25500000920E-02 0. -1.
</event>
<event>
 5   0  0.1878160E-05  0.2657373E+04  0.7818609E-02  0.8348970E-01
        2   -1    0    0  501    0  0.00000000000E+00  0.00000000000E+00  0.17189546122E+04  0.17189546122E+04  0.25500000920E-02 0. -1.
       -2   -1    0    0    0  501  0.00000000000E+00  0.00000000000E+00 -0.10270243428E+04  0.10270243428E+04  0.25500000920E-02 0.  1.
    10030    2    1    2    0    0  0.00000000000E+00  0.00000000000E+00  0.69193026939E+03  0.27459789550E+04  0.26573733128E+04 0.  0.
        1    1    3    3  502    0 -0.17821416729E+03  0.62820779066E+03 -0.84977111724E+03  0.10716885132E+04  0.50400001928E-02 0.  1.
       -1    1    3    3    0  502  0.17821416729E+03 -0.62820779066E+03  0.15417013866E+04  0.16742904417E+04  0.50400001928E-02 0. -1.
</event>
<event>
 5   0  0.7754912E-06  0.2666066E+04  0.7818609E-02  0.8346100E-01
        1   -1    0    0  501    0  0.00000000000E+00  0.00000000000E+00  0.15196990754E+04  0.15196990754E+04  0.50400001928E-02 0. -1.
       -1   -1    0    0    0  501  0.00000000000E+00  0.00000000000E+00 -0.11692952414E+04  0.11692952414E+04  0.50400001928E-02 0.  1.
    10030    2    1    2    0    0  0.00000000000E+00  0.00000000000E+00  0.35040383405E+03  0.26889943169E+04  0.26660659386E+04 0.  0.
        4    1    3    3  502    0  0.95853779796E+03  0.31543521165E+03  0.10537158620E+04  0.14589766323E+04  0.12699999809E+01 0. -1.
       -4    1    3    3    0  502 -0.95853779796E+03 -0.31543521165E+03 -0.70331202791E+03  0.12300176846E+04  0.12699999809E+01 0.  1.
</event>
<event>
 5   0  0.1878160E-05  0.2801215E+04  0.7818609E-02  0.8302891E-01
        2   -1    0    0  501    0  0.00000000000E+00  0.00000000000E+00  0.19061032502E+04  0.19061032502E+04  0.25500000920E-02 0.  1.
       -2   -1    0    0    0  501  0.00000000000E+00  0.00000000000E+00 -0.10291683195E+04  0.10291683196E+04  0.25500000920E-02 0. -1.
    10030    2    1    2    0    0  0.00000000000E+00  0.00000000000E+00  0.87693493063E+03  0.29352715697E+04  0.28012147928E+04 0.  0.
        1    1    3    3  502    0 -0.11984333478E+04  0.72484754702E+03  0.43072300404E+03  0.14653220676E+04  0.50400001928E-02 0. -1.
       -1    1    3    3    0  502  0.11984333478E+04 -0.72484754702E+03  0.44621192659E+03  0.14699495022E+04  0.50400001928E-02 0.  1.
</event>
<event>
 5   0  0.1878160E-05  0.2718957E+04  0.7818609E-02  0.8328880E-01
        2   -1    0    0  501    0  0.00000000000E+00  0.00000000000E+00  0.16213979501E+04  0.16213979501E+04  0.25500000920E-02 0.  1.
       -2   -1    0    0    0  501  0.00000000000E+00  0.00000000000E+00 -0.11398697090E+04  0.11398697090E+04  0.25500000920E-02 0. -1.
    10030    2    1    2    0    0  0.00000000000E+00  0.00000000000E+00  0.48152824109E+03  0.27612676591E+04  0.27189574542E+04 0.  0.
        1    1    3    3  502    0  0.58708839620E+03 -0.16865177597E+03 -0.99265833444E+03  0.11655414087E+04  0.50400001928E-02 0. -1.
       -1    1    3    3    0  502 -0.58708839620E+03  0.16865177597E+03  0.14741865755E+04  0.15957262503E+04  0.50400001928E-02 0.  1.
</event>
<event>
 5   0  0.7754912E-06  0.2680274E+04  0.7818609E-02  0.8341434E-01
       -1   -1    0    0    0  501  0.00000000000E+00  0.00000000000E+00  0.11796201216E+04  0.11796201216E+04  0.50400001928E-02 0.  1.
        1   -1    0    0  501    0  0.00000000000E+00  0.00000000000E+00 -0.15224958215E+04  0.15224958215E+04  0.50400001928E-02 0. -1.
    10030    2    1    2    0    0  0.00000000000E+00  0.00000000000E+00 -0.34287569996E+03  0.27021159431E+04  0.26802736473E+04 0.  0.
        4    1    3    3  502    0  0.84652448800E+03  0.92517091606E+03  0.30508751567E+03  0.12905909258E+04  0.12699999809E+01 0.  1.
       -4    1    3    3    0  502 -0.84652448800E+03 -0.92517091606E+03 -0.64796321563E+03  0.14115250173E+04  0.12699999809E+01 0. -1.
</event>
<event>
 5   0  0.7600052E-06  0.2664499E+04  0.7818609E-02  0.8346617E-01
       -1   -1    0    0    0  501  0.00000000000E+00  0.00000000000E+00  0.13759633197E+04  0.13759633197E+04  0.50400001928E-02 0. -1.
        1   -1    0    0  501    0  0.00000000000E+00  0.00000000000E+00 -0.12899239821E+04  0.12899239821E+04  0.50400001928E-02 0.  1.
    10030    2    1    2    0    0  0.00000000000E+00  0.00000000000E+00  0.86039337544E+02  0.26658873018E+04  0.26644985153E+04 0.  0.
        5    1    3    3  502    0  0.11233496923E+03  0.11669414166E+04 -0.59015659331E+03  0.13125084037E+04  0.46999998093E+01 0.  1.
       -5    1    3    3    0  502 -0.11233496923E+03 -0.11669414166E+04  0.67619593085E+03  0.13533788981E+04  0.46999998093E+01 0. -1.
</event>
<event>
 5   0  0.1881699E-05  0.2696298E+04  0.7818609E-02  0.8336207E-01
        2   -1    0    0  501    0  0.00000000000E+00  0.00000000000E+00  0.66011008518E+03  0.66011008518E+03  0.25500000920E-02 0.  1.
       -2   -1    0    0    0  501  0.00000000000E+00  0.00000000000E+00 -0.27533379306E+04  0.27533379306E+04  0.25500000920E-02 0. -1.
    10030    2    1    2    0    0  0.00000000000E+00  0.00000000000E+00 -0.20932278454E+04  0.34134480157E+04  0.26962983039E+04 0.  0.
        4    1    3    3  502    0  0.64003811109E+03 -0.83724689668E+03 -0.21109926010E+04  0.23594326700E+04  0.12699999809E+01 0.  1.
       -4    1    3    3    0  502 -0.64003811109E+03  0.83724689668E+03  0.17764755651E+02  0.10540153458E+04  0.12699999809E+01 0. -1.
</event>
<event>
 5   0  0.7754912E-06  0.2644435E+04  0.7818609E-02  0.8353262E-01
        1   -1    0    0  501    0  0.00000000000E+00  0.00000000000E+00  0.13590378364E+04  0.13590378364E+04  0.50400001928E-02 0. -1.
       -1   -1    0    0    0  501  0.00000000000E+00  0.00000000000E+00 -0.12863947065E+04  0.12863947065E+04  0.50400001928E-02 0.  1.
    10030    2    1    2    0    0  0.00000000000E+00  0.00000000000E+00  0.72643129945E+02  0.26454325429E+04  0.26444349708E+04 0.  0.
        4    1    3    3  502    0  0.53759643204E+03 -0.50898489838E+03 -0.10596198505E+04  0.12926219056E+04  0.12699999809E+01 0.  1.
       -4    1    3    3    0  502 -0.53759643204E+03  0.50898489838E+03  0.11322629804E+04  0.13528106372E+04  0.12699999809E+01 0. -1.
</event>
<event>
 5   0  0.7348964E-06  0.2688920E+04  0.7818609E-02  0.8338609E-01
        1   -1    0    0  501    0  0.00000000000E+00  0.00000000000E+00  0.15523804893E+04  0.15523804893E+04  0.50400001928E-02 0.  1.
       -1   -1    0    0    0  501  0.00000000000E+00  0.00000000000E+00 -0.11643872921E+04  0.11643872921E+04  0.50400001928E-02 0. -1.
    10030    2    1    2    0    0  0.00000000000E+00  0.00000000000E+00  0.38799319728E+03  0.27167677814E+04  0.26889195706E+04 0.  0.
        1    1    3    3  502    0  0.12721990417E+04 -0.35214741202E+03  0.45173442806E+03  0.13951925297E+04  0.50400001928E-02 0. -1.
       -1    1    3    3    0  502 -0.12721990417E+04  0.35214741202E+03 -0.63741230779E+02  0.13215752517E+04  0.50400001928E-02 0.  1.
</event>
<event>
 5   0  0.7600052E-06  0.2709353E+04  0.7818609E-02  0.8331977E-01
        1   -1    0    0  501    0  0.00000000000E+00  0.00000000000E+00  0.18904431433E+04  0.18904431433E+04  0.50400001928E-02 0.  1.
       -1   -1    0    0    0  501  0.00000000000E+00  0.00000000000E+00 -0.97075049004E+03  0.97075049005E+03  0.50400001928E-02 0. -1.
    10030    2    1    2    0    0  0.00000000000E+00  0.00000000000E+00  0.91969265326E+03  0.28611936334E+04  0.27093531389E+04 0.  0.
        5    1    3    3  502    0  0.11427080232E+04  0.70605021525E+03  0.64529538471E+03  0.14902069508E+04  0.46999998093E+01 0.  1.
       -5    1    3    3    0  502 -0.11427080232E+04 -0.70605021525E+03  0.27439726854E+03  0.13709866825E+04  0.46999998093E+01 0. -1.
</event>
<event>
 5   0  0.1881699E-05  0.2698959E+04  0.7818609E-02  0.8335343E-01
        2   -1    0    0  501    0  0.00000000000E+00  0.00000000000E+00  0.11703174868E+04  0.11703174868E+04  0.25500000920E-02 0. -1.
       -2   -1    0    0    0  501  0.00000000000E+00  0.00000000000E+00 -0.15560688403E+04  0.15560688403E+04  0.25500000920E-02 0.  1.
    10030    2    1    2    0    0  0.00000000000E+00  0.00000000000E+00 -0.38575135348E+03  0.27263863271E+04  0.26989587432E+04 0.  0.
        4    1    3    3  502    0  0.10522134283E+04 -0.84050768278E+03 -0.28028068278E+03  0.13755599360E+04  0.12699999809E+01 0.  1.
       -4    1    3    3    0  502 -0.10522134283E+04  0.84050768278E+03 -0.10547067070E+03  0.13508263911E+04  0.12699999809E+01 0. -1.
</event>
<event>
 5   0  0.1788003E-05  0.2693240E+04  0.7818609E-02  0.8337202E-01
        2   -1    0    0  501    0  0.00000000000E+00  0.00000000000E+00  0.13044786303E+04  0.13044786303E+04  0.25500000920E-02 0.  1.
       -2   -1    0    0    0  501  0.00000000000E+00  0.00000000000E+00 -0.13901232184E+04  0.13901232184E+04  0.25500000920E-02 0. -1.
    10030    2    1    2    0    0  0.00000000000E+00  0.00000000000E+00 -0.85644588102E+02  0.26946018487E+04  0.26932404512E+04 0.  0.
        2    1    3    3  502    0  0.89880641710E+03 -0.54707543254E+03  0.79798428279E+03  0.13205769269E+04  0.25500000920E-02 0.  1.
       -2    1    3    3    0  502 -0.89880641710E+03  0.54707543254E+03 -0.88362887089E+03  0.13740249218E+04  0.25500000920E-02 0. -1.
</event>
<event>
 5   0  0.7600052E-06  0.2627612E+04  0.7818609E-02  0.8358882E-01
        1   -1    0    0  501    0  0.00000000000E+00  0.00000000000E+00  0.95754640049E+03  0.95754640050E+03  0.50400001928E-02 0. -1.
       -1   -1    0    0    0  501  0.00000000000E+00  0.00000000000E+00 -0.18026131984E+04  0.18026131984E+04  0.50400001928E-02 0.  1.
    10030    2    1    2    0    0  0.00000000000E+00  0.00000000000E+00 -0.84506679788E+03  0.27601595989E+04  0.26276116757E+04 0.  0.
        5    1    3    3  502    0  0.68273877816E+03  0.10499584493E+04 -0.83944029449E+03  0.15077224819E+04  0.46999998093E+01 0.  1.
       -5    1    3    3    0  502 -0.68273877816E+03 -0.10499584493E+04 -0.56265033913E+01  0.12524371170E+04  0.46999998093E+01 0. -1.
</event>
<event>
 5   0  0.7348964E-06  0.2707621E+04  0.7818609E-02  0.8332536E-01
        1   -1    0    0  501    0  0.00000000000E+00  0.00000000000E+00  0.19432101015E+04  0.19432101015E+04  0.50400001928E-02 0. -1.
       -1   -1    0    0    0  501  0.00000000000E+00  0.00000000000E+00 -0.94318303123E+03  0.94318303125E+03  0.50400001928E-02 0.  1.
    10030    2    1    2    0    0  0.00000000000E+00  0.00000000000E+00  0.10000270702E+04  0.28863931327E+04  0.27076209438E+04 0.  0.
        1    1    3    3  502    0 -0.37085506780E+02  0.12834521875E+04  0.95750861208E+03  0.16017014686E+04  0.50400001928E-02 0. -1.
       -1    1    3    3    0  502  0.37085506780E+02 -0.12834521875E+04  0.42518458141E+02  0.12846916641E+04  0.50400001928E-02 0.  1.
</event>
<event>
 5   0  0.1931119E-05  0.2629905E+04  0.7818609E-02  0.8358113E-01
        2   -1    0    0  501    0  0.00000000000E+00  0.00000000000E+00  0.18700512656E+04  0.18700512656E+04  0.25500000920E-02 0. -1.
       -2   -1    0    0    0  501  0.00000000000E+00  0.00000000000E+00 -0.92462741246E+03  0.92462741246E+03  0.25500000920E-02 0.  1.
    10030    2    1    2    0    0  0.00000000000E+00  0.00000000000E+00  0.94542385316E+03  0.27946786781E+04  0.26299054454E+04 0.  0.
        3    1    3    3  502    0  0.37818641212E+02  0.94694230253E+03  0.14414014373E+04  0.17250414741E+04  0.10100000352E+00 0. -1.
       -3    1    3    3    0  502 -0.37818641212E+02 -0.94694230253E+03 -0.49597758409E+03  0.10696372039E+04  0.10100000352E+00 0.  1.
</event>
<event>
 5   0  0.1881699E-05  0.2441618E+04  0.7818609E-02  0.8424085E-01
       -2   -1    0    0    0  501  0.00000000000E+00  0.00000000000E+00  0.82170300064E+03  0.82170300064E+03  0.25500000920E-02 0. -1.
        2   -1    0    0  501    0  0.00000000000E+00  0.00000000000E+00 -0.18137625681E+04  0.18137625681E+04  0.25500000920E-02 0.  1.
    10030    2    1    2    0    0  0.00000000000E+00  0.00000000000E+00 -0.99205956748E+03  0.26354655688E+04  0.24416176152E+04 0.  0.
        4    1    3    3  502    0 -0.10837831261E+04  0.46730591609E+03 -0.15914174732E+03  0.11909191376E+04  0.12699999809E+01 0.  1.
       -4    1    3    3    0  502  0.10837831261E+04 -0.46730591609E+03 -0.83291782017E+03  0.14445464311E+04  0.12699999809E+01 0. -1.
</event>
<event>
 5   0  0.1881699E-05  0.2698474E+04  0.7818609E-02  0.8335500E-01
        2   -1    0    0  501    0  0.00000000000E+00  0.00000000000E+00  0.14227559790E+04  0.14227559790E+04  0.25500000920E-02 0.  1.
       -2   -1    0    0    0  501  0.00000000000E+00  0.00000000000E+00 -0.12795168555E+04  0.12795168555E+04  0.25500000920E-02 0. -1.
    10030    2    1    2    0    0  0.00000000000E+00  0.00000000000E+00  0.14323912354E+03  0.27022728345E+04  0.26984738326E+04 0.  0.
        4    1    3    3  502    0  0.75680507121E+03  0.10876941458E+04  0.32615484500E+03  0.13646285452E+04  0.12699999809E+01 0.  1.
       -4    1    3    3    0  502 -0.75680507121E+03 -0.10876941458E+04 -0.18291572146E+03  0.13376442893E+04  0.12699999809E+01 0. -1.
</event>
<event>
 5   0  0.7351590E-06  0.2772261E+04  0.7818609E-02  0.8311932E-01
       -1   -1    0    0    0  501  0.00000000000E+00  0.00000000000E+00  0.12452773001E+04  0.12452773001E+04  0.50400001928E-02 0. -1.
        1   -1    0    0  501    0  0.00000000000E+00  0.00000000000E+00 -0.15429159072E+04  0.15429159072E+04  0.50400001928E-02 0.  1.
    10030    2    1    2    0    0  0.00000000000E+00  0.00000000000E+00 -0.29763860708E+03  0.27881932074E+04  0.27722612830E+04 0.  0.
        3    1    3    3  502    0 -0.61367646769E+03 -0.84196521970E+03  0.77068526952E+03  0.12959398262E+04  0.10100000352E+00 0. -1.
       -3    1    3    3    0  502  0.61367646769E+03  0.84196521970E+03 -0.10683238766E+04  0.14922533812E+04  0.10100000352E+00 0.  1.
</event>
<event>
 5   0  0.7600052E-06  0.2708967E+04  0.7818609E-02  0.8332101E-01
        1   -1    0    0  501    0  0.00000000000E+00  0.00000000000E+00  0.12601069161E+04  0.12601069161E+04  0.50400001928E-02 0.  1.
       -1   -1    0    0    0  501  0.00000000000E+00  0.00000000000E+00 -0.14559288373E+04  0.14559288373E+04  0.50400001928E-02 0. -1.
    10030    2    1    2    0    0  0.00000000000E+00  0.00000000000E+00 -0.19582192119E+03  0.27160357534E+04  0.27089673289E+04 0.  0.
        5    1    3    3  502    0 -0.27781933015E+03 -0.12285196715E+04  0.40154520799E+03  0.13220078697E+04  0.46999998093E+01 0.  1.
       -5    1    3    3    0  502  0.27781933015E+03  0.12285196715E+04 -0.59736712918E+03  0.13940278837E+04  0.46999998093E+01 0. -1.
</event>
<event>
 5   0  0.7351590E-06  0.2691542E+04  0.7818609E-02  0.8337754E-01
        1   -1    0    0  501    0  0.00000000000E+00  0.00000000000E+00  0.14451657316E+04  0.14451657316E+04  0.50400001928E-02 0. -1.
       -1   -1    0    0    0  501  0.00000000000E+00  0.00000000000E+00 -0.12532127720E+04  0.12532127720E+04  0.50400001928E-02 0.  1.
    10030    2    1    2    0    0  0.00000000000E+00  0.00000000000E+00  0.19195295960E+03  0.26983785036E+04  0.26915424221E+04 0.  0.
        3    1    3    3  502    0  0.54003400682E+03 -0.62329002697E+03  0.11621496495E+04  0.14250329835E+04  0.10100000352E+00 0. -1.
       -3    1    3    3    0  502 -0.54003400682E+03  0.62329002697E+03 -0.97019668986E+03  0.12733455201E+04  0.10100000352E+00 0.  1.
</event>
<event>
 5   0  0.6804685E-06  0.2678936E+04  0.7818609E-02  0.8341872E-01
       -1   -1    0    0    0  501  0.00000000000E+00  0.00000000000E+00  0.94189739860E+03  0.94189739861E+03  0.50400001928E-02 0. -1.
        1   -1    0    0  501    0  0.00000000000E+00  0.00000000000E+00 -0.19048517114E+04  0.19048517114E+04  0.50400001928E-02 0.  1.
    10030    2    1    2    0    0  0.00000000000E+00  0.00000000000E+00 -0.96295431284E+03  0.28467491100E+04  0.26789362603E+04 0.  0.
        2    1    3    3  502    0  0.12177325860E+04 -0.50790819553E+03 -0.72687947063E+03  0.15063854589E+04  0.25500000920E-02 0.  1.
       -2    1    3    3    0  502 -0.12177325860E+04  0.50790819553E+03 -0.23607484220E+03  0.13403636511E+04  0.25500000920E-02 0. -1.
</event>
<event>
 5   0  0.1931119E-05  0.2697613E+04  0.7818609E-02  0.8335780E-01
       -2   -1    0    0    0  501  0.00000000000E+00  0.00000000000E+00  0.12069737845E+04  0.12069737845E+04  0.25500000920E-02 0. -1.
        2   -1    0    0  501    0  0.00000000000E+00  0.00000000000E+00 -0.15073065814E+04  0.15073065814E+04  0.25500000920E-02 0.  1.
    10030    2    1    2    0    0  0.00000000000E+00  0.00000000000E+00 -0.30033279691E+03  0.27142803659E+04  0.26976134111E+04 0.  0.
        3    1    3    3  502    0 -0.13336395565E+04  0.11103511394E+03  0.19267161209E+02  0.13383925048E+04  0.10100000352E+00 0.  1.
       -3    1    3    3    0  502  0.13336395565E+04 -0.11103511394E+03 -0.31959995812E+03  0.13758878612E+04  0.10100000352E+00 0. -1.
</event>
<event>
 5   0  0.1931119E-05  0.2742495E+04  0.7818609E-02  0.8321347E-01
       -2   -1    0    0    0  501  0.00000000000E+00  0.00000000000E+00  0.95226246804E+03  0.95226246804E+03  0.25500000920E-02 0. -1.
        2   -1    0    0  501    0  0.00000000000E+00  0.00000000000E+00 -0.19745809361E+04  0.19745809361E+04  0.25500000920E-02 0.  1.
    10030    2    1    2    0    0  0.00000000000E+00  0.00000000000E+00 -0.10223184681E+04  0.29268434042E+04  0.27424947151E+04 0.  0.
        3    1    3    3  502    0  0.93046497139E+03 -0.98997835004E+03 -0.31294034532E+03  0.13941857360E+04  0.10100000352E+00 0. -1.
       -3    1    3    3    0  502 -0.93046497139E+03  0.98997835004E+03 -0.70937812278E+03  0.15326576682E+04  0.10100000352E+00 0.  1.
</event>
<event>
 5   0  0.7351590E-06  0.2130112E+04  0.7818609E-02  0.8548094E-01
        1   -1    0    0  501    0  0.00000000000E+00  0.00000000000E+00  0.18961645914E+04  0.18961645914E+04  0.50400001928E-02 0. -1.
       -1   -1    0    0    0  501  0.00000000000E+00  0.00000000000E+00 -0.59823094909E+03  0.59823094912E+03  0.50400001928E-02 0.  1.
    10030    2    1    2    0    0  0.00000000000E+00  0.00000000000E+00  0.12979336423E+04  0.24943955405E+04  0.21301120564E+04 0.  0.
        3    1    3    3  502    0 -0.17296598351E+03 -0.17939406995E+03 -0.56361166698E+03  0.61624474452E+03  0.10100000352E+00 0.  1.
       -3    1    3    3    0  502  0.17296598351E+03  0.17939406995E+03  0.18615453093E+04  0.18781507960E+04  0.10100000352E+00 0. -1.
</event>
<event>
 5   0  0.1788003E-05  0.2732363E+04  0.7818609E-02  0.8324580E-01
        2   -1    0    0  501    0  0.00000000000E+00  0.00000000000E+00  0.11750557193E+04  0.11750557193E+04  0.25500000920E-02 0.  1.
       -2   -1    0    0    0  501  0.00000000000E+00  0.00000000000E+00 -0.15883947186E+04  0.15883947186E+04  0.25500000920E-02 0. -1.
    10030    2    1    2    0    0  0.00000000000E+00  0.00000000000E+00 -0.41333899930E+03  0.27634504379E+04  0.27323632984E+04 0.  0.
        2    1    3    3  502    0  0.51769272639E+03 -0.85079397595E+03  0.73916906487E+03  0.12402528190E+04  0.25500000920E-02 0.  1.
       -2    1    3    3    0  502 -0.51769272639E+03  0.85079397595E+03 -0.11525080642E+04  0.15231976190E+04  0.25500000920E-02 0. -1.
</event>
<event>
 5   0  0.1878160E-05  0.2486436E+04  0.7818609E-02  0.8407834E-01
       -2   -1    0    0    0  501  0.00000000000E+00  0.00000000000E+00  0.14893789590E+04  0.14893789590E+04  0.25500000920E-02 0.  1.
        2   -1    0    0  501    0  0.00000000000E+00  0.00000000000E+00 -0.10377420809E+04  0.10377420809E+04  0.25500000920E-02 0. -1.
    10030    2    1    2    0    0  0.00000000000E+00  0.00000000000E+00  0.45163687810E+03  0.25271210398E+04  0.24864361806E+04 0.  0.
        1    1    3    3  502    0 -0.43654303266E+03 -0.94155533266E+03 -0.46984821537E+03  0.11392337817E+04  0.50400001928E-02 0. -1.
       -1    1    3    3    0  502  0.43654303266E+03  0.94155533266E+03  0.92148509347E+03  0.13878872581E+04  0.50400001928E-02 0.  1.
</event>
<event>
 5   0  0.1881699E-05  0.2674170E+04  0.7818609E-02  0.8343435E-01
        2   -1    0    0  501    0  0.00000000000E+00  0.00000000000E+00  0.77257859473E+03  0.77257859473E+03  0.25500000920E-02 0. -1.
       -2   -1    0    0    0  501  0.00000000000E+00  0.00000000000E+00 -0.23140646827E+04  0.23140646827E+04  0.25500000920E-02 0.  1.
    10030    2    1    2    0    0  0.00000000000E+00  0.00000000000E+00 -0.15414860879E+04  0.30866432774E+04  0.26741704064E+04 0.  0.
        4    1    3    3  502    0 -0.54385820512E+03  0.43954432131E+03 -0.20861825735E+04  0.22002591440E+04  0.12699999809E+01 0.  1.
       -4    1    3    3    0  502  0.54385820512E+03 -0.43954432131E+03  0.54469648559E+03  0.88638413342E+03  0.12699999809E+01 0. -1.
</event>
<event>
 5   0  0.7600052E-06  0.2235925E+04  0.7818609E-02  0.8503622E-01
       -1   -1    0    0    0  501  0.00000000000E+00  0.00000000000E+00  0.79181138138E+03  0.79181138140E+03  0.50400001928E-02 0.  1.
        1   -1    0    0  501    0  0.00000000000E+00  0.00000000000E+00 -0.15784567132E+04  0.15784567132E+04  0.50400001928E-02 0. -1.
    10030    2    1    2    0    0  0.00000000000E+00  0.00000000000E+00 -0.78664533185E+03  0.23702680946E+04  0.22359248562E+04 0.  0.
        5    1    3    3  502    0  0.10334226511E+04  0.36977058109E+03 -0.61851315250E+03  0.12598703379E+04  0.46999998093E+01 0. -1.
       -5    1    3    3    0  502 -0.10334226511E+04 -0.36977058109E+03 -0.16813217935E+03  0.11103977568E+04  0.46999998093E+01 0.  1.
</event>
<event>
 5   0  0.1878160E-05  0.2693342E+04  0.7818609E-02  0.8337169E-01
        2   -1    0    0  501    0  0.00000000000E+00  0.00000000000E+00  0.24015380288E+04  0.24015380288E+04  0.25500000920E-02 0.  1.
       -2   -1    0    0    0  501  0.00000000000E+00  0.00000000000E+00 -0.75515043124E+03  0.75515043124E+03  0.25500000920E-02 0. -1.
    10030    2    1    2    0    0  0.00000000000E+00  0.00000000000E+00  0.16463875976E+04  0.31566884601E+04  0.26933417742E+04 0.  0.
        1    1    3    3  502    0  0.10037297679E+04 -0.53113652472E+03 -0.25170309112E+02  0.11358754330E+04  0.50400001928E-02 0. -1.
       -1    1    3    3    0  502 -0.10037297679E+04  0.53113652472E+03  0.16715579067E+04  0.20208130271E+04  0.50400001928E-02 0.  1.
</event>
<event>
 5   0  0.1826851E-05  0.2657927E+04  0.7818609E-02  0.8348787E-01
       -2   -1    0    0    0  501  0.00000000000E+00  0.00000000000E+00  0.93476739478E+03  0.93476739479E+03  0.25500000920E-02 0.  1.
        2   -1    0    0  501    0  0.00000000000E+00  0.00000000000E+00 -0.18893934470E+04  0.18893934470E+04  0.25500000920E-02 0. -1.
    10030    2    1    2    0    0  0.00000000000E+00  0.00000000000E+00 -0.95462605223E+03  0.28241608418E+04  0.26579265529E+04 0.  0.
        5    1    3    3  502    0 -0.11868431795E+04  0.10843110956E+03  0.14748318429E+03  0.12008860969E+04  0.46999998093E+01 0.  1.
       -5    1    3    3    0  502  0.11868431795E+04 -0.10843110956E+03 -0.11021092365E+04  0.16232747449E+04  0.46999998093E+01 0. -1.
</event>
<event>
 5   0  0.7754912E-06  0.2628372E+04  0.7818609E-02  0.8358627E-01
        1   -1    0    0  501    0  0.00000000000E+00  0.00000000000E+00  0.27077684695E+04  0.27077684695E+04  0.50400001928E-02 0. -1.
       -1   -1    0    0    0  501  0.00000000000E+00  0.00000000000E+00 -0.63782573575E+03  0.63782573577E+03  0.50400001928E-02 0.  1.
    10030    2    1    2    0    0  0.00000000000E+00  0.00000000000E+00  0.20699427337E+04  0.33455942052E+04  0.26283716756E+04 0.  0.
        4    1    3    3  502    0  0.45923836826E+02  0.48191048187E+03  0.25901418384E+04  0.26349920431E+04  0.12699999809E+01 0. -1.
       -4    1    3    3    0  502 -0.45923836826E+02 -0.48191048187E+03 -0.52019910472E+03  0.71060216210E+03  0.12699999809E+01 0.  1.
</event>
<event>
 5   0  0.1826851E-05  0.2788760E+04  0.7818609E-02  0.8306767E-01
       -2   -1    0    0    0  501  0.00000000000E+00  0.00000000000E+00  0.95330787349E+03  0.95330787349E+03  0.25500000920E-02 0. -1.
        2   -1    0    0  501    0  0.00000000000E+00  0.00000000000E+00 -0.20395249195E+04  0.20395249195E+04  0.25500000920E-02 0.  1.
    10030    2    1    2    0    0  0.00000000000E+00  0.00000000000E+00 -0.10862170460E+04  0.29928327930E+04  0.27887596984E+04 0.  0.
        5    1    3    3  502    0  0.98487244513E+02  0.10915314175E+04  0.38202514878E+03  0.11606489034E+04  0.46999998093E+01 0. -1.
       -5    1    3    3    0  502 -0.98487244513E+02 -0.10915314175E+04 -0.14682421948E+04  0.18321838896E+04  0.46999998093E+01 0.  1.
</event>
<event>
 5   0  0.1788003E-05  0.2655277E+04  0.7818609E-02  0.8349664E-01
        2   -1    0    0  501    0  0.00000000000E+00  0.00000000000E+00  0.19704980782E+04  0.19704980782E+04  0.25500000920E-02 0. -1.
       -2   -1    0    0    0  501  0.00000000000E+00  0.00000000000E+00 -0.89450688622E+03  0.89450688622E+03  0.25500000920E-02 0.  1.
    10030    2    1    2    0    0  0.00000000000E+00  0.00000000000E+00  0.10759911919E+04  0.28650049644E+04  0.26552770855E+04 0.  0.
        2    1    3    3  502    0  0.31146685212E+03 -0.15759593439E+03 -0.84410667806E+03  0.91343536304E+03  0.25500000920E-02 0.  1.
       -2    1    3    3    0  502 -0.31146685212E+03  0.15759593439E+03  0.19200978700E+04  0.19515696014E+04  0.25500000920E-02 0. -1.
</event>
<event>
 5   0  0.1788003E-05  0.2685948E+04  0.7818609E-02  0.8339579E-01
       -2   -1    0    0    0  501  0.00000000000E+00  0.00000000000E+00  0.11011811639E+04  0.11011811639E+04  0.25500000920E-02 0.  1.
        2   -1    0    0  501    0  0.00000000000E+00  0.00000000000E+00 -0.16378588427E+04  0.16378588427E+04  0.25500000920E-02 0. -1.
    10030    2    1    2    0    0  0.00000000000E+00  0.00000000000E+00 -0.53667767889E+03  0.27390400066E+04  0.26859481057E+04 0.  0.
        2    1    3    3  502    0  0.82844129068E+03 -0.73476318597E+03  0.50654108147E+03  0.12176928097E+04  0.25500000920E-02 0.  1.
       -2    1    3    3    0  502 -0.82844129068E+03  0.73476318597E+03 -0.10432187604E+04  0.15213471969E+04  0.25500000920E-02 0. -1.
</event>
<event>
 5   0  0.7351590E-06  0.2681407E+04  0.7818609E-02  0.8341063E-01
        1   -1    0    0  501    0  0.00000000000E+00  0.00000000000E+00  0.12708950859E+04  0.12708950859E+04  0.50400001928E-02 0.  1.
       -1   -1    0    0    0  501  0.00000000000E+00  0.00000000000E+00 -0.14143468811E+04  0.14143468811E+04  0.50400001928E-02 0. -1.
    10030    2    1    2    0    0  0.00000000000E+00  0.00000000000E+00 -0.14345179518E+03  0.26852419670E+04  0.26814074669E+04 0.  0.
        3    1    3    3  502    0 -0.12879466592E+04  0.16623401804E+03  0.26198651032E+03  0.13247932999E+04  0.10100000352E+00 0.  1.
       -3    1    3    3    0  502  0.12879466592E+04 -0.16623401804E+03 -0.40543830551E+03  0.13604486670E+04  0.10100000352E+00 0. -1.
</event>
<event>
 5   0  0.6804685E-06  0.2702856E+04  0.7818609E-02  0.8334079E-01
        1   -1    0    0  501    0  0.00000000000E+00  0.00000000000E+00  0.13790351359E+04  0.13790351360E+04  0.50400001928E-02 0. -1.
       -1   -1    0    0    0  501  0.00000000000E+00  0.00000000000E+00 -0.13243739281E+04  0.13243739281E+04  0.50400001928E-02 0.  1.
    10030    2    1    2    0    0  0.00000000000E+00  0.00000000000E+00  0.54661207827E+02  0.27034090641E+04  0.27028564002E+04 0.  0.
        2    1    3    3  502    0  0.91913846967E+03  0.42019705064E+03 -0.87005800738E+03  0.13335599064E+04  0.25500000920E-02 0.  1.
       -2    1    3    3    0  502 -0.91913846967E+03 -0.42019705064E+03  0.92471921521E+03  0.13698491577E+04  0.25500000920E-02 0. -1.
</event>
<event>
 5   0  0.1878160E-05  0.2284894E+04  0.7818609E-02  0.8483901E-01
       -2   -1    0    0    0  501  0.00000000000E+00  0.00000000000E+00  0.67086142543E+03  0.67086142544E+03  0.25500000920E-02 0.  1.
        2   -1    0    0  501    0  0.00000000000E+00  0.00000000000E+00 -0.19455365019E+04  0.19455365019E+04  0.25500000920E-02 0. -1.
    10030    2    1    2    0    0  0.00000000000E+00  0.00000000000E+00 -0.12746750765E+04  0.26163979274E+04  0.22848942128E+04 0.  0.
        1    1    3    3  502    0  0.70121086441E+03  0.90038875755E+03 -0.69780842958E+03  0.13376595963E+04  0.50400001928E-02 0.  1.
       -1    1    3    3    0  502 -0.70121086441E+03 -0.90038875755E+03 -0.57686664694E+03  0.12787383311E+04  0.50400001928E-02 0. -1.
</event>
<event>
 5   0  0.6804685E-06  0.2787329E+04  0.7818609E-02  0.8307213E-01
        1   -1    0    0  501    0  0.00000000000E+00  0.00000000000E+00  0.15931401845E+04  0.15931401845E+04  0.50400001928E-02 0. -1.
       -1   -1    0    0    0  501  0.00000000000E+00  0.00000000000E+00 -0.12191648687E+04  0.12191648687E+04  0.50400001928E-02 0.  1.
    10030    2    1    2    0    0  0.00000000000E+00  0.00000000000E+00  0.37397531576E+03  0.28123050532E+04  0.27873288603E+04 0.  0.
        2    1    3    3  502    0 -0.89962195270E+03 -0.72335946394E+03 -0.60086263325E+03  0.13013855985E+04  0.25500000920E-02 0.  1.
       -2    1    3    3    0  502  0.89962195270E+03  0.72335946394E+03  0.97483794901E+03  0.15109194547E+04  0.25500000920E-02 0. -1.
</event>
<event>
 5   0  0.7600052E-06  0.2691097E+04  0.7818609E-02  0.8337900E-01
       -1   -1    0    0    0  501  0.00000000000E+00  0.00000000000E+00  0.13465304836E+04  0.13465304837E+04  0.50400001928E-02 0.  1.
        1   -1    0    0  501    0  0.00000000000E+00  0.00000000000E+00 -0.13445667471E+04  0.13445667471E+04  0.50400001928E-02 0. -1.
    10030    2    1    2    0    0  0.00000000000E+00  0.00000000000E+00  0.19637365807E+01  0.26910972307E+04  0.26910965143E+04 0.  0.
        5    1    3    3  502    0  0.75274415814E+03 -0.10696849827E+04 -0.31465771319E+03  0.13453182881E+04  0.46999998093E+01 0. -1.
       -5    1    3    3    0  502 -0.75274415814E+03  0.10696849827E+04  0.31662144977E+03  0.13457789426E+04  0.46999998093E+01 0.  1.
</event>
<event>
 5   0  0.1826851E-05  0.2661715E+04  0.7818609E-02  0.8347535E-01
       -2   -1    0    0    0  501  0.00000000000E+00  0.00000000000E+00  0.12711139992E+04  0.12711139992E+04  0.25500000920E-02 0.  1.
        2   -1    0    0  501    0  0.00000000000E+00  0.00000000000E+00 -0.13934094544E+04  0.13934094544E+04  0.25500000920E-02 0. -1.
    10030    2    1    2    0    0  0.00000000000E+00  0.00000000000E+00 -0.12229545522E+03  0.26645234536E+04  0.26617154349E+04 0.  0.
        5    1    3    3  502    0 -0.12547183735E+04 -0.88504243495E+02 -0.49635800154E+03  0.13522368704E+04  0.46999998093E+01 0. -1.
       -5    1    3    3    0  502  0.12547183735E+04  0.88504243495E+02  0.37406254632E+03  0.13122865832E+04  0.46999998093E+01 0.  1.
</event>
<event>
 5   0  0.6804685E-06  0.2752085E+04  0.7818609E-02  0.8318300E-01
        1   -1    0    0  501    0  0.00000000000E+00  0.00000000000E+00  0.16900084862E+04  0.16900084862E+04  0.50400001928E-02 0.  1.
       -1   -1    0    0    0  501  0.00000000000E+00  0.00000000000E+00 -0.11204040359E+04  0.11204040359E+04  0.50400001928E-02 0. -1.
    10030    2    1    2    0    0  0.00000000000E+00  0.00000000000E+00  0.56960445030E+03  0.28104125222E+04  0.27520845399E+04 0.  0.
        2    1    3    3  502    0 -0.35245908983E+03 -0.10503955925E+04 -0.54854098539E+03  0.12363072124E+04  0.25500000920E-02 0. -1.
       -2    1    3    3    0  502  0.35245908983E+03  0.10503955925E+04  0.11181454357E+04  0.15741053097E+04  0.25500000920E-02 0.  1.
</event>
<event>
 5   0  0.7351590E-06  0.2717334E+04  0.7818609E-02  0.8329403E-01
       -1   -1    0    0    0  501  0.00000000000E+00  0.00000000000E+00  0.71869031825E+03  0.71869031826E+03  0.50400001928E-02 0.  1.
        1   -1    0    0  501    0  0.00000000000E+00  0.00000000000E+00 -0.25685270909E+04  0.25685270909E+04  0.50400001928E-02 0. -1.
    10030    2    1    2    0    0  0.00000000000E+00  0.00000000000E+00 -0.18498367727E+04  0.32872174092E+04  0.27173336581E+04 0.  0.
        3    1    3    3  502    0  0.12957671762E+04 -0.25543624940E+03 -0.53910385553E+03  0.14264968383E+04  0.10100000352E+00 0.  1.
       -3    1    3    3    0  502 -0.12957671762E+04  0.25543624940E+03 -0.13107329171E+04  0.18607205708E+04  0.10100000352E+00 0. -1.
</event>
<event>
 5   0  0.7600052E-06  0.2596488E+04  0.7818609E-02  0.8369395E-01
        1   -1    0    0  501    0  0.00000000000E+00  0.00000000000E+00  0.22868138903E+04  0.22868138903E+04  0.50400001928E-02 0. -1.
       -1   -1    0    0    0  501  0.00000000000E+00  0.00000000000E+00 -0.73702445843E+03  0.73702445845E+03  0.50400001928E-02 0.  1.
    10030    2    1    2    0    0  0.00000000000E+00  0.00000000000E+00  0.15497894319E+04  0.30238383487E+04  0.25964882199E+04 0.  0.
        5    1    3    3  502    0 -0.89095625589E+03  0.38851018006E+03 -0.22737663139E+03  0.99823115180E+03  0.46999998093E+01 0.  1.
       -5    1    3    3    0  502  0.89095625589E+03 -0.38851018006E+03  0.17771660632E+04  0.20256071969E+04  0.46999998093E+01 0. -1.
</event>
<event>
 5   0  0.1788003E-05  0.2673717E+04  0.7818609E-02  0.8343583E-01
       -2   -1    0    0    0  501  0.00000000000E+00  0.00000000000E+00  0.16312055521E+04  0.16312055521E+04  0.25500000920E-02 0. -1.
        2   -1    0    0  501    0  0.00000000000E+00  0.00000000000E+00 -0.10956260604E+04  0.10956260604E+04  0.25500000920E-02 0.  1.
    10030    2    1    2    0    0  0.00000000000E+00  0.00000000000E+00  0.53557949171E+03  0.27268316124E+04  0.26737174964E+04 0.  0.
        2    1    3    3  502    0 -0.45545833828E+03  0.12265662524E+04  0.54762011580E+03  0.14183775452E+04  0.25500000920E-02 0. -1.
       -2    1    3    3    0  502  0.45545833828E+03 -0.12265662524E+04 -0.12040624091E+02  0.13084540672E+04  0.25500000920E-02 0.  1.
</event>
<event>
 5   0  0.1931119E-05  0.2707019E+04  0.7818609E-02  0.8332731E-01
        2   -1    0    0  501    0  0.00000000000E+00  0.00000000000E+00  0.26081809286E+04  0.26081809286E+04  0.25500000920E-02 0. -1.
       -2   -1    0    0    0  501  0.00000000000E+00  0.00000000000E+00 -0.70240077057E+03  0.70240077057E+03  0.25500000920E-02 0.  1.
    10030    2    1    2    0    0  0.00000000000E+00  0.00000000000E+00  0.19057801581E+04  0.33105816992E+04  0.27070192419E+04 0.  0.
        3    1    3    3  502    0 -0.80345758945E+03  0.75236191354E+02  0.22818079509E+04  0.24203000057E+04  0.10100000352E+00 0. -1.
       -3    1    3    3    0  502  0.80345758945E+03 -0.75236191354E+02 -0.37602779287E+03  0.89028169349E+03  0.10100000352E+00 0.  1.
</event>
<event>
 5   0  0.7351590E-06  0.2694679E+04  0.7818609E-02  0.8336734E-01
        1   -1    0    0  501    0  0.00000000000E+00  0.00000000000E+00  0.11021615213E+04  0.11021615213E+04  0.50400001928E-02 0.  1.
       -1   -1    0    0    0  501  0.00000000000E+00  0.00000000000E+00 -0.16470574873E+04  0.16470574873E+04  0.50400001928E-02 0. -1.
    10030    2    1    2    0    0  0.00000000000E+00  0.00000000000E+00 -0.54489596605E+03  0.27492190086E+04  0.26946787459E+04 0.  0.
        3    1    3    3  502    0  0.36870198701E+03  0.77667354231E+03 -0.13308260969E+04  0.15843803385E+04  0.10100000352E+00 0. -1.
       -3    1    3    3    0  502 -0.36870198701E+03 -0.77667354231E+03  0.78593013087E+03  0.11648386701E+04  0.10100000352E+00 0.  1.
</event>
<event>
 5   0  0.1878160E-05  0.2662523E+04  0.7818609E-02  0.8347268E-01
        2   -1    0    0  501    0  0.00000000000E+00  0.00000000000E+00  0.26054906243E+04  0.26054906243E+04  0.25500000920E-02 0. -1.
       -2   -1    0    0    0  501  0.00000000000E+00  0.00000000000E+00 -0.68020106427E+03  0.68020106427E+03  0.25500000920E-02 0.  1.
    10030    2    1    2    0    0  0.00000000000E+00  0.00000000000E+00  0.19252895600E+04  0.32856916886E+04  0.26625232360E+04 0.  0.
        1    1    3    3  502    0  0.39399871317E+03  0.10937667409E+04  0.17630649433E+04  0.21118614215E+04  0.50400001928E-02 0. -1.
       -1    1    3    3    0  502 -0.39399871317E+03 -0.10937667409E+04  0.16222461673E+03  0.11738302670E+04  0.50400001928E-02 0.  1.
</event>
<event>
 5   0  0.1878160E-05  0.2677281E+04  0.7818609E-02  0.8342414E-01
       -2   -1    0    0    0  501  0.00000000000E+00  0.00000000000E+00  0.89398114570E+03  0.89398114570E+03  0.25500000920E-02 0. -1.
        2   -1    0    0  501    0  0.00000000000E+00  0.00000000000E+00 -0.20044701235E+04  0.20044701235E+04  0.25500000920E-02 0.  1.
    10030    2    1    2    0    0  0.00000000000E+00  0.00000000000E+00 -0.11104889778E+04  0.28984512692E+04  0.26772810816E+04 0.  0.
        1    1    3    3  502    0 -0.29493770487E+03  0.11459594723E+04  0.12235793175E+03  0.11896145701E+04  0.50400001928E-02 0. -1.
       -1    1    3    3    0  502  0.29493770487E+03 -0.11459594723E+04 -0.12328469095E+04  0.17088366991E+04  0.50400001928E-02 0.  1.
</event>
<event>
 5   0  0.1826851E-05  0.2692684E+04  0.7818609E-02  0.8337383E-01
        2   -1    0    0  501    0  0.00000000000E+00  0.00000000000E+00  0.75350187507E+03  0.75350187507E+03  0.25500000920E-02 0.  1.
       -2   -1    0    0    0  501  0.00000000000E+00  0.00000000000E+00 -0.24056167941E+04  0.24056167941E+04  0.25500000920E-02 0. -1.
    10030    2    1    2    0    0  0.00000000000E+00  0.00000000000E+00 -0.16521149190E+04  0.31591186691E+04  0.26926839882E+04 0.  0.
        5    1    3    3  502    0  0.89458967329E+03  0.73159660892E+03 -0.15692062727E+02  0.11557649469E+04  0.46999998093E+01 0.  1.
       -5    1    3    3    0  502 -0.89458967329E+03 -0.73159660892E+03 -0.16364228563E+04  0.20033537222E+04  0.46999998093E+01 0. -1.
</event>
<event>
 5   0  0.1931119E-05  0.2703236E+04  0.7818609E-02  0.8333956E-01
       -2   -1    0    0    0  501  0.00000000000E+00  0.00000000000E+00  0.77830662572E+03  0.77830662572E+03  0.25500000920E-02 0. -1.
        2   -1    0    0  501    0  0.00000000000E+00  0.00000000000E+00 -0.23472376866E+04  0.23472376866E+04  0.25500000920E-02 0.  1.
    10030    2    1    2    0    0  0.00000000000E+00  0.00000000000E+00 -0.15689310609E+04  0.31255443124E+04  0.27032355751E+04 0.  0.
        3    1    3    3  502    0  0.14151401538E+03 -0.13246488114E+04 -0.52042616098E+03  0.14302321802E+04  0.10100000352E+00 0. -1.
       -3    1    3    3    0  502 -0.14151401538E+03  0.13246488114E+04 -0.10485048999E+04  0.16953121322E+04  0.10100000352E+00 0.  1.
</event>
<event>
 5   0  0.7348964E-06  0.2707053E+04  0.7818609E-02  0.8332720E-01
       -1   -1    0    0    0  501  0.00000000000E+00  0.00000000000E+00  0.14659654328E+04  0.14659654328E+04  0.50400001928E-02 0.  1.
        1   -1    0    0  501    0  0.00000000000E+00  0.00000000000E+00 -0.12497117851E+04  0.12497117851E+04  0.50400001928E-02 0. -1.
    10030    2    1    2    0    0  0.00000000000E+00  0.00000000000E+00  0.21625364774E+03  0.27156772179E+04  0.27070532155E+04 0.  0.
        1    1    3    3  502    0  0.44837991427E+03 -0.12756965945E+04  0.16821697415E+03  0.13626236821E+04  0.50400001928E-02 0.  1.
       -1    1    3    3    0  502 -0.44837991427E+03  0.12756965945E+04  0.48036673593E+02  0.13530535358E+04  0.50400001928E-02 0. -1.
</event>
<event>
 5   0  0.7348964E-06  0.2693556E+04  0.7818609E-02  0.8337099E-01
        1   -1    0    0  501    0  0.00000000000E+00  0.00000000000E+00  0.31396128645E+04  0.31396128645E+04  0.50400001928E-02 0. -1.
       -1   -1    0    0    0  501  0.00000000000E+00  0.00000000000E+00 -0.57771825007E+03  0.57771825010E+03  0.50400001928E-02 0.  1.
    10030    2    1    2    0    0  0.00000000000E+00  0.00000000000E+00  0.25618946145E+04  0.37173311146E+04  0.26935564966E+04 0.  0.
        1    1    3    3  502    0  0.57327542032E+03 -0.89755245633E+03  0.14326462250E+03  0.10746021922E+04  0.50400001928E-02 0.  1.
       -1    1    3    3    0  502 -0.57327542032E+03  0.89755245633E+03  0.24186299920E+04  0.26427289224E+04  0.50400001928E-02 0. -1.
</event>
<event>
 5   0  0.7351590E-06  0.2703259E+04  0.7818609E-02  0.8333948E-01
        1   -1    0    0  501    0  0.00000000000E+00  0.00000000000E+00  0.18465010744E+04  0.18465010744E+04  0.50400001928E-02 0. -1.
       -1   -1    0    0    0  501  0.00000000000E+00  0.00000000000E+00 -0.98938567696E+03  0.98938567697E+03  0.50400001928E-02 0.  1.
    10030    2    1    2    0    0  0.00000000000E+00  0.00000000000E+00  0.85711539746E+03  0.28358867514E+04  0.27032585637E+04 0.  0.
        3    1    3    3  502    0  0.12447950144E+04 -0.24699484800E+03  0.91654720057E+03  0.15654328041E+04  0.10100000352E+00 0. -1.
       -3    1    3    3    0  502 -0.12447950144E+04  0.24699484800E+03 -0.59431803114E+02  0.12704539474E+04  0.10100000352E+00 0.  1.
</event>
<event>
 5   0  0.1826851E-05  0.2688148E+04  0.7818609E-02  0.8338861E-01
        2   -1    0    0  501    0  0.00000000000E+00  0.00000000000E+00  0.26936649271E+04  0.26936649271E+04  0.25500000920E-02 0. -1.
       -2   -1    0    0    0  501  0.00000000000E+00  0.00000000000E+00 -0.67066049819E+03  0.67066049820E+03  0.25500000920E-02 0.  1.
    10030    2    1    2    0    0  0.00000000000E+00  0.00000000000E+00  0.20230044289E+04  0.33643254253E+04  0.26881478099E+04 0.  0.
        5    1    3    3  502    0 -0.66845302765E+03 -0.60672281817E+03 -0.23475206050E+03  0.93277684801E+03  0.46999998093E+01 0.  1.
       -5    1    3    3    0  502  0.66845302765E+03  0.60672281817E+03  0.22577564894E+04  0.24315485773E+04  0.46999998093E+01 0. -1.
</event>
<event>
 5   0  0.1878160E-05  0.2590241E+04  0.7818609E-02  0.8371524E-01
       -2   -1    0    0    0  501  0.00000000000E+00  0.00000000000E+00  0.91986851912E+03  0.91986851912E+03  0.25500000920E-02 0.  1.
        2   -1    0    0  501    0  0.00000000000E+00  0.00000000000E+00 -0.18234533164E+04  0.18234533164E+04  0.25500000920E-02 0. -1.
    10030    2    1    2    0    0  0.00000000000E+00  0.00000000000E+00 -0.90358479729E+03  0.27433218355E+04  0.25902411485E+04 0.  0.
        1    1    3    3  502    0 -0.10974112606E+04 -0.43264804910E+03 -0.10180306414E+04  0.15581662928E+04  0.50400001928E-02 0. -1.
       -1    1    3    3    0  502  0.10974112606E+04  0.43264804910E+03  0.11444584409E+03  0.11851555427E+04  0.50400001928E-02 0.  1.
</event>
<event>
 5   0  0.7600052E-06  0.2688999E+04  0.7818609E-02  0.8338583E-01
        1   -1    0    0  501    0  0.00000000000E+00  0.00000000000E+00  0.16913136687E+04  0.16913136687E+04  0.50400001928E-02 0.  1.
       -1   -1    0    0    0  501  0.00000000000E+00  0.00000000000E+00 -0.10688017404E+04  0.10688017404E+04  0.50400001928E-02 0. -1.
    10030    2    1    2    0    0  0.00000000000E+00  0.00000000000E+00  0.62251192832E+03  0.27601154092E+04  0.26889990649E+04 0.  0.
        5    1    3    3  502    0 -0.77694051634E+03  0.30260063456E+02 -0.81461416255E+03  0.11261307922E+04  0.46999998093E+01 0. -1.
       -5    1    3    3    0  502  0.77694051634E+03 -0.30260063456E+02  0.14371260909E+04  0.16339846169E+04  0.46999998093E+01 0.  1.
</event>
<event>
 5   0  0.7600052E-06  0.2678227E+04  0.7818609E-02  0.8342104E-01
        1   -1    0    0  501    0  0.00000000000E+00  0.00000000000E+00  0.15493025915E+04  0.15493025915E+04  0.50400001928E-02 0. -1.
       -1   -1    0    0    0  501  0.00000000000E+00  0.00000000000E+00 -0.11574404497E+04  0.11574404497E+04  0.50400001928E-02 0.  1.
    10030    2    1    2    0    0  0.00000000000E+00  0.00000000000E+00  0.39186214177E+03  0.27067430412E+04  0.26782273901E+04 0.  0.
        5    1    3    3  502    0  0.30637497131E+02 -0.87964656987E+03  0.12158772444E+04  0.15010317477E+04  0.46999998093E+01 0. -1.
       -5    1    3    3    0  502 -0.30637497131E+02  0.87964656987E+03 -0.82401510259E+03  0.12057112936E+04  0.46999998093E+01 0.  1.
</event>
<event>
 5   0  0.1878160E-05  0.2397306E+04  0.7818609E-02  0.8440513E-01
       -2   -1    0    0    0  501  0.00000000000E+00  0.00000000000E+00  0.71647937673E+03  0.71647937674E+03  0.25500000920E-02 0. -1.
        2   -1    0    0  501    0  0.00000000000E+00  0.00000000000E+00 -0.20053175511E+04  0.20053175511E+04  0.25500000920E-02 0.  1.
    10030    2    1    2    0    0  0.00000000000E+00  0.00000000000E+00 -0.12888381744E+04  0.27217969279E+04  0.23973057120E+04 0.  0.
        1    1    3    3  502    0 -0.23356866114E+03 -0.88765280438E+03 -0.15196655396E+04  0.17753493101E+04  0.50400001928E-02 0.  1.
       -1    1    3    3    0  502  0.23356866114E+03  0.88765280438E+03  0.23082736523E+03  0.94644761776E+03  0.50400001928E-02 0. -1.
</event>
<event>
 5   0  0.7351590E-06  0.2461363E+04  0.7818609E-02  0.8416881E-01
       -1   -1    0    0    0  501  0.00000000000E+00  0.00000000000E+00  0.16889804812E+04  0.16889804812E+04  0.50400001928E-02 0.  1.
        1   -1    0    0  501    0  0.00000000000E+00  0.00000000000E+00 -0.89674043144E+03  0.89674043146E+03  0.50400001928E-02 0. -1.
    10030    2    1    2    0    0  0.00000000000E+00  0.00000000000E+00  0.79224004972E+03  0.25857209126E+04  0.24613631064E+04 0.  0.
        3    1    3    3  502    0 -0.10593659401E+04  0.37888706956E+03 -0.12784344443E+03  0.11323230824E+04  0.10100000352E+00 0.  1.
       -3    1    3    3    0  502  0.10593659401E+04 -0.37888706956E+03  0.92008349415E+03  0.14533978302E+04  0.10100000352E+00 0. -1.
</event>
<event>
 5   0  0.6804685E-06  0.2725942E+04  0.7818609E-02  0.8326636E-01
       -1   -1    0    0    0  501  0.00000000000E+00  0.00000000000E+00  0.11190256500E+04  0.11190256500E+04  0.50400001928E-02 0. -1.
        1   -1    0    0  501    0  0.00000000000E+00  0.00000000000E+00 -0.16600962379E+04  0.16600962379E+04  0.50400001928E-02 0.  1.
    10030    2    1    2    0    0  0.00000000000E+00  0.00000000000E+00 -0.54107058787E+03  0.27791218879E+04  0.27259422383E+04 0.  0.
        2    1    3    3  502    0  0.41768620927E+03  0.52292656156E+03  0.93996820840E+03  0.11538865590E+04  0.25500000920E-02 0. -1.
       -2    1    3    3    0  502 -0.41768620927E+03 -0.52292656156E+03 -0.14810387963E+04  0.16252353289E+04  0.25500000920E-02 0.  1.
</event>
<event>
 5   0  0.7754912E-06  0.2675167E+04  0.7818609E-02  0.8343108E-01
       -1   -1    0    0    0  501  0.00000000000E+00  0.00000000000E+00  0.12420138262E+04  0.12420138262E+04  0.50400001928E-02 0.  1.
        1   -1    0    0  501    0  0.00000000000E+00  0.00000000000E+00 -0.14405073502E+04  0.14405073502E+04  0.50400001928E-02 0. -1.
    10030    2    1    2    0    0  0.00000000000E+00  0.00000000000E+00 -0.19849352398E+03  0.26825211764E+04  0.26751673187E+04 0.  0.
        4    1    3    3  502    0  0.11387988675E+03 -0.58684828151E+03  0.11006079766E+04  0.12524771715E+04  0.12699999809E+01 0.  1.
       -4    1    3    3    0  502 -0.11387988675E+03  0.58684828151E+03 -0.12991015006E+04  0.14300440049E+04  0.12699999809E+01 0. -1.
</event>
<event>
 5   0  0.7754912E-06  0.2337992E+04  0.7818609E-02  0.8463090E-01
        1   -1    0    0  501    0  0.00000000000E+00  0.00000000000E+00  0.16158100492E+04  0.16158100492E+04  0.50400001928E-02 0. -1.
       -1   -1    0    0    0  501  0.00000000000E+00  0.00000000000E+00 -0.84573780952E+03  0.84573780954E+03  0.50400001928E-02 0.  1.
    10030    2    1    2    0    0  0.00000000000E+00  0.00000000000E+00  0.77007223970E+03  0.24615478588E+04  0.23379920031E+04 0.  0.
        4    1    3    3  502    0 -0.98756247149E+03  0.60868045681E+03  0.23327084497E+03  0.11832955817E+04  0.12699999809E+01 0.  1.
       -4    1    3    3    0  502  0.98756247149E+03 -0.60868045681E+03  0.53680139473E+03  0.12782522771E+04  0.12699999809E+01 0. -1.
</event>
<event>
 5   0  0.7348964E-06  0.2728837E+04  0.7818609E-02  0.8325709E-01
       -1   -1    0    0    0  501  0.00000000000E+00  0.00000000000E+00  0.13345855586E+04  0.13345855586E+04  0.50400001928E-02 0.  1.
        1   -1    0    0  501    0  0.00000000000E+00  0.00000000000E+00 -0.13949179217E+04  0.13949179217E+04  0.50400001928E-02 0. -1.
    10030    2    1    2    0    0  0.00000000000E+00  0.00000000000E+00 -0.60332363089E+02  0.27295034802E+04  0.27288366119E+04 0.  0.
        1    1    3    3  502    0 -0.48466555840E+03  0.60725586026E+03  0.10917036192E+04  0.13399541692E+04  0.50400001928E-02 0.  1.
       -1    1    3    3    0  502  0.48466555840E+03 -0.60725586026E+03 -0.11520359823E+04  0.13895493110E+04  0.50400001928E-02 0. -1.
</event>
<event>
 5   0  0.7351590E-06  0.2694996E+04  0.7818609E-02  0.8336630E-01
       -1   -1    0    0    0  501  0.00000000000E+00  0.00000000000E+00  0.89200271144E+03  0.89200271146E+03  0.50400001928E-02 0.  1.
        1   -1    0    0  501    0  0.00000000000E+00  0.00000000000E+00 -0.20355894103E+04  0.20355894103E+04  0.50400001928E-02 0. -1.
    10030    2    1    2    0    0  0.00000000000E+00  0.00000000000E+00 -0.11435866988E+04  0.29275921217E+04  0.26949963068E+04 0.  0.
        3    1    3    3  502    0 -0.23286400504E+03  0.70584206261E+03  0.64918456821E+03  0.98685321907E+03  0.10100000352E+00 0.  1.
       -3    1    3    3    0  502  0.23286400504E+03 -0.70584206261E+03 -0.17927712670E+04  0.19407389026E+04  0.10100000352E+00 0. -1.
</event>
<event>
 5   0  0.7754912E-06  0.2719905E+04  0.7818609E-02  0.8328575E-01
       -1   -1    0    0    0  501  0.00000000000E+00  0.00000000000E+00  0.79293221484E+03  0.79293221485E+03  0.50400001928E-02 0. -1.
        1   -1    0    0  501    0  0.00000000000E+00  0.00000000000E+00 -0.23324453144E+04  0.23324453144E+04  0.50400001928E-02 0.  1.
    10030    2    1    2    0    0  0.00000000000E+00  0.00000000000E+00 -0.15395130995E+04  0.31253775292E+04  0.27199051668E+04 0.  0.
        4    1    3    3  502    0  0.43881678413E+03  0.12865268633E+04 -0.81793389643E+03  0.15864201877E+04  0.12699999809E+01 0.  1.
       -4    1    3    3    0  502 -0.43881678413E+03 -0.12865268633E+04 -0.72157920312E+03  0.15389573416E+04  0.12699999809E+01 0. -1.
</event>
<event>
 5   0  0.1826851E-05  0.2712219E+04  0.7818609E-02  0.8331051E-01
        2   -1    0    0  501    0  0.00000000000E+00  0.00000000000E+00  0.13036114732E+04  0.13036114732E+04  0.25500000920E-02 0.  1.
       -2   -1    0    0    0  501  0.00000000000E+00  0.00000000000E+00 -0.14107221295E+04  0.14107221295E+04  0.25500000920E-02 0. -1.
    10030    2    1    2    0    0  0.00000000000E+00  0.00000000000E+00 -0.10711065638E+03  0.27143336027E+04  0.27122194259E+04 0.  0.
        5    1    3    3  502    0  0.10553149762E+04  0.64594123717E+03  0.50192839750E+03  0.13352467889E+04  0.46999998093E+01 0.  1.
       -5    1    3    3    0  502 -0.10553149762E+04 -0.64594123717E+03 -0.60903905388E+03  0.13790868138E+04  0.46999998093E+01 0. -1.
</event>
<event>
 5   0  0.6804685E-06  0.2723477E+04  0.7818609E-02  0.8327427E-01
       -1   -1    0    0    0  501  0.00000000000E+00  0.00000000000E+00  0.18184366298E+04  0.18184366298E+04  0.50400001928E-02 0.  1.
        1   -1    0    0  501    0  0.00000000000E+00  0.00000000000E+00 -0.10197397135E+04  0.10197397136E+04  0.50400001928E-02 0. -1.
    10030    2    1    2    0    0  0.00000000000E+00  0.00000000000E+00  0.79869691628E+03  0.28381763434E+04  0.27234772245E+04 0.  0.
        2    1    3    3  502    0 -0.12631178869E+03 -0.12102122440E+04 -0.23776120314E+03  0.12397978598E+04  0.25500000920E-02 0. -1.
       -2    1    3    3    0  502  0.12631178869E+03  0.12102122440E+04  0.10364581194E+04  0.15983784836E+04  0.25500000920E-02 0.  1.
</event>
<event>
 5   0  0.7351590E-06  0.2685314E+04  0.7818609E-02  0.8339786E-01
        1   -1    0    0  501    0  0.00000000000E+00  0.00000000000E+00  0.70185469923E+03  0.70185469925E+03  0.50400001928E-02 0.  1.
       -1   -1    0    0    0  501  0.00000000000E+00  0.00000000000E+00 -0.25685198144E+04  0.25685198144E+04  0.50400001928E-02 0. -1.
    10030    2    1    2    0    0  0.00000000000E+00  0.00000000000E+00 -0.18666651151E+04  0.32703745136E+04  0.26853139122E+04 0.  0.
        3    1    3    3  502    0 -0.28913633116E+03 -0.29707059963E+03 -0.24886284419E+04  0.25229193984E+04  0.10100000352E+00 0. -1.
       -3    1    3    3    0  502  0.28913633116E+03  0.29707059963E+03  0.62196332675E+03  0.74745511516E+03  0.10100000352E+00 0.  1.
</event>
<event>
 5   0  0.6804685E-06  0.2685551E+04  0.7818609E-02  0.8339708E-01
       -1   -1    0    0    0  501  0.00000000000E+00  0.00000000000E+00  0.20527669065E+04  0.20527669065E+04  0.50400001928E-02 0.  1.
        1   -1    0    0  501    0  0.00000000000E+00  0.00000000000E+00 -0.87834923028E+03  0.87834923030E+03  0.50400001928E-02 0. -1.
    10030    2    1    2    0    0  0.00000000000E+00  0.00000000000E+00  0.11744176762E+04  0.29311161368E+04  0.26855511407E+04 0.  0.
        2    1    3    3  502    0 -0.11372976587E+04 -0.21725234817E+03 -0.15497125843E+03  0.11681869020E+04  0.25500000920E-02 0. -1.
       -2    1    3    3    0  502  0.11372976587E+04  0.21725234817E+03  0.13293889346E+04  0.17629292347E+04  0.25500000920E-02 0.  1.
</event>
<event>
 5   0  0.1878160E-05  0.2567812E+04  0.7818609E-02  0.8379218E-01
       -2   -1    0    0    0  501  0.00000000000E+00  0.00000000000E+00  0.20947988602E+04  0.20947988602E+04  0.25500000920E-02 0.  1.
        2   -1    0    0  501    0  0.00000000000E+00  0.00000000000E+00 -0.78690823093E+03  0.78690823094E+03  0.25500000920E-02 0. -1.
    10030    2    1    2    0    0  0.00000000000E+00  0.00000000000E+00  0.13078906293E+04  0.28817070911E+04  0.25678118819E+04 0.  0.
        1    1    3    3  502    0 -0.38978797832E+03 -0.51371309269E+03 -0.59198557306E+03  0.87537576410E+03  0.50400001928E-02 0. -1.
       -1    1    3    3    0  502  0.38978797832E+03  0.51371309269E+03  0.18998762023E+04  0.20063313270E+04  0.50400001928E-02 0.  1.
</event>
<event>
 5   0  0.7348964E-06  0.2688494E+04  0.7818609E-02  0.8338748E-01
        1   -1    0    0  501    0  0.00000000000E+00  0.00000000000E+00  0.13764627097E+04  0.13764627097E+04  0.50400001928E-02 0. -1.
       -1   -1    0    0    0  501  0.00000000000E+00  0.00000000000E+00 -0.13127850948E+04  0.13127850949E+04  0.50400001928E-02 0.  1.
    10030    2    1    2    0    0  0.00000000000E+00  0.00000000000E+00  0.63677614832E+02  0.26892478045E+04  0.26884938005E+04 0.  0.
        1    1    3    3  502    0 -0.96788772339E+01  0.65693643369E+03 -0.11412392476E+04  0.13168470598E+04  0.50400001928E-02 0.  1.
       -1    1    3    3    0  502  0.96788772339E+01 -0.65693643369E+03  0.12049168625E+04  0.13724007447E+04  0.50400001928E-02 0. -1.
</event>
<event>
 5   0  0.1788003E-05  0.2727687E+04  0.7818609E-02  0.8326077E-01
       -2   -1    0    0    0  501  0.00000000000E+00  0.00000000000E+00  0.14487975904E+04  0.14487975904E+04  0.25500000920E-02 0.  1.
        2   -1    0    0  501    0  0.00000000000E+00  0.00000000000E+00 -0.12838712519E+04  0.12838712519E+04  0.25500000920E-02 0. -1.
    10030    2    1    2    0    0  0.00000000000E+00  0.00000000000E+00  0.16492633852E+03  0.27326688424E+04  0.27276873547E+04 0.  0.
        2    1    3    3  502    0  0.18788974870E+02 -0.35075981083E+03 -0.12377766569E+04  0.12866532256E+04  0.25500000920E-02 0. -1.
       -2    1    3    3    0  502 -0.18788974870E+02  0.35075981083E+03  0.14027029955E+04  0.14460156168E+04  0.25500000920E-02 0.  1.
</event>
<event>
 5   0  0.6175875E-06  0.2719261E+04  0.7818609E-02  0.8328782E-01
       -3   -1    0    0    0  501  0.00000000000E+00  0.00000000000E+00  0.67705233385E+03  0.67705234139E+03  0.10100000352E+00 0.  1.
        3   -1    0    0  501    0  0.00000000000E+00  0.00000000000E+00 -0.27303571045E+04  0.27303571064E+04  0.10100000352E+00 0. -1.
    10030    2    1    2    0    0  0.00000000000E+00  0.00000000000E+00 -0.20533047707E+04  0.34074094478E+04  0.27192606833E+04 0.  0.
        3    1    3    3  502    0 -0.10570331689E+03 -0.84583958162E+02 -0.27218904941E+04  0.27252551274E+04  0.10100000352E+00 0. -1.
       -3    1    3    3    0  502  0.10570331689E+03  0.84583958162E+02  0.66858572339E+03  0.68215432045E+03  0.10100000352E+00 0.  1.
</event>
<event>
 5   0  0.7348964E-06  0.2722580E+04  0.7818609E-02  0.8327716E-01
        1   -1    0    0  501    0  0.00000000000E+00  0.00000000000E+00  0.12837863018E+04  0.12837863019E+04  0.50400001928E-02 0.  1.
       -1   -1    0    0    0  501  0.00000000000E+00  0.00000000000E+00 -0.14434726427E+04  0.14434726427E+04  0.50400001928E-02 0. -1.
    10030    2    1    2    0    0  0.00000000000E+00  0.00000000000E+00 -0.15968634082E+03  0.27272589445E+04  0.27225799571E+04 0.  0.
        1    1    3    3  502    0  0.34125030288E+03 -0.45996969350E+03  0.11572231197E+04  0.12911968235E+04  0.50400001928E-02 0.  1.
       -1    1    3    3    0  502 -0.34125030288E+03  0.45996969350E+03 -0.13169094605E+04  0.14360621210E+04  0.50400001928E-02 0. -1.
</event>
<event>
 5   0  0.7351590E-06  0.2790315E+04  0.7818609E-02  0.8306282E-01
        1   -1    0    0  501    0  0.00000000000E+00  0.00000000000E+00  0.17969091281E+04  0.17969091281E+04  0.50400001928E-02 0. -1.
       -1   -1    0    0    0  501  0.00000000000E+00  0.00000000000E+00 -0.10832288196E+04  0.10832288196E+04  0.50400001928E-02 0.  1.
    10030    2    1    2    0    0  0.00000000000E+00  0.00000000000E+00  0.71368030858E+03  0.28801379477E+04  0.27903145011E+04 0.  0.
        3    1    3    3  502    0 -0.43494494027E+03 -0.14159879158E+03 -0.10036318100E+04  0.11029524645E+04  0.10100000352E+00 0.  1.
       -3    1    3    3    0  502  0.43494494027E+03  0.14159879158E+03  0.17173121186E+04  0.17771854832E+04  0.10100000352E+00 0. -1.
</event>
<event>
 5   0  0.1931119E-05  0.2746348E+04  0.7818609E-02  0.8320122E-01
        2   -1    0    0  501    0  0.00000000000E+00  0.00000000000E+00  0.25241253270E+04  0.25241253270E+04  0.25500000920E-02 0. -1.
       -2   -1    0    0    0  501  0.00000000000E+00  0.00000000000E+00 -0.74703351152E+03  0.74703351153E+03  0.25500000920E-02 0.  1.
    10030    2    1    2    0    0  0.00000000000E+00  0.00000000000E+00  0.17770918155E+04  0.32711588385E+04  0.27463475429E+04 0.  0.
        3    1    3    3  502    0  0.94369457192E+03  0.69135123662E+03  0.32050379972E+02  0.11702791182E+04  0.10100000352E+00 0.  1.
       -3    1    3    3    0  502 -0.94369457192E+03 -0.69135123662E+03  0.17450414355E+04  0.21008797203E+04  0.10100000352E+00 0. -1.
</event>
<event>
 5   0  0.1881699E-05  0.2700044E+04  0.7818609E-02  0.8334991E-01
       -2   -1    0    0    0  501  0.00000000000E+00  0.00000000000E+00  0.11386186285E+04  0.11386186285E+04  0.25500000920E-02 0.  1.
        2   -1    0    0  501    0  0.00000000000E+00  0.00000000000E+00 -0.16006756829E+04  0.16006756829E+04  0.25500000920E-02 0. -1.
    10030    2    1    2    0    0  0.00000000000E+00  0.00000000000E+00 -0.46205705444E+03  0.27392943115E+04  0.27000438151E+04 0.  0.
        4    1    3    3  502    0  0.81390172764E+03  0.25961326294E+03  0.82950113668E+03  0.11907597647E+04  0.12699999809E+01 0.  1.
       -4    1    3    3    0  502 -0.81390172764E+03 -0.25961326294E+03 -0.12915581911E+04  0.15485345468E+04  0.12699999809E+01 0. -1.
</event>
<event>
 5   0  0.7348964E-06  0.2668974E+04  0.7818609E-02  0.8345142E-01
        1   -1    0    0  501    0  0.00000000000E+00  0.00000000000E+00  0.23297527842E+04  0.23297527842E+04  0.50400001928E-02 0. -1.
       -1   -1    0    0    0  501  0.00000000000E+00  0.00000000000E+00 -0.76439699800E+03  0.76439699802E+03  0.50400001928E-02 0.  1.
    10030    2    1    2    0    0  0.00000000000E+00  0.00000000000E+00  0.15653557862E+04  0.30941497822E+04  0.26689743606E+04 0.  0.
        1    1    3    3  502    0  0.12514023518E+04  0.31072151734E+03  0.38393780205E+03  0.13453490043E+04  0.50400001928E-02 0.  1.
       -1    1    3    3    0  502 -0.12514023518E+04 -0.31072151734E+03  0.11814179841E+04  0.17488007779E+04  0.50400001928E-02 0. -1.
</event>
<event>
 5   0  0.7600052E-06  0.2693869E+04  0.7818609E-02  0.8336997E-01
       -1   -1    0    0    0  501  0.00000000000E+00  0.00000000000E+00  0.10281517919E+04  0.10281517919E+04  0.50400001928E-02 0.  1.
        1   -1    0    0  501    0  0.00000000000E+00  0.00000000000E+00 -0.17645574763E+04  0.17645574763E+04  0.50400001928E-02 0. -1.
    10030    2    1    2    0    0  0.00000000000E+00  0.00000000000E+00 -0.73640568443E+03  0.27927092682E+04  0.26938692850E+04 0.  0.
        5    1    3    3  502    0 -0.95807556479E+02  0.99197244921E+03 -0.13075512733E+04  0.16440501362E+04  0.46999998093E+01 0. -1.
       -5    1    3    3    0  502  0.95807556479E+02 -0.99197244921E+03  0.57114558887E+03  0.11486591320E+04  0.46999998093E+01 0.  1.
</event>
<event>
 5   0  0.1931119E-05  0.2719051E+04  0.7818609E-02  0.8328850E-01
       -2   -1    0    0    0  501  0.00000000000E+00  0.00000000000E+00  0.11749205160E+04  0.11749205160E+04  0.25500000920E-02 0.  1.
        2   -1    0    0  501    0  0.00000000000E+00  0.00000000000E+00 -0.15731356743E+04  0.15731356743E+04  0.25500000920E-02 0. -1.
    10030    2    1    2    0    0  0.00000000000E+00  0.00000000000E+00 -0.39821515825E+03  0.27480561903E+04  0.27190508478E+04 0.  0.
        3    1    3    3  502    0  0.32330270736E+03  0.10571256748E+04 -0.99892175223E+03  0.14899275184E+04  0.10100000352E+00 0. -1.
       -3    1    3    3    0  502 -0.32330270736E+03 -0.10571256748E+04  0.60070659397E+03  0.12581286719E+04  0.10100000352E+00 0.  1.
</event>
<event>
 5   0  0.7754912E-06  0.2695171E+04  0.7818609E-02  0.8336574E-01
        1   -1    0    0  501    0  0.00000000000E+00  0.00000000000E+00  0.13573342593E+04  0.13573342593E+04  0.50400001928E-02 0.  1.
       -1   -1    0    0    0  501  0.00000000000E+00  0.00000000000E+00 -0.13379066091E+04  0.13379066091E+04  0.50400001928E-02 0. -1.
    10030    2    1    2    0    0  0.00000000000E+00  0.00000000000E+00  0.19427650144E+02  0.26952408684E+04  0.26951708490E+04 0.  0.
        4    1    3    3  502    0  0.80844171416E+03  0.33891883678E+03  0.10332348607E+04  0.13549981083E+04  0.12699999809E+01 0.  1.
       -4    1    3    3    0  502 -0.80844171416E+03 -0.33891883678E+03 -0.10138072105E+04  0.13402427602E+04  0.12699999809E+01 0. -1.
</event>
<event>
 5   0  0.1931119E-05  0.2714305E+04  0.7818609E-02  0.8330378E-01
        2   -1    0    0  501    0  0.00000000000E+00  0.00000000000E+00  0.21551780380E+04  0.21551780380E+04  0.25500000920E-02 0. -1.
       -2   -1    0    0    0  501  0.00000000000E+00  0.00000000000E+00 -0.85462203074E+03  0.85462203074E+03  0.25500000920E-02 0.  1.
    10030    2    1    2    0    0  0.00000000000E+00  0.00000000000E+00  0.13005560072E+04  0.30098000687E+04  0.27143047960E+04 0.  0.
        3    1    3    3  502    0 -0.67444251620E+03  0.47602103260E+03  0.18447658916E+04  0.20210467427E+04  0.10100000352E+00 0. -1.
       -3    1    3    3    0  502  0.67444251620E+03 -0.47602103260E+03 -0.54420988441E+03  0.98875332598E+03  0.10100000352E+00 0.  1.
</event>
<event>
 5   0  0.6175875E-06  0.2637457E+04  0.7818609E-02  0.8355588E-01
        3   -1    0    0  501    0  0.00000000000E+00  0.00000000000E+00  0.14469037227E+04  0.14469037262E+04  0.10100000352E+00 0.  1.
       -3   -1    0    0    0  501  0.00000000000E+00  0.00000000000E+00 -0.12019078737E+04  0.12019078780E+04  0.10100000352E+00 0. -1.
    10030    2    1    2    0    0  0.00000000000E+00  0.00000000000E+00  0.24499584895E+03  0.26488116041E+04  0.26374570988E+04 0.  0.
        1    1    3    3  502    0 -0.79662733537E+03  0.19648798368E+03  0.11593291721E+04  0.14203051674E+04  0.50400001928E-02 0.  1.
       -1    1    3    3    0  502  0.79662733537E+03 -0.19648798368E+03 -0.91433332318E+03  0.12285064367E+04  0.50400001928E-02 0. -1.
</event>
<event>
 5   0  0.6804685E-06  0.2730494E+04  0.7818609E-02  0.8325178E-01
       -1   -1    0    0    0  501  0.00000000000E+00  0.00000000000E+00  0.16485784845E+04  0.16485784845E+04  0.50400001928E-02 0.  1.
        1   -1    0    0  501    0  0.00000000000E+00  0.00000000000E+00 -0.11306099992E+04  0.11306099992E+04  0.50400001928E-02 0. -1.
    10030    2    1    2    0    0  0.00000000000E+00  0.00000000000E+00  0.51796848537E+03  0.27791884837E+04  0.27304939619E+04 0.  0.
        2    1    3    3  502    0  0.45232384886E+03  0.18041338896E+02 -0.10519984519E+04  0.11452611480E+04  0.25500000920E-02 0. -1.
       -2    1    3    3    0  502 -0.45232384886E+03 -0.18041338896E+02  0.15699669373E+04  0.16339273357E+04  0.25500000920E-02 0.  1.
</event>
<event>
 5   0  0.1826851E-05  0.2646784E+04  0.7818609E-02  0.8352481E-01
       -2   -1    0    0    0  501  0.00000000000E+00  0.00000000000E+00  0.17098431757E+04  0.17098431757E+04  0.25500000920E-02 0.  1.
        2   -1    0    0  501    0  0.00000000000E+00  0.00000000000E+00 -0.10242846402E+04  0.10242846402E+04  0.25500000920E-02 0. -1.
    10030    2    1    2    0    0  0.00000000000E+00  0.00000000000E+00  0.68555853546E+03  0.27341278159E+04  0.26467837857E+04 0.  0.
        5    1    3    3  502    0 -0.88723979316E+03  0.13473446664E+03 -0.66194071570E+03  0.11151391968E+04  0.46999998093E+01 0. -1.
       -5    1    3    3    0  502  0.88723979316E+03 -0.13473446664E+03  0.13474992512E+04  0.16189886192E+04  0.46999998093E+01 0.  1.
</event>
<event>
 5   0  0.7348964E-06  0.2193347E+04  0.7818609E-02  0.8521202E-01
       -1   -1    0    0    0  501  0.00000000000E+00  0.00000000000E+00  0.10414540870E+04  0.10414540870E+04  0.50400001928E-02 0. -1.
        1   -1    0    0  501    0  0.00000000000E+00  0.00000000000E+00 -0.11548204532E+04  0.11548204532E+04  0.50400001928E-02 0.  1.
    10030    2    1    2    0    0  0.00000000000E+00  0.00000000000E+00 -0.11336636621E+03  0.21962745403E+04  0.21933467403E+04 0.  0.
        1    1    3    3  502    0 -0.68275822370E+03  0.81888229858E+03 -0.31386346239E+03  0.11114122925E+04  0.50400001928E-02 0.  1.
       -1    1    3    3    0  502  0.68275822370E+03 -0.81888229858E+03  0.20049709618E+03  0.10848622477E+04  0.50400001928E-02 0. -1.
</event>
<event>
 5   0  0.7348964E-06  0.2789728E+04  0.7818609E-02  0.8306465E-01
       -1   -1    0    0    0  501  0.00000000000E+00  0.00000000000E+00  0.11626179032E+04  0.11626179032E+04  0.50400001928E-02 0. -1.
        1   -1    0    0  501    0  0.00000000000E+00  0.00000000000E+00 -0.16735038782E+04  0.16735038782E+04  0.50400001928E-02 0.  1.
    10030    2    1    2    0    0  0.00000000000E+00  0.00000000000E+00 -0.51088597502E+03  0.28361217814E+04  0.27897279938E+04 0.  0.
        1    1    3    3  502    0 -0.65603020991E+03 -0.65245403179E+03 -0.13166285060E+04  0.16092179848E+04  0.50400001928E-02 0.  1.
       -1    1    3    3    0  502  0.65603020991E+03  0.65245403179E+03  0.80574253093E+03  0.12269037966E+04  0.50400001928E-02 0. -1.
</event>
<event>
 5   0  0.1826851E-05  0.2684637E+04  0.7818609E-02  0.8340007E-01
       -2   -1    0    0    0  501  0.00000000000E+00  0.00000000000E+00  0.15968079101E+04  0.15968079101E+04  0.25500000920E-02 0. -1.
        2   -1    0    0  501    0  0.00000000000E+00  0.00000000000E+00 -0.11283878639E+04  0.11283878639E+04  0.25500000920E-02 0.  1.
    10030    2    1    2    0    0  0.00000000000E+00  0.00000000000E+00  0.46842004624E+03  0.27251957740E+04  0.26846367849E+04 0.  0.
        5    1    3    3  502    0  0.23457893614E+03 -0.53821605135E+03 -0.99112761448E+03  0.11519808303E+04  0.46999998093E+01 0.  1.
       -5    1    3    3    0  502 -0.23457893614E+03  0.53821605135E+03  0.14595476607E+04  0.15732149437E+04  0.46999998093E+01 0. -1.
</event>
<event>
 5   0  0.7754912E-06  0.2724263E+04  0.7818609E-02  0.8327175E-01
       -1   -1    0    0    0  501  0.00000000000E+00  0.00000000000E+00  0.82231627378E+03  0.82231627379E+03  0.50400001928E-02 0.  1.
        1   -1    0    0  501    0  0.00000000000E+00  0.00000000000E+00 -0.22563126770E+04  0.22563126770E+04  0.50400001928E-02 0. -1.
    10030    2    1    2    0    0  0.00000000000E+00  0.00000000000E+00 -0.14339964032E+04  0.30786289508E+04  0.27242633008E+04 0.  0.
        4    1    3    3  502    0  0.18062835001E+03  0.10730424859E+04 -0.16429409568E+04  0.19706099000E+04  0.12699999809E+01 0. -1.
       -4    1    3    3    0  502 -0.18062835001E+03 -0.10730424859E+04  0.20894455366E+03  0.11080190508E+04  0.12699999809E+01 0.  1.
</event>
<event>
 5   0  0.7348964E-06  0.2626963E+04  0.7818609E-02  0.8359100E-01
        1   -1    0    0  501    0  0.00000000000E+00  0.00000000000E+00  0.13313272924E+04  0.13313272924E+04  0.50400001928E-02 0. -1.
       -1   -1    0    0    0  501  0.00000000000E+00  0.00000000000E+00 -0.12958750715E+04  0.12958750716E+04  0.50400001928E-02 0.  1.
    10030    2    1    2    0    0  0.00000000000E+00  0.00000000000E+00  0.35452220877E+02  0.26272023640E+04  0.26269631519E+04 0.  0.
        1    1    3    3  502    0 -0.55392297185E+03  0.64659462737E+03 -0.98252424142E+03  0.13001035174E+04  0.50400001928E-02 0.  1.
       -1    1    3    3    0  502  0.55392297185E+03 -0.64659462737E+03  0.10179764623E+04  0.13270988466E+04  0.50400001928E-02 0. -1.
</event>
<event>
 5   0  0.1826851E-05  0.2591163E+04  0.7818609E-02  0.8371209E-01
       -2   -1    0    0    0  501  0.00000000000E+00  0.00000000000E+00  0.11194376234E+04  0.11194376234E+04  0.25500000920E-02 0. -1.
        2   -1    0    0  501    0  0.00000000000E+00  0.00000000000E+00 -0.14994411291E+04  0.14994411291E+04  0.25500000920E-02 0.  1.
    10030    2    1    2    0    0  0.00000000000E+00  0.00000000000E+00 -0.38000350566E+03  0.26188787525E+04  0.25911625298E+04 0.  0.
        5    1    3    3  502    0  0.62755596858E+03 -0.23470982905E+03 -0.13107331049E+04  0.14720592922E+04  0.46999998093E+01 0.  1.
       -5    1    3    3    0  502 -0.62755596858E+03  0.23470982905E+03  0.93072959923E+03  0.11468194603E+04  0.46999998093E+01 0. -1.
</event>
<event>
 5   0  0.7600052E-06  0.2697821E+04  0.7818609E-02  0.8335712E-01
       -1   -1    0    0    0  501  0.00000000000E+00  0.00000000000E+00  0.19512465322E+04  0.19512465322E+04  0.50400001928E-02 0. -1.
        1   -1    0    0  501    0  0.00000000000E+00  0.00000000000E+00 -0.93251121778E+03  0.93251121779E+03  0.50400001928E-02 0.  1.
    10030    2    1    2    0    0  0.00000000000E+00  0.00000000000E+00  0.10187353144E+04  0.28837577500E+04  0.26978208094E+04 0.  0.
        5    1    3    3  502    0 -0.10883237799E+04 -0.79039917851E+03  0.40058068471E+03  0.14034480704E+04  0.46999998093E+01 0.  1.
       -5    1    3    3    0  502  0.10883237799E+04  0.79039917851E+03  0.61815462968E+03  0.14803096796E+04  0.46999998093E+01 0. -1.
</event>
<event>
 5   0  0.1931119E-05  0.1953779E+04  0.7818609E-02  0.8628540E-01
        2   -1    0    0  501    0  0.00000000000E+00  0.00000000000E+00  0.84022684836E+03  0.84022684836E+03  0.25500000920E-02 0.  1.
       -2   -1    0    0    0  501  0.00000000000E+00  0.00000000000E+00 -0.11357808675E+04  0.11357808675E+04  0.25500000920E-02 0. -1.
    10030    2    1    2    0    0  0.00000000000E+00  0.00000000000E+00 -0.29555401918E+03  0.19760077159E+04  0.19537794950E+04 0.  0.
        3    1    3    3  502    0  0.70843723304E+03 -0.12339872983E+03  0.52095892366E+03  0.88798016308E+03  0.10100000352E+00 0.  1.
       -3    1    3    3    0  502 -0.70843723304E+03  0.12339872983E+03 -0.81651294284E+03  0.10880275528E+04  0.10100000352E+00 0. -1.
</event>
<event>
 5   0  0.6804685E-06  0.2656419E+04  0.7818609E-02  0.8349286E-01
       -1   -1    0    0    0  501  0.00000000000E+00  0.00000000000E+00  0.17241875832E+04  0.17241875832E+04  0.50400001928E-02 0. -1.
        1   -1    0    0  501    0  0.00000000000E+00  0.00000000000E+00 -0.10231718297E+04  0.10231718297E+04  0.50400001928E-02 0.  1.
    10030    2    1    2    0    0  0.00000000000E+00  0.00000000000E+00  0.70101575348E+03  0.27473594129E+04  0.26564187654E+04 0.  0.
        2    1    3    3  502    0  0.96843949735E+03  0.30540355680E+03 -0.53495239597E+03  0.11477458162E+04  0.25500000920E-02 0.  1.
       -2    1    3    3    0  502 -0.96843949735E+03 -0.30540355680E+03  0.12359681494E+04  0.15996135968E+04  0.25500000920E-02 0. -1.
</event>
<event>
 5   0  0.7754912E-06  0.2709422E+04  0.7818609E-02  0.8331954E-01
        1   -1    0    0  501    0  0.00000000000E+00  0.00000000000E+00  0.14953705948E+04  0.14953705948E+04  0.50400001928E-02 0. -1.
       -1   -1    0    0    0  501  0.00000000000E+00  0.00000000000E+00 -0.12272819013E+04  0.12272819013E+04  0.50400001928E-02 0.  1.
    10030    2    1    2    0    0  0.00000000000E+00  0.00000000000E+00  0.26808869351E+03  0.27226524961E+04  0.27094215373E+04 0.  0.
        4    1    3    3  502    0  0.98738060377E+03 -0.63879656087E+03 -0.54174110281E+03  0.12947843597E+04  0.12699999809E+01 0.  1.
       -4    1    3    3    0  502 -0.98738060377E+03  0.63879656087E+03  0.80982979633E+03  0.14278681363E+04  0.12699999809E+01 0. -1.
</event>
<event>
 5   0  0.7348964E-06  0.2742655E+04  0.7818609E-02  0.8321296E-01
       -1   -1    0    0    0  501  0.00000000000E+00  0.00000000000E+00  0.12842445342E+04  0.12842445342E+04  0.50400001928E-02 0.  1.
        1   -1    0    0  501    0  0.00000000000E+00  0.00000000000E+00 -0.14643157712E+04  0.14643157712E+04  0.50400001928E-02 0. -1.
    10030    2    1    2    0    0  0.00000000000E+00  0.00000000000E+00 -0.18007123703E+03  0.27485603055E+04  0.27426553014E+04 0.  0.
        1    1    3    3  502    0 -0.12522162748E+04  0.51449684453E+03  0.12903724175E+03  0.13599276494E+04  0.50400001928E-02 0.  1.
       -1    1    3    3    0  502  0.12522162748E+04 -0.51449684453E+03 -0.30910847878E+03  0.13886326561E+04  0.50400001928E-02 0. -1.
</event>
<event>
 5   0  0.7754912E-06  0.2649905E+04  0.7818609E-02  0.8351444E-01
        1   -1    0    0  501    0  0.00000000000E+00  0.00000000000E+00  0.11691219447E+04  0.11691219447E+04  0.50400001928E-02 0. -1.
       -1   -1    0    0    0  501  0.00000000000E+00  0.00000000000E+00 -0.15015536708E+04  0.15015536708E+04  0.50400001928E-02 0.  1.
    10030    2    1    2    0    0  0.00000000000E+00  0.00000000000E+00 -0.33243172607E+03  0.26706756156E+04  0.26499051664E+04 0.  0.
        4    1    3    3  502    0  0.11099745443E+03 -0.83786447293E+03  0.86215469698E+03  0.12073316215E+04  0.12699999809E+01 0. -1.
       -4    1    3    3    0  502 -0.11099745443E+03  0.83786447293E+03 -0.11945864230E+04  0.14633439941E+04  0.12699999809E+01 0.  1.
</event>
<event>
 5   0  0.1788003E-05  0.2769118E+04  0.7818609E-02  0.8312921E-01
        2   -1    0    0  501    0  0.00000000000E+00  0.00000000000E+00  0.19801175547E+04  0.19801175547E+04  0.25500000920E-02 0. -1.
       -2   -1    0    0    0  501  0.00000000000E+00  0.00000000000E+00 -0.96812597330E+03  0.96812597330E+03  0.25500000920E-02 0.  1.
    10030    2    1    2    0    0  0.00000000000E+00  0.00000000000E+00  0.10119915814E+04  0.29482435280E+04  0.27691177186E+04 0.  0.
        2    1    3    3  502    0  0.12690097202E+04  0.44460905605E+03  0.15458400505E+03  0.13534988354E+04  0.25500000920E-02 0.  1.
       -2    1    3    3    0  502 -0.12690097202E+04 -0.44460905605E+03  0.85740757634E+03  0.15947446926E+04  0.25500000920E-02 0. -1.
</event>
<event>
 5   0  0.1878160E-05  0.2861357E+04  0.7818609E-02  0.8284469E-01
        2   -1    0    0  501    0  0.00000000000E+00  0.00000000000E+00  0.14544948502E+04  0.14544948502E+04  0.25500000920E-02 0.  1.
       -2   -1    0    0    0  501  0.00000000000E+00  0.00000000000E+00 -0.14072518462E+04  0.14072518462E+04  0.25500000920E-02 0. -1.
    10030    2    1    2    0    0  0.00000000000E+00  0.00000000000E+00  0.47243004015E+02  0.28617466964E+04  0.28613567154E+04 0.  0.
        1    1    3    3  502    0  0.11896941147E+04  0.74389108990E+03 -0.25587055839E+03  0.14262593673E+04  0.50400001928E-02 0. -1.
       -1    1    3    3    0  502 -0.11896941147E+04 -0.74389108990E+03  0.30311356241E+03  0.14354873291E+04  0.50400001928E-02 0.  1.
</event>
<event>
 5   0  0.1931119E-05  0.2716306E+04  0.7818609E-02  0.8329734E-01
        2   -1    0    0  501    0  0.00000000000E+00  0.00000000000E+00  0.29002853859E+04  0.29002853859E+04  0.25500000920E-02 0. -1.
       -2   -1    0    0    0  501  0.00000000000E+00  0.00000000000E+00 -0.63599919228E+03  0.63599919228E+03  0.25500000920E-02 0.  1.
    10030    2    1    2    0    0  0.00000000000E+00  0.00000000000E+00  0.22642861936E+04  0.35362845782E+04  0.27163056991E+04 0.  0.
        3    1    3    3  502    0  0.11236379136E+04 -0.40028654465E+03  0.28663941276E+03  0.12267655203E+04  0.10100000352E+00 0. -1.
       -3    1    3    3    0  502 -0.11236379136E+04  0.40028654465E+03  0.19776467808E+04  0.23095190579E+04  0.10100000352E+00 0.  1.
</event>
<event>
 5   0  0.1878160E-05  0.2581874E+04  0.7818609E-02  0.8374384E-01
       -2   -1    0    0    0  501  0.00000000000E+00  0.00000000000E+00  0.92850902398E+03  0.92850902399E+03  0.25500000920E-02 0. -1.
        2   -1    0    0  501    0  0.00000000000E+00  0.00000000000E+00 -0.17948320954E+04  0.17948320954E+04  0.25500000920E-02 0.  1.
    10030    2    1    2    0    0  0.00000000000E+00  0.00000000000E+00 -0.86632307140E+03  0.27233411194E+04  0.25818735810E+04 0.  0.
        1    1    3    3  502    0 -0.34299537406E+03 -0.10693512663E+04 -0.11047255703E+04  0.15753020482E+04  0.50400001928E-02 0.  1.
       -1    1    3    3    0  502  0.34299537406E+03  0.10693512663E+04  0.23840249894E+03  0.11480390711E+04  0.50400001928E-02 0. -1.
</event>
<event>
 5   0  0.1881699E-05  0.2674907E+04  0.7818609E-02  0.8343193E-01
       -2   -1    0    0    0  501  0.00000000000E+00  0.00000000000E+00  0.11966027312E+04  0.11966027312E+04  0.25500000920E-02 0.  1.
        2   -1    0    0  501    0  0.00000000000E+00  0.00000000000E+00 -0.14948835358E+04  0.14948835358E+04  0.25500000920E-02 0. -1.
    10030    2    1    2    0    0  0.00000000000E+00  0.00000000000E+00 -0.29828080459E+03  0.26914862670E+04  0.26749068932E+04 0.  0.
        4    1    3    3  502    0  0.13158020690E+04 -0.16605518779E+03  0.24762243563E+02  0.13264705770E+04  0.12699999809E+01 0. -1.
       -4    1    3    3    0  502 -0.13158020690E+04  0.16605518779E+03 -0.32304304815E+03  0.13650156900E+04  0.12699999809E+01 0.  1.
</event>
<event>
 5   0  0.7351590E-06  0.2676312E+04  0.7818609E-02  0.8342732E-01
       -1   -1    0    0    0  501  0.00000000000E+00  0.00000000000E+00  0.11159760568E+04  0.11159760568E+04  0.50400001928E-02 0. -1.
        1   -1    0    0  501    0  0.00000000000E+00  0.00000000000E+00 -0.16045695361E+04  0.16045695361E+04  0.50400001928E-02 0.  1.
    10030    2    1    2    0    0  0.00000000000E+00  0.00000000000E+00 -0.48859347933E+03  0.27205455929E+04  0.26763117784E+04 0.  0.
        3    1    3    3  502    0  0.81609724396E+03 -0.10520814070E+04 -0.37980862109E+03  0.13846099080E+04  0.10100000352E+00 0. -1.
       -3    1    3    3    0  502 -0.81609724396E+03  0.10520814070E+04 -0.10878485824E+03  0.13359356849E+04  0.10100000352E+00 0.  1.
</event>
<event>
 5   0  0.7348964E-06  0.2711802E+04  0.7818609E-02  0.8331186E-01
       -1   -1    0    0    0  501  0.00000000000E+00  0.00000000000E+00  0.70645300471E+03  0.70645300473E+03  0.50400001928E-02 0.  1.
        1   -1    0    0  501    0  0.00000000000E+00  0.00000000000E+00 -0.26023917835E+04  0.26023917835E+04  0.50400001928E-02 0. -1.
    10030    2    1    2    0    0  0.00000000000E+00  0.00000000000E+00 -0.18959387788E+04  0.33088447882E+04  0.27118019802E+04 0.  0.
        1    1    3    3  502    0 -0.11625520492E+04 -0.55314226686E+03 -0.42889888969E+03  0.13569995918E+04  0.50400001928E-02 0. -1.
       -1    1    3    3    0  502  0.11625520492E+04  0.55314226686E+03 -0.14670398891E+04  0.19518451964E+04  0.50400001928E-02 0.  1.
</event>
<event>
 5   0  0.6175875E-06  0.2704814E+04  0.7818609E-02  0.8333445E-01
       -3   -1    0    0    0  501  0.00000000000E+00  0.00000000000E+00  0.14569634299E+04  0.14569634334E+04  0.10100000352E+00 0.  1.
        3   -1    0    0  501    0  0.00000000000E+00  0.00000000000E+00 -0.12553543338E+04  0.12553543379E+04  0.10100000352E+00 0. -1.
    10030    2    1    2    0    0  0.00000000000E+00  0.00000000000E+00  0.20160909609E+03  0.27123177713E+04  0.27048144973E+04 0.  0.
        5    1    3    3  502    0 -0.46626008084E+03  0.12360550616E+04  0.39100794188E+03  0.13777299731E+04  0.46999998093E+01 0.  1.
       -5    1    3    3    0  502  0.46626008084E+03 -0.12360550616E+04 -0.18939884579E+03  0.13345877982E+04  0.46999998093E+01 0. -1.
</event>
<event>
 5   0  0.7348964E-06  0.2688272E+04  0.7818609E-02  0.8338820E-01
       -1   -1    0    0    0  501  0.00000000000E+00  0.00000000000E+00  0.80601257699E+03  0.80601257701E+03  0.50400001928E-02 0.  1.
        1   -1    0    0  501    0  0.00000000000E+00  0.00000000000E+00 -0.22415302433E+04  0.22415302433E+04  0.50400001928E-02 0. -1.
    10030    2    1    2    0    0  0.00000000000E+00  0.00000000000E+00 -0.14355176663E+04  0.30475428203E+04  0.26882719861E+04 0.  0.
        1    1    3    3  502    0 -0.10761479006E+03  0.96191257953E+03  0.33953938289E+03  0.10257405843E+04  0.50400001928E-02 0.  1.
       -1    1    3    3    0  502  0.10761479006E+03 -0.96191257953E+03 -0.17750570492E+04  0.20218022361E+04  0.50400001928E-02 0. -1.
</event>
<event>
 5   0  0.7754912E-06  0.2705691E+04  0.7818609E-02  0.8333161E-01
       -1   -1    0    0    0  501  0.00000000000E+00  0.00000000000E+00  0.68131985727E+03  0.68131985729E+03  0.50400001928E-02 0.  1.
        1   -1    0    0  501    0  0.00000000000E+00  0.00000000000E+00 -0.26862443069E+04  0.26862443069E+04  0.50400001928E-02 0. -1.
    10030    2    1    2    0    0  0.00000000000E+00  0.00000000000E+00 -0.20049244497E+04  0.33675641642E+04  0.27056914738E+04 0.  0.
        4    1    3    3  502    0 -0.74771337723E+03  0.98958626547E+02 -0.24002800339E+04  0.25159916452E+04  0.12699999809E+01 0. -1.
       -4    1    3    3    0  502  0.74771337723E+03 -0.98958626547E+02  0.39535558430E+03  0.85157251905E+03  0.12699999809E+01 0.  1.
</event>
<event>
 5   0  0.7351590E-06  0.2670774E+04  0.7818609E-02  0.8344551E-01
       -1   -1    0    0    0  501  0.00000000000E+00  0.00000000000E+00  0.11859002694E+04  0.11859002694E+04  0.50400001928E-02 0.  1.
        1   -1    0    0  501    0  0.00000000000E+00  0.00000000000E+00 -0.15037165302E+04  0.15037165302E+04  0.50400001928E-02 0. -1.
    10030    2    1    2    0    0  0.00000000000E+00  0.00000000000E+00 -0.31781626079E+03  0.26896167996E+04  0.26707735496E+04 0.  0.
        3    1    3    3  502    0  0.95707915183E+03 -0.14220177334E+03  0.76793080937E+03  0.12352892719E+04  0.10100000352E+00 0.  1.
       -3    1    3    3    0  502 -0.95707915183E+03  0.14220177334E+03 -0.10857470702E+04  0.14543275277E+04  0.10100000352E+00 0. -1.
</event>
<event>
 5   0  0.1881699E-05  0.2673020E+04  0.7818609E-02  0.8343813E-01
        2   -1    0    0  501    0  0.00000000000E+00  0.00000000000E+00  0.12677207881E+04  0.12677207881E+04  0.25500000920E-02 0. -1.
       -2   -1    0    0    0  501  0.00000000000E+00  0.00000000000E+00 -0.14090315870E+04  0.14090315870E+04  0.25500000920E-02 0.  1.
    10030    2    1    2    0    0  0.00000000000E+00  0.00000000000E+00 -0.14131079891E+03  0.26767523752E+04  0.26730197411E+04 0.  0.
        4    1    3    3  502    0 -0.67105142587E+03 -0.13700721371E+03  0.10786301329E+04  0.12777032399E+04  0.12699999809E+01 0. -1.
       -4    1    3    3    0  502  0.67105142587E+03  0.13700721371E+03 -0.12199409318E+04  0.13990491352E+04  0.12699999809E+01 0.  1.
</event>
<event>
 5   0  0.6804685E-06  0.2725798E+04  0.7818609E-02  0.8326683E-01
        1   -1    0    0  501    0  0.00000000000E+00  0.00000000000E+00  0.11573951541E+04  0.11573951541E+04  0.50400001928E-02 0.  1.
       -1   -1    0    0    0  501  0.00000000000E+00  0.00000000000E+00 -0.16048910388E+04  0.16048910388E+04  0.50400001928E-02 0. -1.
    10030    2    1    2    0    0  0.00000000000E+00  0.00000000000E+00 -0.44749588470E+03  0.27622861929E+04  0.27257975796E+04 0.  0.
        2    1    3    3  502    0  0.17792806620E+03 -0.13455352771E+04 -0.34938142520E+03  0.14014959718E+04  0.25500000920E-02 0. -1.
       -2    1    3    3    0  502 -0.17792806620E+03  0.13455352771E+04 -0.98114459494E+02  0.13607902211E+04  0.25500000920E-02 0.  1.
</event>
<event>
 5   0  0.7351590E-06  0.2717369E+04  0.7818609E-02  0.8329391E-01
       -1   -1    0    0    0  501  0.00000000000E+00  0.00000000000E+00  0.11500350028E+04  0.11500350029E+04  0.50400001928E-02 0. -1.
        1   -1    0    0  501    0  0.00000000000E+00  0.00000000000E+00 -0.16051885103E+04  0.16051885103E+04  0.50400001928E-02 0.  1.
    10030    2    1    2    0    0  0.00000000000E+00  0.00000000000E+00 -0.45515350747E+03  0.27552235132E+04  0.27173685603E+04 0.  0.
        3    1    3    3  502    0 -0.28523065323E+03 -0.10696941485E+04 -0.10262175433E+04  0.15095444854E+04  0.10100000352E+00 0.  1.
       -3    1    3    3    0  502  0.28523065323E+03  0.10696941485E+04  0.57106403588E+03  0.12456790278E+04  0.10100000352E+00 0. -1.
</event>
<event>
 5   0  0.1826851E-05  0.2679300E+04  0.7818609E-02  0.8341753E-01
       -2   -1    0    0    0  501  0.00000000000E+00  0.00000000000E+00  0.11838224441E+04  0.11838224441E+04  0.25500000920E-02 0.  1.
        2   -1    0    0  501    0  0.00000000000E+00  0.00000000000E+00 -0.15159888251E+04  0.15159888251E+04  0.25500000920E-02 0. -1.
    10030    2    1    2    0    0  0.00000000000E+00  0.00000000000E+00 -0.33216638095E+03  0.26998112692E+04  0.26792996071E+04 0.  0.
        5    1    3    3  502    0  0.35178123742E+03  0.65975635308E+03  0.95400704741E+03  0.12120973645E+04  0.46999998093E+01 0.  1.
       -5    1    3    3    0  502 -0.35178123742E+03 -0.65975635308E+03 -0.12861734284E+04  0.14877139047E+04  0.46999998093E+01 0. -1.
</event>
<event>
 5   0  0.6804685E-06  0.2644873E+04  0.7818609E-02  0.8353117E-01
        1   -1    0    0  501    0  0.00000000000E+00  0.00000000000E+00  0.11065837013E+04  0.11065837013E+04  0.50400001928E-02 0.  1.
       -1   -1    0    0    0  501  0.00000000000E+00  0.00000000000E+00 -0.15803938312E+04  0.15803938312E+04  0.50400001928E-02 0. -1.
    10030    2    1    2    0    0  0.00000000000E+00  0.00000000000E+00 -0.47381012991E+03  0.26869775324E+04  0.26448728175E+04 0.  0.
        2    1    3    3  502    0  0.47140195516E+03 -0.10295878558E+04  0.45702594762E+03  0.12211239384E+04  0.25500000920E-02 0.  1.
       -2    1    3    3    0  502 -0.47140195516E+03  0.10295878558E+04 -0.93083607753E+03  0.14658535941E+04  0.25500000920E-02 0. -1.
</event>
<event>
 5   0  0.7600052E-06  0.2267143E+04  0.7818609E-02  0.8490990E-01
        1   -1    0    0  501    0  0.00000000000E+00  0.00000000000E+00  0.15068033392E+04  0.15068033392E+04  0.50400001928E-02 0. -1.
       -1   -1    0    0    0  501  0.00000000000E+00  0.00000000000E+00 -0.85278839498E+03  0.85278839499E+03  0.50400001928E-02 0.  1.
    10030    2    1    2    0    0  0.00000000000E+00  0.00000000000E+00  0.65401494418E+03  0.23595917342E+04  0.22671430490E+04 0.  0.
        5    1    3    3  502    0  0.25844246754E+03  0.33167292786E+03 -0.76861199480E+03  0.87611981409E+03  0.46999998093E+01 0.  1.
       -5    1    3    3    0  502 -0.25844246754E+03 -0.33167292786E+03  0.14226269390E+04  0.14834719201E+04  0.46999998093E+01 0. -1.
</event>
<event>
 5   0  0.7600052E-06  0.2657499E+04  0.7818609E-02  0.8348928E-01
       -1   -1    0    0    0  501  0.00000000000E+00  0.00000000000E+00  0.16918767704E+04  0.16918767704E+04  0.50400001928E-02 0. -1.
        1   -1    0    0  501    0  0.00000000000E+00  0.00000000000E+00 -0.10435601142E+04  0.10435601142E+04  0.50400001928E-02 0.  1.
    10030    2    1    2    0    0  0.00000000000E+00  0.00000000000E+00  0.64831665622E+03  0.27354368847E+04  0.26574989112E+04 0.  0.
        5    1    3    3  502    0 -0.12498078916E+04  0.43056067810E+03  0.46283424256E+03  0.14005855524E+04  0.46999998093E+01 0. -1.
       -5    1    3    3    0  502  0.12498078916E+04 -0.43056067810E+03  0.18548241366E+03  0.13348513323E+04  0.46999998093E+01 0.  1.
</event>
<event>
 5   0  0.1788003E-05  0.2543168E+04  0.7818609E-02  0.8387766E-01
        2   -1    0    0  501    0  0.00000000000E+00  0.00000000000E+00  0.26144317321E+04  0.26144317321E+04  0.25500000920E-02 0.  1.
       -2   -1    0    0    0  501  0.00000000000E+00  0.00000000000E+00 -0.61846184714E+03  0.61846184714E+03  0.25500000920E-02 0. -1.
    10030    2    1    2    0    0  0.00000000000E+00  0.00000000000E+00  0.19959698850E+04  0.32328935793E+04  0.25431683218E+04 0.  0.
        2    1    3    3  502    0  0.10844635523E+04 -0.66393804408E+03  0.98887511038E+03  0.16108224317E+04  0.25500000920E-02 0. -1.
       -2    1    3    3    0  502 -0.10844635523E+04  0.66393804408E+03  0.10070947746E+04  0.16220711475E+04  0.25500000920E-02 0.  1.
</event>
<event>
 5   0  0.1788003E-05  0.2733748E+04  0.7818609E-02  0.8324137E-01
        2   -1    0    0  501    0  0.00000000000E+00  0.00000000000E+00  0.12880526997E+04  0.12880526997E+04  0.25500000920E-02 0.  1.
       -2   -1    0    0    0  501  0.00000000000E+00  0.00000000000E+00 -0.14505187849E+04  0.14505187849E+04  0.25500000920E-02 0. -1.
    10030    2    1    2    0    0  0.00000000000E+00  0.00000000000E+00 -0.16246608523E+03  0.27385714846E+04  0.27337480768E+04 0.  0.
        2    1    3    3  502    0  0.12845366926E+04 -0.25435144274E+03 -0.47386266482E+03  0.13925785422E+04  0.25500000920E-02 0.  1.
       -2    1    3    3    0  502 -0.12845366926E+04  0.25435144274E+03  0.31139657959E+03  0.13459929424E+04  0.25500000920E-02 0. -1.
</event>
<event>
 5   0  0.1826851E-05  0.2686040E+04  0.7818609E-02  0.8339549E-01
       -2   -1    0    0    0  501  0.00000000000E+00  0.00000000000E+00  0.13470635600E+04  0.13470635600E+04  0.25500000920E-02 0.  1.
        2   -1    0    0  501    0  0.00000000000E+00  0.00000000000E+00 -0.13389886118E+04  0.13389886118E+04  0.25500000920E-02 0. -1.
    10030    2    1    2    0    0  0.00000000000E+00  0.00000000000E+00  0.80749481494E+01  0.26860521718E+04  0.26860400341E+04 0.  0.
        5    1    3    3  502    0 -0.97726469623E+02 -0.10785323087E+04  0.79833211355E+03  0.13454139353E+04  0.46999998093E+01 0.  1.
       -5    1    3    3    0  502  0.97726469623E+02  0.10785323087E+04 -0.79025716540E+03  0.13406382365E+04  0.46999998093E+01 0. -1.
</event>
<event>
 5   0  0.1881699E-05  0.2668959E+04  0.7818609E-02  0.8345147E-01
        2   -1    0    0  501    0  0.00000000000E+00  0.00000000000E+00  0.18489004538E+04  0.18489004538E+04  0.25500000920E-02 0. -1.
       -2   -1    0    0    0  501  0.00000000000E+00  0.00000000000E+00 -0.96318627148E+03  0.96318627148E+03  0.25500000920E-02 0.  1.
    10030    2    1    2    0    0  0.00000000000E+00  0.00000000000E+00  0.88571418231E+03  0.28120867253E+04  0.26689589989E+04 0.  0.
        4    1    3    3  502    0  0.13279590564E+04  0.10095573861E+03  0.35366146875E+03  0.13779496957E+04  0.12699999809E+01 0.  1.
       -4    1    3    3    0  502 -0.13279590564E+04 -0.10095573861E+03  0.53205271356E+03  0.14341370295E+04  0.12699999809E+01 0. -1.
</event>
<event>
 5   0  0.7348964E-06  0.2678025E+04  0.7818609E-02  0.8342171E-01
       -1   -1    0    0    0  501  0.00000000000E+00  0.00000000000E+00  0.70631542980E+03  0.70631542982E+03  0.50400001928E-02 0.  1.
        1   -1    0    0  501    0  0.00000000000E+00  0.00000000000E+00 -0.25384610188E+04  0.25384610188E+04  0.50400001928E-02 0. -1.
    10030    2    1    2    0    0  0.00000000000E+00  0.00000000000E+00 -0.18321455890E+04  0.32447764486E+04  0.26780247837E+04 0.  0.
        1    1    3    3  502    0 -0.89620829901E+03 -0.82236993770E+03 -0.15944479775E+04  0.20054291268E+04  0.50400001928E-02 0. -1.
       -1    1    3    3    0  502  0.89620829901E+03  0.82236993770E+03 -0.23769761154E+03  0.12393473219E+04  0.50400001928E-02 0.  1.
</event>
<event>
 5   0  0.1881699E-05  0.2719226E+04  0.7818609E-02  0.8328794E-01
       -2   -1    0    0    0  501  0.00000000000E+00  0.00000000000E+00  0.10457824853E+04  0.10457824853E+04  0.25500000920E-02 0. -1.
        2   -1    0    0  501    0  0.00000000000E+00  0.00000000000E+00 -0.17676219120E+04  0.17676219120E+04  0.25500000920E-02 0.  1.
    10030    2    1    2    0    0  0.00000000000E+00  0.00000000000E+00 -0.72183942671E+03  0.28134043973E+04  0.27192263872E+04 0.  0.
        4    1    3    3  502    0 -0.59421209399E+03  0.24483998339E+03  0.87870486440E+03  0.10886498435E+04  0.12699999809E+01 0. -1.
       -4    1    3    3    0  502  0.59421209399E+03 -0.24483998339E+03 -0.16005442911E+04  0.17247545538E+04  0.12699999809E+01 0.  1.
</event>
<event>
 5   0  0.7754912E-06  0.2789922E+04  0.7818609E-02  0.8306404E-01
        1   -1    0    0  501    0  0.00000000000E+00  0.00000000000E+00  0.19753343066E+04  0.19753343066E+04  0.50400001928E-02 0.  1.
       -1   -1    0    0    0  501  0.00000000000E+00  0.00000000000E+00 -0.98510699274E+03  0.98510699275E+03  0.50400001928E-02 0. -1.
    10030    2    1    2    0    0  0.00000000000E+00  0.00000000000E+00  0.99022731386E+03  0.29604412993E+04  0.27899216035E+04 0.  0.
        4    1    3    3  502    0  0.19006863163E+03  0.77198085103E+03  0.17113966132E+04  0.18870507412E+04  0.12699999809E+01 0.  1.
       -4    1    3    3    0  502 -0.19006863163E+03 -0.77198085103E+03 -0.72116929938E+03  0.10733905582E+04  0.12699999809E+01 0. -1.
</event>
<event>
 5   0  0.1878160E-05  0.2521413E+04  0.7818609E-02  0.8395397E-01
        2   -1    0    0  501    0  0.00000000000E+00  0.00000000000E+00  0.15481488788E+04  0.15481488788E+04  0.25500000920E-02 0. -1.
       -2   -1    0    0    0  501  0.00000000000E+00  0.00000000000E+00 -0.10266327993E+04  0.10266327993E+04  0.25500000920E-02 0.  1.
    10030    2    1    2    0    0  0.00000000000E+00  0.00000000000E+00  0.52151607953E+03  0.25747816781E+04  0.25214126336E+04 0.  0.
        1    1    3    3  502    0  0.80553880302E+03  0.73349151015E+03  0.90859762643E+03  0.14186092504E+04  0.50400001928E-02 0.  1.
       -1    1    3    3    0  502 -0.80553880302E+03 -0.73349151015E+03 -0.38708154690E+03  0.11561724277E+04  0.50400001928E-02 0. -1.
</event>
<event>
 5   0  0.7351590E-06  0.2682175E+04  0.7818609E-02  0.8340812E-01
       -1   -1    0    0    0  501  0.00000000000E+00  0.00000000000E+00  0.12125518414E+04  0.12125518414E+04  0.50400001928E-02 0. -1.
        1   -1    0    0  501    0  0.00000000000E+00  0.00000000000E+00 -0.14832489013E+04  0.14832489013E+04  0.50400001928E-02 0.  1.
    10030    2    1    2    0    0  0.00000000000E+00  0.00000000000E+00 -0.27069705990E+03  0.26958007426E+04  0.26821753756E+04 0.  0.
        3    1    3    3  502    0  0.44778811442E+03  0.78567982781E+03 -0.11306868851E+04  0.14478466181E+04  0.10100000352E+00 0.  1.
       -3    1    3    3    0  502 -0.44778811442E+03 -0.78567982781E+03  0.85998982520E+03  0.12479541245E+04  0.10100000352E+00 0. -1.
</event>
<event>
 5   0  0.1931119E-05  0.2685059E+04  0.7818609E-02  0.8339869E-01
        2   -1    0    0  501    0  0.00000000000E+00  0.00000000000E+00  0.16421636569E+04  0.16421636569E+04  0.25500000920E-02 0. -1.
       -2   -1    0    0    0  501  0.00000000000E+00  0.00000000000E+00 -0.10975678688E+04  0.10975678688E+04  0.25500000920E-02 0.  1.
    10030    2    1    2    0    0  0.00000000000E+00  0.00000000000E+00  0.54459578810E+03  0.27397315257E+04  0.26850594519E+04 0.  0.
        3    1    3    3  502    0 -0.12172604484E+04  0.56455992674E+03  0.31718388685E+03  0.13787880687E+04  0.10100000352E+00 0. -1.
       -3    1    3    3    0  502  0.12172604484E+04 -0.56455992674E+03  0.22741190126E+03  0.13609434570E+04  0.10100000352E+00 0.  1.
</event>
<event>
 5   0  0.7600052E-06  0.2648657E+04  0.7818609E-02  0.8351859E-01
       -1   -1    0    0    0  501  0.00000000000E+00  0.00000000000E+00  0.10400031263E+04  0.10400031263E+04  0.50400001928E-02 0. -1.
        1   -1    0    0  501    0  0.00000000000E+00  0.00000000000E+00 -0.16863853292E+04  0.16863853292E+04  0.50400001928E-02 0.  1.
    10030    2    1    2    0    0  0.00000000000E+00  0.00000000000E+00 -0.64638220294E+03  0.27263884555E+04  0.26486570291E+04 0.  0.
        5    1    3    3  502    0  0.46764436545E+03 -0.10316887869E+04  0.38305749322E+03  0.11957542133E+04  0.46999998093E+01 0. -1.
       -5    1    3    3    0  502 -0.46764436545E+03  0.10316887869E+04 -0.10294396962E+04  0.15306342422E+04  0.46999998093E+01 0.  1.
</event>
<event>
 5   0  0.1878160E-05  0.2629507E+04  0.7818609E-02  0.8358247E-01
       -2   -1    0    0    0  501  0.00000000000E+00  0.00000000000E+00  0.24842320314E+04  0.24842320314E+04  0.25500000920E-02 0. -1.
        2   -1    0    0  501    0  0.00000000000E+00  0.00000000000E+00 -0.69581919265E+03  0.69581919266E+03  0.25500000920E-02 0.  1.
    10030    2    1    2    0    0  0.00000000000E+00  0.00000000000E+00  0.17884128388E+04  0.31800512241E+04  0.26295066659E+04 0.  0.
        1    1    3    3  502    0 -0.38366163201E+03  0.33775792212E+03  0.23591444331E+04  0.24138846530E+04  0.50400001928E-02 0. -1.
       -1    1    3    3    0  502  0.38366163201E+03 -0.33775792212E+03 -0.57073159433E+03  0.76616657107E+03  0.50400001928E-02 0.  1.
</event>
<event>
 5   0  0.1931119E-05  0.2627148E+04  0.7818609E-02  0.8359038E-01
       -2   -1    0    0    0  501  0.00000000000E+00  0.00000000000E+00  0.93829315579E+03  0.93829315579E+03  0.25500000920E-02 0. -1.
        2   -1    0    0  501    0  0.00000000000E+00  0.00000000000E+00 -0.18389532379E+04  0.18389532379E+04  0.25500000920E-02 0.  1.
    10030    2    1    2    0    0  0.00000000000E+00  0.00000000000E+00 -0.90066008212E+03  0.27772463937E+04  0.26271484442E+04 0.  0.
        3    1    3    3  502    0  0.10189964315E+04  0.68560874830E+03 -0.94285000970E+03  0.15483472589E+04  0.10100000352E+00 0. -1.
       -3    1    3    3    0  502 -0.10189964315E+04 -0.68560874830E+03  0.42189927581E+02  0.12288991348E+04  0.10100000352E+00 0.  1.
</event>
<event>
 5   0  0.6175875E-06  0.2668550E+04  0.7818609E-02  0.8345282E-01
       -3   -1    0    0    0  501  0.00000000000E+00  0.00000000000E+00  0.13200004928E+04  0.13200004967E+04  0.10100000352E+00 0. -1.
        3   -1    0    0  501    0  0.00000000000E+00  0.00000000000E+00 -0.13487035447E+04  0.13487035485E+04  0.10100000352E+00 0.  1.
    10030    2    1    2    0    0  0.00000000000E+00  0.00000000000E+00 -0.28703051869E+02  0.26687040452E+04  0.26685496839E+04 0.  0.
        5    1    3    3  502    0 -0.50976179645E+03 -0.58085501687E+03  0.10733775260E+04  0.13226530320E+04  0.46999998093E+01 0. -1.
       -5    1    3    3    0  502  0.50976179645E+03  0.58085501687E+03 -0.11020805779E+04  0.13460510131E+04  0.46999998093E+01 0.  1.
</event>
<event>
 5   0  0.7754912E-06  0.2708095E+04  0.7818609E-02  0.8332383E-01
        1   -1    0    0  501    0  0.00000000000E+00  0.00000000000E+00  0.26638044045E+04  0.26638044045E+04  0.50400001928E-02 0.  1.
       -1   -1    0    0    0  501  0.00000000000E+00  0.00000000000E+00 -0.68828037802E+03  0.68828037804E+03  0.50400001928E-02 0. -1.
    10030    2    1    2    0    0  0.00000000000E+00  0.00000000000E+00  0.19755240265E+04  0.33520847825E+04  0.27080947565E+04 0.  0.
        4    1    3    3  502    0 -0.11282749745E+04 -0.60182752529E+03  0.43663859507E+03  0.13512422669E+04  0.12699999809E+01 0. -1.
       -4    1    3    3    0  502  0.11282749745E+04  0.60182752529E+03  0.15388854314E+04  0.20008425156E+04  0.12699999809E+01 0.  1.
</event>
<event>
 5   0  0.6804685E-06  0.2704105E+04  0.7818609E-02  0.8333674E-01
       -1   -1    0    0    0  501  0.00000000000E+00  0.00000000000E+00  0.58880172116E+03  0.58880172118E+03  0.50400001928E-02 0.  1.
        1   -1    0    0  501    0  0.00000000000E+00  0.00000000000E+00 -0.31046874817E+04  0.31046874817E+04  0.50400001928E-02 0. -1.
    10030    2    1    2    0    0  0.00000000000E+00  0.00000000000E+00 -0.25158857605E+04  0.36934892028E+04  0.27041045342E+04 0.  0.
        2    1    3    3  502    0  0.13329246111E+04  0.10116394010E+03 -0.15349281390E+04  0.20354180292E+04  0.25500000920E-02 0. -1.
       -2    1    3    3    0  502 -0.13329246111E+04 -0.10116394010E+03 -0.98095762151E+03  0.16580711737E+04  0.25500000920E-02 0.  1.
</event>
<event>
 5   0  0.1881699E-05  0.2515229E+04  0.7818609E-02  0.8397580E-01
        2   -1    0    0  501    0  0.00000000000E+00  0.00000000000E+00  0.20162837186E+04  0.20162837186E+04  0.25500000920E-02 0.  1.
       -2   -1    0    0    0  501  0.00000000000E+00  0.00000000000E+00 -0.78441070845E+03  0.78441070845E+03  0.25500000920E-02 0. -1.
    10030    2    1    2    0    0  0.00000000000E+00  0.00000000000E+00  0.12318730102E+04  0.28006944271E+04  0.25152292461E+04 0.  0.
        4    1    3    3  502    0  0.25143353535E+03 -0.11297595965E+04  0.11637231142E+04  0.16412887217E+04  0.12699999809E+01 0.  1.
       -4    1    3    3    0  502 -0.25143353535E+03  0.11297595965E+04  0.68149896009E+02  0.11594057054E+04  0.12699999809E+01 0. -1.
</event>
<event>
 5   0  0.1878160E-05  0.2924121E+04  0.7818609E-02  0.8265737E-01
        2   -1    0    0  501    0  0.00000000000E+00  0.00000000000E+00  0.11995311553E+04  0.11995311553E+04  0.25500000920E-02 0.  1.
       -2   -1    0    0    0  501  0.00000000000E+00  0.00000000000E+00 -0.17820471007E+04  0.17820471007E+04  0.25500000920E-02 0. -1.
    10030    2    1    2    0    0  0.00000000000E+00  0.00000000000E+00 -0.58251594541E+03  0.29815782559E+04  0.29241210764E+04 0.  0.
        1    1    3    3  502    0  0.26207588206E+03 -0.36331284100E+03  0.11278291553E+04  0.12135396953E+04  0.50400001928E-02 0.  1.
       -1    1    3    3    0  502 -0.26207588206E+03  0.36331284100E+03 -0.17103451007E+04  0.17680385607E+04  0.50400001928E-02 0. -1.
</event>
<event>
 5   0  0.7348964E-06  0.2663969E+04  0.7818609E-02  0.8346791E-01
        1   -1    0    0  501    0  0.00000000000E+00  0.00000000000E+00  0.16214616076E+04  0.16214616076E+04  0.50400001928E-02 0. -1.
       -1   -1    0    0    0  501  0.00000000000E+00  0.00000000000E+00 -0.10941871998E+04  0.10941871998E+04  0.50400001928E-02 0.  1.
    10030    2    1    2    0    0  0.00000000000E+00  0.00000000000E+00  0.52727440786E+03  0.27156488074E+04  0.26639688707E+04 0.  0.
        1    1    3    3  502    0 -0.67080005820E+03 -0.10157360433E+03  0.14321255804E+04  0.15846998432E+04  0.50400001928E-02 0. -1.
       -1    1    3    3    0  502  0.67080005820E+03  0.10157360433E+03 -0.90485117251E+03  0.11309489642E+04  0.50400001928E-02 0.  1.
</event>
<event>
 5   0  0.1826851E-05  0.2729043E+04  0.7818609E-02  0.8325643E-01
        2   -1    0    0  501    0  0.00000000000E+00  0.00000000000E+00  0.19074678593E+04  0.19074678593E+04  0.25500000920E-02 0.  1.
       -2   -1    0    0    0  501  0.00000000000E+00  0.00000000000E+00 -0.97612075152E+03  0.97612075152E+03  0.25500000920E-02 0. -1.
    10030    2    1    2    0    0  0.00000000000E+00  0.00000000000E+00  0.93134710774E+03  0.28835886108E+04  0.27290430266E+04 0.  0.
        5    1    3    3  502    0 -0.20406578262E+03 -0.35071564343E+03  0.18422367542E+04  0.18863993889E+04  0.46999998093E+01 0.  1.
       -5    1    3    3    0  502  0.20406578262E+03  0.35071564343E+03 -0.91088964643E+03  0.99718922184E+03  0.46999998093E+01 0. -1.
</event>
<event>
 5   0  0.7754912E-06  0.2509129E+04  0.7818609E-02  0.8399740E-01
       -1   -1    0    0    0  501  0.00000000000E+00  0.00000000000E+00  0.76195925100E+03  0.76195925102E+03  0.50400001928E-02 0.  1.
        1   -1    0    0  501    0  0.00000000000E+00  0.00000000000E+00 -0.20656384888E+04  0.20656384888E+04  0.50400001928E-02 0. -1.
    10030    2    1    2    0    0  0.00000000000E+00  0.00000000000E+00 -0.13036792378E+04  0.28275977399E+04  0.25091292161E+04 0.  0.
        4    1    3    3  502    0 -0.10814065987E+04 -0.24520404867E+03  0.94693415976E+01  0.11088987954E+04  0.12699999809E+01 0.  1.
       -4    1    3    3    0  502  0.10814065987E+04  0.24520404867E+03 -0.13131485794E+04  0.17186989445E+04  0.12699999809E+01 0. -1.
</event>
<event>
 5   0  0.7600052E-06  0.2636074E+04  0.7818609E-02  0.8356050E-01
       -1   -1    0    0    0  501  0.00000000000E+00  0.00000000000E+00  0.13134169279E+04  0.13134169279E+04  0.50400001928E-02 0. -1.
        1   -1    0    0  501    0  0.00000000000E+00  0.00000000000E+00 -0.13226734840E+04  0.13226734840E+04  0.50400001928E-02 0.  1.
    10030    2    1    2    0    0  0.00000000000E+00  0.00000000000E+00 -0.92565561257E+01  0.26360904119E+04  0.26360741597E+04 0.  0.
        5    1    3    3  502    0  0.83138430351E+03 -0.57136620057E+03 -0.85289081466E+03  0.13210238556E+04  0.46999998093E+01 0. -1.
       -5    1    3    3    0  502 -0.83138430351E+03  0.57136620057E+03  0.84363425853E+03  0.13150665563E+04  0.46999998093E+01 0.  1.
</event>
<event>
 5   0  0.6804685E-06  0.2679249E+04  0.7818609E-02  0.8341769E-01
        1   -1    0    0  501    0  0.00000000000E+00  0.00000000000E+00  0.25229960162E+04  0.25229960162E+04  0.50400001928E-02 0.  1.
       -1   -1    0    0    0  501  0.00000000000E+00  0.00000000000E+00 -0.71129481024E+03  0.71129481025E+03  0.50400001928E-02 0. -1.
    10030    2    1    2    0    0  0.00000000000E+00  0.00000000000E+00  0.18117012060E+04  0.32342908265E+04  0.26792491281E+04 0.  0.
        2    1    3    3  502    0 -0.12074258077E+03 -0.66009729442E+03  0.23054763794E+04  0.24011515039E+04  0.25500000920E-02 0.  1.
       -2    1    3    3    0  502  0.12074258077E+03  0.66009729442E+03 -0.49377517340E+03  0.83313932255E+03  0.25500000920E-02 0. -1.
</event>
<event>
 5   0  0.1881699E-05  0.2704749E+04  0.7818609E-02  0.8333466E-01
       -2   -1    0    0    0  501  0.00000000000E+00  0.00000000000E+00  0.89854200772E+03  0.89854200772E+03  0.25500000920E-02 0.  1.
        2   -1    0    0  501    0  0.00000000000E+00  0.00000000000E+00 -0.20354276861E+04  0.20354276861E+04  0.25500000920E-02 0. -1.
    10030    2    1    2    0    0  0.00000000000E+00  0.00000000000E+00 -0.11368856784E+04  0.29339696939E+04  0.27047493634E+04 0.  0.
        4    1    3    3  502    0 -0.31189747904E+03  0.13049694360E+04 -0.38470572105E+03  0.13957884407E+04  0.12699999809E+01 0. -1.
       -4    1    3    3    0  502  0.31189747904E+03 -0.13049694360E+04 -0.75217995737E+03  0.15381812532E+04  0.12699999809E+01 0.  1.
</event>
<event>
 5   0  0.7348964E-06  0.2676730E+04  0.7818609E-02  0.8342595E-01
       -1   -1    0    0    0  501  0.00000000000E+00  0.00000000000E+00  0.15929671863E+04  0.15929671863E+04  0.50400001928E-02 0.  1.
        1   -1    0    0  501    0  0.00000000000E+00  0.00000000000E+00 -0.11244559030E+04  0.11244559030E+04  0.50400001928E-02 0. -1.
    10030    2    1    2    0    0  0.00000000000E+00  0.00000000000E+00  0.46851128323E+03  0.27174230893E+04  0.26767303607E+04 0.  0.
        1    1    3    3  502    0 -0.10653010306E+04 -0.74097410945E+03  0.56682150568E+03  0.14160492704E+04  0.50400001928E-02 0.  1.
       -1    1    3    3    0  502  0.10653010306E+04  0.74097410945E+03 -0.98310222446E+02  0.13013738189E+04  0.50400001928E-02 0. -1.
</event>
<event>
 5   0  0.7351590E-06  0.2693867E+04  0.7818609E-02  0.8336998E-01
       -1   -1    0    0    0  501  0.00000000000E+00  0.00000000000E+00  0.11115255009E+04  0.11115255009E+04  0.50400001928E-02 0.  1.
        1   -1    0    0  501    0  0.00000000000E+00  0.00000000000E+00 -0.16321985654E+04  0.16321985654E+04  0.50400001928E-02 0. -1.
    10030    2    1    2    0    0  0.00000000000E+00  0.00000000000E+00 -0.52067306450E+03  0.27437240664E+04  0.26938673524E+04 0.  0.
        3    1    3    3  502    0 -0.60952137109E+03  0.10399032684E+04  0.35188323336E+03  0.12556818584E+04  0.10100000352E+00 0.  1.
       -3    1    3    3    0  502  0.60952137109E+03 -0.10399032684E+04 -0.87255629786E+03  0.14880422079E+04  0.10100000352E+00 0. -1.
</event>
<event>
 5   0  0.1788003E-05  0.2663445E+04  0.7818609E-02  0.8346964E-01
        2   -1    0    0  501    0  0.00000000000E+00  0.00000000000E+00  0.22007939851E+04  0.22007939851E+04  0.25500000920E-02 0. -1.
       -2   -1    0    0    0  501  0.00000000000E+00  0.00000000000E+00 -0.80583857743E+03  0.80583857743E+03  0.25500000920E-02 0.  1.
    10030    2    1    2    0    0  0.00000000000E+00  0.00000000000E+00  0.13949554077E+04  0.30066325626E+04  0.26634449078E+04 0.  0.
        2    1    3    3  502    0 -0.11816612138E+04  0.56121520209E+03  0.97901000115E+03  0.16339358340E+04  0.25500000920E-02 0.  1.
       -2    1    3    3    0  502  0.11816612138E+04 -0.56121520209E+03  0.41594540657E+03  0.13726967286E+04  0.25500000920E-02 0. -1.
</event>
<event>
 5   0  0.1881699E-05  0.2679406E+04  0.7818609E-02  0.8341718E-01
        2   -1    0    0  501    0  0.00000000000E+00  0.00000000000E+00  0.20612158341E+04  0.20612158341E+04  0.25500000920E-02 0.  1.
       -2   -1    0    0    0  501  0.00000000000E+00  0.00000000000E+00 -0.87074994473E+03  0.87074994473E+03  0.25500000920E-02 0. -1.
    10030    2    1    2    0    0  0.00000000000E+00  0.00000000000E+00  0.11904658893E+04  0.29319657788E+04  0.26794055860E+04 0.  0.
        4    1    3    3  502    0 -0.30261175216E+02 -0.10144958487E+04  0.15521219231E+04  0.18545084639E+04  0.12699999809E+01 0.  1.
       -4    1    3    3    0  502  0.30261175216E+02  0.10144958487E+04 -0.36165603371E+03  0.10774573149E+04  0.12699999809E+01 0. -1.
</event>
<event>
 5   0  0.7600052E-06  0.2708875E+04  0.7818609E-02  0.8332131E-01
        1   -1    0    0  501    0  0.00000000000E+00  0.00000000000E+00  0.14665836597E+04  0.14665836598E+04  0.50400001928E-02 0. -1.
       -1   -1    0    0    0  501  0.00000000000E+00  0.00000000000E+00 -0.12508665452E+04  0.12508665452E+04  0.50400001928E-02 0.  1.
    10030    2    1    2    0    0  0.00000000000E+00  0.00000000000E+00  0.21571711459E+03  0.27174502049E+04  0.27088746266E+04 0.  0.
        5    1    3    3  502    0 -0.12391396423E+04  0.14094328901E+03  0.63787410948E+03  0.14007988911E+04  0.46999998093E+01 0. -1.
       -5    1    3    3    0  502  0.12391396423E+04 -0.14094328901E+03 -0.42215699489E+03  0.13166513138E+04  0.46999998093E+01 0.  1.
</event>
<event>
 5   0  0.1881699E-05  0.2741206E+04  0.7818609E-02  0.8321758E-01
       -2   -1    0    0    0  501  0.00000000000E+00  0.00000000000E+00  0.86324425466E+03  0.86324425467E+03  0.25500000920E-02 0.  1.
        2   -1    0    0  501    0  0.00000000000E+00  0.00000000000E+00 -0.21761538655E+04  0.21761538655E+04  0.25500000920E-02 0. -1.
    10030    2    1    2    0    0  0.00000000000E+00  0.00000000000E+00 -0.13129096108E+04  0.30393981201E+04  0.27412058089E+04 0.  0.
        4    1    3    3  502    0 -0.79981487820E+03  0.70090280706E+03 -0.16151386331E+04  0.19338156586E+04  0.12699999809E+01 0. -1.
       -4    1    3    3    0  502  0.79981487820E+03 -0.70090280706E+03  0.30222902234E+03  0.11055824615E+04  0.12699999809E+01 0.  1.
</event>
<event>
 5   0  0.6804685E-06  0.2747168E+04  0.7818609E-02  0.8319861E-01
        1   -1    0    0  501    0  0.00000000000E+00  0.00000000000E+00  0.16051787695E+04  0.16051787695E+04  0.50400001928E-02 0.  1.
       -1   -1    0    0    0  501  0.00000000000E+00  0.00000000000E+00 -0.11754040447E+04  0.11754040447E+04  0.50400001928E-02 0. -1.
    10030    2    1    2    0    0  0.00000000000E+00  0.00000000000E+00  0.42977472475E+03  0.27805828142E+04  0.27471684463E+04 0.  0.
        2    1    3    3  502    0 -0.11278666883E+04 -0.77568856698E+03  0.33010336507E+03  0.14080995175E+04  0.25500000920E-02 0.  1.
       -2    1    3    3    0  502  0.11278666883E+04  0.77568856698E+03  0.99671359681E+02  0.13724832967E+04  0.25500000920E-02 0. -1.
</event>
<event>
 5   0  0.1826851E-05  0.2702542E+04  0.7818609E-02  0.8334181E-01
        2   -1    0    0  501    0  0.00000000000E+00  0.00000000000E+00  0.11189592460E+04  0.11189592460E+04  0.25500000920E-02 0. -1.
       -2   -1    0    0    0  501  0.00000000000E+00  0.00000000000E+00 -0.16318142984E+04  0.16318142984E+04  0.25500000920E-02 0.  1.
    10030    2    1    2    0    0  0.00000000000E+00  0.00000000000E+00 -0.51285505246E+03  0.27507735444E+04  0.27025422823E+04 0.  0.
        5    1    3    3  502    0  0.13460086366E+04  0.10361780682E+03 -0.31608851069E+03  0.13865099842E+04  0.46999998093E+01 0.  1.
       -5    1    3    3    0  502 -0.13460086366E+04 -0.10361780682E+03 -0.19676654176E+03  0.13642635602E+04  0.46999998093E+01 0. -1.
</event>
<event>
 5   0  0.7754912E-06  0.2724668E+04  0.7818609E-02  0.8327045E-01
       -1   -1    0    0    0  501  0.00000000000E+00  0.00000000000E+00  0.94370698057E+03  0.94370698059E+03  0.50400001928E-02 0. -1.
        1   -1    0    0  501    0  0.00000000000E+00  0.00000000000E+00 -0.19666629029E+04  0.19666629029E+04  0.50400001928E-02 0.  1.
    10030    2    1    2    0    0  0.00000000000E+00  0.00000000000E+00 -0.10229559223E+04  0.29103698835E+04  0.27246676935E+04 0.  0.
        4    1    3    3  502    0 -0.41381316863E+03 -0.54090235343E+02 -0.18967014830E+04  0.19420724035E+04  0.12699999809E+01 0.  1.
       -4    1    3    3    0  502  0.41381316863E+03  0.54090235343E+02  0.87374556064E+03  0.96829747998E+03  0.12699999809E+01 0. -1.
</event>
<event>
 5   0  0.1931119E-05  0.2196478E+04  0.7818609E-02  0.8519896E-01
       -2   -1    0    0    0  501  0.00000000000E+00  0.00000000000E+00  0.11774427951E+04  0.11774427951E+04  0.25500000920E-02 0.  1.
        2   -1    0    0  501    0  0.00000000000E+00  0.00000000000E+00 -0.10243628689E+04  0.10243628689E+04  0.25500000920E-02 0. -1.
    10030    2    1    2    0    0  0.00000000000E+00  0.00000000000E+00  0.15307992613E+03  0.22018056640E+04  0.21964777983E+04 0.  0.
        3    1    3    3  502    0 -0.27771784491E+03 -0.19476955958E+03  0.11236148293E+04  0.11737004207E+04  0.10100000352E+00 0.  1.
       -3    1    3    3    0  502  0.27771784491E+03  0.19476955958E+03 -0.97053490320E+03  0.10281052433E+04  0.10100000352E+00 0. -1.
</event>
<event>
 5   0  0.6804685E-06  0.2697285E+04  0.7818609E-02  0.8335886E-01
        1   -1    0    0  501    0  0.00000000000E+00  0.00000000000E+00  0.12566279298E+04  0.12566279298E+04  0.50400001928E-02 0. -1.
       -1   -1    0    0    0  501  0.00000000000E+00  0.00000000000E+00 -0.14473949159E+04  0.14473949159E+04  0.50400001928E-02 0.  1.
    10030    2    1    2    0    0  0.00000000000E+00  0.00000000000E+00 -0.19076698603E+03  0.27040228457E+04  0.26972852106E+04 0.  0.
        2    1    3    3  502    0  0.11712554099E+04  0.61824598075E+02  0.57199358917E+03  0.13049284203E+04  0.25500000920E-02 0. -1.
       -2    1    3    3    0  502 -0.11712554099E+04 -0.61824598075E+02 -0.76276057519E+03  0.13990944254E+04  0.25500000920E-02 0.  1.
</event>
<event>
 5   0  0.1788003E-05  0.2594520E+04  0.7818609E-02  0.8370065E-01
        2   -1    0    0  501    0  0.00000000000E+00  0.00000000000E+00  0.11993970916E+04  0.11993970916E+04  0.25500000920E-02 0.  1.
       -2   -1    0    0    0  501  0.00000000000E+00  0.00000000000E+00 -0.14031076649E+04  0.14031076649E+04  0.25500000920E-02 0. -1.
    10030    2    1    2    0    0  0.00000000000E+00  0.00000000000E+00 -0.20371057328E+03  0.26025047565E+04  0.25945198034E+04 0.  0.
        2    1    3    3  502    0 -0.80331852833E+01  0.85751284217E+03  0.87453165340E+03  0.12248258731E+04  0.25500000920E-02 0.  1.
       -2    1    3    3    0  502  0.80331852833E+01 -0.85751284217E+03 -0.10782422267E+04  0.13776788835E+04  0.25500000920E-02 0. -1.
</event>
<event>
 5   0  0.1881699E-05  0.2391806E+04  0.7818609E-02  0.8442578E-01
        2   -1    0    0  501    0  0.00000000000E+00  0.00000000000E+00  0.14212579614E+04  0.14212579615E+04  0.25500000920E-02 0.  1.
       -2   -1    0    0    0  501  0.00000000000E+00  0.00000000000E+00 -0.10062804416E+04  0.10062804416E+04  0.25500000920E-02 0. -1.
    10030    2    1    2    0    0  0.00000000000E+00  0.00000000000E+00  0.41497751988E+03  0.24275384030E+04  0.23918060867E+04 0.  0.
        4    1    3    3  502    0  0.57577791726E+03 -0.42937066258E+03  0.11779657405E+04  0.13796681756E+04  0.12699999809E+01 0.  1.
       -4    1    3    3    0  502 -0.57577791726E+03  0.42937066258E+03 -0.76298822064E+03  0.10478702275E+04  0.12699999809E+01 0. -1.
</event>
<event>
 5   0  0.1826851E-05  0.2690027E+04  0.7818609E-02  0.8338248E-01
        2   -1    0    0  501    0  0.00000000000E+00  0.00000000000E+00  0.20668601736E+04  0.20668601736E+04  0.25500000920E-02 0.  1.
       -2   -1    0    0    0  501  0.00000000000E+00  0.00000000000E+00 -0.87526997199E+03  0.87526997199E+03  0.25500000920E-02 0. -1.
    10030    2    1    2    0    0  0.00000000000E+00  0.00000000000E+00  0.11915902016E+04  0.29421301456E+04  0.26900265027E+04 0.  0.
        5    1    3    3  502    0 -0.23467883559E+03  0.25179835815E+03 -0.82627455944E+03  0.89511357191E+03  0.46999998093E+01 0. -1.
       -5    1    3    3    0  502  0.23467883559E+03 -0.25179835815E+03  0.20178647611E+04  0.20470165737E+04  0.46999998093E+01 0.  1.
</event>
<event>
 5   0  0.7348964E-06  0.2383216E+04  0.7818609E-02  0.8445814E-01
        1   -1    0    0  501    0  0.00000000000E+00  0.00000000000E+00  0.96483250574E+03  0.96483250575E+03  0.50400001928E-02 0. -1.
       -1   -1    0    0    0  501  0.00000000000E+00  0.00000000000E+00 -0.14716856081E+04  0.14716856081E+04  0.50400001928E-02 0.  1.
    10030    2    1    2    0    0  0.00000000000E+00  0.00000000000E+00 -0.50685310234E+03  0.24365181138E+04  0.23832164089E+04 0.  0.
        1    1    3    3  502    0 -0.41124475048E+03 -0.11018468668E+04 -0.57459200848E+02  0.11774932367E+04  0.50400001928E-02 0. -1.
       -1    1    3    3    0  502  0.41124475048E+03  0.11018468668E+04 -0.44939390149E+03  0.12590248772E+04  0.50400001928E-02 0.  1.
</event>
<event>
 5   0  0.6804685E-06  0.1951945E+04  0.7818609E-02  0.8629424E-01
        1   -1    0    0  501    0  0.00000000000E+00  0.00000000000E+00  0.51091004980E+03  0.51091004983E+03  0.50400001928E-02 0. -1.
       -1   -1    0    0    0  501  0.00000000000E+00  0.00000000000E+00 -0.18643635898E+04  0.18643635899E+04  0.50400001928E-02 0.  1.
    10030    2    1    2    0    0  0.00000000000E+00  0.00000000000E+00 -0.13534535400E+04  0.23752736397E+04  0.19519447683E+04 0.  0.
        2    1    3    3  502    0  0.49983306822E+03  0.95587023137E+02 -0.16901379144E+04  0.17650881408E+04  0.25500000920E-02 0.  1.
       -2    1    3    3    0  502 -0.49983306822E+03 -0.95587023137E+02  0.33668437437E+03  0.61018549887E+03  0.25500000920E-02 0. -1.
</event>
<event>
 5   0  0.1826851E-05  0.2607055E+04  0.7818609E-02  0.8365809E-01
        2   -1    0    0  501    0  0.00000000000E+00  0.00000000000E+00  0.16911104507E+04  0.16911104507E+04  0.25500000920E-02 0. -1.
       -2   -1    0    0    0  501  0.00000000000E+00  0.00000000000E+00 -0.10047737940E+04  0.10047737940E+04  0.25500000920E-02 0.  1.
    10030    2    1    2    0    0  0.00000000000E+00  0.00000000000E+00  0.68633665665E+03  0.26958842447E+04  0.26070546321E+04 0.  0.
        5    1    3    3  502    0  0.15856521504E+03  0.63913632682E+03 -0.82011676901E+03  0.10517850429E+04  0.46999998093E+01 0.  1.
       -5    1    3    3    0  502 -0.15856521504E+03 -0.63913632682E+03  0.15064534257E+04  0.16440992018E+04  0.46999998093E+01 0. -1.
</event>
<event>
 5   0  0.7351590E-06  0.2576265E+04  0.7818609E-02  0.8376308E-01
        1   -1    0    0  501    0  0.00000000000E+00  0.00000000000E+00  0.18676653667E+04  0.18676653667E+04  0.50400001928E-02 0.  1.
       -1   -1    0    0    0  501  0.00000000000E+00  0.00000000000E+00 -0.88842770927E+03  0.88842770928E+03  0.50400001928E-02 0. -1.
    10030    2    1    2    0    0  0.00000000000E+00  0.00000000000E+00  0.97923765746E+03  0.27560930760E+04  0.25762652530E+04 0.  0.
        3    1    3    3  502    0 -0.14431583699E+03  0.56564357530E+02  0.18576518699E+04  0.18641075794E+04  0.10100000352E+00 0.  1.
       -3    1    3    3    0  502  0.14431583699E+03 -0.56564357530E+02 -0.87841421248E+03  0.89198549665E+03  0.10100000352E+00 0. -1.
</event>
<event>
 5   0  0.1878160E-05  0.2600395E+04  0.7818609E-02  0.8368067E-01
       -2   -1    0    0    0  501  0.00000000000E+00  0.00000000000E+00  0.14938128712E+04  0.14938128712E+04  0.25500000920E-02 0. -1.
        2   -1    0    0  501    0  0.00000000000E+00  0.00000000000E+00 -0.11316768349E+04  0.11316768349E+04  0.25500000920E-02 0.  1.
    10030    2    1    2    0    0  0.00000000000E+00  0.00000000000E+00  0.36213603626E+03  0.26254897061E+04  0.26003949101E+04 0.  0.
        1    1    3    3  502    0  0.38829393736E+03  0.49908291090E+03  0.13281026098E+04  0.14709563134E+04  0.50400001928E-02 0. -1.
       -1    1    3    3    0  502 -0.38829393736E+03 -0.49908291090E+03 -0.96596657353E+03  0.11545333927E+04  0.50400001928E-02 0.  1.
</event>
<event>
 5   0  0.7348964E-06  0.2696504E+04  0.7818609E-02  0.8336140E-01
       -1   -1    0    0    0  501  0.00000000000E+00  0.00000000000E+00  0.11987590003E+04  0.11987590003E+04  0.50400001928E-02 0.  1.
        1   -1    0    0  501    0  0.00000000000E+00  0.00000000000E+00 -0.15163880387E+04  0.15163880387E+04  0.50400001928E-02 0. -1.
    10030    2    1    2    0    0  0.00000000000E+00  0.00000000000E+00 -0.31762903843E+03  0.27151470390E+04  0.26965042625E+04 0.  0.
        1    1    3    3  502    0  0.95976238041E+03  0.24954414320E+03 -0.10785670366E+04  0.14651699419E+04  0.50400001928E-02 0. -1.
       -1    1    3    3    0  502 -0.95976238041E+03 -0.24954414320E+03  0.76093799815E+03  0.12499770971E+04  0.50400001928E-02 0.  1.
</event>
<event>
 5   0  0.1878160E-05  0.2707477E+04  0.7818609E-02  0.8332583E-01
        2   -1    0    0  501    0  0.00000000000E+00  0.00000000000E+00  0.23016672753E+04  0.23016672753E+04  0.25500000920E-02 0. -1.
       -2   -1    0    0    0  501  0.00000000000E+00  0.00000000000E+00 -0.79620900875E+03  0.79620900876E+03  0.25500000920E-02 0.  1.
    10030    2    1    2    0    0  0.00000000000E+00  0.00000000000E+00  0.15054582665E+04  0.30978762840E+04  0.27074772167E+04 0.  0.
        1    1    3    3  502    0  0.71439932078E+03  0.25482123639E+03 -0.53025147731E+03  0.92545495906E+03  0.50400001928E-02 0.  1.
       -1    1    3    3    0  502 -0.71439932078E+03 -0.25482123639E+03  0.20357097438E+04  0.21724213250E+04  0.50400001928E-02 0. -1.
</event>
<event>
 5   0  0.1878160E-05  0.2204106E+04  0.7818609E-02  0.8516721E-01
       -2   -1    0    0    0  501  0.00000000000E+00  0.00000000000E+00  0.75941713489E+03  0.75941713490E+03  0.25500000920E-02 0.  1.
        2   -1    0    0  501    0  0.00000000000E+00  0.00000000000E+00 -0.15992798411E+04  0.15992798411E+04  0.25500000920E-02 0. -1.
    10030    2    1    2    0    0  0.00000000000E+00  0.00000000000E+00 -0.83986270617E+03  0.23586969760E+04  0.22041057278E+04 0.  0.
        1    1    3    3  502    0  0.50891022089E+03  0.23911726530E+03  0.59436167479E+03  0.81818853572E+03  0.50400001928E-02 0.  1.
       -1    1    3    3    0  502 -0.50891022089E+03 -0.23911726530E+03 -0.14342243810E+04  0.15405084402E+04  0.50400001928E-02 0. -1.
</event>
<event>
 5   0  0.1826851E-05  0.2627885E+04  0.7818609E-02  0.8358791E-01
        2   -1    0    0  501    0  0.00000000000E+00  0.00000000000E+00  0.12787756152E+04  0.12787756152E+04  0.25500000920E-02 0.  1.
       -2   -1    0    0    0  501  0.00000000000E+00  0.00000000000E+00 -0.13500764272E+04  0.13500764272E+04  0.25500000920E-02 0. -1.
    10030    2    1    2    0    0  0.00000000000E+00  0.00000000000E+00 -0.71300812073E+02  0.26288520424E+04  0.26278849395E+04 0.  0.
        5    1    3    3  502    0 -0.60708812036E+03 -0.12492157096E+03  0.11233359905E+04  0.12829915129E+04  0.46999998093E+01 0.  1.
       -5    1    3    3    0  502  0.60708812036E+03  0.12492157096E+03 -0.11946368026E+04  0.13458605295E+04  0.46999998093E+01 0. -1.
</event>
<event>
 5   0  0.1931119E-05  0.2698671E+04  0.7818609E-02  0.8335436E-01
        2   -1    0    0  501    0  0.00000000000E+00  0.00000000000E+00  0.90662749180E+03  0.90662749181E+03  0.25500000920E-02 0. -1.
       -2   -1    0    0    0  501  0.00000000000E+00  0.00000000000E+00 -0.20082194410E+04  0.20082194410E+04  0.25500000920E-02 0.  1.
    10030    2    1    2    0    0  0.00000000000E+00  0.00000000000E+00 -0.11015919491E+04  0.29148469328E+04  0.26986714915E+04 0.  0.
        3    1    3    3  502    0  0.49254249005E+03  0.64256978187E+03 -0.17167149681E+04  0.18980527708E+04  0.10100000352E+00 0.  1.
       -3    1    3    3    0  502 -0.49254249005E+03 -0.64256978187E+03  0.61512301894E+03  0.10167941619E+04  0.10100000352E+00 0. -1.
</event>
<event>
 5   0  0.6804685E-06  0.2711479E+04  0.7818609E-02  0.8331290E-01
        1   -1    0    0  501    0  0.00000000000E+00  0.00000000000E+00  0.19094498116E+04  0.19094498116E+04  0.50400001928E-02 0.  1.
       -1   -1    0    0    0  501  0.00000000000E+00  0.00000000000E+00 -0.96259624104E+03  0.96259624106E+03  0.50400001928E-02 0. -1.
    10030    2    1    2    0    0  0.00000000000E+00  0.00000000000E+00  0.94685357057E+03  0.28720460527E+04  0.27114787192E+04 0.  0.
        2    1    3    3  502    0  0.97659741155E+03  0.30225990507E+02  0.14689635052E+04  0.17642306806E+04  0.25500000920E-02 0.  1.
       -2    1    3    3    0  502 -0.97659741155E+03 -0.30225990507E+02 -0.52210993464E+03  0.11078153721E+04  0.25500000920E-02 0. -1.
</event>
<event>
 5   0  0.7351590E-06  0.1961111E+04  0.7818609E-02  0.8625021E-01
       -1   -1    0    0    0  501  0.00000000000E+00  0.00000000000E+00  0.11437763530E+04  0.11437763531E+04  0.50400001928E-02 0.  1.
        1   -1    0    0  501    0  0.00000000000E+00  0.00000000000E+00 -0.84062701182E+03  0.84062701183E+03  0.50400001928E-02 0. -1.
    10030    2    1    2    0    0  0.00000000000E+00  0.00000000000E+00  0.30314934123E+03  0.19844033649E+04  0.19611112134E+04 0.  0.
        3    1    3    3  502    0  0.62148867550E+03 -0.73878015432E+03  0.32520815984E+03  0.10187269740E+04  0.10100000352E+00 0. -1.
       -3    1    3    3    0  502 -0.62148867550E+03  0.73878015432E+03 -0.22058818609E+02  0.96567639086E+03  0.10100000352E+00 0.  1.
</event>
<event>
 5   0  0.6804685E-06  0.2661862E+04  0.7818609E-02  0.8347487E-01
       -1   -1    0    0    0  501  0.00000000000E+00  0.00000000000E+00  0.30906353378E+04  0.30906353378E+04  0.50400001928E-02 0. -1.
        1   -1    0    0  501    0  0.00000000000E+00  0.00000000000E+00 -0.57314327880E+03  0.57314327882E+03  0.50400001928E-02 0.  1.
    10030    2    1    2    0    0  0.00000000000E+00  0.00000000000E+00  0.25174920590E+04  0.36637786166E+04  0.26618616576E+04 0.  0.
        2    1    3    3  502    0 -0.12691382174E+03 -0.27786433636E+03  0.30417308106E+04  0.30570315719E+04  0.25500000920E-02 0. -1.
       -2    1    3    3    0  502  0.12691382174E+03  0.27786433636E+03 -0.52423875160E+03  0.60674704470E+03  0.25500000920E-02 0.  1.
</event>
<event>
 5   0  0.7348964E-06  0.2698739E+04  0.7818609E-02  0.8335414E-01
        1   -1    0    0  501    0  0.00000000000E+00  0.00000000000E+00  0.14645899793E+04  0.14645899793E+04  0.50400001928E-02 0.  1.
       -1   -1    0    0    0  501  0.00000000000E+00  0.00000000000E+00 -0.12432132498E+04  0.12432132498E+04  0.50400001928E-02 0. -1.
    10030    2    1    2    0    0  0.00000000000E+00  0.00000000000E+00  0.22137672956E+03  0.27078032291E+04  0.26987387186E+04 0.  0.
        1    1    3    3  502    0  0.82375779200E+03 -0.10100370079E+04 -0.23983587472E+03  0.13252444696E+04  0.50400001928E-02 0. -1.
       -1    1    3    3    0  502 -0.82375779200E+03  0.10100370079E+04  0.46121260429E+03  0.13825587596E+04  0.50400001928E-02 0.  1.
</event>
<event>
 5   0  0.1878160E-05  0.2775091E+04  0.7818609E-02  0.8311044E-01
       -2   -1    0    0    0  501  0.00000000000E+00  0.00000000000E+00  0.11726047601E+04  0.11726047601E+04  0.25500000920E-02 0. -1.
        2   -1    0    0  501    0  0.00000000000E+00  0.00000000000E+00 -0.16418849110E+04  0.16418849110E+04  0.25500000920E-02 0.  1.
    10030    2    1    2    0    0  0.00000000000E+00  0.00000000000E+00 -0.46928015093E+03  0.28144896712E+04  0.27750906740E+04 0.  0.
        1    1    3    3  502    0  0.92172348341E+03 -0.90001447208E+03 -0.75740135249E+03  0.14944085916E+04  0.50400001928E-02 0.  1.
       -1    1    3    3    0  502 -0.92172348341E+03  0.90001447208E+03  0.28812120157E+03  0.13200810796E+04  0.50400001928E-02 0. -1.
</event>
<event>
 5   0  0.7351590E-06  0.2708347E+04  0.7818609E-02  0.8332302E-01
       -1   -1    0    0    0  501  0.00000000000E+00  0.00000000000E+00  0.77211668959E+03  0.77211668961E+03  0.50400001928E-02 0.  1.
        1   -1    0    0  501    0  0.00000000000E+00  0.00000000000E+00 -0.23750115801E+04  0.23750115801E+04  0.50400001928E-02 0. -1.
    10030    2    1    2    0    0  0.00000000000E+00  0.00000000000E+00 -0.16028948905E+04  0.31471282697E+04  0.27083471558E+04 0.  0.
        3    1    3    3  502    0  0.38807579553E+03  0.29590214012E+02 -0.23086194705E+04  0.23411967610E+04  0.10100000352E+00 0. -1.
       -3    1    3    3    0  502 -0.38807579553E+03 -0.29590214012E+02  0.70572457997E+03  0.80593150876E+03  0.10100000352E+00 0.  1.
</event>
<event>
 5   0  0.1788003E-05  0.2647510E+04  0.7818609E-02  0.8352240E-01
        2   -1    0    0  501    0  0.00000000000E+00  0.00000000000E+00  0.15911962648E+04  0.15911962648E+04  0.25500000920E-02 0.  1.
       -2   -1    0    0    0  501  0.00000000000E+00  0.00000000000E+00 -0.11012639549E+04  0.11012639549E+04  0.25500000920E-02 0. -1.
    10030    2    1    2    0    0  0.00000000000E+00  0.00000000000E+00  0.48993230990E+03  0.26924602197E+04  0.26475098425E+04 0.  0.
        2    1    3    3  502    0 -0.68287771103E+02 -0.36296031841E+03 -0.10478064326E+04  0.11109913288E+04  0.25500000920E-02 0. -1.
       -2    1    3    3    0  502  0.68287771103E+02  0.36296031841E+03  0.15377387425E+04  0.15814688909E+04  0.25500000920E-02 0.  1.
</event>
<event>
 5   0  0.7600052E-06  0.2698832E+04  0.7818609E-02  0.8335384E-01
       -1   -1    0    0    0  501  0.00000000000E+00  0.00000000000E+00  0.94864491492E+03  0.94864491494E+03  0.50400001928E-02 0.  1.
        1   -1    0    0  501    0  0.00000000000E+00  0.00000000000E+00 -0.19195002698E+04  0.19195002698E+04  0.50400001928E-02 0. -1.
    10030    2    1    2    0    0  0.00000000000E+00  0.00000000000E+00 -0.97085535483E+03  0.28681451847E+04  0.26988324662E+04 0.  0.
        5    1    3    3  502    0  0.83700833144E+03 -0.10111986168E+04 -0.81777091079E+03  0.15465694107E+04  0.46999998093E+01 0. -1.
       -5    1    3    3    0  502 -0.83700833144E+03  0.10111986168E+04 -0.15308444404E+03  0.13215757740E+04  0.46999998093E+01 0.  1.
</event>
<event>
 5   0  0.1881699E-05  0.2464016E+04  0.7818609E-02  0.8415918E-01
        2   -1    0    0  501    0  0.00000000000E+00  0.00000000000E+00  0.34995421432E+04  0.34995421432E+04  0.25500000920E-02 0.  1.
       -2   -1    0    0    0  501  0.00000000000E+00  0.00000000000E+00 -0.43372641387E+03  0.43372641388E+03  0.25500000920E-02 0. -1.
    10030    2    1    2    0    0  0.00000000000E+00  0.00000000000E+00  0.30658157294E+04  0.39332685571E+04  0.24640161233E+04 0.  0.
        4    1    3    3  502    0  0.34660648420E+03  0.94811794335E+03  0.40554443094E+03  0.10879023797E+04  0.12699999809E+01 0. -1.
       -4    1    3    3    0  502 -0.34660648420E+03 -0.94811794335E+03  0.26602712984E+04  0.28453661774E+04  0.12699999809E+01 0.  1.
</event>
<event>
 5   0  0.1878160E-05  0.2665404E+04  0.7818609E-02  0.8346318E-01
        2   -1    0    0  501    0  0.00000000000E+00  0.00000000000E+00  0.17277919687E+04  0.17277919687E+04  0.25500000920E-02 0.  1.
       -2   -1    0    0    0  501  0.00000000000E+00  0.00000000000E+00 -0.10279562710E+04  0.10279562710E+04  0.25500000920E-02 0. -1.
    10030    2    1    2    0    0  0.00000000000E+00  0.00000000000E+00  0.69983569778E+03  0.27557482397E+04  0.26654039763E+04 0.  0.
        1    1    3    3  502    0  0.41846699673E+03  0.94170256142E+02  0.16544755563E+04  0.17091729084E+04  0.50400001928E-02 0.  1.
       -1    1    3    3    0  502 -0.41846699673E+03 -0.94170256142E+02 -0.95463985852E+03  0.10465753313E+04  0.50400001928E-02 0. -1.
</event>
<event>
 5   0  0.1878160E-05  0.2678348E+04  0.7818609E-02  0.8342065E-01
        2   -1    0    0  501    0  0.00000000000E+00  0.00000000000E+00  0.17811313245E+04  0.17811313245E+04  0.25500000920E-02 0. -1.
       -2   -1    0    0    0  501  0.00000000000E+00  0.00000000000E+00 -0.10068809425E+04  0.10068809425E+04  0.25500000920E-02 0.  1.
    10030    2    1    2    0    0  0.00000000000E+00  0.00000000000E+00  0.77425038202E+03  0.27880122669E+04  0.26783481377E+04 0.  0.
        1    1    3    3  502    0  0.42818310593E+02 -0.50755071181E+03 -0.90211161818E+03  0.10359761119E+04  0.50400001928E-02 0.  1.
       -1    1    3    3    0  502 -0.42818310593E+02  0.50755071181E+03  0.16763620002E+04  0.17520361550E+04  0.50400001928E-02 0. -1.
</event>
<event>
 5   0  0.7754912E-06  0.2869516E+04  0.7818609E-02  0.8282006E-01
       -1   -1    0    0    0  501  0.00000000000E+00  0.00000000000E+00  0.13321573375E+04  0.13321573375E+04  0.50400001928E-02 0. -1.
        1   -1    0    0  501    0  0.00000000000E+00  0.00000000000E+00 -0.15452608120E+04  0.15452608120E+04  0.50400001928E-02 0.  1.
    10030    2    1    2    0    0  0.00000000000E+00  0.00000000000E+00 -0.21310347449E+03  0.28774181495E+04  0.28695160073E+04 0.  0.
        4    1    3    3  502    0  0.15526133683E+03  0.43021926080E+03 -0.14701989525E+04  0.15397016815E+04  0.12699999809E+01 0.  1.
       -4    1    3    3    0  502 -0.15526133683E+03 -0.43021926080E+03  0.12570954780E+04  0.13377164680E+04  0.12699999809E+01 0. -1.
</event>
<event>
 5   0  0.1881699E-05  0.2696790E+04  0.7818609E-02  0.8336047E-01
       -2   -1    0    0    0  501  0.00000000000E+00  0.00000000000E+00  0.90615718364E+03  0.90615718365E+03  0.25500000920E-02 0. -1.
        2   -1    0    0  501    0  0.00000000000E+00  0.00000000000E+00 -0.20064603002E+04  0.20064603002E+04  0.25500000920E-02 0.  1.
    10030    2    1    2    0    0  0.00000000000E+00  0.00000000000E+00 -0.11003031165E+04  0.29126174838E+04  0.26967895096E+04 0.  0.
        4    1    3    3  502    0 -0.53628162386E+03 -0.10047247880E+04  0.22949121204E+03  0.11617821263E+04  0.12699999809E+01 0. -1.
       -4    1    3    3    0  502  0.53628162386E+03  0.10047247880E+04 -0.13297943286E+04  0.17508353575E+04  0.12699999809E+01 0.  1.
</event>
<event>
 5   0  0.1881699E-05  0.2576520E+04  0.7818609E-02  0.8376221E-01
        2   -1    0    0  501    0  0.00000000000E+00  0.00000000000E+00  0.13730035957E+04  0.13730035957E+04  0.25500000920E-02 0.  1.
       -2   -1    0    0    0  501  0.00000000000E+00  0.00000000000E+00 -0.12087473108E+04  0.12087473108E+04  0.25500000920E-02 0. -1.
    10030    2    1    2    0    0  0.00000000000E+00  0.00000000000E+00  0.16425628487E+03  0.25817509066E+04  0.25765204475E+04 0.  0.
        4    1    3    3  502    0 -0.25219517666E+03  0.52142523862E+03  0.12351709167E+04  0.13642343981E+04  0.12699999809E+01 0.  1.
       -4    1    3    3    0  502  0.25219517666E+03 -0.52142523862E+03 -0.10709146319E+04  0.12175165084E+04  0.12699999809E+01 0. -1.
</event>
<event>
 5   0  0.6804685E-06  0.2501131E+04  0.7818609E-02  0.8402583E-01
        1   -1    0    0  501    0  0.00000000000E+00  0.00000000000E+00  0.16221873482E+04  0.16221873482E+04  0.50400001928E-02 0.  1.
       -1   -1    0    0    0  501  0.00000000000E+00  0.00000000000E+00 -0.96407747568E+03  0.96407747570E+03  0.50400001928E-02 0. -1.
    10030    2    1    2    0    0  0.00000000000E+00  0.00000000000E+00  0.65810987250E+03  0.25862648239E+04  0.25011311711E+04 0.  0.
        2    1    3    3  502    0 -0.11372513673E+04 -0.38762405385E+01  0.86691238130E+03  0.14299974736E+04  0.25500000920E-02 0. -1.
       -2    1    3    3    0  502  0.11372513673E+04  0.38762405385E+01 -0.20880250880E+03  0.11562673503E+04  0.25500000920E-02 0.  1.
</event>
<event>
 5   0  0.1878160E-05  0.2396727E+04  0.7818609E-02  0.8440730E-01
       -2   -1    0    0    0  501  0.00000000000E+00  0.00000000000E+00  0.96729671576E+03  0.96729671576E+03  0.25500000920E-02 0. -1.
        2   -1    0    0  501    0  0.00000000000E+00  0.00000000000E+00 -0.14846275752E+04  0.14846275752E+04  0.25500000920E-02 0.  1.
    10030    2    1    2    0    0  0.00000000000E+00  0.00000000000E+00 -0.51733085941E+03  0.24519242909E+04  0.23967272499E+04 0.  0.
        1    1    3    3  502    0 -0.29314618637E+03  0.10339504350E+04 -0.80105205118E+03  0.13404001557E+04  0.50400001928E-02 0.  1.
       -1    1    3    3    0  502  0.29314618637E+03 -0.10339504350E+04  0.28372119177E+03  0.11115241353E+04  0.50400001928E-02 0. -1.
</event>
<event>
 5   0  0.7600052E-06  0.2719150E+04  0.7818609E-02  0.8328818E-01
       -1   -1    0    0    0  501  0.00000000000E+00  0.00000000000E+00  0.10434050418E+04  0.10434050418E+04  0.50400001928E-02 0.  1.
        1   -1    0    0  501    0  0.00000000000E+00  0.00000000000E+00 -0.17715495084E+04  0.17715495084E+04  0.50400001928E-02 0. -1.
    10030    2    1    2    0    0  0.00000000000E+00  0.00000000000E+00 -0.72814446661E+03  0.28149545502E+04  0.27191496382E+04 0.  0.
        5    1    3    3  502    0 -0.12205616712E+03 -0.13223082826E+04 -0.62208579466E+02  0.13293941852E+04  0.46999998093E+01 0.  1.
       -5    1    3    3    0  502  0.12205616712E+03  0.13223082826E+04 -0.66593588714E+03  0.14855603650E+04  0.46999998093E+01 0. -1.
</event>
<event>
 5   0  0.7600052E-06  0.2689775E+04  0.7818609E-02  0.8338330E-01
       -1   -1    0    0    0  501  0.00000000000E+00  0.00000000000E+00  0.13643304201E+04  0.13643304201E+04  0.50400001928E-02 0. -1.
        1   -1    0    0  501    0  0.00000000000E+00  0.00000000000E+00 -0.13257219411E+04  0.13257219411E+04  0.50400001928E-02 0.  1.
    10030    2    1    2    0    0  0.00000000000E+00  0.00000000000E+00  0.38608478983E+02  0.26900523613E+04  0.26897752865E+04 0.  0.
        5    1    3    3  502    0  0.75220281689E+03 -0.32615218933E+03  0.10854892669E+04  0.13603284041E+04  0.46999998093E+01 0. -1.
       -5    1    3    3    0  502 -0.75220281689E+03  0.32615218933E+03 -0.10468807879E+04  0.13297239572E+04  0.46999998093E+01 0.  1.
</event>
<event>
 5   0  0.7600052E-06  0.2582192E+04  0.7818609E-02  0.8374275E-01
        1   -1    0    0  501    0  0.00000000000E+00  0.00000000000E+00  0.13096022975E+04  0.13096022975E+04  0.50400001928E-02 0.  1.
       -1   -1    0    0    0  501  0.00000000000E+00  0.00000000000E+00 -0.12728517096E+04  0.12728517096E+04  0.50400001928E-02 0. -1.
    10030    2    1    2    0    0  0.00000000000E+00  0.00000000000E+00  0.36750587956E+02  0.25824540071E+04  0.25821924973E+04 0.  0.
        5    1    3    3  502    0 -0.13684036209E+03 -0.96947439437E+03 -0.82331646672E+03  0.12792489908E+04  0.46999998093E+01 0. -1.
       -5    1    3    3    0  502  0.13684036209E+03  0.96947439437E+03  0.86006705468E+03  0.13032050163E+04  0.46999998093E+01 0.  1.
</event>
<event>
 5   0  0.6804685E-06  0.2655040E+04  0.7818609E-02  0.8349742E-01
        1   -1    0    0  501    0  0.00000000000E+00  0.00000000000E+00  0.18463777029E+04  0.18463777029E+04  0.50400001928E-02 0.  1.
       -1   -1    0    0    0  501  0.00000000000E+00  0.00000000000E+00 -0.95446853409E+03  0.95446853410E+03  0.50400001928E-02 0. -1.
    10030    2    1    2    0    0  0.00000000000E+00  0.00000000000E+00  0.89190916880E+03  0.28008462370E+04  0.26550400520E+04 0.  0.
        2    1    3    3  502    0  0.37029370048E+03  0.73779996791E+03  0.15426841165E+04  0.17496686831E+04  0.25500000920E-02 0.  1.
       -2    1    3    3    0  502 -0.37029370048E+03 -0.73779996791E+03 -0.65077494771E+03  0.10511775539E+04  0.25500000920E-02 0. -1.
</event>
<event>
 5   0  0.1931119E-05  0.2670983E+04  0.7818609E-02  0.8344482E-01
       -2   -1    0    0    0  501  0.00000000000E+00  0.00000000000E+00  0.55510051954E+03  0.55510051955E+03  0.25500000920E-02 0.  1.
        2   -1    0    0  501    0  0.00000000000E+00  0.00000000000E+00 -0.32129981833E+04  0.32129981833E+04  0.25500000920E-02 0. -1.
    10030    2    1    2    0    0  0.00000000000E+00  0.00000000000E+00 -0.26578976637E+04  0.37680987028E+04  0.26709825614E+04 0.  0.
        3    1    3    3  502    0 -0.11338043237E+04  0.53459865860E+02 -0.33622841364E+03  0.11838157619E+04  0.10100000352E+00 0. -1.
       -3    1    3    3    0  502  0.11338043237E+04 -0.53459865860E+02 -0.23216692501E+04  0.25842829409E+04  0.10100000352E+00 0.  1.
</event>
<event>
 5   0  0.1826851E-05  0.2775532E+04  0.7818609E-02  0.8310905E-01
        2   -1    0    0  501    0  0.00000000000E+00  0.00000000000E+00  0.10395081692E+04  0.10395081692E+04  0.25500000920E-02 0. -1.
       -2   -1    0    0    0  501  0.00000000000E+00  0.00000000000E+00 -0.18526971451E+04  0.18526971451E+04  0.25500000920E-02 0.  1.
    10030    2    1    2    0    0  0.00000000000E+00  0.00000000000E+00 -0.81318897590E+03  0.28922053143E+04  0.27755315292E+04 0.  0.
        5    1    3    3  502    0 -0.40798514634E+03  0.11812562404E+04  0.22213754164E+03  0.12693247663E+04  0.46999998093E+01 0. -1.
       -5    1    3    3    0  502  0.40798514634E+03 -0.11812562404E+04 -0.10353265175E+04  0.16228805480E+04  0.46999998093E+01 0.  1.
</event>
<event>
 5   0  0.1788003E-05  0.2581494E+04  0.7818609E-02  0.8374515E-01
       -2   -1    0    0    0  501  0.00000000000E+00  0.00000000000E+00  0.15805993304E+04  0.15805993304E+04  0.25500000920E-02 0. -1.
        2   -1    0    0  501    0  0.00000000000E+00  0.00000000000E+00 -0.10540480298E+04  0.10540480298E+04  0.25500000920E-02 0.  1.
    10030    2    1    2    0    0  0.00000000000E+00  0.00000000000E+00  0.52655130068E+03  0.26346473602E+04  0.25814938389E+04 0.  0.
        2    1    3    3  502    0  0.24526231338E+03 -0.43894754805E+03  0.14765333918E+04  0.15598010801E+04  0.25500000920E-02 0. -1.
       -2    1    3    3    0  502 -0.24526231338E+03  0.43894754805E+03 -0.94998209115E+03  0.10748462801E+04  0.25500000920E-02 0.  1.
</event>
<event>
 5   0  0.7754912E-06  0.2705675E+04  0.7818609E-02  0.8333166E-01
        1   -1    0    0  501    0  0.00000000000E+00  0.00000000000E+00  0.12727844304E+04  0.12727844305E+04  0.50400001928E-02 0.  1.
       -1   -1    0    0    0  501  0.00000000000E+00  0.00000000000E+00 -0.14379260543E+04  0.14379260544E+04  0.50400001928E-02 0. -1.
    10030    2    1    2    0    0  0.00000000000E+00  0.00000000000E+00 -0.16514162390E+03  0.27107104848E+04  0.27056754381E+04 0.  0.
        4    1    3    3  502    0  0.30947457168E+03 -0.36921009162E+03 -0.13490742679E+04  0.14325130350E+04  0.12699999809E+01 0. -1.
       -4    1    3    3    0  502 -0.30947457168E+03  0.36921009162E+03  0.11839326440E+04  0.12781974498E+04  0.12699999809E+01 0.  1.
</event>
<event>
 5   0  0.1878160E-05  0.2731190E+04  0.7818609E-02  0.8324955E-01
        2   -1    0    0  501    0  0.00000000000E+00  0.00000000000E+00  0.23688651422E+04  0.23688651422E+04  0.25500000920E-02 0.  1.
       -2   -1    0    0    0  501  0.00000000000E+00  0.00000000000E+00 -0.78723309549E+03  0.78723309550E+03  0.25500000920E-02 0. -1.
    10030    2    1    2    0    0  0.00000000000E+00  0.00000000000E+00  0.15816320467E+04  0.31560982377E+04  0.27311895128E+04 0.  0.
        1    1    3    3  502    0 -0.62642332981E+03 -0.12118971428E+04  0.72006901570E+03  0.15425953002E+04  0.50400001928E-02 0.  1.
       -1    1    3    3    0  502  0.62642332981E+03  0.12118971428E+04  0.86156303099E+03  0.16135029375E+04  0.50400001928E-02 0. -1.
</event>
<event>
 5   0  0.6804685E-06  0.2698001E+04  0.7818609E-02  0.8335654E-01
        1   -1    0    0  501    0  0.00000000000E+00  0.00000000000E+00  0.12921317116E+04  0.12921317117E+04  0.50400001928E-02 0. -1.
       -1   -1    0    0    0  501  0.00000000000E+00  0.00000000000E+00 -0.14083726351E+04  0.14083726352E+04  0.50400001928E-02 0.  1.
    10030    2    1    2    0    0  0.00000000000E+00  0.00000000000E+00 -0.11624092350E+03  0.27005043468E+04  0.26980014408E+04 0.  0.
        2    1    3    3  502    0  0.11311617471E+04 -0.60640140999E+02  0.67508815404E+03  0.13186918292E+04  0.25500000920E-02 0. -1.
       -2    1    3    3    0  502 -0.11311617471E+04  0.60640140999E+02 -0.79132907755E+03  0.13818125176E+04  0.25500000920E-02 0.  1.
</event>
<event>
 5   0  0.7348964E-06  0.2284344E+04  0.7818609E-02  0.8484120E-01
       -1   -1    0    0    0  501  0.00000000000E+00  0.00000000000E+00  0.10133344003E+04  0.10133344003E+04  0.50400001928E-02 0.  1.
        1   -1    0    0  501    0  0.00000000000E+00  0.00000000000E+00 -0.12873902057E+04  0.12873902058E+04  0.50400001928E-02 0. -1.
    10030    2    1    2    0    0  0.00000000000E+00  0.00000000000E+00 -0.27405580545E+03  0.23007246061E+04  0.22843439164E+04 0.  0.
        1    1    3    3  502    0  0.26084611442E+03  0.38512629945E+03  0.91361776903E+03  0.10252123633E+04  0.50400001928E-02 0.  1.
       -1    1    3    3    0  502 -0.26084611442E+03 -0.38512629945E+03 -0.11876735745E+04  0.12755122428E+04  0.50400001928E-02 0. -1.
</event>
<event>
 5   0  0.7351590E-06  0.2664930E+04  0.7818609E-02  0.8346474E-01
        1   -1    0    0  501    0  0.00000000000E+00  0.00000000000E+00  0.15926875553E+04  0.15926875553E+04  0.50400001928E-02 0. -1.
       -1   -1    0    0    0  501  0.00000000000E+00  0.00000000000E+00 -0.11147591093E+04  0.11147591093E+04  0.50400001928E-02 0.  1.
    10030    2    1    2    0    0  0.00000000000E+00  0.00000000000E+00  0.47792844597E+03  0.27074466646E+04  0.26649299883E+04 0.  0.
        3    1    3    3  502    0  0.11180065615E+04 -0.66700092060E+03 -0.49527491464E+02  0.13027977135E+04  0.10100000352E+00 0.  1.
       -3    1    3    3    0  502 -0.11180065615E+04  0.66700092060E+03  0.52745593743E+03  0.14046489511E+04  0.10100000352E+00 0. -1.
</event>
<event>
 5   0  0.6804685E-06  0.2498941E+04  0.7818609E-02  0.8403363E-01
       -1   -1    0    0    0  501  0.00000000000E+00  0.00000000000E+00  0.19037202392E+04  0.19037202392E+04  0.50400001928E-02 0.  1.
        1   -1    0    0  501    0  0.00000000000E+00  0.00000000000E+00 -0.82006587508E+03  0.82006587510E+03  0.50400001928E-02 0. -1.
    10030    2    1    2    0    0  0.00000000000E+00  0.00000000000E+00  0.10836543641E+04  0.27237861143E+04  0.24989405786E+04 0.  0.
        2    1    3    3  502    0  0.32928947798E+03 -0.10852484204E+04  0.11133951350E+04  0.15892905401E+04  0.25500000920E-02 0.  1.
       -2    1    3    3    0  502 -0.32928947798E+03  0.10852484204E+04 -0.29740770945E+02  0.11344955741E+04  0.25500000920E-02 0. -1.
</event>
<event>
 5   0  0.7351590E-06  0.2702615E+04  0.7818609E-02  0.8334157E-01
       -1   -1    0    0    0  501  0.00000000000E+00  0.00000000000E+00  0.13085023337E+04  0.13085023337E+04  0.50400001928E-02 0.  1.
        1   -1    0    0  501    0  0.00000000000E+00  0.00000000000E+00 -0.13955126234E+04  0.13955126234E+04  0.50400001928E-02 0. -1.
    10030    2    1    2    0    0  0.00000000000E+00  0.00000000000E+00 -0.87010289690E+02  0.27040149571E+04  0.27026146780E+04 0.  0.
        3    1    3    3  502    0 -0.66356562598E+02  0.13344039411E+04  0.15907060366E+03  0.13454889589E+04  0.10100000352E+00 0.  1.
       -3    1    3    3    0  502  0.66356562598E+02 -0.13344039411E+04 -0.24608089335E+03  0.13585259982E+04  0.10100000352E+00 0. -1.
</event>
<event>
 5   0  0.7348964E-06  0.2684119E+04  0.7818609E-02  0.8340176E-01
        1   -1    0    0  501    0  0.00000000000E+00  0.00000000000E+00  0.12685820235E+04  0.12685820235E+04  0.50400001928E-02 0.  1.
       -1   -1    0    0    0  501  0.00000000000E+00  0.00000000000E+00 -0.14197929006E+04  0.14197929006E+04  0.50400001928E-02 0. -1.
    10030    2    1    2    0    0  0.00000000000E+00  0.00000000000E+00 -0.15121087713E+03  0.26883749242E+04  0.26841190368E+04 0.  0.
        1    1    3    3  502    0  0.66542404624E+03  0.31731532837E+03 -0.11988315649E+04  0.14073646649E+04  0.50400001928E-02 0. -1.
       -1    1    3    3    0  502 -0.66542404624E+03 -0.31731532837E+03  0.10476206878E+04  0.12810102593E+04  0.50400001928E-02 0.  1.
</event>
<event>
 5   0  0.6804685E-06  0.2696952E+04  0.7818609E-02  0.8335995E-01
       -1   -1    0    0    0  501  0.00000000000E+00  0.00000000000E+00  0.13854926013E+04  0.13854926014E+04  0.50400001928E-02 0. -1.
        1   -1    0    0  501    0  0.00000000000E+00  0.00000000000E+00 -0.13124482799E+04  0.13124482799E+04  0.50400001928E-02 0.  1.
    10030    2    1    2    0    0  0.00000000000E+00  0.00000000000E+00  0.73044321472E+02  0.26979408812E+04  0.26969518953E+04 0.  0.
        2    1    3    3  502    0  0.59917279969E+03  0.21003836011E+02  0.12448302227E+04  0.13816842940E+04  0.25500000920E-02 0. -1.
       -2    1    3    3    0  502 -0.59917279969E+03 -0.21003836011E+02 -0.11717859012E+04  0.13162565872E+04  0.25500000920E-02 0.  1.
</event>
<event>
 5   0  0.1788003E-05  0.2661311E+04  0.7818609E-02  0.8347668E-01
        2   -1    0    0  501    0  0.00000000000E+00  0.00000000000E+00  0.75237817244E+03  0.75237817244E+03  0.25500000920E-02 0. -1.
       -2   -1    0    0    0  501  0.00000000000E+00  0.00000000000E+00 -0.23533964629E+04  0.23533964629E+04  0.25500000920E-02 0.  1.
    10030    2    1    2    0    0  0.00000000000E+00  0.00000000000E+00 -0.16010182904E+04  0.31057746353E+04  0.26613110527E+04 0.  0.
        2    1    3    3  502    0 -0.81325404810E+02  0.12040602641E+04 -0.14628705651E+03  0.12156376286E+04  0.25500000920E-02 0.  1.
       -2    1    3    3    0  502  0.81325404810E+02 -0.12040602641E+04 -0.14547312339E+04  0.18901370067E+04  0.25500000920E-02 0. -1.
</event>
<event>
 5   0  0.6804685E-06  0.2683801E+04  0.7818609E-02  0.8340280E-01
       -1   -1    0    0    0  501  0.00000000000E+00  0.00000000000E+00  0.18314244221E+04  0.18314244221E+04  0.50400001928E-02 0.  1.
        1   -1    0    0  501    0  0.00000000000E+00  0.00000000000E+00 -0.98322209704E+03  0.98322209705E+03  0.50400001928E-02 0. -1.
    10030    2    1    2    0    0  0.00000000000E+00  0.00000000000E+00  0.84820232509E+03  0.28146465192E+04  0.26838010067E+04 0.  0.
        2    1    3    3  502    0 -0.91204155280E+03  0.88131701092E+03 -0.35628167445E+02  0.12687824219E+04  0.25500000920E-02 0. -1.
       -2    1    3    3    0  502  0.91204155280E+03 -0.88131701092E+03  0.88383049253E+03  0.15458640973E+04  0.25500000920E-02 0.  1.
</event>
<event>
 5   0  0.7600052E-06  0.2665572E+04  0.7818609E-02  0.8346263E-01
        1   -1    0    0  501    0  0.00000000000E+00  0.00000000000E+00  0.14295170571E+04  0.14295170571E+04  0.50400001928E-02 0.  1.
       -1   -1    0    0    0  501  0.00000000000E+00  0.00000000000E+00 -0.12426007304E+04  0.12426007304E+04  0.50400001928E-02 0. -1.
    10030    2    1    2    0    0  0.00000000000E+00  0.00000000000E+00  0.18691632669E+03  0.26721177875E+04  0.26655723132E+04 0.  0.
        5    1    3    3  502    0  0.80027719730E+03 -0.33377461927E+03 -0.92117730051E+03  0.12650845023E+04  0.46999998093E+01 0. -1.
       -5    1    3    3    0  502 -0.80027719730E+03  0.33377461927E+03  0.11080936272E+04  0.14070332852E+04  0.46999998093E+01 0.  1.
</event>
<event>
 5   0  0.1931119E-05  0.2705495E+04  0.7818609E-02  0.8333224E-01
        2   -1    0    0  501    0  0.00000000000E+00  0.00000000000E+00  0.18497506361E+04  0.18497506361E+04  0.25500000920E-02 0.  1.
       -2   -1    0    0    0  501  0.00000000000E+00  0.00000000000E+00 -0.98928270552E+03  0.98928270553E+03  0.25500000920E-02 0. -1.
    10030    2    1    2    0    0  0.00000000000E+00  0.00000000000E+00  0.86046793055E+03  0.28390333416E+04  0.27054953807E+04 0.  0.
        3    1    3    3  502    0 -0.40290116195E+03  0.12676277158E+04  0.17166368636E+03  0.13411479424E+04  0.10100000352E+00 0. -1.
       -3    1    3    3    0  502  0.40290116195E+03 -0.12676277158E+04  0.68880424419E+03  0.14978853992E+04  0.10100000352E+00 0.  1.
</event>
<event>
 5   0  0.1931119E-05  0.2769527E+04  0.7818609E-02  0.8312792E-01
        2   -1    0    0  501    0  0.00000000000E+00  0.00000000000E+00  0.13851304096E+04  0.13851304096E+04  0.25500000920E-02 0.  1.
       -2   -1    0    0    0  501  0.00000000000E+00  0.00000000000E+00 -0.13843971414E+04  0.13843971414E+04  0.25500000920E-02 0. -1.
    10030    2    1    2    0    0  0.00000000000E+00  0.00000000000E+00  0.73326814802E+00  0.27695275510E+04  0.27695274539E+04 0.  0.
        3    1    3    3  502    0  0.58814666026E+03  0.60962046880E+03  0.10958195283E+04  0.13850538108E+04  0.10100000352E+00 0.  1.
       -3    1    3    3    0  502 -0.58814666026E+03 -0.60962046880E+03 -0.10950862602E+04  0.13844737402E+04  0.10100000352E+00 0. -1.
</event>
<event>
 5   0  0.1881699E-05  0.2637834E+04  0.7818609E-02  0.8355462E-01
        2   -1    0    0  501    0  0.00000000000E+00  0.00000000000E+00  0.19784744086E+04  0.19784744086E+04  0.25500000920E-02 0. -1.
       -2   -1    0    0    0  501  0.00000000000E+00  0.00000000000E+00 -0.87923423671E+03  0.87923423672E+03  0.25500000920E-02 0.  1.
    10030    2    1    2    0    0  0.00000000000E+00  0.00000000000E+00  0.10992401719E+04  0.28577086453E+04  0.26378342909E+04 0.  0.
        4    1    3    3  502    0  0.78731800326E+03 -0.10533213425E+04  0.44028536653E+03  0.13867978604E+04  0.12699999809E+01 0.  1.
       -4    1    3    3    0  502 -0.78731800326E+03  0.10533213425E+04  0.65895480537E+03  0.14709107849E+04  0.12699999809E+01 0. -1.
</event>
<event>
 5   0  0.1931119E-05  0.2561873E+04  0.7818609E-02  0.8381269E-01
       -2   -1    0    0    0  501  0.00000000000E+00  0.00000000000E+00  0.79822093140E+03  0.79822093141E+03  0.25500000920E-02 0. -1.
        2   -1    0    0  501    0  0.00000000000E+00  0.00000000000E+00 -0.20555686445E+04  0.20555686445E+04  0.25500000920E-02 0.  1.
    10030    2    1    2    0    0  0.00000000000E+00  0.00000000000E+00 -0.12573477131E+04  0.28537895759E+04  0.25618726885E+04 0.  0.
        3    1    3    3  502    0 -0.11160429491E+04 -0.60171234994E+03 -0.42573890567E+03  0.13374839223E+04  0.10100000352E+00 0. -1.
       -3    1    3    3    0  502  0.11160429491E+04  0.60171234994E+03 -0.83160880744E+03  0.15163056536E+04  0.10100000352E+00 0.  1.
</event>
<event>
 5   0  0.1878160E-05  0.2726956E+04  0.7818609E-02  0.8326311E-01
       -2   -1    0    0    0  501  0.00000000000E+00  0.00000000000E+00  0.11346627129E+04  0.11346627129E+04  0.25500000920E-02 0.  1.
        2   -1    0    0  501    0  0.00000000000E+00  0.00000000000E+00 -0.16384356279E+04  0.16384356279E+04  0.25500000920E-02 0. -1.
    10030    2    1    2    0    0  0.00000000000E+00  0.00000000000E+00 -0.50377291506E+03  0.27730983408E+04  0.27269556758E+04 0.  0.
        1    1    3    3  502    0  0.58520349536E+03  0.12071058963E+04 -0.38243593140E+01  0.13414851478E+04  0.50400001928E-02 0.  1.
       -1    1    3    3    0  502 -0.58520349536E+03 -0.12071058963E+04 -0.49994855574E+03  0.14316131930E+04  0.50400001928E-02 0. -1.
</event>
<event>
 5   0  0.1826851E-05  0.2838265E+04  0.7818609E-02  0.8291486E-01
       -2   -1    0    0    0  501  0.00000000000E+00  0.00000000000E+00  0.12313202398E+04  0.12313202398E+04  0.25500000920E-02 0.  1.
        2   -1    0    0  501    0  0.00000000000E+00  0.00000000000E+00 -0.16355915301E+04  0.16355915301E+04  0.25500000920E-02 0. -1.
    10030    2    1    2    0    0  0.00000000000E+00  0.00000000000E+00 -0.40427129028E+03  0.28669117700E+04  0.28382649314E+04 0.  0.
        5    1    3    3  502    0 -0.53807846771E+03 -0.13099329195E+04 -0.10921710585E+03  0.14203531805E+04  0.46999998093E+01 0.  1.
       -5    1    3    3    0  502  0.53807846771E+03  0.13099329195E+04 -0.29505418442E+03  0.14465585895E+04  0.46999998093E+01 0. -1.
</event>
<event>
 5   0  0.1826851E-05  0.2444541E+04  0.7818609E-02  0.8423014E-01
       -2   -1    0    0    0  501  0.00000000000E+00  0.00000000000E+00  0.13617314602E+04  0.13617314602E+04  0.25500000920E-02 0. -1.
        2   -1    0    0  501    0  0.00000000000E+00  0.00000000000E+00 -0.10970921899E+04  0.10970921899E+04  0.25500000920E-02 0.  1.
    10030    2    1    2    0    0  0.00000000000E+00  0.00000000000E+00  0.26463927032E+03  0.24588236501E+04  0.24445408156E+04 0.  0.
        5    1    3    3  502    0  0.27448808567E+03 -0.10715914656E+04 -0.39059370071E+03  0.11731314962E+04  0.46999998093E+01 0.  1.
       -5    1    3    3    0  502 -0.27448808567E+03  0.10715914656E+04  0.65523297103E+03  0.12856921539E+04  0.46999998093E+01 0. -1.
</event>
<event>
 5   0  0.7351590E-06  0.2733491E+04  0.7818609E-02  0.8324219E-01
       -1   -1    0    0    0  501  0.00000000000E+00  0.00000000000E+00  0.10755579228E+04  0.10755579228E+04  0.50400001928E-02 0. -1.
        1   -1    0    0  501    0  0.00000000000E+00  0.00000000000E+00 -0.17367668935E+04  0.17367668935E+04  0.50400001928E-02 0.  1.
    10030    2    1    2    0    0  0.00000000000E+00  0.00000000000E+00 -0.66120897067E+03  0.28123248163E+04  0.27334910955E+04 0.  0.
        3    1    3    3  502    0  0.57685158964E+03 -0.92810922421E+03  0.51395272779E+03  0.12075975758E+04  0.10100000352E+00 0. -1.
       -3    1    3    3    0  502 -0.57685158964E+03  0.92810922421E+03 -0.11751616985E+04  0.16047272405E+04  0.10100000352E+00 0.  1.
</event>
<event>
 5   0  0.7348964E-06  0.2706470E+04  0.7818609E-02  0.8332909E-01
       -1   -1    0    0    0  501  0.00000000000E+00  0.00000000000E+00  0.13750688437E+04  0.13750688437E+04  0.50400001928E-02 0.  1.
        1   -1    0    0  501    0  0.00000000000E+00  0.00000000000E+00 -0.13317477555E+04  0.13317477556E+04  0.50400001928E-02 0. -1.
    10030    2    1    2    0    0  0.00000000000E+00  0.00000000000E+00  0.43321088184E+02  0.27068165993E+04  0.27064699122E+04 0.  0.
        1    1    3    3  502    0  0.11386508338E+03 -0.57137210144E+03  0.12432151786E+04  0.13729585995E+04  0.50400001928E-02 0.  1.
       -1    1    3    3    0  502 -0.11386508338E+03  0.57137210144E+03 -0.11998940904E+04  0.13338579998E+04  0.50400001928E-02 0. -1.
</event>
<event>
 5   0  0.7351590E-06  0.2700335E+04  0.7818609E-02  0.8334896E-01
        1   -1    0    0  501    0  0.00000000000E+00  0.00000000000E+00  0.21843081212E+04  0.21843081212E+04  0.50400001928E-02 0.  1.
       -1   -1    0    0    0  501  0.00000000000E+00  0.00000000000E+00 -0.83456757129E+03  0.83456757130E+03  0.50400001928E-02 0. -1.
    10030    2    1    2    0    0  0.00000000000E+00  0.00000000000E+00  0.13497405499E+04  0.30188756925E+04  0.27003353300E+04 0.  0.
        3    1    3    3  502    0 -0.19102959877E+03 -0.83361151985E+02 -0.81647399531E+03  0.84265721648E+03  0.10100000352E+00 0. -1.
       -3    1    3    3    0  502  0.19102959877E+03  0.83361151985E+02  0.21662145452E+04  0.21762184760E+04  0.10100000352E+00 0.  1.
</event>
<event>
 5   0  0.7348964E-06  0.2720524E+04  0.7818609E-02  0.8328376E-01
        1   -1    0    0  501    0  0.00000000000E+00  0.00000000000E+00  0.13587803125E+04  0.13587803125E+04  0.50400001928E-02 0. -1.
       -1   -1    0    0    0  501  0.00000000000E+00  0.00000000000E+00 -0.13617453875E+04  0.13617453876E+04  0.50400001928E-02 0.  1.
    10030    2    1    2    0    0  0.00000000000E+00  0.00000000000E+00 -0.29650750604E+01  0.27205257000E+04  0.27205240842E+04 0.  0.
        1    1    3    3  502    0  0.12238080734E+03 -0.11300748768E+04  0.74569026527E+03  0.13594485135E+04  0.50400001928E-02 0. -1.
       -1    1    3    3    0  502 -0.12238080734E+03  0.11300748768E+04 -0.74865534033E+03  0.13610771865E+04  0.50400001928E-02 0.  1.
</event>
<event>
 5   0  0.7754912E-06  0.2820963E+04  0.7818609E-02  0.8296790E-01
        1   -1    0    0  501    0  0.00000000000E+00  0.00000000000E+00  0.15857689721E+04  0.15857689721E+04  0.50400001928E-02 0. -1.
       -1   -1    0    0    0  501  0.00000000000E+00  0.00000000000E+00 -0.12545696865E+04  0.12545696865E+04  0.50400001928E-02 0.  1.
    10030    2    1    2    0    0  0.00000000000E+00  0.00000000000E+00  0.33119928559E+03  0.28403386587E+04  0.28209627309E+04 0.  0.
        4    1    3    3  502    0  0.39217794867E+03  0.29888068355E+03 -0.11649621432E+04  0.12650184245E+04  0.12699999809E+01 0.  1.
       -4    1    3    3    0  502 -0.39217794867E+03 -0.29888068355E+03  0.14961614287E+04  0.15753202342E+04  0.12699999809E+01 0. -1.
</event>
<event>
 5   0  0.1881699E-05  0.2778804E+04  0.7818609E-02  0.8309879E-01
       -2   -1    0    0    0  501  0.00000000000E+00  0.00000000000E+00  0.11546627314E+04  0.11546627314E+04  0.25500000920E-02 0.  1.
        2   -1    0    0  501    0  0.00000000000E+00  0.00000000000E+00 -0.16718633123E+04  0.16718633123E+04  0.25500000920E-02 0. -1.
    10030    2    1    2    0    0  0.00000000000E+00  0.00000000000E+00 -0.51720058088E+03  0.28265260438E+04  0.27788042456E+04 0.  0.
        4    1    3    3  502    0  0.12468741745E+04  0.57167134629E+03 -0.48360796839E+03  0.14544351533E+04  0.12699999809E+01 0.  1.
       -4    1    3    3    0  502 -0.12468741745E+04 -0.57167134629E+03 -0.33592612482E+02  0.13720908905E+04  0.12699999809E+01 0. -1.
</event>
<event>
 5   0  0.1826851E-05  0.2696175E+04  0.7818609E-02  0.8336247E-01
       -2   -1    0    0    0  501  0.00000000000E+00  0.00000000000E+00  0.34574582480E+04  0.34574582480E+04  0.25500000920E-02 0.  1.
        2   -1    0    0  501    0  0.00000000000E+00  0.00000000000E+00 -0.52562887607E+03  0.52562887607E+03  0.25500000920E-02 0. -1.
    10030    2    1    2    0    0  0.00000000000E+00  0.00000000000E+00  0.29318293720E+04  0.39830871241E+04  0.26961749891E+04 0.  0.
        5    1    3    3  502    0 -0.11417998775E+04  0.71395682833E+03  0.15578941901E+04  0.20592468795E+04  0.46999998093E+01 0.  1.
       -5    1    3    3    0  502  0.11417998775E+04 -0.71395682833E+03  0.13739351818E+04  0.19238402446E+04  0.46999998093E+01 0. -1.
</event>
<event>
 5   0  0.7348964E-06  0.2742854E+04  0.7818609E-02  0.8321233E-01
        1   -1    0    0  501    0  0.00000000000E+00  0.00000000000E+00  0.18533244262E+04  0.18533244262E+04  0.50400001928E-02 0.  1.
       -1   -1    0    0    0  501  0.00000000000E+00  0.00000000000E+00 -0.10148313304E+04  0.10148313304E+04  0.50400001928E-02 0. -1.
    10030    2    1    2    0    0  0.00000000000E+00  0.00000000000E+00  0.83849309583E+03  0.28681557566E+04  0.27428537643E+04 0.  0.
        1    1    3    3  502    0  0.16891734192E+03  0.12714762849E+04 -0.88342580910E+02  0.12856863626E+04  0.50400001928E-02 0. -1.
       -1    1    3    3    0  502 -0.16891734192E+03 -0.12714762849E+04  0.92683567674E+03  0.15824693940E+04  0.50400001928E-02 0.  1.
</event>
<event>
 5   0  0.1931119E-05  0.2720120E+04  0.7818609E-02  0.8328506E-01
        2   -1    0    0  501    0  0.00000000000E+00  0.00000000000E+00  0.22127032113E+04  0.22127032113E+04  0.25500000920E-02 0. -1.
       -2   -1    0    0    0  501  0.00000000000E+00  0.00000000000E+00 -0.83597424075E+03  0.83597424075E+03  0.25500000920E-02 0.  1.
    10030    2    1    2    0    0  0.00000000000E+00  0.00000000000E+00  0.13767289705E+04  0.30486774520E+04  0.27201197673E+04 0.  0.
        3    1    3    3  502    0  0.36956591194E+03 -0.59607819750E+03 -0.61766595663E+03  0.93455841176E+03  0.10100000352E+00 0.  1.
       -3    1    3    3    0  502 -0.36956591194E+03  0.59607819750E+03  0.19943949272E+04  0.21141190403E+04  0.10100000352E+00 0. -1.
</event>
<event>
 5   0  0.1878160E-05  0.2704730E+04  0.7818609E-02  0.8333472E-01
        2   -1    0    0  501    0  0.00000000000E+00  0.00000000000E+00  0.15029379340E+04  0.15029379340E+04  0.25500000920E-02 0. -1.
       -2   -1    0    0    0  501  0.00000000000E+00  0.00000000000E+00 -0.12168769669E+04  0.12168769669E+04  0.25500000920E-02 0.  1.
    10030    2    1    2    0    0  0.00000000000E+00  0.00000000000E+00  0.28606096711E+03  0.27198149009E+04  0.27047296017E+04 0.  0.
        1    1    3    3  502    0 -0.39835660562E+03  0.41888917003E+03 -0.10863817041E+04  0.12306020190E+04  0.50400001928E-02 0.  1.
       -1    1    3    3    0  502  0.39835660562E+03 -0.41888917003E+03  0.13724426712E+04  0.14892128820E+04  0.50400001928E-02 0. -1.
</event>
<event>
 5   0  0.1788003E-05  0.2680297E+04  0.7818609E-02  0.8341426E-01
       -2   -1    0    0    0  501  0.00000000000E+00  0.00000000000E+00  0.79126137200E+03  0.79126137201E+03  0.25500000920E-02 0.  1.
        2   -1    0    0  501    0  0.00000000000E+00  0.00000000000E+00 -0.22697917413E+04  0.22697917413E+04  0.25500000920E-02 0. -1.
    10030    2    1    2    0    0  0.00000000000E+00  0.00000000000E+00 -0.14785303693E+04  0.30610531133E+04  0.26802973920E+04 0.  0.
        2    1    3    3  502    0  0.57022116255E+03  0.63394982058E+02  0.64391064984E+03  0.86243377888E+03  0.25500000920E-02 0.  1.
       -2    1    3    3    0  502 -0.57022116255E+03 -0.63394982058E+02 -0.21224410191E+04  0.21986193344E+04  0.25500000920E-02 0. -1.
</event>
<event>
 5   0  0.6804685E-06  0.2707622E+04  0.7818609E-02  0.8332536E-01
       -1   -1    0    0    0  501  0.00000000000E+00  0.00000000000E+00  0.15309869466E+04  0.15309869466E+04  0.50400001928E-02 0.  1.
        1   -1    0    0  501    0  0.00000000000E+00  0.00000000000E+00 -0.11971391282E+04  0.11971391282E+04  0.50400001928E-02 0. -1.
    10030    2    1    2    0    0  0.00000000000E+00  0.00000000000E+00  0.33384781844E+03  0.27281260748E+04  0.27076221143E+04 0.  0.
        2    1    3    3  502    0 -0.29798125542E+03  0.12130330939E+04  0.69295237595E+03  0.14284344965E+04  0.25500000920E-02 0.  1.
       -2    1    3    3    0  502  0.29798125542E+03 -0.12130330939E+04 -0.35910455751E+03  0.12996915783E+04  0.25500000920E-02 0. -1.
</event>
<event>
 5   0  0.7754912E-06  0.2706304E+04  0.7818609E-02  0.8332962E-01
       -1   -1    0    0    0  501  0.00000000000E+00  0.00000000000E+00  0.14019556630E+04  0.14019556630E+04  0.50400001928E-02 0. -1.
        1   -1    0    0  501    0  0.00000000000E+00  0.00000000000E+00 -0.13060473844E+04  0.13060473844E+04  0.50400001928E-02 0.  1.
    10030    2    1    2    0    0  0.00000000000E+00  0.00000000000E+00  0.95908278621E+02  0.27080030474E+04  0.27063041416E+04 0.  0.
        4    1    3    3  502    0  0.24158283248E+03 -0.30471230582E+03 -0.12489331913E+04  0.13080701753E+04  0.12699999809E+01 0.  1.
       -4    1    3    3    0  502 -0.24158283248E+03  0.30471230582E+03  0.13448414699E+04  0.13999328721E+04  0.12699999809E+01 0. -1.
</event>
<event>
 5   0  0.1826851E-05  0.2659514E+04  0.7818609E-02  0.8348262E-01
       -2   -1    0    0    0  501  0.00000000000E+00  0.00000000000E+00  0.14132832295E+04  0.14132832295E+04  0.25500000920E-02 0.  1.
        2   -1    0    0  501    0  0.00000000000E+00  0.00000000000E+00 -0.12511673694E+04  0.12511673694E+04  0.25500000920E-02 0. -1.
    10030    2    1    2    0    0  0.00000000000E+00  0.00000000000E+00  0.16211586011E+03  0.26644505989E+04  0.26595141364E+04 0.  0.
        5    1    3    3  502    0  0.56526827478E+02 -0.91951972241E+03 -0.87963800208E+03  0.12737727061E+04  0.46999998093E+01 0. -1.
       -5    1    3    3    0  502 -0.56526827478E+02  0.91951972241E+03  0.10417538622E+04  0.13906778928E+04  0.46999998093E+01 0.  1.
</event>
<event>
 5   0  0.6804685E-06  0.2624554E+04  0.7818609E-02  0.8359908E-01
       -1   -1    0    0    0  501  0.00000000000E+00  0.00000000000E+00  0.12984716146E+04  0.12984716146E+04  0.50400001928E-02 0.  1.
        1   -1    0    0  501    0  0.00000000000E+00  0.00000000000E+00 -0.13262289580E+04  0.13262289580E+04  0.50400001928E-02 0. -1.
    10030    2    1    2    0    0  0.00000000000E+00  0.00000000000E+00 -0.27757343415E+02  0.26247005726E+04  0.26245537956E+04 0.  0.
        2    1    3    3  502    0 -0.34202826969E+03  0.87976492363E+03 -0.92557706420E+03  0.13219918910E+04  0.25500000920E-02 0. -1.
       -2    1    3    3    0  502  0.34202826969E+03 -0.87976492363E+03  0.89781972078E+03  0.13027086816E+04  0.25500000920E-02 0.  1.
</event>
<event>
 5   0  0.7600052E-06  0.2720249E+04  0.7818609E-02  0.8328465E-01
        1   -1    0    0  501    0  0.00000000000E+00  0.00000000000E+00  0.22251563945E+04  0.22251563945E+04  0.50400001928E-02 0.  1.
       -1   -1    0    0    0  501  0.00000000000E+00  0.00000000000E+00 -0.83137478244E+03  0.83137478246E+03  0.50400001928E-02 0. -1.
    10030    2    1    2    0    0  0.00000000000E+00  0.00000000000E+00  0.13937816121E+04  0.30565311770E+04  0.27202491896E+04 0.  0.
        5    1    3    3  502    0  0.99753538063E+03 -0.88952618621E+02 -0.33716323735E+03  0.10567357960E+04  0.46999998093E+01 0. -1.
       -5    1    3    3    0  502 -0.99753538063E+03  0.88952618621E+02  0.17309448494E+04  0.19997953809E+04  0.46999998093E+01 0.  1.
</event>
<event>
 5   0  0.7754912E-06  0.2720304E+04  0.7818609E-02  0.8328447E-01
        1   -1    0    0  501    0  0.00000000000E+00  0.00000000000E+00  0.13481823815E+04  0.13481823815E+04  0.50400001928E-02 0. -1.
       -1   -1    0    0    0  501  0.00000000000E+00  0.00000000000E+00 -0.13722276481E+04  0.13722276482E+04  0.50400001928E-02 0.  1.
    10030    2    1    2    0    0  0.00000000000E+00  0.00000000000E+00 -0.24045266641E+02  0.27204100297E+04  0.27203037615E+04 0.  0.
        4    1    3    3  502    0 -0.68798028795E+03 -0.93390874487E+03  0.69829315793E+03  0.13539266478E+04  0.12699999809E+01 0. -1.
       -4    1    3    3    0  502  0.68798028795E+03  0.93390874487E+03 -0.72233842457E+03  0.13664833818E+04  0.12699999809E+01 0.  1.
</event>
<event>
 5   0  0.7351590E-06  0.2677122E+04  0.7818609E-02  0.8342466E-01
       -1   -1    0    0    0  501  0.00000000000E+00  0.00000000000E+00  0.11106713320E+04  0.11106713320E+04  0.50400001928E-02 0.  1.
        1   -1    0    0  501    0  0.00000000000E+00  0.00000000000E+00 -0.16132097592E+04  0.16132097592E+04  0.50400001928E-02 0. -1.
    10030    2    1    2    0    0  0.00000000000E+00  0.00000000000E+00 -0.50253842720E+03  0.27238810912E+04  0.26771222102E+04 0.  0.
        3    1    3    3  502    0  0.23063494250E+03  0.12331104241E+04  0.22378180388E+03  0.12742967083E+04  0.10100000352E+00 0.  1.
       -3    1    3    3    0  502 -0.23063494250E+03 -0.12331104241E+04 -0.72632023108E+03  0.14495843829E+04  0.10100000352E+00 0. -1.
</event>
<event>
 5   0  0.7600052E-06  0.2731862E+04  0.7818609E-02  0.8324740E-01
       -1   -1    0    0    0  501  0.00000000000E+00  0.00000000000E+00  0.12237280579E+04  0.12237280579E+04  0.50400001928E-02 0.  1.
        1   -1    0    0  501    0  0.00000000000E+00  0.00000000000E+00 -0.15246586430E+04  0.15246586430E+04  0.50400001928E-02 0. -1.
    10030    2    1    2    0    0  0.00000000000E+00  0.00000000000E+00 -0.30093058513E+03  0.27483867009E+04  0.27318620465E+04 0.  0.
        5    1    3    3  502    0  0.12411780864E+04 -0.44528067410E+03  0.20798689465E+03  0.13349451521E+04  0.46999998093E+01 0.  1.
       -5    1    3    3    0  502 -0.12411780864E+04  0.44528067410E+03 -0.50891747979E+03  0.14134415488E+04  0.46999998093E+01 0. -1.
</event>
<event>
 5   0  0.7348964E-06  0.2706348E+04  0.7818609E-02  0.8332948E-01
        1   -1    0    0  501    0  0.00000000000E+00  0.00000000000E+00  0.25986734011E+04  0.25986734011E+04  0.50400001928E-02 0. -1.
       -1   -1    0    0    0  501  0.00000000000E+00  0.00000000000E+00 -0.70462098888E+03  0.70462098890E+03  0.50400001928E-02 0.  1.
    10030    2    1    2    0    0  0.00000000000E+00  0.00000000000E+00  0.18940524122E+04  0.33032943900E+04  0.27063479611E+04 0.  0.
        1    1    3    3  502    0  0.92846141417E+03 -0.50816111735E+03  0.19760866138E+04  0.22416928032E+04  0.50400001928E-02 0. -1.
       -1    1    3    3    0  502 -0.92846141417E+03  0.50816111735E+03 -0.82034201578E+02  0.10616015868E+04  0.50400001928E-02 0.  1.
</event>
<event>
 5   0  0.1878160E-05  0.2755943E+04  0.7818609E-02  0.8317078E-01
        2   -1    0    0  501    0  0.00000000000E+00  0.00000000000E+00  0.23775383131E+04  0.23775383131E+04  0.25500000920E-02 0. -1.
       -2   -1    0    0    0  501  0.00000000000E+00  0.00000000000E+00 -0.79864347348E+03  0.79864347349E+03  0.25500000920E-02 0.  1.
    10030    2    1    2    0    0  0.00000000000E+00  0.00000000000E+00  0.15788948396E+04  0.31761817865E+04  0.27559430014E+04 0.  0.
        1    1    3    3  502    0 -0.36365551117E+03  0.72142428413E+03  0.20759563641E+04  0.22276205140E+04  0.50400001928E-02 0. -1.
       -1    1    3    3    0  502  0.36365551117E+03 -0.72142428413E+03 -0.49706152457E+03  0.94856127254E+03  0.50400001928E-02 0.  1.
</event>
<event>
 5   0  0.7348964E-06  0.2532281E+04  0.7818609E-02  0.8391575E-01
        1   -1    0    0  501    0  0.00000000000E+00  0.00000000000E+00  0.16391490942E+04  0.16391490942E+04  0.50400001928E-02 0.  1.
       -1   -1    0    0    0  501  0.00000000000E+00  0.00000000000E+00 -0.97801444458E+03  0.97801444459E+03  0.50400001928E-02 0. -1.
    10030    2    1    2    0    0  0.00000000000E+00  0.00000000000E+00  0.66113464966E+03  0.26171635388E+04  0.25322807830E+04 0.  0.
        1    1    3    3  502    0  0.23525693436E+03 -0.93409873209E+03  0.11798325297E+04  0.15231188609E+04  0.50400001928E-02 0.  1.
       -1    1    3    3    0  502 -0.23525693436E+03  0.93409873209E+03 -0.51869788002E+03  0.10940446779E+04  0.50400001928E-02 0. -1.
</event>
<event>
 5   0  0.1881699E-05  0.2687148E+04  0.7818609E-02  0.8339187E-01
       -2   -1    0    0    0  501  0.00000000000E+00  0.00000000000E+00  0.79448046924E+03  0.79448046924E+03  0.25500000920E-02 0. -1.
        2   -1    0    0  501    0  0.00000000000E+00  0.00000000000E+00 -0.22721649918E+04  0.22721649918E+04  0.25500000920E-02 0.  1.
    10030    2    1    2    0    0  0.00000000000E+00  0.00000000000E+00 -0.14776845225E+04  0.30666454610E+04  0.26871477137E+04 0.  0.
        4    1    3    3  502    0 -0.38425197745E+03 -0.12548694929E+04 -0.41037090844E+03  0.13750465162E+04  0.12699999809E+01 0. -1.
       -4    1    3    3    0  502  0.38425197745E+03  0.12548694929E+04 -0.10673136141E+04  0.16915989448E+04  0.12699999809E+01 0.  1.
</event>
<event>
 5   0  0.1826851E-05  0.2689544E+04  0.7818609E-02  0.8338406E-01
       -2   -1    0    0    0  501  0.00000000000E+00  0.00000000000E+00  0.96776233403E+03  0.96776233403E+03  0.25500000920E-02 0.  1.
        2   -1    0    0  501    0  0.00000000000E+00  0.00000000000E+00 -0.18686522307E+04  0.18686522307E+04  0.25500000920E-02 0. -1.
    10030    2    1    2    0    0  0.00000000000E+00  0.00000000000E+00 -0.90088989666E+03  0.28364145647E+04  0.26895436373E+04 0.  0.
        5    1    3    3  502    0  0.29024530920E+03 -0.61891372447E+03  0.77084982214E+03  0.10303048462E+04  0.46999998093E+01 0.  1.
       -5    1    3    3    0  502 -0.29024530920E+03  0.61891372447E+03 -0.16717397188E+04  0.18061097185E+04  0.46999998093E+01 0. -1.
</event>
<event>
 5   0  0.6804685E-06  0.2693152E+04  0.7818609E-02  0.8337230E-01
       -1   -1    0    0    0  501  0.00000000000E+00  0.00000000000E+00  0.11034748110E+04  0.11034748110E+04  0.50400001928E-02 0. -1.
        1   -1    0    0  501    0  0.00000000000E+00  0.00000000000E+00 -0.16432339552E+04  0.16432339552E+04  0.50400001928E-02 0.  1.
    10030    2    1    2    0    0  0.00000000000E+00  0.00000000000E+00 -0.53975914422E+03  0.27467087662E+04  0.26931522632E+04 0.  0.
        2    1    3    3  502    0  0.97143048273E+03 -0.12480163313E+03 -0.12123860971E+04  0.15585675086E+04  0.25500000920E-02 0.  1.
       -2    1    3    3    0  502 -0.97143048273E+03  0.12480163313E+03  0.67262695286E+03  0.11881412576E+04  0.25500000920E-02 0. -1.
</event>
<event>
 5   0  0.7348964E-06  0.2730638E+04  0.7818609E-02  0.8325132E-01
       -1   -1    0    0    0  501  0.00000000000E+00  0.00000000000E+00  0.93454625362E+03  0.93454625363E+03  0.50400001928E-02 0. -1.
        1   -1    0    0  501    0  0.00000000000E+00  0.00000000000E+00 -0.19946533523E+04  0.19946533523E+04  0.50400001928E-02 0.  1.
    10030    2    1    2    0    0  0.00000000000E+00  0.00000000000E+00 -0.10601070987E+04  0.29291996060E+04  0.27306378872E+04 0.  0.
        1    1    3    3  502    0  0.19903262956E+03  0.11222996149E+04  0.27621627843E+03  0.11728025604E+04  0.50400001928E-02 0. -1.
       -1    1    3    3    0  502 -0.19903262956E+03 -0.11222996149E+04 -0.13363233771E+04  0.17563970455E+04  0.50400001928E-02 0.  1.
</event>
<event>
 5   0  0.1788003E-05  0.2697682E+04  0.7818609E-02  0.8335758E-01
        2   -1    0    0  501    0  0.00000000000E+00  0.00000000000E+00  0.16860014133E+04  0.16860014133E+04  0.25500000920E-02 0.  1.
       -2   -1    0    0    0  501  0.00000000000E+00  0.00000000000E+00 -0.10791045263E+04  0.10791045263E+04  0.25500000920E-02 0. -1.
    10030    2    1    2    0    0  0.00000000000E+00  0.00000000000E+00  0.60689688704E+03  0.27651059396E+04  0.26976817873E+04 0.  0.
        2    1    3    3  502    0  0.47834749620E+03 -0.22600129178E+03  0.15752165160E+04  0.16616858859E+04  0.25500000920E-02 0.  1.
       -2    1    3    3    0  502 -0.47834749620E+03  0.22600129178E+03 -0.96831962900E+03  0.11034200537E+04  0.25500000920E-02 0. -1.
</event>
<event>
 5   0  0.7351590E-06  0.2685412E+04  0.7818609E-02  0.8339754E-01
       -1   -1    0    0    0  501  0.00000000000E+00  0.00000000000E+00  0.14661642819E+04  0.14661642819E+04  0.50400001928E-02 0. -1.
        1   -1    0    0  501    0  0.00000000000E+00  0.00000000000E+00 -0.12296435002E+04  0.12296435002E+04  0.50400001928E-02 0.  1.
    10030    2    1    2    0    0  0.00000000000E+00  0.00000000000E+00  0.23652078176E+03  0.26958077821E+04  0.26854119829E+04 0.  0.
        3    1    3    3  502    0  0.71094100430E+03  0.38695647856E+03  0.11937091437E+04  0.14422600174E+04  0.10100000352E+00 0. -1.
       -3    1    3    3    0  502 -0.71094100430E+03 -0.38695647856E+03 -0.95718836194E+03  0.12535477647E+04  0.10100000352E+00 0.  1.
</event>
<event>
 5   0  0.7351590E-06  0.2687201E+04  0.7818609E-02  0.8339170E-01
       -1   -1    0    0    0  501  0.00000000000E+00  0.00000000000E+00  0.13654879838E+04  0.13654879838E+04  0.50400001928E-02 0. -1.
        1   -1    0    0  501    0  0.00000000000E+00  0.00000000000E+00 -0.13220637415E+04  0.13220637415E+04  0.50400001928E-02 0.  1.
    10030    2    1    2    0    0  0.00000000000E+00  0.00000000000E+00  0.43424242326E+02  0.26875517252E+04  0.26872008877E+04 0.  0.
        3    1    3    3  502    0 -0.12097350442E+04  0.26327330800E+03 -0.50036219090E+03  0.13353404226E+04  0.10100000352E+00 0.  1.
       -3    1    3    3    0  502  0.12097350442E+04 -0.26327330800E+03  0.54378643323E+03  0.13522113027E+04  0.10100000352E+00 0. -1.
</event>
<event>
 5   0  0.1788003E-05  0.2788812E+04  0.7818609E-02  0.8306750E-01
       -2   -1    0    0    0  501  0.00000000000E+00  0.00000000000E+00  0.10031407212E+04  0.10031407212E+04  0.25500000920E-02 0.  1.
        2   -1    0    0  501    0  0.00000000000E+00  0.00000000000E+00 -0.19382802789E+04  0.19382802789E+04  0.25500000920E-02 0. -1.
    10030    2    1    2    0    0  0.00000000000E+00  0.00000000000E+00 -0.93513955771E+03  0.29414210000E+04  0.27888118450E+04 0.  0.
        2    1    3    3  502    0  0.11222680618E+04 -0.44058307436E+03 -0.12064541146E+04  0.17056173600E+04  0.25500000920E-02 0. -1.
       -2    1    3    3    0  502 -0.11222680618E+04  0.44058307436E+03  0.27131455693E+03  0.12358036400E+04  0.25500000920E-02 0.  1.
</event>
<event>
 5   0  0.7600052E-06  0.2696643E+04  0.7818609E-02  0.8336095E-01
       -1   -1    0    0    0  501  0.00000000000E+00  0.00000000000E+00  0.10840637069E+04  0.10840637069E+04  0.50400001928E-02 0.  1.
        1   -1    0    0  501    0  0.00000000000E+00  0.00000000000E+00 -0.16769962108E+04  0.16769962108E+04  0.50400001928E-02 0. -1.
    10030    2    1    2    0    0  0.00000000000E+00  0.00000000000E+00 -0.59293250393E+03  0.27610599177E+04  0.26966428971E+04 0.  0.
        5    1    3    3  502    0 -0.62979075175E+03  0.34875798063E+03  0.87080188389E+03  0.11298612884E+04  0.46999998093E+01 0.  1.
       -5    1    3    3    0  502  0.62979075175E+03 -0.34875798063E+03 -0.14637343878E+04  0.16311986293E+04  0.46999998093E+01 0. -1.
</event>
<event>
 5   0  0.1931119E-05  0.2917080E+04  0.7818609E-02  0.8267814E-01
        2   -1    0    0  501    0  0.00000000000E+00  0.00000000000E+00  0.96461439841E+03  0.96461439841E+03  0.25500000920E-02 0.  1.
       -2   -1    0    0    0  501  0.00000000000E+00  0.00000000000E+00 -0.22053780512E+04  0.22053780512E+04  0.25500000920E-02 0. -1.
    10030    2    1    2    0    0  0.00000000000E+00  0.00000000000E+00 -0.12407636527E+04  0.31699924496E+04  0.29170803363E+04 0.  0.
        3    1    3    3  502    0 -0.34473443870E+02  0.11278637064E+04  0.38390485655E+03  0.11919093538E+04  0.10100000352E+00 0.  1.
       -3    1    3    3    0  502  0.34473443870E+02 -0.11278637064E+04 -0.16246685093E+04  0.19780830958E+04  0.10100000352E+00 0. -1.
</event>
<event>
 5   0  0.1931119E-05  0.2639757E+04  0.7818609E-02  0.8354821E-01
        2   -1    0    0  501    0  0.00000000000E+00  0.00000000000E+00  0.25438222644E+04  0.25438222644E+04  0.25500000920E-02 0. -1.
       -2   -1    0    0    0  501  0.00000000000E+00  0.00000000000E+00 -0.68482743728E+03  0.68482743728E+03  0.25500000920E-02 0.  1.
    10030    2    1    2    0    0  0.00000000000E+00  0.00000000000E+00  0.18589948272E+04  0.32286497017E+04  0.26397570208E+04 0.  0.
        3    1    3    3  502    0  0.88568798293E+03  0.61947501879E+03  0.18560500174E+04  0.21478161419E+04  0.10100000352E+00 0. -1.
       -3    1    3    3    0  502 -0.88568798293E+03 -0.61947501879E+03  0.29448097819E+01  0.10808335599E+04  0.10100000352E+00 0.  1.
</event>
<event>
 5   0  0.1788003E-05  0.1976544E+04  0.7818609E-02  0.8617666E-01
        2   -1    0    0  501    0  0.00000000000E+00  0.00000000000E+00  0.27248807498E+04  0.27248807498E+04  0.25500000920E-02 0.  1.
       -2   -1    0    0    0  501  0.00000000000E+00  0.00000000000E+00 -0.35843103993E+03  0.35843103994E+03  0.25500000920E-02 0. -1.
    10030    2    1    2    0    0  0.00000000000E+00  0.00000000000E+00  0.23664497098E+04  0.30833117897E+04  0.19765442984E+04 0.  0.
        2    1    3    3  502    0  0.42517819144E+03  0.60528128428E+02  0.25717052056E+04  0.26073181266E+04  0.25500000920E-02 0.  1.
       -2    1    3    3    0  502 -0.42517819144E+03 -0.60528128428E+02 -0.20525549573E+03  0.47599366313E+03  0.25500000920E-02 0. -1.
</event>
<event>
 5   0  0.7754912E-06  0.2694651E+04  0.7818609E-02  0.8336743E-01
       -1   -1    0    0    0  501  0.00000000000E+00  0.00000000000E+00  0.67097824818E+03  0.67097824820E+03  0.50400001928E-02 0.  1.
        1   -1    0    0  501    0  0.00000000000E+00  0.00000000000E+00 -0.27054320125E+04  0.27054320125E+04  0.50400001928E-02 0. -1.
    10030    2    1    2    0    0  0.00000000000E+00  0.00000000000E+00 -0.20344537644E+04  0.33764102607E+04  0.26946510218E+04 0.  0.
        4    1    3    3  502    0  0.27154086018E+03  0.90042054158E+03  0.19164199630E+03  0.95980198901E+03  0.12699999809E+01 0.  1.
       -4    1    3    3    0  502 -0.27154086018E+03 -0.90042054158E+03 -0.22260957607E+04  0.24166082717E+04  0.12699999809E+01 0. -1.
</event>
<event>
 5   0  0.1878160E-05  0.2695919E+04  0.7818609E-02  0.8336330E-01
       -2   -1    0    0    0  501  0.00000000000E+00  0.00000000000E+00  0.13556222687E+04  0.13556222687E+04  0.25500000920E-02 0. -1.
        2   -1    0    0  501    0  0.00000000000E+00  0.00000000000E+00 -0.13403400018E+04  0.13403400018E+04  0.25500000920E-02 0.  1.
    10030    2    1    2    0    0  0.00000000000E+00  0.00000000000E+00  0.15282266964E+02  0.26959622705E+04  0.26959189558E+04 0.  0.
        1    1    3    3  502    0 -0.13277140182E+04  0.32139650064E+02 -0.22287782546E+03  0.13466744210E+04  0.50400001928E-02 0. -1.
       -1    1    3    3    0  502  0.13277140182E+04 -0.32139650064E+02  0.23816009242E+03  0.13492878495E+04  0.50400001928E-02 0.  1.
</event>
<event>
 5   0  0.1788003E-05  0.2650367E+04  0.7818609E-02  0.8351291E-01
       -2   -1    0    0    0  501  0.00000000000E+00  0.00000000000E+00  0.63801873651E+03  0.63801873652E+03  0.25500000920E-02 0.  1.
        2   -1    0    0  501    0  0.00000000000E+00  0.00000000000E+00 -0.27524454455E+04  0.27524454455E+04  0.25500000920E-02 0. -1.
    10030    2    1    2    0    0  0.00000000000E+00  0.00000000000E+00 -0.21144267089E+04  0.33904641820E+04  0.26503673447E+04 0.  0.
        2    1    3    3  502    0 -0.12473119462E+03  0.72502569589E+03 -0.24672222729E+04  0.25745690658E+04  0.25500000920E-02 0. -1.
       -2    1    3    3    0  502  0.12473119462E+03 -0.72502569589E+03  0.35279556398E+03  0.81589511617E+03  0.25500000920E-02 0.  1.
</event>
<event>
 5   0  0.1878160E-05  0.2689536E+04  0.7818609E-02  0.8338408E-01
       -2   -1    0    0    0  501  0.00000000000E+00  0.00000000000E+00  0.11688567187E+04  0.11688567187E+04  0.25500000920E-02 0.  1.
        2   -1    0    0  501    0  0.00000000000E+00  0.00000000000E+00 -0.15471531150E+04  0.15471531150E+04  0.25500000920E-02 0. -1.
    10030    2    1    2    0    0  0.00000000000E+00  0.00000000000E+00 -0.37829639635E+03  0.27160098337E+04  0.26895355089E+04 0.  0.
        1    1    3    3  502    0  0.51819394650E+03  0.80917679719E+03 -0.11392108635E+04  0.14903333341E+04  0.50400001928E-02 0. -1.
       -1    1    3    3    0  502 -0.51819394650E+03 -0.80917679719E+03  0.76091446715E+03  0.12256764996E+04  0.50400001928E-02 0.  1.
</event>
<event>
 5   0  0.1931119E-05  0.2686437E+04  0.7818609E-02  0.8339419E-01
       -2   -1    0    0    0  501  0.00000000000E+00  0.00000000000E+00  0.11590912288E+04  0.11590912288E+04  0.25500000920E-02 0.  1.
        2   -1    0    0  501    0  0.00000000000E+00  0.00000000000E+00 -0.15565952503E+04  0.15565952503E+04  0.25500000920E-02 0. -1.
    10030    2    1    2    0    0  0.00000000000E+00  0.00000000000E+00 -0.39750402150E+03  0.27156864791E+04  0.26864369723E+04 0.  0.
        3    1    3    3  502    0 -0.11061461777E+04  0.97816083664E+02  0.56519335523E+03  0.12460220270E+04  0.10100000352E+00 0.  1.
       -3    1    3    3    0  502  0.11061461777E+04 -0.97816083664E+02 -0.96269737673E+03  0.14696644522E+04  0.10100000352E+00 0. -1.
</event>
<event>
 5   0  0.6804685E-06  0.2754559E+04  0.7818609E-02  0.8317516E-01
        1   -1    0    0  501    0  0.00000000000E+00  0.00000000000E+00  0.30033871502E+04  0.30033871502E+04  0.50400001928E-02 0. -1.
       -1   -1    0    0    0  501  0.00000000000E+00  0.00000000000E+00 -0.63158673896E+03  0.63158673898E+03  0.50400001928E-02 0.  1.
    10030    2    1    2    0    0  0.00000000000E+00  0.00000000000E+00  0.23718004112E+04  0.36349738892E+04  0.27545594901E+04 0.  0.
        2    1    3    3  502    0 -0.95916083457E+03  0.96229457830E+03  0.14836176870E+04  0.20117459589E+04  0.25500000920E-02 0.  1.
       -2    1    3    3    0  502  0.95916083457E+03 -0.96229457830E+03  0.88818272425E+03  0.16232279303E+04  0.25500000920E-02 0. -1.
</event>
<event>
 5   0  0.1878160E-05  0.2105392E+04  0.7818609E-02  0.8558872E-01
        2   -1    0    0  501    0  0.00000000000E+00  0.00000000000E+00  0.79547225411E+03  0.79547225411E+03  0.25500000920E-02 0.  1.
       -2   -1    0    0    0  501  0.00000000000E+00  0.00000000000E+00 -0.13930958979E+04  0.13930958979E+04  0.25500000920E-02 0. -1.
    10030    2    1    2    0    0  0.00000000000E+00  0.00000000000E+00 -0.59762364380E+03  0.21885681520E+04  0.21053922524E+04 0.  0.
        1    1    3    3  502    0 -0.10270146397E+04  0.15194546942E+03 -0.11779849623E+03  0.10448554835E+04  0.50400001928E-02 0.  1.
       -1    1    3    3    0  502  0.10270146397E+04 -0.15194546942E+03 -0.47982514758E+03  0.11437126685E+04  0.50400001928E-02 0. -1.
</event>
<event>
 5   0  0.1881699E-05  0.2690632E+04  0.7818609E-02  0.8338051E-01
        2   -1    0    0  501    0  0.00000000000E+00  0.00000000000E+00  0.19283614568E+04  0.19283614568E+04  0.25500000920E-02 0.  1.
       -2   -1    0    0    0  501  0.00000000000E+00  0.00000000000E+00 -0.93855588074E+03  0.93855588074E+03  0.25500000920E-02 0. -1.
    10030    2    1    2    0    0  0.00000000000E+00  0.00000000000E+00  0.98980557601E+03  0.28669173375E+04  0.26906318852E+04 0.  0.
        4    1    3    3  502    0  0.76517111774E+03 -0.68897288005E+03  0.14174858627E+04  0.17519812364E+04  0.12699999809E+01 0.  1.
       -4    1    3    3    0  502 -0.76517111774E+03  0.68897288005E+03 -0.42768028672E+03  0.11149361011E+04  0.12699999809E+01 0. -1.
</event>
<event>
 5   0  0.7348964E-06  0.2744772E+04  0.7818609E-02  0.8320622E-01
       -1   -1    0    0    0  501  0.00000000000E+00  0.00000000000E+00  0.15893768386E+04  0.15893768386E+04  0.50400001928E-02 0. -1.
        1   -1    0    0  501    0  0.00000000000E+00  0.00000000000E+00 -0.11850200217E+04  0.11850200217E+04  0.50400001928E-02 0.  1.
    10030    2    1    2    0    0  0.00000000000E+00  0.00000000000E+00  0.40435681685E+03  0.27743968603E+04  0.27447720312E+04 0.  0.
        1    1    3    3  502    0  0.12623736537E+04  0.49952679460E+03 -0.81019440355E+00  0.13576136845E+04  0.50400001928E-02 0. -1.
       -1    1    3    3    0  502 -0.12623736537E+04 -0.49952679460E+03  0.40516701125E+03  0.14167831757E+04  0.50400001928E-02 0.  1.
</event>
<event>
 5   0  0.6804685E-06  0.2948726E+04  0.7818609E-02  0.8258526E-01
        1   -1    0    0  501    0  0.00000000000E+00  0.00000000000E+00  0.22567502814E+04  0.22567502814E+04  0.50400001928E-02 0. -1.
       -1   -1    0    0    0  501  0.00000000000E+00  0.00000000000E+00 -0.96321995458E+03  0.96321995460E+03  0.50400001928E-02 0.  1.
    10030    2    1    2    0    0  0.00000000000E+00  0.00000000000E+00  0.12935303268E+04  0.32199702360E+04  0.29487264394E+04 0.  0.
        2    1    3    3  502    0 -0.87090156767E+03  0.96707975860E+03 -0.10981233325E+03  0.13060518935E+04  0.25500000920E-02 0.  1.
       -2    1    3    3    0  502  0.87090156767E+03 -0.96707975860E+03  0.14033426601E+04  0.19139183425E+04  0.25500000920E-02 0. -1.
</event>
<event>
 5   0  0.7600052E-06  0.2597683E+04  0.7818609E-02  0.8368989E-01
        1   -1    0    0  501    0  0.00000000000E+00  0.00000000000E+00  0.20909091274E+04  0.20909091274E+04  0.50400001928E-02 0. -1.
       -1   -1    0    0    0  501  0.00000000000E+00  0.00000000000E+00 -0.80682064171E+03  0.80682064173E+03  0.50400001928E-02 0.  1.
    10030    2    1    2    0    0  0.00000000000E+00  0.00000000000E+00  0.12840884857E+04  0.28977297691E+04  0.25976825395E+04 0.  0.
        5    1    3    3  502    0 -0.60827652788E+03  0.16258020795E+03  0.19092773630E+04  0.20104215472E+04  0.46999998093E+01 0. -1.
       -5    1    3    3    0  502  0.60827652788E+03 -0.16258020795E+03 -0.62518887735E+03  0.88730822195E+03  0.46999998093E+01 0.  1.
</event>
<event>
 5   0  0.7351590E-06  0.1946991E+04  0.7818609E-02  0.8631813E-01
        1   -1    0    0  501    0  0.00000000000E+00  0.00000000000E+00  0.12232373806E+04  0.12232373806E+04  0.50400001928E-02 0. -1.
       -1   -1    0    0    0  501  0.00000000000E+00  0.00000000000E+00 -0.77474178809E+03  0.77474178810E+03  0.50400001928E-02 0.  1.
    10030    2    1    2    0    0  0.00000000000E+00  0.00000000000E+00  0.44849559251E+03  0.19979791687E+04  0.19469906168E+04 0.  0.
        3    1    3    3  502    0  0.26511318575E+03 -0.37407913155E+03 -0.65700423792E+03  0.80117087863E+03  0.10100000352E+00 0.  1.
       -3    1    3    3    0  502 -0.26511318575E+03  0.37407913155E+03  0.11054998304E+04  0.11968082901E+04  0.10100000352E+00 0. -1.
</event>
<event>
 5   0  0.1881699E-05  0.2701321E+04  0.7818609E-02  0.8334576E-01
       -2   -1    0    0    0  501  0.00000000000E+00  0.00000000000E+00  0.29399251339E+04  0.29399251339E+04  0.25500000920E-02 0.  1.
        2   -1    0    0  501    0  0.00000000000E+00  0.00000000000E+00 -0.62052056509E+03  0.62052056510E+03  0.25500000920E-02 0. -1.
    10030    2    1    2    0    0  0.00000000000E+00  0.00000000000E+00  0.23194045688E+04  0.35604456990E+04  0.27013211623E+04 0.  0.
        4    1    3    3  502    0 -0.96714907808E+03 -0.87806274880E+03  0.16122923885E+04  0.20750565990E+04  0.12699999809E+01 0.  1.
       -4    1    3    3    0  502  0.96714907808E+03  0.87806274880E+03  0.70711218031E+03  0.14853891000E+04  0.12699999809E+01 0. -1.
</event>
<event>
 5   0  0.7348964E-06  0.2670288E+04  0.7818609E-02  0.8344710E-01
       -1   -1    0    0    0  501  0.00000000000E+00  0.00000000000E+00  0.94566541385E+03  0.94566541386E+03  0.50400001928E-02 0. -1.
        1   -1    0    0  501    0  0.00000000000E+00  0.00000000000E+00 -0.18850312621E+04  0.18850312621E+04  0.50400001928E-02 0.  1.
    10030    2    1    2    0    0  0.00000000000E+00  0.00000000000E+00 -0.93936584830E+03  0.28306966760E+04  0.26702875266E+04 0.  0.
        1    1    3    3  502    0  0.70984113821E+03 -0.99094311553E+03 -0.10471703109E+04  0.16069873552E+04  0.50400001928E-02 0.  1.
       -1    1    3    3    0  502 -0.70984113821E+03  0.99094311553E+03  0.10780446257E+03  0.12237093208E+04  0.50400001928E-02 0. -1.
</event>
<event>
 5   0  0.1826851E-05  0.2699923E+04  0.7818609E-02  0.8335030E-01
       -2   -1    0    0    0  501  0.00000000000E+00  0.00000000000E+00  0.14017258804E+04  0.14017258804E+04  0.25500000920E-02 0.  1.
        2   -1    0    0  501    0  0.00000000000E+00  0.00000000000E+00 -0.13001084184E+04  0.13001084184E+04  0.25500000920E-02 0. -1.
    10030    2    1    2    0    0  0.00000000000E+00  0.00000000000E+00  0.10161746200E+03  0.27018342988E+04  0.26999226784E+04 0.  0.
        5    1    3    3  502    0 -0.78938700810E+03 -0.10840771633E+04 -0.10427965114E+03  0.13450841907E+04  0.46999998093E+01 0. -1.
       -5    1    3    3    0  502  0.78938700810E+03  0.10840771633E+04  0.20589711314E+03  0.13567501081E+04  0.46999998093E+01 0.  1.
</event>
<event>
 5   0  0.1826851E-05  0.2720228E+04  0.7818609E-02  0.8328472E-01
       -2   -1    0    0    0  501  0.00000000000E+00  0.00000000000E+00  0.88025702980E+03  0.88025702981E+03  0.25500000920E-02 0. -1.
        2   -1    0    0  501    0  0.00000000000E+00  0.00000000000E+00 -0.21015562106E+04  0.21015562106E+04  0.25500000920E-02 0.  1.
    10030    2    1    2    0    0  0.00000000000E+00  0.00000000000E+00 -0.12212991808E+04  0.29818132405E+04  0.27202276581E+04 0.  0.
        5    1    3    3  502    0  0.60171699969E+03 -0.12190360266E+04 -0.65683639598E+03  0.15098239377E+04  0.46999998093E+01 0. -1.
       -5    1    3    3    0  502 -0.60171699969E+03  0.12190360266E+04 -0.56446278486E+03  0.14719893027E+04  0.46999998093E+01 0.  1.
</event>
<event>
 5   0  0.1826851E-05  0.2690601E+04  0.7818609E-02  0.8338061E-01
       -2   -1    0    0    0  501  0.00000000000E+00  0.00000000000E+00  0.85606421741E+03  0.85606421742E+03  0.25500000920E-02 0. -1.
        2   -1    0    0  501    0  0.00000000000E+00  0.00000000000E+00 -0.21141330093E+04  0.21141330093E+04  0.25500000920E-02 0.  1.
    10030    2    1    2    0    0  0.00000000000E+00  0.00000000000E+00 -0.12580687919E+04  0.29701972267E+04  0.26906011374E+04 0.  0.
        5    1    3    3  502    0  0.69374346677E+03  0.91124359104E+03 -0.14081883733E+04  0.18151202342E+04  0.46999998093E+01 0.  1.
       -5    1    3    3    0  502 -0.69374346677E+03 -0.91124359104E+03  0.15011958143E+03  0.11550769925E+04  0.46999998093E+01 0. -1.
</event>
<event>
 5   0  0.1788003E-05  0.2697472E+04  0.7818609E-02  0.8335826E-01
        2   -1    0    0  501    0  0.00000000000E+00  0.00000000000E+00  0.17550375278E+04  0.17550375278E+04  0.25500000920E-02 0. -1.
       -2   -1    0    0    0  501  0.00000000000E+00  0.00000000000E+00 -0.10364957030E+04  0.10364957030E+04  0.25500000920E-02 0.  1.
    10030    2    1    2    0    0  0.00000000000E+00  0.00000000000E+00  0.71854182473E+03  0.27915332308E+04  0.26974720434E+04 0.  0.
        2    1    3    3  502    0  0.51002956603E+03  0.43830236438E+03 -0.85062006012E+03  0.10843401715E+04  0.25500000920E-02 0.  1.
       -2    1    3    3    0  502 -0.51002956603E+03 -0.43830236438E+03  0.15691618849E+04  0.17071930593E+04  0.25500000920E-02 0. -1.
</event>
<event>
 5   0  0.7754912E-06  0.2694273E+04  0.7818609E-02  0.8336866E-01
        1   -1    0    0  501    0  0.00000000000E+00  0.00000000000E+00  0.11857579136E+04  0.11857579136E+04  0.50400001928E-02 0.  1.
       -1   -1    0    0    0  501  0.00000000000E+00  0.00000000000E+00 -0.15304777887E+04  0.15304777888E+04  0.50400001928E-02 0. -1.
    10030    2    1    2    0    0  0.00000000000E+00  0.00000000000E+00 -0.34471987518E+03  0.27162357023E+04  0.26942725546E+04 0.  0.
        4    1    3    3  502    0 -0.13405556674E+04 -0.13157655815E+03 -0.15289846892E+03  0.13556479790E+04  0.12699999809E+01 0.  1.
       -4    1    3    3    0  502  0.13405556674E+04  0.13157655815E+03 -0.19182140627E+03  0.13605877234E+04  0.12699999809E+01 0. -1.
</event>
<event>
 5   0  0.1878160E-05  0.2714034E+04  0.7818609E-02  0.8330466E-01
        2   -1    0    0  501    0  0.00000000000E+00  0.00000000000E+00  0.16495105176E+04  0.16495105176E+04  0.25500000920E-02 0.  1.
       -2   -1    0    0    0  501  0.00000000000E+00  0.00000000000E+00 -0.11163892357E+04  0.11163892357E+04  0.25500000920E-02 0. -1.
    10030    2    1    2    0    0  0.00000000000E+00  0.00000000000E+00  0.53312128183E+03  0.27658997533E+04  0.27140344773E+04 0.  0.
        1    1    3    3  502    0  0.10548982337E+04 -0.32740719177E+02  0.11358642119E+04  0.15505062870E+04  0.50400001928E-02 0.  1.
       -1    1    3    3    0  502 -0.10548982337E+04  0.32740719177E+02 -0.60274293004E+03  0.12153934663E+04  0.50400001928E-02 0. -1.
</event>
<event>
 5   0  0.1826851E-05  0.2668292E+04  0.7818609E-02  0.8345367E-01
        2   -1    0    0  501    0  0.00000000000E+00  0.00000000000E+00  0.18963676788E+04  0.18963676789E+04  0.25500000920E-02 0. -1.
       -2   -1    0    0    0  501  0.00000000000E+00  0.00000000000E+00 -0.93860768022E+03  0.93860768023E+03  0.25500000920E-02 0.  1.
    10030    2    1    2    0    0  0.00000000000E+00  0.00000000000E+00  0.95775999862E+03  0.28349753591E+04  0.26682917891E+04 0.  0.
        5    1    3    3  502    0  0.79687675083E+03 -0.31757151618E+03  0.15645016097E+04  0.17842509915E+04  0.46999998093E+01 0. -1.
       -5    1    3    3    0  502 -0.79687675083E+03  0.31757151618E+03 -0.60674161112E+03  0.10507243675E+04  0.46999998093E+01 0.  1.
</event>
<event>
 5   0  0.1881699E-05  0.2718214E+04  0.7818609E-02  0.8329119E-01
        2   -1    0    0  501    0  0.00000000000E+00  0.00000000000E+00  0.13683586850E+04  0.13683586850E+04  0.25500000920E-02 0. -1.
       -2   -1    0    0    0  501  0.00000000000E+00  0.00000000000E+00 -0.13499181918E+04  0.13499181918E+04  0.25500000920E-02 0.  1.
    10030    2    1    2    0    0  0.00000000000E+00  0.00000000000E+00  0.18440493229E+02  0.27182768768E+04  0.27182143270E+04 0.  0.
        4    1    3    3  502    0 -0.25401127550E+03 -0.42601637337E+03 -0.12561779836E+04  0.13505541151E+04  0.12699999809E+01 0.  1.
       -4    1    3    3    0  502  0.25401127550E+03  0.42601637337E+03  0.12746184769E+04  0.13677227617E+04  0.12699999809E+01 0. -1.
</event>
<event>
 5   0  0.1826851E-05  0.2568757E+04  0.7818609E-02  0.8378892E-01
       -2   -1    0    0    0  501  0.00000000000E+00  0.00000000000E+00  0.12903683478E+04  0.12903683478E+04  0.25500000920E-02 0. -1.
        2   -1    0    0  501    0  0.00000000000E+00  0.00000000000E+00 -0.12784165622E+04  0.12784165622E+04  0.25500000920E-02 0.  1.
    10030    2    1    2    0    0  0.00000000000E+00  0.00000000000E+00  0.11951785579E+02  0.25687849100E+04  0.25687571058E+04 0.  0.
        5    1    3    3  502    0 -0.86001987701E+03 -0.94697377986E+03 -0.10897163674E+03  0.12838576386E+04  0.46999998093E+01 0.  1.
       -5    1    3    3    0  502  0.86001987701E+03  0.94697377986E+03  0.12092342231E+03  0.12849272713E+04  0.46999998093E+01 0. -1.
</event>
<event>
 5   0  0.1826851E-05  0.2670837E+04  0.7818609E-02  0.8344530E-01
        2   -1    0    0  501    0  0.00000000000E+00  0.00000000000E+00  0.18336108946E+04  0.18336108946E+04  0.25500000920E-02 0.  1.
       -2   -1    0    0    0  501  0.00000000000E+00  0.00000000000E+00 -0.97258530837E+03  0.97258530837E+03  0.25500000920E-02 0. -1.
    10030    2    1    2    0    0  0.00000000000E+00  0.00000000000E+00  0.86102558622E+03  0.28061962030E+04  0.26708373349E+04 0.  0.
        5    1    3    3  502    0 -0.90353244236E+03  0.50461812894E+03  0.13172711639E+04  0.16751823005E+04  0.46999998093E+01 0.  1.
       -5    1    3    3    0  502  0.90353244236E+03 -0.50461812894E+03 -0.45624557772E+03  0.11310139025E+04  0.46999998093E+01 0. -1.
</event>
<event>
 5   0  0.7754912E-06  0.2262102E+04  0.7818609E-02  0.8493016E-01
        1   -1    0    0  501    0  0.00000000000E+00  0.00000000000E+00  0.14399825580E+04  0.14399825580E+04  0.50400001928E-02 0. -1.
       -1   -1    0    0    0  501  0.00000000000E+00  0.00000000000E+00 -0.88839686945E+03  0.88839686947E+03  0.50400001928E-02 0.  1.
    10030    2    1    2    0    0  0.00000000000E+00  0.00000000000E+00  0.55158568851E+03  0.23283794274E+04  0.22621016746E+04 0.  0.
        4    1    3    3  502    0  0.66532174809E+03 -0.88020521481E+03  0.19788659843E+02  0.11035431358E+04  0.12699999809E+01 0.  1.
       -4    1    3    3    0  502 -0.66532174809E+03  0.88020521481E+03  0.53179702867E+03  0.12248362916E+04  0.12699999809E+01 0. -1.
</event>
<event>
 5   0  0.7351590E-06  0.2696550E+04  0.7818609E-02  0.8336125E-01
        1   -1    0    0  501    0  0.00000000000E+00  0.00000000000E+00  0.68626715755E+03  0.68626715757E+03  0.50400001928E-02 0. -1.
       -1   -1    0    0    0  501  0.00000000000E+00  0.00000000000E+00 -0.26488894791E+04  0.26488894791E+04  0.50400001928E-02 0.  1.
    10030    2    1    2    0    0  0.00000000000E+00  0.00000000000E+00 -0.19626223215E+04  0.33351566366E+04  0.26965502803E+04 0.  0.
        3    1    3    3  502    0  0.43783606152E+03 -0.95632831454E+03 -0.20246372370E+04  0.22815390011E+04  0.10100000352E+00 0.  1.
       -3    1    3    3    0  502 -0.43783606152E+03  0.95632831454E+03  0.62014915487E+02  0.10536176355E+04  0.10100000352E+00 0. -1.
</event>
<event>
 5   0  0.7600052E-06  0.2418277E+04  0.7818609E-02  0.8432693E-01
       -1   -1    0    0    0  501  0.00000000000E+00  0.00000000000E+00  0.93889941742E+03  0.93889941743E+03  0.50400001928E-02 0.  1.
        1   -1    0    0  501    0  0.00000000000E+00  0.00000000000E+00 -0.15571589051E+04  0.15571589051E+04  0.50400001928E-02 0. -1.
    10030    2    1    2    0    0  0.00000000000E+00  0.00000000000E+00 -0.61825948767E+03  0.24960583225E+04  0.24182767326E+04 0.  0.
        5    1    3    3  502    0 -0.40515147091E+03  0.10791696998E+04  0.67629285748E+02  0.11547080868E+04  0.46999998093E+01 0.  1.
       -5    1    3    3    0  502  0.40515147091E+03 -0.10791696998E+04 -0.68588877342E+03  0.13413502357E+04  0.46999998093E+01 0. -1.
</event>
<event>
 5   0  0.1878160E-05  0.2705608E+04  0.7818609E-02  0.8333188E-01
       -2   -1    0    0    0  501  0.00000000000E+00  0.00000000000E+00  0.15327494961E+04  0.15327494961E+04  0.25500000920E-02 0.  1.
        2   -1    0    0  501    0  0.00000000000E+00  0.00000000000E+00 -0.11939843394E+04  0.11939843394E+04  0.25500000920E-02 0. -1.
    10030    2    1    2    0    0  0.00000000000E+00  0.00000000000E+00  0.33876515670E+03  0.27267338355E+04  0.27056081716E+04 0.  0.
        1    1    3    3  502    0  0.15871712603E+03  0.86272080816E+02 -0.11817738691E+04  0.11955013492E+04  0.50400001928E-02 0. -1.
       -1    1    3    3    0  502 -0.15871712603E+03 -0.86272080816E+02  0.15205390258E+04  0.15312324863E+04  0.50400001928E-02 0.  1.
</event>
<event>
 5   0  0.1826851E-05  0.2666951E+04  0.7818609E-02  0.8345809E-01
        2   -1    0    0  501    0  0.00000000000E+00  0.00000000000E+00  0.21947110221E+04  0.21947110221E+04  0.25500000920E-02 0.  1.
       -2   -1    0    0    0  501  0.00000000000E+00  0.00000000000E+00 -0.81020066101E+03  0.81020066101E+03  0.25500000920E-02 0. -1.
    10030    2    1    2    0    0  0.00000000000E+00  0.00000000000E+00  0.13845103610E+04  0.30049116831E+04  0.26669505588E+04 0.  0.
        5    1    3    3  502    0  0.75144767194E+03  0.10297281241E+04  0.11331485663E+04  0.17055970733E+04  0.46999998093E+01 0.  1.
       -5    1    3    3    0  502 -0.75144767194E+03 -0.10297281241E+04  0.25136179472E+03  0.12993146097E+04  0.46999998093E+01 0. -1.
</event>
<event>
 5   0  0.7600052E-06  0.2707724E+04  0.7818609E-02  0.8332503E-01
        1   -1    0    0  501    0  0.00000000000E+00  0.00000000000E+00  0.91456728509E+03  0.91456728510E+03  0.50400001928E-02 0. -1.
       -1   -1    0    0    0  501  0.00000000000E+00  0.00000000000E+00 -0.20041637495E+04  0.20041637495E+04  0.50400001928E-02 0.  1.
    10030    2    1    2    0    0  0.00000000000E+00  0.00000000000E+00 -0.10895964644E+04  0.29187310346E+04  0.27077242099E+04 0.  0.
        5    1    3    3  502    0 -0.40141891914E+03  0.37009078424E+03 -0.18802180940E+04  0.19578933853E+04  0.46999998093E+01 0.  1.
       -5    1    3    3    0  502  0.40141891914E+03 -0.37009078424E+03  0.79062162957E+03  0.96083764932E+03  0.46999998093E+01 0. -1.
</event>
<event>
 5   0  0.7348964E-06  0.2702158E+04  0.7818609E-02  0.8334305E-01
        1   -1    0    0  501    0  0.00000000000E+00  0.00000000000E+00  0.15744998409E+04  0.15744998409E+04  0.50400001928E-02 0.  1.
       -1   -1    0    0    0  501  0.00000000000E+00  0.00000000000E+00 -0.11593614508E+04  0.11593614508E+04  0.50400001928E-02 0. -1.
    10030    2    1    2    0    0  0.00000000000E+00  0.00000000000E+00  0.41513839008E+03  0.27338612918E+04  0.27021579672E+04 0.  0.
        1    1    3    3  502    0  0.60923705600E+02  0.31397828140E+03  0.15356470922E+04  0.15686000290E+04  0.50400001928E-02 0.  1.
       -1    1    3    3    0  502 -0.60923705600E+02 -0.31397828140E+03 -0.11205087021E+04  0.11652612628E+04  0.50400001928E-02 0. -1.
</event>
<event>
 5   0  0.1788003E-05  0.2692333E+04  0.7818609E-02  0.8337497E-01
        2   -1    0    0  501    0  0.00000000000E+00  0.00000000000E+00  0.16136329078E+04  0.16136329078E+04  0.25500000920E-02 0.  1.
       -2   -1    0    0    0  501  0.00000000000E+00  0.00000000000E+00 -0.11230333916E+04  0.11230333916E+04  0.25500000920E-02 0. -1.
    10030    2    1    2    0    0  0.00000000000E+00  0.00000000000E+00  0.49059951614E+03  0.27366662994E+04  0.26923325480E+04 0.  0.
        2    1    3    3  502    0 -0.10533965210E+04 -0.83047215508E+03  0.36045877683E+03  0.13889775954E+04  0.25500000920E-02 0.  1.
       -2    1    3    3    0  502  0.10533965210E+04  0.83047215508E+03  0.13014073932E+03  0.13476887040E+04  0.25500000920E-02 0. -1.
</event>
<event>
 5   0  0.7348964E-06  0.2667747E+04  0.7818609E-02  0.8345547E-01
        1   -1    0    0  501    0  0.00000000000E+00  0.00000000000E+00  0.20842948419E+04  0.20842948419E+04  0.50400001928E-02 0.  1.
       -1   -1    0    0    0  501  0.00000000000E+00  0.00000000000E+00 -0.85363065239E+03  0.85363065240E+03  0.50400001928E-02 0. -1.
    10030    2    1    2    0    0  0.00000000000E+00  0.00000000000E+00  0.12306641895E+04  0.29379254943E+04  0.26677465889E+04 0.  0.
        1    1    3    3  502    0 -0.10721040540E+04  0.28171505540E+03  0.14323924768E+04  0.18112202192E+04  0.50400001928E-02 0.  1.
       -1    1    3    3    0  502  0.10721040540E+04 -0.28171505540E+03 -0.20172828729E+03  0.11267052751E+04  0.50400001928E-02 0. -1.
</event>
<event>
 5   0  0.1881699E-05  0.2694549E+04  0.7818609E-02  0.8336776E-01
       -2   -1    0    0    0  501  0.00000000000E+00  0.00000000000E+00  0.12184593917E+04  0.12184593917E+04  0.25500000920E-02 0. -1.
        2   -1    0    0  501    0  0.00000000000E+00  0.00000000000E+00 -0.14897076451E+04  0.14897076451E+04  0.25500000920E-02 0.  1.
    10030    2    1    2    0    0  0.00000000000E+00  0.00000000000E+00 -0.27124825338E+03  0.27081670367E+04  0.26945487718E+04 0.  0.
        4    1    3    3  502    0  0.49667764490E+03 -0.93792677703E+01  0.11230510368E+04  0.12280154306E+04  0.12699999809E+01 0. -1.
       -4    1    3    3    0  502 -0.49667764490E+03  0.93792677703E+01 -0.13942992902E+04  0.14801516061E+04  0.12699999809E+01 0.  1.
</event>
<event>
 5   0  0.1878160E-05  0.2676760E+04  0.7818609E-02  0.8342585E-01
        2   -1    0    0  501    0  0.00000000000E+00  0.00000000000E+00  0.17403458551E+04  0.17403458551E+04  0.25500000920E-02 0.  1.
       -2   -1    0    0    0  501  0.00000000000E+00  0.00000000000E+00 -0.10292556725E+04  0.10292556725E+04  0.25500000920E-02 0. -1.
    10030    2    1    2    0    0  0.00000000000E+00  0.00000000000E+00  0.71109018260E+03  0.27696015276E+04  0.26767598648E+04 0.  0.
        1    1    3    3  502    0  0.12162958643E+04 -0.55622222081E+03  0.40730056725E+03  0.13980888886E+04  0.50400001928E-02 0. -1.
       -1    1    3    3    0  502 -0.12162958643E+04  0.55622222081E+03  0.30378961535E+03  0.13715126390E+04  0.50400001928E-02 0.  1.
</event>
<event>
 5   0  0.6804685E-06  0.2242990E+04  0.7818609E-02  0.8500745E-01
        1   -1    0    0  501    0  0.00000000000E+00  0.00000000000E+00  0.11479281924E+04  0.11479281924E+04  0.50400001928E-02 0. -1.
       -1   -1    0    0    0  501  0.00000000000E+00  0.00000000000E+00 -0.10956709275E+04  0.10956709275E+04  0.50400001928E-02 0.  1.
    10030    2    1    2    0    0  0.00000000000E+00  0.00000000000E+00  0.52257264972E+02  0.22435991199E+04  0.22429904567E+04 0.  0.
        2    1    3    3  502    0  0.61523023137E+03  0.58501433530E+03  0.75913137511E+03  0.11388724489E+04  0.25500000920E-02 0. -1.
       -2    1    3    3    0  502 -0.61523023137E+03 -0.58501433530E+03 -0.70687411014E+03  0.11047266710E+04  0.25500000920E-02 0.  1.
</event>
<event>
 5   0  0.7348964E-06  0.2727767E+04  0.7818609E-02  0.8326051E-01
        1   -1    0    0  501    0  0.00000000000E+00  0.00000000000E+00  0.20154228256E+04  0.20154228256E+04  0.50400001928E-02 0. -1.
       -1   -1    0    0    0  501  0.00000000000E+00  0.00000000000E+00 -0.92297200514E+03  0.92297200515E+03  0.50400001928E-02 0.  1.
    10030    2    1    2    0    0  0.00000000000E+00  0.00000000000E+00  0.10924508205E+04  0.29383948308E+04  0.27277674729E+04 0.  0.
        1    1    3    3  502    0 -0.13045068170E+04  0.88300144441E+02  0.12812694474E+03  0.13137547203E+04  0.50400001928E-02 0.  1.
       -1    1    3    3    0  502  0.13045068170E+04 -0.88300144441E+02  0.96432387572E+03  0.16246401104E+04  0.50400001928E-02 0. -1.
</event>
<event>
 5   0  0.1881699E-05  0.2736438E+04  0.7818609E-02  0.8323278E-01
       -2   -1    0    0    0  501  0.00000000000E+00  0.00000000000E+00  0.78272293791E+03  0.78272293792E+03  0.25500000920E-02 0. -1.
        2   -1    0    0  501    0  0.00000000000E+00  0.00000000000E+00 -0.23916813913E+04  0.23916813913E+04  0.25500000920E-02 0.  1.
    10030    2    1    2    0    0  0.00000000000E+00  0.00000000000E+00 -0.16089584534E+04  0.31744043292E+04  0.27364384774E+04 0.  0.
        4    1    3    3  502    0 -0.13161118328E+03 -0.67865669580E+03  0.56522736415E+03  0.89296136557E+03  0.12699999809E+01 0. -1.
       -4    1    3    3    0  502  0.13161118328E+03  0.67865669580E+03 -0.21741858176E+04  0.22814429637E+04  0.12699999809E+01 0.  1.
</event>
<event>
 5   0  0.7754912E-06  0.2713072E+04  0.7818609E-02  0.8330776E-01
        1   -1    0    0  501    0  0.00000000000E+00  0.00000000000E+00  0.18933861769E+04  0.18933861769E+04  0.50400001928E-02 0.  1.
       -1   -1    0    0    0  501  0.00000000000E+00  0.00000000000E+00 -0.97190446732E+03  0.97190446734E+03  0.50400001928E-02 0. -1.
    10030    2    1    2    0    0  0.00000000000E+00  0.00000000000E+00  0.92148170954E+03  0.28652906442E+04  0.27130724161E+04 0.  0.
        4    1    3    3  502    0 -0.12533699207E+04  0.10400783711E+03 -0.76146320608E+02  0.12599816123E+04  0.12699999809E+01 0.  1.
       -4    1    3    3    0  502  0.12533699207E+04 -0.10400783711E+03  0.99762803015E+03  0.16053090319E+04  0.12699999809E+01 0. -1.
</event>
<event>
 5   0  0.1881699E-05  0.2686417E+04  0.7818609E-02  0.8339426E-01
        2   -1    0    0  501    0  0.00000000000E+00  0.00000000000E+00  0.15528862842E+04  0.15528862842E+04  0.25500000920E-02 0. -1.
       -2   -1    0    0    0  501  0.00000000000E+00  0.00000000000E+00 -0.11618425636E+04  0.11618425636E+04  0.25500000920E-02 0.  1.
    10030    2    1    2    0    0  0.00000000000E+00  0.00000000000E+00  0.39104372066E+03  0.27147288478E+04  0.26864172285E+04 0.  0.
        4    1    3    3  502    0  0.71440582893E+03 -0.97220287280E+01  0.13449348153E+04  0.15229318686E+04  0.12699999809E+01 0. -1.
       -4    1    3    3    0  502 -0.71440582893E+03  0.97220287280E+01 -0.95389109462E+03  0.11917969792E+04  0.12699999809E+01 0.  1.
</event>
<event>
 5   0  0.6804685E-06  0.2726873E+04  0.7818609E-02  0.8326338E-01
       -1   -1    0    0    0  501  0.00000000000E+00  0.00000000000E+00  0.12658469317E+04  0.12658469317E+04  0.50400001928E-02 0. -1.
        1   -1    0    0  501    0  0.00000000000E+00  0.00000000000E+00 -0.14685498915E+04  0.14685498915E+04  0.50400001928E-02 0.  1.
    10030    2    1    2    0    0  0.00000000000E+00  0.00000000000E+00 -0.20270295980E+03  0.27343968232E+04  0.27268732088E+04 0.  0.
        2    1    3    3  502    0  0.22682545007E+03  0.98914513235E+03  0.81171089157E+03  0.12995123890E+04  0.25500000920E-02 0. -1.
       -2    1    3    3    0  502 -0.22682545007E+03 -0.98914513235E+03 -0.10144138514E+04  0.14348844342E+04  0.25500000920E-02 0.  1.
</event>
<event>
 5   0  0.1878160E-05  0.2706106E+04  0.7818609E-02  0.8333027E-01
       -2   -1    0    0    0  501  0.00000000000E+00  0.00000000000E+00  0.19252901501E+04  0.19252901501E+04  0.25500000920E-02 0.  1.
        2   -1    0    0  501    0  0.00000000000E+00  0.00000000000E+00 -0.95089690798E+03  0.95089690799E+03  0.25500000920E-02 0. -1.
    10030    2    1    2    0    0  0.00000000000E+00  0.00000000000E+00  0.97439324213E+03  0.28761870581E+04  0.27061060221E+04 0.  0.
        1    1    3    3  502    0 -0.94466454971E+02 -0.10394584393E+04 -0.42793874742E+03  0.11280644174E+04  0.50400001928E-02 0. -1.
       -1    1    3    3    0  502  0.94466454971E+02  0.10394584393E+04  0.14023319896E+04  0.17481226407E+04  0.50400001928E-02 0.  1.
</event>
<event>
 5   0  0.7351590E-06  0.2681593E+04  0.7818609E-02  0.8341002E-01
       -1   -1    0    0    0  501  0.00000000000E+00  0.00000000000E+00  0.82396122330E+03  0.82396122331E+03  0.50400001928E-02 0.  1.
        1   -1    0    0  501    0  0.00000000000E+00  0.00000000000E+00 -0.21818204990E+04  0.21818204990E+04  0.50400001928E-02 0. -1.
    10030    2    1    2    0    0  0.00000000000E+00  0.00000000000E+00 -0.13578592757E+04  0.30057817223E+04  0.26815931738E+04 0.  0.
        3    1    3    3  502    0  0.10764340314E+04 -0.43845590580E+03 -0.14281545722E+04  0.18413525729E+04  0.10100000352E+00 0. -1.
       -3    1    3    3    0  502 -0.10764340314E+04  0.43845590580E+03  0.70295296540E+02  0.11644291495E+04  0.10100000352E+00 0.  1.
</event>
<event>
 5   0  0.7348964E-06  0.2111818E+04  0.7818609E-02  0.8556055E-01
       -1   -1    0    0    0  501  0.00000000000E+00  0.00000000000E+00  0.87744220843E+03  0.87744220845E+03  0.50400001928E-02 0.  1.
        1   -1    0    0  501    0  0.00000000000E+00  0.00000000000E+00 -0.12706751893E+04  0.12706751893E+04  0.50400001928E-02 0. -1.
    10030    2    1    2    0    0  0.00000000000E+00  0.00000000000E+00 -0.39323298089E+03  0.21481173978E+04  0.21118182160E+04 0.  0.
        1    1    3    3  502    0 -0.90782664426E+03  0.27975463776E+03 -0.66555275548E+03  0.11599018681E+04  0.50400001928E-02 0. -1.
       -1    1    3    3    0  502  0.90782664426E+03 -0.27975463776E+03  0.27231977459E+03  0.98821552964E+03  0.50400001928E-02 0.  1.
</event>
<event>
 5   0  0.7351590E-06  0.2675769E+04  0.7818609E-02  0.8342910E-01
       -1   -1    0    0    0  501  0.00000000000E+00  0.00000000000E+00  0.10762608929E+04  0.10762608929E+04  0.50400001928E-02 0. -1.
        1   -1    0    0  501    0  0.00000000000E+00  0.00000000000E+00 -0.16631044861E+04  0.16631044861E+04  0.50400001928E-02 0.  1.
    10030    2    1    2    0    0  0.00000000000E+00  0.00000000000E+00 -0.58684359316E+03  0.27393653790E+04  0.26757685394E+04 0.  0.
        3    1    3    3  502    0 -0.77363489031E+03 -0.67092239301E+03 -0.11748652719E+04  0.15585108977E+04  0.10100000352E+00 0.  1.
       -3    1    3    3    0  502  0.77363489031E+03  0.67092239301E+03  0.58802167878E+03  0.11808544812E+04  0.10100000352E+00 0. -1.
</event>
<event>
 5   0  0.1931119E-05  0.2705428E+04  0.7818609E-02  0.8333246E-01
        2   -1    0    0  501    0  0.00000000000E+00  0.00000000000E+00  0.26070782761E+04  0.26070782761E+04  0.25500000920E-02 0.  1.
       -2   -1    0    0    0  501  0.00000000000E+00  0.00000000000E+00 -0.70187218384E+03  0.70187218384E+03  0.25500000920E-02 0. -1.
    10030    2    1    2    0    0  0.00000000000E+00  0.00000000000E+00  0.19052060923E+04  0.33089504600E+04  0.27054284120E+04 0.  0.
        3    1    3    3  502    0  0.12893383266E+04  0.38275700674E+03  0.11295882749E+04  0.17563786402E+04  0.10100000352E+00 0. -1.
       -3    1    3    3    0  502 -0.12893383266E+04 -0.38275700674E+03  0.77561781735E+03  0.15525718198E+04  0.10100000352E+00 0.  1.
</event>
<event>
 5   0  0.1788003E-05  0.2953599E+04  0.7818609E-02  0.8257107E-01
        2   -1    0    0  501    0  0.00000000000E+00  0.00000000000E+00  0.19294844498E+04  0.19294844498E+04  0.25500000920E-02 0. -1.
       -2   -1    0    0    0  501  0.00000000000E+00  0.00000000000E+00 -0.11303207118E+04  0.11303207118E+04  0.25500000920E-02 0.  1.
    10030    2    1    2    0    0  0.00000000000E+00  0.00000000000E+00  0.79916373800E+03  0.30598051615E+04  0.29535986434E+04 0.  0.
        2    1    3    3  502    0 -0.92930237333E+03  0.10870805283E+04  0.18116656404E+02  0.14302710196E+04  0.25500000920E-02 0.  1.
       -2    1    3    3    0  502  0.92930237333E+03 -0.10870805283E+04  0.78104708160E+03  0.16295341420E+04  0.25500000920E-02 0. -1.
</event>
<event>
 5   0  0.7754912E-06  0.2622979E+04  0.7818609E-02  0.8360438E-01
        1   -1    0    0  501    0  0.00000000000E+00  0.00000000000E+00  0.13228194304E+04  0.13228194304E+04  0.50400001928E-02 0.  1.
       -1   -1    0    0    0  501  0.00000000000E+00  0.00000000000E+00 -0.13002561345E+04  0.13002561346E+04  0.50400001928E-02 0. -1.
    10030    2    1    2    0    0  0.00000000000E+00  0.00000000000E+00  0.22563295879E+02  0.26230755650E+04  0.26229785202E+04 0.  0.
        4    1    3    3  502    0  0.12217415427E+03  0.12773397618E+04 -0.25979862182E+03  0.13092059914E+04  0.12699999809E+01 0. -1.
       -4    1    3    3    0  502 -0.12217415427E+03 -0.12773397618E+04  0.28236191770E+03  0.13138695736E+04  0.12699999809E+01 0.  1.
</event>
<event>
 5   0  0.1878160E-05  0.2689033E+04  0.7818609E-02  0.8338572E-01
       -2   -1    0    0    0  501  0.00000000000E+00  0.00000000000E+00  0.10483750152E+04  0.10483750152E+04  0.25500000920E-02 0.  1.
        2   -1    0    0  501    0  0.00000000000E+00  0.00000000000E+00 -0.17243113266E+04  0.17243113266E+04  0.25500000920E-02 0. -1.
    10030    2    1    2    0    0  0.00000000000E+00  0.00000000000E+00 -0.67593631140E+03  0.27726863418E+04  0.26890332190E+04 0.  0.
        1    1    3    3  502    0 -0.77022393460E+03 -0.83668920882E+03 -0.10775193011E+04  0.15666338391E+04  0.50400001928E-02 0. -1.
       -1    1    3    3    0  502  0.77022393460E+03  0.83668920882E+03  0.40158298973E+03  0.12060525027E+04  0.50400001928E-02 0.  1.
</event>
<event>
 5   0  0.6175875E-06  0.2735117E+04  0.7818609E-02  0.8323700E-01
        4   -1    0    0  501    0  0.00000000000E+00  0.00000000000E+00  0.11221713792E+04  0.11221720978E+04  0.12699999809E+01 0.  1.
       -4   -1    0    0    0  501  0.00000000000E+00  0.00000000000E+00 -0.16666035216E+04  0.16666040055E+04  0.12699999809E+01 0. -1.
    10030    2    1    2    0    0  0.00000000000E+00  0.00000000000E+00 -0.54443214241E+03  0.27887761033E+04  0.27351171450E+04 0.  0.
        2    1    3    3  502    0 -0.77638097401E+03 -0.42959088770E+03 -0.13332567489E+04  0.16015271794E+04  0.25500000920E-02 0. -1.
       -2    1    3    3    0  502  0.77638097401E+03  0.42959088770E+03  0.78882460654E+03  0.11872489240E+04  0.25500000920E-02 0.  1.
</event>
<event>
 5   0  0.7754912E-06  0.2773393E+04  0.7818609E-02  0.8311577E-01
       -1   -1    0    0    0  501  0.00000000000E+00  0.00000000000E+00  0.13463243497E+04  0.13463243497E+04  0.50400001928E-02 0.  1.
        1   -1    0    0  501    0  0.00000000000E+00  0.00000000000E+00 -0.14282788259E+04  0.14282788259E+04  0.50400001928E-02 0. -1.
    10030    2    1    2    0    0  0.00000000000E+00  0.00000000000E+00 -0.81954476147E+02  0.27746031756E+04  0.27733925517E+04 0.  0.
        4    1    3    3  502    0 -0.70758693668E+03  0.92505968127E+03  0.71202007181E+03  0.13650600289E+04  0.12699999809E+01 0.  1.
       -4    1    3    3    0  502  0.70758693668E+03 -0.92505968127E+03 -0.79397454795E+03  0.14095431468E+04  0.12699999809E+01 0. -1.
</event>
<event>
 5   0  0.1878160E-05  0.2201522E+04  0.7818609E-02  0.8517795E-01
        2   -1    0    0  501    0  0.00000000000E+00  0.00000000000E+00  0.87384178127E+03  0.87384178127E+03  0.25500000920E-02 0. -1.
       -2   -1    0    0    0  501  0.00000000000E+00  0.00000000000E+00 -0.13866066291E+04  0.13866066291E+04  0.25500000920E-02 0.  1.
    10030    2    1    2    0    0  0.00000000000E+00  0.00000000000E+00 -0.51276484782E+03  0.22604484104E+04  0.22015220250E+04 0.  0.
        1    1    3    3  502    0  0.28034517201E+03 -0.31718560305E+03  0.78692253330E+03  0.89355872538E+03  0.50400001928E-02 0. -1.
       -1    1    3    3    0  502 -0.28034517201E+03  0.31718560305E+03 -0.12996873811E+04  0.13668896850E+04  0.50400001928E-02 0.  1.
</event>
<event>
 5   0  0.7348964E-06  0.2705444E+04  0.7818609E-02  0.8333241E-01
       -1   -1    0    0    0  501  0.00000000000E+00  0.00000000000E+00  0.16359029540E+04  0.16359029540E+04  0.50400001928E-02 0. -1.
        1   -1    0    0  501    0  0.00000000000E+00  0.00000000000E+00 -0.11185605997E+04  0.11185605998E+04  0.50400001928E-02 0.  1.
    10030    2    1    2    0    0  0.00000000000E+00  0.00000000000E+00  0.51734235421E+03  0.27544635537E+04  0.27054438374E+04 0.  0.
        1    1    3    3  502    0  0.15420988978E+03  0.67332910157E+03 -0.92546013606E+03  0.11548286594E+04  0.50400001928E-02 0.  1.
       -1    1    3    3    0  502 -0.15420988978E+03 -0.67332910157E+03  0.14428024903E+04  0.15996348943E+04  0.50400001928E-02 0. -1.
</event>
<event>
 5   0  0.1878160E-05  0.2685758E+04  0.7818609E-02  0.8339641E-01
       -2   -1    0    0    0  501  0.00000000000E+00  0.00000000000E+00  0.63197860672E+03  0.63197860672E+03  0.25500000920E-02 0. -1.
        2   -1    0    0  501    0  0.00000000000E+00  0.00000000000E+00 -0.28534571906E+04  0.28534571906E+04  0.25500000920E-02 0.  1.
    10030    2    1    2    0    0  0.00000000000E+00  0.00000000000E+00 -0.22214785839E+04  0.34854357973E+04  0.26857579188E+04 0.  0.
        1    1    3    3  502    0 -0.75606695056E+03 -0.73132203426E+03 -0.27407834673E+02  0.10522453806E+04  0.50400001928E-02 0. -1.
       -1    1    3    3    0  502  0.75606695056E+03  0.73132203426E+03 -0.21940707492E+04  0.24331904167E+04  0.50400001928E-02 0.  1.
</event>
<event>
 5   0  0.7754912E-06  0.2682973E+04  0.7818609E-02  0.8340551E-01
       -1   -1    0    0    0  501  0.00000000000E+00  0.00000000000E+00  0.80477600912E+03  0.80477600913E+03  0.50400001928E-02 0.  1.
        1   -1    0    0  501    0  0.00000000000E+00  0.00000000000E+00 -0.22361335405E+04  0.22361335405E+04  0.50400001928E-02 0. -1.
    10030    2    1    2    0    0  0.00000000000E+00  0.00000000000E+00 -0.14313575314E+04  0.30409095497E+04  0.26829734450E+04 0.  0.
        4    1    3    3  502    0  0.11105953105E+04 -0.71915254755E+03 -0.46483205259E+03  0.14023811110E+04  0.12699999809E+01 0.  1.
       -4    1    3    3    0  502 -0.11105953105E+04  0.71915254755E+03 -0.96652547884E+03  0.16385284387E+04  0.12699999809E+01 0. -1.
</event>
<event>
 5   0  0.1788003E-05  0.2595608E+04  0.7818609E-02  0.8369695E-01
        2   -1    0    0  501    0  0.00000000000E+00  0.00000000000E+00  0.22267944414E+04  0.22267944414E+04  0.25500000920E-02 0. -1.
       -2   -1    0    0    0  501  0.00000000000E+00  0.00000000000E+00 -0.75637642515E+03  0.75637642515E+03  0.25500000920E-02 0.  1.
    10030    2    1    2    0    0  0.00000000000E+00  0.00000000000E+00  0.14704180162E+04  0.29831708665E+04  0.25956076892E+04 0.  0.
        2    1    3    3  502    0  0.11023422762E+04  0.99533996637E+02  0.15140591006E+04  0.18754840630E+04  0.25500000920E-02 0. -1.
       -2    1    3    3    0  502 -0.11023422762E+04 -0.99533996637E+02 -0.43641084398E+02  0.11076868035E+04  0.25500000920E-02 0.  1.
</event>
<event>
 5   0  0.1788003E-05  0.2701367E+04  0.7818609E-02  0.8334561E-01
        2   -1    0    0  501    0  0.00000000000E+00  0.00000000000E+00  0.19324600141E+04  0.19324600141E+04  0.25500000920E-02 0. -1.
       -2   -1    0    0    0  501  0.00000000000E+00  0.00000000000E+00 -0.94405397551E+03  0.94405397551E+03  0.25500000920E-02 0.  1.
    10030    2    1    2    0    0  0.00000000000E+00  0.00000000000E+00  0.98840603860E+03  0.28765139896E+04  0.27013674751E+04 0.  0.
        2    1    3    3  502    0 -0.36869609124E+01 -0.85944163091E+02 -0.94113405163E+03  0.94505729773E+03  0.25500000920E-02 0.  1.
       -2    1    3    3    0  502  0.36869609124E+01  0.85944163091E+02  0.19295400902E+04  0.19314566919E+04  0.25500000920E-02 0. -1.
</event>
<event>
 5   0  0.7754912E-06  0.2648935E+04  0.7818609E-02  0.8351767E-01
       -1   -1    0    0    0  501  0.00000000000E+00  0.00000000000E+00  0.16556920137E+04  0.16556920137E+04  0.50400001928E-02 0. -1.
        1   -1    0    0  501    0  0.00000000000E+00  0.00000000000E+00 -0.10595048127E+04  0.10595048128E+04  0.50400001928E-02 0.  1.
    10030    2    1    2    0    0  0.00000000000E+00  0.00000000000E+00  0.59618720096E+03  0.27151968265E+04  0.26489346213E+04 0.  0.
        4    1    3    3  502    0  0.81868906390E+03  0.49905964502E+03  0.12346786878E+04  0.15632483448E+04  0.12699999809E+01 0. -1.
       -4    1    3    3    0  502 -0.81868906390E+03 -0.49905964502E+03 -0.63849148685E+03  0.11519484816E+04  0.12699999809E+01 0.  1.
</event>
<event>
 5   0  0.7600052E-06  0.2658065E+04  0.7818609E-02  0.8348741E-01
        1   -1    0    0  501    0  0.00000000000E+00  0.00000000000E+00  0.23171841177E+04  0.23171841178E+04  0.50400001928E-02 0. -1.
       -1   -1    0    0    0  501  0.00000000000E+00  0.00000000000E+00 -0.76227329509E+03  0.76227329510E+03  0.50400001928E-02 0.  1.
    10030    2    1    2    0    0  0.00000000000E+00  0.00000000000E+00  0.15549108227E+04  0.30794574129E+04  0.26580651405E+04 0.  0.
        5    1    3    3  502    0  0.33240491248E+03 -0.10844869812E+04 -0.24949619678E+02  0.11345702322E+04  0.46999998093E+01 0.  1.
       -5    1    3    3    0  502 -0.33240491248E+03  0.10844869812E+04  0.15798604423E+04  0.19448871807E+04  0.46999998093E+01 0. -1.
</event>
<event>
 5   0  0.6804685E-06  0.2716704E+04  0.7818609E-02  0.8329606E-01
        1   -1    0    0  501    0  0.00000000000E+00  0.00000000000E+00  0.17649088868E+04  0.17649088868E+04  0.50400001928E-02 0. -1.
       -1   -1    0    0    0  501  0.00000000000E+00  0.00000000000E+00 -0.10454474592E+04  0.10454474592E+04  0.50400001928E-02 0.  1.
    10030    2    1    2    0    0  0.00000000000E+00  0.00000000000E+00  0.71946142763E+03  0.28103563460E+04  0.27167035255E+04 0.  0.
        2    1    3    3  502    0 -0.41270530300E+03 -0.12804039812E+04  0.16520718648E+03  0.13553794438E+04  0.25500000920E-02 0.  1.
       -2    1    3    3    0  502  0.41270530300E+03  0.12804039812E+04  0.55425424115E+03  0.14549769022E+04  0.25500000920E-02 0. -1.
</event>
<event>
 5   0  0.1931119E-05  0.2615359E+04  0.7818609E-02  0.8363003E-01
       -2   -1    0    0    0  501  0.00000000000E+00  0.00000000000E+00  0.18753188492E+04  0.18753188492E+04  0.25500000920E-02 0.  1.
        2   -1    0    0  501    0  0.00000000000E+00  0.00000000000E+00 -0.91185849093E+03  0.91185849093E+03  0.25500000920E-02 0. -1.
    10030    2    1    2    0    0  0.00000000000E+00  0.00000000000E+00  0.96346035822E+03  0.27871773401E+04  0.26153588020E+04 0.  0.
        3    1    3    3  502    0 -0.62609431769E+03 -0.34041682289E+03 -0.68672548644E+03  0.98968157095E+03  0.10100000352E+00 0. -1.
       -3    1    3    3    0  502  0.62609431769E+03  0.34041682289E+03  0.16501858447E+04  0.17974957691E+04  0.10100000352E+00 0.  1.
</event>
<event>
 5   0  0.6804685E-06  0.2678472E+04  0.7818609E-02  0.8342024E-01
       -1   -1    0    0    0  501  0.00000000000E+00  0.00000000000E+00  0.11224320090E+04  0.11224320090E+04  0.50400001928E-02 0.  1.
        1   -1    0    0  501    0  0.00000000000E+00  0.00000000000E+00 -0.15979172056E+04  0.15979172056E+04  0.50400001928E-02 0. -1.
    10030    2    1    2    0    0  0.00000000000E+00  0.00000000000E+00 -0.47548519663E+03  0.27203492146E+04  0.26784722656E+04 0.  0.
        2    1    3    3  502    0 -0.38795525981E+03 -0.66825981240E+02 -0.15378257219E+04  0.15874139177E+04  0.25500000920E-02 0. -1.
       -2    1    3    3    0  502  0.38795525981E+03  0.66825981240E+02  0.10623405252E+04  0.11329352969E+04  0.25500000920E-02 0.  1.
</event>
<event>
 5   0  0.7348964E-06  0.2679352E+04  0.7818609E-02  0.8341736E-01
       -1   -1    0    0    0  501  0.00000000000E+00  0.00000000000E+00  0.11660371589E+04  0.11660371589E+04  0.50400001928E-02 0.  1.
        1   -1    0    0  501    0  0.00000000000E+00  0.00000000000E+00 -0.15391723911E+04  0.15391723911E+04  0.50400001928E-02 0. -1.
    10030    2    1    2    0    0  0.00000000000E+00  0.00000000000E+00 -0.37313523218E+03  0.27052095500E+04  0.26793523113E+04 0.  0.
        1    1    3    3  502    0 -0.94914885446E+03 -0.20991406280E+03  0.74416632730E+03  0.12242266883E+04  0.50400001928E-02 0.  1.
       -1    1    3    3    0  502  0.94914885446E+03  0.20991406280E+03 -0.11173015595E+04  0.14809828617E+04  0.50400001928E-02 0. -1.
</event>
<event>
 5   0  0.1878160E-05  0.2601152E+04  0.7818609E-02  0.8367810E-01
       -2   -1    0    0    0  501  0.00000000000E+00  0.00000000000E+00  0.99115801906E+03  0.99115801906E+03  0.25500000920E-02 0.  1.
        2   -1    0    0  501    0  0.00000000000E+00  0.00000000000E+00 -0.17065871435E+04  0.17065871435E+04  0.25500000920E-02 0. -1.
    10030    2    1    2    0    0  0.00000000000E+00  0.00000000000E+00 -0.71542912439E+03  0.26977451625E+04  0.26011516930E+04 0.  0.
        1    1    3    3  502    0 -0.96034863971E+03  0.39503809408E+03 -0.11698467587E+04  0.15642461585E+04  0.50400001928E-02 0. -1.
       -1    1    3    3    0  502  0.96034863971E+03 -0.39503809408E+03  0.45441763434E+03  0.11334990040E+04  0.50400001928E-02 0.  1.
</event>
<event>
 5   0  0.6175875E-06  0.2696532E+04  0.7818609E-02  0.8336131E-01
        3   -1    0    0  501    0  0.00000000000E+00  0.00000000000E+00  0.13161822469E+04  0.13161822508E+04  0.10100000352E+00 0.  1.
       -3   -1    0    0    0  501  0.00000000000E+00  0.00000000000E+00 -0.13811318316E+04  0.13811318353E+04  0.10100000352E+00 0. -1.
    10030    2    1    2    0    0  0.00000000000E+00  0.00000000000E+00 -0.64949584726E+02  0.26973140861E+04  0.26965320007E+04 0.  0.
        1    1    3    3  502    0 -0.40431015550E+03  0.60708203793E+03  0.11017879054E+04  0.13213447283E+04  0.50400001928E-02 0.  1.
       -1    1    3    3    0  502  0.40431015550E+03 -0.60708203793E+03 -0.11667374901E+04  0.13759693578E+04  0.50400001928E-02 0. -1.
</event>
<event>
 5   0  0.7600052E-06  0.2730184E+04  0.7818609E-02  0.8325277E-01
       -1   -1    0    0    0  501  0.00000000000E+00  0.00000000000E+00  0.14258563833E+04  0.14258563833E+04  0.50400001928E-02 0.  1.
        1   -1    0    0  501    0  0.00000000000E+00  0.00000000000E+00 -0.13069176062E+04  0.13069176062E+04  0.50400001928E-02 0. -1.
    10030    2    1    2    0    0  0.00000000000E+00  0.00000000000E+00  0.11893877706E+03  0.27327739895E+04  0.27301844708E+04 0.  0.
        5    1    3    3  502    0  0.61880290389E+02  0.58718294562E+03 -0.11724870590E+04  0.13127684394E+04  0.46999998093E+01 0. -1.
       -5    1    3    3    0  502 -0.61880290389E+02 -0.58718294562E+03  0.12914258361E+04  0.14200055500E+04  0.46999998093E+01 0.  1.
</event>
<event>
 5   0  0.1788003E-05  0.2605780E+04  0.7818609E-02  0.8366240E-01
       -2   -1    0    0    0  501  0.00000000000E+00  0.00000000000E+00  0.91860672535E+03  0.91860672535E+03  0.25500000920E-02 0.  1.
        2   -1    0    0  501    0  0.00000000000E+00  0.00000000000E+00 -0.18479318026E+04  0.18479318026E+04  0.25500000920E-02 0. -1.
    10030    2    1    2    0    0  0.00000000000E+00  0.00000000000E+00 -0.92932507726E+03  0.27665385280E+04  0.26057801764E+04 0.  0.
        2    1    3    3  502    0 -0.94208984697E+03 -0.87294265192E+03 -0.23215316056E+03  0.13051655999E+04  0.25500000920E-02 0.  1.
       -2    1    3    3    0  502  0.94208984697E+03  0.87294265192E+03 -0.69717191670E+03  0.14613729280E+04  0.25500000920E-02 0. -1.
</event>
<event>
 5   0  0.1788003E-05  0.2555027E+04  0.7818609E-02  0.8383640E-01
       -2   -1    0    0    0  501  0.00000000000E+00  0.00000000000E+00  0.12646013428E+04  0.12646013428E+04  0.25500000920E-02 0. -1.
        2   -1    0    0  501    0  0.00000000000E+00  0.00000000000E+00 -0.12905572769E+04  0.12905572770E+04  0.25500000920E-02 0.  1.
    10030    2    1    2    0    0  0.00000000000E+00  0.00000000000E+00 -0.25955934158E+02  0.25551586197E+04  0.25550267829E+04 0.  0.
        2    1    3    3  502    0 -0.20547255240E+03  0.12519526895E+04 -0.16277207350E+03  0.12791009555E+04  0.25500000920E-02 0.  1.
       -2    1    3    3    0  502  0.20547255240E+03 -0.12519526895E+04  0.13681613934E+03  0.12760576642E+04  0.25500000920E-02 0. -1.
</event>
<event>
 5   0  0.7351590E-06  0.2543755E+04  0.7818609E-02  0.8387561E-01
        1   -1    0    0  501    0  0.00000000000E+00  0.00000000000E+00  0.18196369011E+04  0.18196369011E+04  0.50400001928E-02 0.  1.
       -1   -1    0    0    0  501  0.00000000000E+00  0.00000000000E+00 -0.88900805154E+03  0.88900805155E+03  0.50400001928E-02 0. -1.
    10030    2    1    2    0    0  0.00000000000E+00  0.00000000000E+00  0.93062884960E+03  0.27086449527E+04  0.25437545920E+04 0.  0.
        3    1    3    3  502    0  0.10740387295E+04 -0.64755849941E+03  0.23998285907E+03  0.12769036712E+04  0.10100000352E+00 0.  1.
       -3    1    3    3    0  502 -0.10740387295E+04  0.64755849941E+03  0.69064599053E+03  0.14317412815E+04  0.10100000352E+00 0. -1.
</event>
<event>
 5   0  0.1826851E-05  0.2698632E+04  0.7818609E-02  0.8335449E-01
       -2   -1    0    0    0  501  0.00000000000E+00  0.00000000000E+00  0.76969677987E+03  0.76969677988E+03  0.25500000920E-02 0. -1.
        2   -1    0    0  501    0  0.00000000000E+00  0.00000000000E+00 -0.23654168306E+04  0.23654168306E+04  0.25500000920E-02 0.  1.
    10030    2    1    2    0    0  0.00000000000E+00  0.00000000000E+00 -0.15957200508E+04  0.31351136105E+04  0.26986320369E+04 0.  0.
        5    1    3    3  502    0 -0.10845229602E+03  0.21124732868E+03  0.74522185755E+03  0.78215410333E+03  0.46999998093E+01 0. -1.
       -5    1    3    3    0  502  0.10845229602E+03 -0.21124732868E+03 -0.23409419083E+04  0.23529595072E+04  0.46999998093E+01 0.  1.
</event>
<event>
 5   0  0.7754912E-06  0.2668346E+04  0.7818609E-02  0.8345349E-01
       -1   -1    0    0    0  501  0.00000000000E+00  0.00000000000E+00  0.88488766692E+03  0.88488766693E+03  0.50400001928E-02 0.  1.
        1   -1    0    0  501    0  0.00000000000E+00  0.00000000000E+00 -0.20115739622E+04  0.20115739622E+04  0.50400001928E-02 0. -1.
    10030    2    1    2    0    0  0.00000000000E+00  0.00000000000E+00 -0.11266862953E+04  0.28964616292E+04  0.26683455476E+04 0.  0.
        4    1    3    3  502    0 -0.10149383370E+04 -0.66978786495E+03  0.32490612583E+02  0.12164591504E+04  0.12699999809E+01 0.  1.
       -4    1    3    3    0  502  0.10149383370E+04  0.66978786495E+03 -0.11591769079E+04  0.16800024787E+04  0.12699999809E+01 0. -1.
</event>
<event>
 5   0  0.1788003E-05  0.2656635E+04  0.7818609E-02  0.8349214E-01
        2   -1    0    0  501    0  0.00000000000E+00  0.00000000000E+00  0.12600796251E+04  0.12600796251E+04  0.25500000920E-02 0.  1.
       -2   -1    0    0    0  501  0.00000000000E+00  0.00000000000E+00 -0.14002506920E+04  0.14002506920E+04  0.25500000920E-02 0. -1.
    10030    2    1    2    0    0  0.00000000000E+00  0.00000000000E+00 -0.14017106696E+03  0.26603303171E+04  0.26566349896E+04 0.  0.
        2    1    3    3  502    0  0.11226143185E+04 -0.27433237578E+03 -0.72590581123E+03  0.13647199007E+04  0.25500000920E-02 0. -1.
       -2    1    3    3    0  502 -0.11226143185E+04  0.27433237578E+03  0.58573474427E+03  0.12956104164E+04  0.25500000920E-02 0.  1.
</event>
<event>
 5   0  0.7600052E-06  0.2702735E+04  0.7818609E-02  0.8334118E-01
        1   -1    0    0  501    0  0.00000000000E+00  0.00000000000E+00  0.26697882421E+04  0.26697882421E+04  0.50400001928E-02 0. -1.
       -1   -1    0    0    0  501  0.00000000000E+00  0.00000000000E+00 -0.68402198025E+03  0.68402198027E+03  0.50400001928E-02 0.  1.
    10030    2    1    2    0    0  0.00000000000E+00  0.00000000000E+00  0.19857662618E+04  0.33538102224E+04  0.27027347929E+04 0.  0.
        5    1    3    3  502    0 -0.32820176659E+03  0.57791343962E+03  0.24529644589E+04  0.25414084815E+04  0.46999998093E+01 0. -1.
       -5    1    3    3    0  502  0.32820176659E+03 -0.57791343962E+03 -0.46719819702E+03  0.81240174088E+03  0.46999998093E+01 0.  1.
</event>
<event>
 5   0  0.6175875E-06  0.2696189E+04  0.7818609E-02  0.8336242E-01
        3   -1    0    0  501    0  0.00000000000E+00  0.00000000000E+00  0.15220249799E+04  0.15220249832E+04  0.10100000352E+00 0. -1.
       -3   -1    0    0    0  501  0.00000000000E+00  0.00000000000E+00 -0.11940402318E+04  0.11940402360E+04  0.10100000352E+00 0.  1.
    10030    2    1    2    0    0  0.00000000000E+00  0.00000000000E+00  0.32798474812E+03  0.27160652193E+04  0.26961892145E+04 0.  0.
        1    1    3    3  502    0 -0.37516063407E+03 -0.20267478101E+03 -0.11243163499E+04  0.12024599049E+04  0.50400001928E-02 0.  1.
       -1    1    3    3    0  502  0.37516063407E+03  0.20267478101E+03  0.14523010980E+04  0.15136053143E+04  0.50400001928E-02 0. -1.
</event>
<event>
 5   0  0.6804685E-06  0.2584943E+04  0.7818609E-02  0.8373334E-01
        1   -1    0    0  501    0  0.00000000000E+00  0.00000000000E+00  0.78442358809E+03  0.78442358811E+03  0.50400001928E-02 0. -1.
       -1   -1    0    0    0  501  0.00000000000E+00  0.00000000000E+00 -0.21295664356E+04  0.21295664356E+04  0.50400001928E-02 0.  1.
    10030    2    1    2    0    0  0.00000000000E+00  0.00000000000E+00 -0.13451428475E+04  0.29139900237E+04  0.25849426644E+04 0.  0.
        2    1    3    3  502    0 -0.52685499858E+03 -0.12199949150E+03  0.65074966626E+03  0.84612953713E+03  0.25500000920E-02 0. -1.
       -2    1    3    3    0  502  0.52685499858E+03  0.12199949150E+03 -0.19958925138E+04  0.20678604866E+04  0.25500000920E-02 0.  1.
</event>
<event>
 5   0  0.7600052E-06  0.2691305E+04  0.7818609E-02  0.8337832E-01
       -1   -1    0    0    0  501  0.00000000000E+00  0.00000000000E+00  0.88779488857E+03  0.88779488859E+03  0.50400001928E-02 0.  1.
        1   -1    0    0  501    0  0.00000000000E+00  0.00000000000E+00 -0.20396381580E+04  0.20396381580E+04  0.50400001928E-02 0. -1.
    10030    2    1    2    0    0  0.00000000000E+00  0.00000000000E+00 -0.11518432695E+04  0.29274330466E+04  0.26913047626E+04 0.  0.
        5    1    3    3  502    0 -0.92792459146E+03 -0.31271965112E+03  0.42805511301E+03  0.10686865291E+04  0.46999998093E+01 0.  1.
       -5    1    3    3    0  502  0.92792459146E+03  0.31271965112E+03 -0.15798983825E+04  0.18587465176E+04  0.46999998093E+01 0. -1.
</event>
<event>
 5   0  0.1788003E-05  0.2653537E+04  0.7818609E-02  0.8350240E-01
       -2   -1    0    0    0  501  0.00000000000E+00  0.00000000000E+00  0.91214223724E+03  0.91214223724E+03  0.25500000920E-02 0.  1.
        2   -1    0    0  501    0  0.00000000000E+00  0.00000000000E+00 -0.19298680403E+04  0.19298680403E+04  0.25500000920E-02 0. -1.
    10030    2    1    2    0    0  0.00000000000E+00  0.00000000000E+00 -0.10177258031E+04  0.28420102775E+04  0.26535366226E+04 0.  0.
        2    1    3    3  502    0  0.51818852097E+03 -0.16898678787E+03 -0.18044245532E+04  0.18849466427E+04  0.25500000920E-02 0. -1.
       -2    1    3    3    0  502 -0.51818852097E+03  0.16898678787E+03  0.78669875010E+03  0.95706363485E+03  0.25500000920E-02 0.  1.
</event>
<event>
 5   0  0.1788003E-05  0.2695433E+04  0.7818609E-02  0.8336488E-01
       -2   -1    0    0    0  501  0.00000000000E+00  0.00000000000E+00  0.95617740849E+03  0.95617740850E+03  0.25500000920E-02 0.  1.
        2   -1    0    0  501    0  0.00000000000E+00  0.00000000000E+00 -0.18995846515E+04  0.18995846515E+04  0.25500000920E-02 0. -1.
    10030    2    1    2    0    0  0.00000000000E+00  0.00000000000E+00 -0.94340724304E+03  0.28557620600E+04  0.26954331224E+04 0.  0.
        2    1    3    3  502    0  0.25613215442E+03 -0.54978920762E+03  0.80340717394E+03  0.10066453896E+04  0.25500000920E-02 0.  1.
       -2    1    3    3    0  502 -0.25613215442E+03  0.54978920762E+03 -0.17468144170E+04  0.18491166704E+04  0.25500000920E-02 0. -1.
</event>
<event>
 5   0  0.7754912E-06  0.2661412E+04  0.7818609E-02  0.8347635E-01
        1   -1    0    0  501    0  0.00000000000E+00  0.00000000000E+00  0.10927748126E+04  0.10927748126E+04  0.50400001928E-02 0. -1.
       -1   -1    0    0    0  501  0.00000000000E+00  0.00000000000E+00 -0.16204421788E+04  0.16204421788E+04  0.50400001928E-02 0.  1.
    10030    2    1    2    0    0  0.00000000000E+00  0.00000000000E+00 -0.52766736612E+03  0.27132169914E+04  0.26614119548E+04 0.  0.
        4    1    3    3  502    0  0.12150859445E+04  0.10003415853E+03 -0.80744492059E+03  0.14623301946E+04  0.12699999809E+01 0.  1.
       -4    1    3    3    0  502 -0.12150859445E+04 -0.10003415853E+03  0.27977755446E+03  0.12508867968E+04  0.12699999809E+01 0. -1.
</event>
<event>
 5   0  0.1881699E-05  0.2721320E+04  0.7818609E-02  0.8328120E-01
       -2   -1    0    0    0  501  0.00000000000E+00  0.00000000000E+00  0.65736972836E+03  0.65736972836E+03  0.25500000920E-02 0. -1.
        2   -1    0    0  501    0  0.00000000000E+00  0.00000000000E+00 -0.28163696379E+04  0.28163696379E+04  0.25500000920E-02 0.  1.
    10030    2    1    2    0    0  0.00000000000E+00  0.00000000000E+00 -0.21589999096E+04  0.34737393663E+04  0.27213203735E+04 0.  0.
        4    1    3    3  502    0 -0.11312164487E+04 -0.12841338942E+03 -0.20306813734E+04  0.23280483469E+04  0.12699999809E+01 0.  1.
       -4    1    3    3    0  502  0.11312164487E+04  0.12841338942E+03 -0.12831853619E+03  0.11456910194E+04  0.12699999809E+01 0. -1.
</event>
<event>
 5   0  0.6175875E-06  0.2830340E+04  0.7818609E-02  0.8293911E-01
       -3   -1    0    0    0  501  0.00000000000E+00  0.00000000000E+00  0.15121275852E+04  0.15121275886E+04  0.10100000352E+00 0.  1.
        3   -1    0    0  501    0  0.00000000000E+00  0.00000000000E+00 -0.13244290757E+04  0.13244290795E+04  0.10100000352E+00 0. -1.
    10030    2    1    2    0    0  0.00000000000E+00  0.00000000000E+00  0.18769850950E+03  0.28365566681E+04  0.28303397324E+04 0.  0.
        1    1    3    3  502    0 -0.13492688545E+03 -0.58310758541E+03 -0.11913426767E+04  0.13332355734E+04  0.50400001928E-02 0. -1.
       -1    1    3    3    0  502  0.13492688545E+03  0.58310758541E+03  0.13790411863E+04  0.15033210948E+04  0.50400001928E-02 0.  1.
</event>
<event>
 5   0  0.7351590E-06  0.2745223E+04  0.7818609E-02  0.8320479E-01
       -1   -1    0    0    0  501  0.00000000000E+00  0.00000000000E+00  0.15543090598E+04  0.15543090598E+04  0.50400001928E-02 0. -1.
        1   -1    0    0  501    0  0.00000000000E+00  0.00000000000E+00 -0.12121539619E+04  0.12121539619E+04  0.50400001928E-02 0.  1.
    10030    2    1    2    0    0  0.00000000000E+00  0.00000000000E+00  0.34215509790E+03  0.27664630217E+04  0.27452226758E+04 0.  0.
        3    1    3    3  502    0 -0.33070138367E+03  0.11554021293E+04 -0.49718549618E+03  0.13005809907E+04  0.10100000352E+00 0.  1.
       -3    1    3    3    0  502  0.33070138367E+03 -0.11554021293E+04  0.83934059408E+03  0.14658820310E+04  0.10100000352E+00 0. -1.
</event>
<event>
 5   0  0.1788003E-05  0.2803796E+04  0.7818609E-02  0.8302091E-01
       -2   -1    0    0    0  501  0.00000000000E+00  0.00000000000E+00  0.91707884872E+03  0.91707884872E+03  0.25500000920E-02 0.  1.
        2   -1    0    0  501    0  0.00000000000E+00  0.00000000000E+00 -0.21430189156E+04  0.21430189156E+04  0.25500000920E-02 0. -1.
    10030    2    1    2    0    0  0.00000000000E+00  0.00000000000E+00 -0.12259400669E+04  0.30600977644E+04  0.28037955132E+04 0.  0.
        2    1    3    3  502    0 -0.51447607525E+02  0.13467560974E+04 -0.19179437925E+03  0.13613169823E+04  0.25500000920E-02 0.  1.
       -2    1    3    3    0  502  0.51447607525E+02 -0.13467560974E+04 -0.10341456877E+04  0.16987807821E+04  0.25500000920E-02 0. -1.
</event>
<event>
 5   0  0.7348964E-06  0.2698256E+04  0.7818609E-02  0.8335571E-01
        1   -1    0    0  501    0  0.00000000000E+00  0.00000000000E+00  0.20960396785E+04  0.20960396785E+04  0.50400001928E-02 0. -1.
       -1   -1    0    0    0  501  0.00000000000E+00  0.00000000000E+00 -0.86837368820E+03  0.86837368822E+03  0.50400001928E-02 0.  1.
    10030    2    1    2    0    0  0.00000000000E+00  0.00000000000E+00  0.12276659903E+04  0.29644133667E+04  0.26982555152E+04 0.  0.
        1    1    3    3  502    0 -0.79993582032E+02 -0.95628453068E+02 -0.86203120566E+03  0.87100032936E+03  0.50400001928E-02 0.  1.
       -1    1    3    3    0  502  0.79993582032E+02  0.95628453068E+02  0.20896971960E+04  0.20934130374E+04  0.50400001928E-02 0. -1.
</event>
<event>
 5   0  0.1788003E-05  0.2756550E+04  0.7818609E-02  0.8316886E-01
       -2   -1    0    0    0  501  0.00000000000E+00  0.00000000000E+00  0.10348985552E+04  0.10348985552E+04  0.25500000920E-02 0. -1.
        2   -1    0    0  501    0  0.00000000000E+00  0.00000000000E+00 -0.18355827318E+04  0.18355827318E+04  0.25500000920E-02 0.  1.
    10030    2    1    2    0    0  0.00000000000E+00  0.00000000000E+00 -0.80068417664E+03  0.28704812870E+04  0.27565499576E+04 0.  0.
        2    1    3    3  502    0 -0.91217002416E+03 -0.31527333035E+03  0.62429308202E+03  0.11494317196E+04  0.25500000920E-02 0. -1.
       -2    1    3    3    0  502  0.91217002416E+03  0.31527333035E+03 -0.14249772587E+04  0.17210495674E+04  0.25500000920E-02 0.  1.
</event>
<event>
 5   0  0.1788003E-05  0.2661712E+04  0.7818609E-02  0.8347536E-01
       -2   -1    0    0    0  501  0.00000000000E+00  0.00000000000E+00  0.10422044572E+04  0.10422044572E+04  0.25500000920E-02 0. -1.
        2   -1    0    0  501    0  0.00000000000E+00  0.00000000000E+00 -0.16994534218E+04  0.16994534218E+04  0.25500000920E-02 0.  1.
    10030    2    1    2    0    0  0.00000000000E+00  0.00000000000E+00 -0.65724896462E+03  0.27416578790E+04  0.26617121791E+04 0.  0.
        2    1    3    3  502    0  0.40758400491E+03 -0.54494696507E+03  0.84944340939E+03  0.10884144530E+04  0.25500000920E-02 0. -1.
       -2    1    3    3    0  502 -0.40758400491E+03  0.54494696507E+03 -0.15066923740E+04  0.16532434260E+04  0.25500000920E-02 0.  1.
</event>
<event>
 5   0  0.7351590E-06  0.2767026E+04  0.7818609E-02  0.8313579E-01
        1   -1    0    0  501    0  0.00000000000E+00  0.00000000000E+00  0.74304639718E+03  0.74304639720E+03  0.50400001928E-02 0. -1.
       -1   -1    0    0    0  501  0.00000000000E+00  0.00000000000E+00 -0.25760285239E+04  0.25760285239E+04  0.50400001928E-02 0.  1.
    10030    2    1    2    0    0  0.00000000000E+00  0.00000000000E+00 -0.18329821267E+04  0.33190749211E+04  0.27670263560E+04 0.  0.
        3    1    3    3  502    0 -0.12706378957E+04  0.23154918375E+03 -0.32158623464E+03  0.13309971461E+04  0.10100000352E+00 0. -1.
       -3    1    3    3    0  502  0.12706378957E+04 -0.23154918375E+03 -0.15113958921E+04  0.19880777750E+04  0.10100000352E+00 0.  1.
</event>
<event>
 5   0  0.7348964E-06  0.2679302E+04  0.7818609E-02  0.8341752E-01
        1   -1    0    0  501    0  0.00000000000E+00  0.00000000000E+00  0.93700943687E+03  0.93700943688E+03  0.50400001928E-02 0. -1.
       -1   -1    0    0    0  501  0.00000000000E+00  0.00000000000E+00 -0.19153116551E+04  0.19153116551E+04  0.50400001928E-02 0.  1.
    10030    2    1    2    0    0  0.00000000000E+00  0.00000000000E+00 -0.97830221825E+03  0.28523210920E+04  0.26793022192E+04 0.  0.
        1    1    3    3  502    0 -0.74725755527E+03 -0.10508988849E+04 -0.87575903064E+03  0.15587611106E+04  0.50400001928E-02 0.  1.
       -1    1    3    3    0  502  0.74725755527E+03  0.10508988849E+04 -0.10254318761E+03  0.12935599814E+04  0.50400001928E-02 0. -1.
</event>
<event>
 5   0  0.7351590E-06  0.2706172E+04  0.7818609E-02  0.8333005E-01
       -1   -1    0    0    0  501  0.00000000000E+00  0.00000000000E+00  0.14230332817E+04  0.14230332818E+04  0.50400001928E-02 0.  1.
        1   -1    0    0  501    0  0.00000000000E+00  0.00000000000E+00 -0.12865767755E+04  0.12865767755E+04  0.50400001928E-02 0. -1.
    10030    2    1    2    0    0  0.00000000000E+00  0.00000000000E+00  0.13645650629E+03  0.27096100572E+04  0.27061718874E+04 0.  0.
        3    1    3    3  502    0  0.18787372164E+03  0.10379273738E+04  0.91680236184E+03  0.13975393910E+04  0.10100000352E+00 0.  1.
       -3    1    3    3    0  502 -0.18787372164E+03 -0.10379273738E+04 -0.78034585556E+03  0.13120706662E+04  0.10100000352E+00 0. -1.
</event>
<event>
 5   0  0.7754912E-06  0.2833005E+04  0.7818609E-02  0.8293094E-01
        1   -1    0    0  501    0  0.00000000000E+00  0.00000000000E+00  0.25693566029E+04  0.25693566029E+04  0.50400001928E-02 0.  1.
       -1   -1    0    0    0  501  0.00000000000E+00  0.00000000000E+00 -0.78092655181E+03  0.78092655183E+03  0.50400001928E-02 0. -1.
    10030    2    1    2    0    0  0.00000000000E+00  0.00000000000E+00  0.17884300511E+04  0.33502831547E+04  0.28330046186E+04 0.  0.
        4    1    3    3  502    0  0.11808667415E+04  0.11680200869E+03  0.18090141596E+04  0.21634747082E+04  0.12699999809E+01 0.  1.
       -4    1    3    3    0  502 -0.11808667415E+04 -0.11680200869E+03 -0.20584108576E+02  0.11868084465E+04  0.12699999809E+01 0. -1.
</event>
<event>
 5   0  0.7754912E-06  0.2709416E+04  0.7818609E-02  0.8331956E-01
       -1   -1    0    0    0  501  0.00000000000E+00  0.00000000000E+00  0.12190275041E+04  0.12190275041E+04  0.50400001928E-02 0. -1.
        1   -1    0    0  501    0  0.00000000000E+00  0.00000000000E+00 -0.15054896416E+04  0.15054896416E+04  0.50400001928E-02 0.  1.
    10030    2    1    2    0    0  0.00000000000E+00  0.00000000000E+00 -0.28646213754E+03  0.27245171457E+04  0.27094156420E+04 0.  0.
        4    1    3    3  502    0 -0.42397256543E+03 -0.40462575634E+03 -0.13714136774E+04  0.14913925795E+04  0.12699999809E+01 0.  1.
       -4    1    3    3    0  502  0.42397256543E+03  0.40462575634E+03  0.10849515398E+04  0.12331245661E+04  0.12699999809E+01 0. -1.
</event>
<event>
 5   0  0.1878160E-05  0.2670488E+04  0.7818609E-02  0.8344645E-01
       -2   -1    0    0    0  501  0.00000000000E+00  0.00000000000E+00  0.11905525111E+04  0.11905525111E+04  0.25500000920E-02 0.  1.
        2   -1    0    0  501    0  0.00000000000E+00  0.00000000000E+00 -0.14975199432E+04  0.14975199432E+04  0.25500000920E-02 0. -1.
    10030    2    1    2    0    0  0.00000000000E+00  0.00000000000E+00 -0.30696743215E+03  0.26880724543E+04  0.26704876923E+04 0.  0.
        1    1    3    3  502    0  0.60875972018E+03 -0.95657882193E+03 -0.86328285221E+03  0.14250925312E+04  0.50400001928E-02 0. -1.
       -1    1    3    3    0  502 -0.60875972018E+03  0.95657882193E+03  0.55631542006E+03  0.12629799231E+04  0.50400001928E-02 0.  1.
</event>
<event>
 5   0  0.1931119E-05  0.2562431E+04  0.7818609E-02  0.8381076E-01
       -2   -1    0    0    0  501  0.00000000000E+00  0.00000000000E+00  0.10918408222E+04  0.10918408222E+04  0.25500000920E-02 0.  1.
        2   -1    0    0  501    0  0.00000000000E+00  0.00000000000E+00 -0.15034366575E+04  0.15034366575E+04  0.25500000920E-02 0. -1.
    10030    2    1    2    0    0  0.00000000000E+00  0.00000000000E+00 -0.41159583530E+03  0.25952774796E+04  0.25624312800E+04 0.  0.
        3    1    3    3  502    0 -0.67801314235E+03  0.97459716977E+03  0.28201061563E+03  0.12202751583E+04  0.10100000352E+00 0.  1.
       -3    1    3    3    0  502  0.67801314235E+03 -0.97459716977E+03 -0.69360645093E+03  0.13750023213E+04  0.10100000352E+00 0. -1.
</event>
<event>
 5   0  0.6175875E-06  0.2525846E+04  0.7818609E-02  0.8393835E-01
        3   -1    0    0  501    0  0.00000000000E+00  0.00000000000E+00  0.13671143970E+04  0.13671144007E+04  0.10100000352E+00 0.  1.
       -3   -1    0    0    0  501  0.00000000000E+00  0.00000000000E+00 -0.11666725384E+04  0.11666725428E+04  0.10100000352E+00 0. -1.
    10030    2    1    2    0    0  0.00000000000E+00  0.00000000000E+00  0.20044185853E+03  0.25337869435E+04  0.25258462615E+04 0.  0.
        1    1    3    3  502    0 -0.85422589334E+03 -0.46035491666E+03  0.91106043709E+03  0.13310370567E+04  0.50400001928E-02 0.  1.
       -1    1    3    3    0  502  0.85422589334E+03  0.46035491666E+03 -0.71061857855E+03  0.12027498869E+04  0.50400001928E-02 0. -1.
</event>
<event>
 5   0  0.1788003E-05  0.2621667E+04  0.7818609E-02  0.8360879E-01
       -2   -1    0    0    0  501  0.00000000000E+00  0.00000000000E+00  0.96359407351E+03  0.96359407352E+03  0.25500000920E-02 0. -1.
        2   -1    0    0  501    0  0.00000000000E+00  0.00000000000E+00 -0.17832033913E+04  0.17832033913E+04  0.25500000920E-02 0.  1.
    10030    2    1    2    0    0  0.00000000000E+00  0.00000000000E+00 -0.81960931780E+03  0.27467974648E+04  0.26216668131E+04 0.  0.
        2    1    3    3  502    0  0.29067946757E+03  0.81994858152E+03  0.61754412591E+03  0.10668509627E+04  0.25500000920E-02 0. -1.
       -2    1    3    3    0  502 -0.29067946757E+03 -0.81994858152E+03 -0.14371534437E+04  0.16799465021E+04  0.25500000920E-02 0.  1.
</event>
<event>
 5   0  0.1881699E-05  0.2661448E+04  0.7818609E-02  0.8347623E-01
       -2   -1    0    0    0  501  0.00000000000E+00  0.00000000000E+00  0.81449918308E+03  0.81449918309E+03  0.25500000920E-02 0. -1.
        2   -1    0    0  501    0  0.00000000000E+00  0.00000000000E+00 -0.21741287711E+04  0.21741287711E+04  0.25500000920E-02 0.  1.
    10030    2    1    2    0    0  0.00000000000E+00  0.00000000000E+00 -0.13596295880E+04  0.29886279542E+04  0.26614478075E+04 0.  0.
        4    1    3    3  502    0  0.25238782123E+03  0.12097588388E+04 -0.12557199258E+03  0.12421698751E+04  0.12699999809E+01 0. -1.
       -4    1    3    3    0  502 -0.25238782123E+03 -0.12097588388E+04 -0.12340575954E+04  0.17464580791E+04  0.12699999809E+01 0.  1.
</event>
<event>
 5   0  0.7754912E-06  0.2689615E+04  0.7818609E-02  0.8338383E-01
       -1   -1    0    0    0  501  0.00000000000E+00  0.00000000000E+00  0.12352315827E+04  0.12352315827E+04  0.50400001928E-02 0. -1.
        1   -1    0    0  501    0  0.00000000000E+00  0.00000000000E+00 -0.14641033178E+04  0.14641033178E+04  0.50400001928E-02 0.  1.
    10030    2    1    2    0    0  0.00000000000E+00  0.00000000000E+00 -0.22887173512E+03  0.26993349005E+04  0.26896145884E+04 0.  0.
        4    1    3    3  502    0 -0.53747716979E+03  0.12309385092E+04 -0.47759902784E+02  0.13440141155E+04  0.12699999809E+01 0. -1.
       -4    1    3    3    0  502  0.53747716979E+03 -0.12309385092E+04 -0.18111183234E+03  0.13553207850E+04  0.12699999809E+01 0.  1.
</event>
<event>
 5   0  0.1826851E-05  0.2648388E+04  0.7818609E-02  0.8351948E-01
       -2   -1    0    0    0  501  0.00000000000E+00  0.00000000000E+00  0.86184404114E+03  0.86184404114E+03  0.25500000920E-02 0.  1.
        2   -1    0    0  501    0  0.00000000000E+00  0.00000000000E+00 -0.20345782485E+04  0.20345782485E+04  0.25500000920E-02 0. -1.
    10030    2    1    2    0    0  0.00000000000E+00  0.00000000000E+00 -0.11727342074E+04  0.28964222897E+04  0.26483875394E+04 0.  0.
        5    1    3    3  502    0 -0.79618050196E+03 -0.62678468158E+03 -0.15186748786E+04  0.18256938149E+04  0.46999998093E+01 0. -1.
       -5    1    3    3    0  502  0.79618050196E+03  0.62678468158E+03  0.34594067121E+03  0.10707284748E+04  0.46999998093E+01 0.  1.
</event>
<event>
 5   0  0.1931119E-05  0.2714262E+04  0.7818609E-02  0.8330392E-01
       -2   -1    0    0    0  501  0.00000000000E+00  0.00000000000E+00  0.10350608061E+04  0.10350608061E+04  0.25500000920E-02 0.  1.
        2   -1    0    0  501    0  0.00000000000E+00  0.00000000000E+00 -0.17794161708E+04  0.17794161708E+04  0.25500000920E-02 0. -1.
    10030    2    1    2    0    0  0.00000000000E+00  0.00000000000E+00 -0.74435536477E+03  0.28144769769E+04  0.27142615468E+04 0.  0.
        3    1    3    3  502    0 -0.70450223347E+03 -0.79575140571E+03  0.50293777289E+03  0.11757933961E+04  0.10100000352E+00 0.  1.
       -3    1    3    3    0  502  0.70450223347E+03  0.79575140571E+03 -0.12472931377E+04  0.16386835808E+04  0.10100000352E+00 0. -1.
</event>
<event>
 5   0  0.7754912E-06  0.2497894E+04  0.7818609E-02  0.8403736E-01
        1   -1    0    0  501    0  0.00000000000E+00  0.00000000000E+00  0.15765472655E+04  0.15765472655E+04  0.50400001928E-02 0.  1.
       -1   -1    0    0    0  501  0.00000000000E+00  0.00000000000E+00 -0.98942096871E+03  0.98942096872E+03  0.50400001928E-02 0. -1.
    10030    2    1    2    0    0  0.00000000000E+00  0.00000000000E+00  0.58712629679E+03  0.25659682342E+04  0.24978942513E+04 0.  0.
        4    1    3    3  502    0 -0.11079798742E+04  0.62269965306E+02  0.88221593122E+03  0.14176753903E+04  0.12699999809E+01 0.  1.
       -4    1    3    3    0  502  0.11079798742E+04 -0.62269965306E+02 -0.29508963443E+03  0.11482928439E+04  0.12699999809E+01 0. -1.
</event>
<event>
 5   0  0.7351590E-06  0.2705224E+04  0.7818609E-02  0.8333312E-01
       -1   -1    0    0    0  501  0.00000000000E+00  0.00000000000E+00  0.16821288887E+04  0.16821288887E+04  0.50400001928E-02 0. -1.
        1   -1    0    0  501    0  0.00000000000E+00  0.00000000000E+00 -0.10876448465E+04  0.10876448465E+04  0.50400001928E-02 0.  1.
    10030    2    1    2    0    0  0.00000000000E+00  0.00000000000E+00  0.59448404219E+03  0.27697737352E+04  0.27052237002E+04 0.  0.
        3    1    3    3  502    0  0.10737276233E+04  0.77171478850E+03  0.58886115078E+03  0.14474778716E+04  0.10100000352E+00 0.  1.
       -3    1    3    3    0  502 -0.10737276233E+04 -0.77171478850E+03  0.56228914062E+01  0.13222958636E+04  0.10100000352E+00 0. -1.
</event>
<event>
 5   0  0.1881699E-05  0.2812569E+04  0.7818609E-02  0.8299377E-01
       -2   -1    0    0    0  501  0.00000000000E+00  0.00000000000E+00  0.13801055266E+04  0.13801055266E+04  0.25500000920E-02 0. -1.
        2   -1    0    0  501    0  0.00000000000E+00  0.00000000000E+00 -0.14329605119E+04  0.14329605119E+04  0.25500000920E-02 0.  1.
    10030    2    1    2    0    0  0.00000000000E+00  0.00000000000E+00 -0.52854985347E+02  0.28130660385E+04  0.28125694458E+04 0.  0.
        4    1    3    3  502    0 -0.60838306599E+02  0.14004436530E+04  0.86248441730E+02  0.14044159396E+04  0.12699999809E+01 0.  1.
       -4    1    3    3    0  502  0.60838306599E+02 -0.14004436530E+04 -0.13910342708E+03  0.14086500989E+04  0.12699999809E+01 0. -1.
</event>
<event>
 5   0  0.1931119E-05  0.2690453E+04  0.7818609E-02  0.8338109E-01
       -2   -1    0    0    0  501  0.00000000000E+00  0.00000000000E+00  0.11614694718E+04  0.11614694718E+04  0.25500000920E-02 0.  1.
        2   -1    0    0  501    0  0.00000000000E+00  0.00000000000E+00 -0.15580556839E+04  0.15580556839E+04  0.25500000920E-02 0. -1.
    10030    2    1    2    0    0  0.00000000000E+00  0.00000000000E+00 -0.39658621209E+03  0.27195251557E+04  0.26904528334E+04 0.  0.
        3    1    3    3  502    0 -0.11479361346E+04 -0.64757658705E+03 -0.47050085119E+03  0.13994584190E+04  0.10100000352E+00 0. -1.
       -3    1    3    3    0  502  0.11479361346E+04  0.64757658705E+03  0.73914639098E+02  0.13200667367E+04  0.10100000352E+00 0.  1.
</event>
<event>
 5   0  0.1788003E-05  0.2574860E+04  0.7818609E-02  0.8376791E-01
        2   -1    0    0  501    0  0.00000000000E+00  0.00000000000E+00  0.18607771438E+04  0.18607771438E+04  0.25500000920E-02 0. -1.
       -2   -1    0    0    0  501  0.00000000000E+00  0.00000000000E+00 -0.89074423909E+03  0.89074423909E+03  0.25500000920E-02 0.  1.
    10030    2    1    2    0    0  0.00000000000E+00  0.00000000000E+00  0.97003290473E+03  0.27515213829E+04  0.25748604009E+04 0.  0.
        2    1    3    3  502    0  0.11816133648E+03 -0.25323127063E+03  0.18279782790E+04  0.18492140943E+04  0.25500000920E-02 0. -1.
       -2    1    3    3    0  502 -0.11816133648E+03  0.25323127063E+03 -0.85794537429E+03  0.90230728864E+03  0.25500000920E-02 0.  1.
</event>
<event>
 5   0  0.1788003E-05  0.2701656E+04  0.7818609E-02  0.8334468E-01
        2   -1    0    0  501    0  0.00000000000E+00  0.00000000000E+00  0.32908990680E+04  0.32908990680E+04  0.25500000920E-02 0.  1.
       -2   -1    0    0    0  501  0.00000000000E+00  0.00000000000E+00 -0.55447950319E+03  0.55447950319E+03  0.25500000920E-02 0. -1.
    10030    2    1    2    0    0  0.00000000000E+00  0.00000000000E+00  0.27364195648E+04  0.38453785712E+04  0.27016558480E+04 0.  0.
        2    1    3    3  502    0 -0.59041833800E+03  0.95204717026E+03  0.29384774679E+03  0.11581598018E+04  0.25500000920E-02 0.  1.
       -2    1    3    3    0  502  0.59041833800E+03 -0.95204717026E+03  0.24425718180E+04  0.26872187694E+04  0.25500000920E-02 0. -1.
</event>
<event>
 5   0  0.1881699E-05  0.2715824E+04  0.7818609E-02  0.8329889E-01
        2   -1    0    0  501    0  0.00000000000E+00  0.00000000000E+00  0.22543500616E+04  0.22543500616E+04  0.25500000920E-02 0.  1.
       -2   -1    0    0    0  501  0.00000000000E+00  0.00000000000E+00 -0.81794081065E+03  0.81794081065E+03  0.25500000920E-02 0. -1.
    10030    2    1    2    0    0  0.00000000000E+00  0.00000000000E+00  0.14364092509E+04  0.30722908722E+04  0.27158239390E+04 0.  0.
        4    1    3    3  502    0 -0.65305161021E+03 -0.66309545866E+03  0.18368049009E+04  0.20591323050E+04  0.12699999809E+01 0.  1.
       -4    1    3    3    0  502  0.65305161021E+03  0.66309545866E+03 -0.40039564994E+03  0.10131585672E+04  0.12699999809E+01 0. -1.
</event>
<event>
 5   0  0.1826851E-05  0.2679409E+04  0.7818609E-02  0.8341717E-01
        2   -1    0    0  501    0  0.00000000000E+00  0.00000000000E+00  0.88898994835E+03  0.88898994836E+03  0.25500000920E-02 0. -1.
       -2   -1    0    0    0  501  0.00000000000E+00  0.00000000000E+00 -0.20189295056E+04  0.20189295056E+04  0.25500000920E-02 0.  1.
    10030    2    1    2    0    0  0.00000000000E+00  0.00000000000E+00 -0.11299395572E+04  0.29079194539E+04  0.26794089176E+04 0.  0.
        5    1    3    3  502    0 -0.10283969067E+04 -0.80200000530E+03 -0.23226034386E+03  0.13246777584E+04  0.46999998093E+01 0. -1.
       -5    1    3    3    0  502  0.10283969067E+04  0.80200000530E+03 -0.89767921335E+03  0.15832416955E+04  0.46999998093E+01 0.  1.
</event>
<event>
 5   0  0.1826851E-05  0.2684538E+04  0.7818609E-02  0.8340039E-01
       -2   -1    0    0    0  501  0.00000000000E+00  0.00000000000E+00  0.94026301594E+03  0.94026301595E+03  0.25500000920E-02 0. -1.
        2   -1    0    0  501    0  0.00000000000E+00  0.00000000000E+00 -0.19161512643E+04  0.19161512643E+04  0.25500000920E-02 0.  1.
    10030    2    1    2    0    0  0.00000000000E+00  0.00000000000E+00 -0.97588824838E+03  0.28564142803E+04  0.26845380733E+04 0.  0.
        5    1    3    3  502    0 -0.94883805112E+03 -0.19155276617E+03 -0.14773598856E+04  0.17662390639E+04  0.46999998093E+01 0.  1.
       -5    1    3    3    0  502  0.94883805112E+03  0.19155276617E+03  0.50147163717E+03  0.10901752164E+04  0.46999998093E+01 0. -1.
</event>
<event>
 5   0  0.1931119E-05  0.2592788E+04  0.7818609E-02  0.8370655E-01
       -2   -1    0    0    0  501  0.00000000000E+00  0.00000000000E+00  0.86123096564E+03  0.86123096565E+03  0.25500000920E-02 0.  1.
        2   -1    0    0  501    0  0.00000000000E+00  0.00000000000E+00 -0.19514366793E+04  0.19514366793E+04  0.25500000920E-02 0. -1.
    10030    2    1    2    0    0  0.00000000000E+00  0.00000000000E+00 -0.10902057136E+04  0.28126676449E+04  0.25927882256E+04 0.  0.
        3    1    3    3  502    0 -0.10988453502E+04 -0.37873496531E+03 -0.11680265113E+04  0.16477825156E+04  0.10100000352E+00 0. -1.
       -3    1    3    3    0  502  0.10988453502E+04  0.37873496531E+03  0.77820797608E+02  0.11648851293E+04  0.10100000352E+00 0.  1.
</event>
<event>
 5   0  0.7348964E-06  0.2702510E+04  0.7818609E-02  0.8334191E-01
        1   -1    0    0  501    0  0.00000000000E+00  0.00000000000E+00  0.17896308011E+04  0.17896308011E+04  0.50400001928E-02 0.  1.
       -1   -1    0    0    0  501  0.00000000000E+00  0.00000000000E+00 -0.10202606847E+04  0.10202606847E+04  0.50400001928E-02 0. -1.
    10030    2    1    2    0    0  0.00000000000E+00  0.00000000000E+00  0.76937011640E+03  0.28098914857E+04  0.27025099048E+04 0.  0.
        1    1    3    3  502    0  0.59346323637E+03 -0.35235651717E+03  0.15925392928E+04  0.17356656151E+04  0.50400001928E-02 0.  1.
       -1    1    3    3    0  502 -0.59346323637E+03  0.35235651717E+03 -0.82316917644E+03  0.10742258707E+04  0.50400001928E-02 0. -1.
</event>
<event>
 5   0  0.7348964E-06  0.2702975E+04  0.7818609E-02  0.8334040E-01
        1   -1    0    0  501    0  0.00000000000E+00  0.00000000000E+00  0.10962963441E+04  0.10962963441E+04  0.50400001928E-02 0.  1.
       -1   -1    0    0    0  501  0.00000000000E+00  0.00000000000E+00 -0.16660804548E+04  0.16660804548E+04  0.50400001928E-02 0. -1.
    10030    2    1    2    0    0  0.00000000000E+00  0.00000000000E+00 -0.56978411065E+03  0.27623767989E+04  0.27029745923E+04 0.  0.
        1    1    3    3  502    0 -0.79457530236E+03 -0.63956892480E+03 -0.11910111118E+04  0.15680898536E+04  0.50400001928E-02 0. -1.
       -1    1    3    3    0  502  0.79457530236E+03  0.63956892480E+03  0.62122700114E+03  0.11942869453E+04  0.50400001928E-02 0.  1.
</event>
<event>
 5   0  0.1788003E-05  0.2716341E+04  0.7818609E-02  0.8329722E-01
        2   -1    0    0  501    0  0.00000000000E+00  0.00000000000E+00  0.23880546169E+04  0.23880546169E+04  0.25500000920E-02 0. -1.
       -2   -1    0    0    0  501  0.00000000000E+00  0.00000000000E+00 -0.77243922685E+03  0.77243922685E+03  0.25500000920E-02 0.  1.
    10030    2    1    2    0    0  0.00000000000E+00  0.00000000000E+00  0.16156153900E+04  0.31604938437E+04  0.27163409668E+04 0.  0.
        2    1    3    3  502    0  0.46090902122E+03 -0.71806817894E+03  0.20372644541E+04  0.22087339114E+04  0.25500000920E-02 0. -1.
       -2    1    3    3    0  502 -0.46090902122E+03  0.71806817894E+03 -0.42164906410E+03  0.95175993229E+03  0.25500000920E-02 0.  1.
</event>
<event>
 5   0  0.1881699E-05  0.2609214E+04  0.7818609E-02  0.8365078E-01
        2   -1    0    0  501    0  0.00000000000E+00  0.00000000000E+00  0.15836368923E+04  0.15836368923E+04  0.25500000920E-02 0. -1.
       -2   -1    0    0    0  501  0.00000000000E+00  0.00000000000E+00 -0.10747411113E+04  0.10747411113E+04  0.25500000920E-02 0.  1.
    10030    2    1    2    0    0  0.00000000000E+00  0.00000000000E+00  0.50889578096E+03  0.26583780036E+04  0.26092141909E+04 0.  0.
        4    1    3    3  502    0 -0.52076557738E+03 -0.11861485247E+04  0.97093790518E+02  0.12990665596E+04  0.12699999809E+01 0. -1.
       -4    1    3    3    0  502  0.52076557738E+03  0.11861485247E+04  0.41180199044E+03  0.13593114439E+04  0.12699999809E+01 0.  1.
</event>
<event>
 5   0  0.7600052E-06  0.2601712E+04  0.7818609E-02  0.8367620E-01
       -1   -1    0    0    0  501  0.00000000000E+00  0.00000000000E+00  0.80452574490E+03  0.80452574492E+03  0.50400001928E-02 0.  1.
        1   -1    0    0  501    0  0.00000000000E+00  0.00000000000E+00 -0.21033831769E+04  0.21033831769E+04  0.50400001928E-02 0. -1.
    10030    2    1    2    0    0  0.00000000000E+00  0.00000000000E+00 -0.12988574320E+04  0.29079089218E+04  0.26017116806E+04 0.  0.
        5    1    3    3  502    0  0.11638428818E+03 -0.11101549883E+04  0.97180655413E+02  0.11204711377E+04  0.46999998093E+01 0.  1.
       -5    1    3    3    0  502 -0.11638428818E+03  0.11101549883E+04 -0.13960380874E+04  0.17874377841E+04  0.46999998093E+01 0. -1.
</event>
<event>
 5   0  0.1878160E-05  0.2715883E+04  0.7818609E-02  0.8329870E-01
        2   -1    0    0  501    0  0.00000000000E+00  0.00000000000E+00  0.17971809167E+04  0.17971809167E+04  0.25500000920E-02 0.  1.
       -2   -1    0    0    0  501  0.00000000000E+00  0.00000000000E+00 -0.10260539393E+04  0.10260539393E+04  0.25500000920E-02 0. -1.
    10030    2    1    2    0    0  0.00000000000E+00  0.00000000000E+00  0.77112697743E+03  0.28232348559E+04  0.27158825889E+04 0.  0.
        1    1    3    3  502    0  0.12642429625E+04  0.29292936364E+02  0.89993137294E+03  0.15521097965E+04  0.50400001928E-02 0.  1.
       -1    1    3    3    0  502 -0.12642429625E+04 -0.29292936364E+02 -0.12880439552E+03  0.12711250594E+04  0.50400001928E-02 0. -1.
</event>
<event>
 5   0  0.7600052E-06  0.2668807E+04  0.7818609E-02  0.8345198E-01
       -1   -1    0    0    0  501  0.00000000000E+00  0.00000000000E+00  0.87417881571E+03  0.87417881573E+03  0.50400001928E-02 0. -1.
        1   -1    0    0  501    0  0.00000000000E+00  0.00000000000E+00 -0.20369200411E+04  0.20369200411E+04  0.50400001928E-02 0.  1.
    10030    2    1    2    0    0  0.00000000000E+00  0.00000000000E+00 -0.11627412254E+04  0.29110988569E+04  0.26688067366E+04 0.  0.
        5    1    3    3  502    0  0.43684770460E+03  0.12389308295E+04 -0.83677486693E+03  0.15575621288E+04  0.46999998093E+01 0.  1.
       -5    1    3    3    0  502 -0.43684770460E+03 -0.12389308295E+04 -0.32596635848E+03  0.13535367280E+04  0.46999998093E+01 0. -1.
</event>
<event>
 5   0  0.7754912E-06  0.2692303E+04  0.7818609E-02  0.8337507E-01
        1   -1    0    0  501    0  0.00000000000E+00  0.00000000000E+00  0.15134157863E+04  0.15134157863E+04  0.50400001928E-02 0. -1.
       -1   -1    0    0    0  501  0.00000000000E+00  0.00000000000E+00 -0.11973734833E+04  0.11973734833E+04  0.50400001928E-02 0.  1.
    10030    2    1    2    0    0  0.00000000000E+00  0.00000000000E+00  0.31604230300E+03  0.27107892697E+04  0.26923030527E+04 0.  0.
        4    1    3    3  502    0 -0.11034869575E+03 -0.48379920840E+03 -0.11019238306E+04  0.12085016549E+04  0.12699999809E+01 0.  1.
       -4    1    3    3    0  502  0.11034869575E+03  0.48379920840E+03  0.14179661336E+04  0.15022876148E+04  0.12699999809E+01 0. -1.
</event>
<event>
 5   0  0.7348964E-06  0.2662177E+04  0.7818609E-02  0.8347383E-01
        1   -1    0    0  501    0  0.00000000000E+00  0.00000000000E+00  0.16794616833E+04  0.16794616833E+04  0.50400001928E-02 0. -1.
       -1   -1    0    0    0  501  0.00000000000E+00  0.00000000000E+00 -0.10549785739E+04  0.10549785739E+04  0.50400001928E-02 0.  1.
    10030    2    1    2    0    0  0.00000000000E+00  0.00000000000E+00  0.62448310943E+03  0.27344402572E+04  0.26621766219E+04 0.  0.
        1    1    3    3  502    0  0.75669746577E+03  0.77005192743E+03  0.11119810028E+04  0.15498621797E+04  0.50400001928E-02 0.  1.
       -1    1    3    3    0  502 -0.75669746577E+03 -0.77005192743E+03 -0.48749789335E+03  0.11845780775E+04  0.50400001928E-02 0. -1.
</event>
<event>
 5   0  0.7348964E-06  0.1928710E+04  0.7818609E-02  0.8640696E-01
       -1   -1    0    0    0  501  0.00000000000E+00  0.00000000000E+00  0.96883114032E+03  0.96883114033E+03  0.50400001928E-02 0.  1.
        1   -1    0    0  501    0  0.00000000000E+00  0.00000000000E+00 -0.95990001613E+03  0.95990001614E+03  0.50400001928E-02 0. -1.
    10030    2    1    2    0    0  0.00000000000E+00  0.00000000000E+00  0.89311241867E+01  0.19287311565E+04  0.19287104783E+04 0.  0.
        1    1    3    3  502    0  0.12945184416E+03 -0.93594749453E+03  0.19740683025E+03  0.96525900624E+03  0.50400001928E-02 0.  1.
       -1    1    3    3    0  502 -0.12945184416E+03  0.93594749453E+03 -0.18847570606E+03  0.96347215023E+03  0.50400001928E-02 0. -1.
</event>
<event>
 5   0  0.7348964E-06  0.2672984E+04  0.7818609E-02  0.8343824E-01
        1   -1    0    0  501    0  0.00000000000E+00  0.00000000000E+00  0.24829321602E+04  0.24829321602E+04  0.50400001928E-02 0.  1.
       -1   -1    0    0    0  501  0.00000000000E+00  0.00000000000E+00 -0.71939552470E+03  0.71939552472E+03  0.50400001928E-02 0. -1.
    10030    2    1    2    0    0  0.00000000000E+00  0.00000000000E+00  0.17635366355E+04  0.32023276849E+04  0.26729835646E+04 0.  0.
        1    1    3    3  502    0 -0.36400543972E+03  0.39118396564E+02 -0.65815172557E+03  0.75312276755E+03  0.50400001928E-02 0. -1.
       -1    1    3    3    0  502  0.36400543972E+03 -0.39118396564E+02  0.24216883610E+04  0.24492049173E+04  0.50400001928E-02 0.  1.
</event>
<event>
 5   0  0.6804685E-06  0.2874645E+04  0.7818609E-02  0.8280462E-01
       -1   -1    0    0    0  501  0.00000000000E+00  0.00000000000E+00  0.15427641300E+04  0.15427641300E+04  0.50400001928E-02 0. -1.
        1   -1    0    0  501    0  0.00000000000E+00  0.00000000000E+00 -0.13390874280E+04  0.13390874280E+04  0.50400001928E-02 0.  1.
    10030    2    1    2    0    0  0.00000000000E+00  0.00000000000E+00  0.20367670204E+03  0.28818515580E+04  0.28746450570E+04 0.  0.
        2    1    3    3  502    0 -0.21179283604E+02  0.30770566533E+03 -0.13055202355E+04  0.13414598108E+04  0.25500000920E-02 0.  1.
       -2    1    3    3    0  502  0.21179283604E+02 -0.30770566533E+03  0.15091969376E+04  0.15403917472E+04  0.25500000920E-02 0. -1.
</event>
<event>
 5   0  0.7600052E-06  0.2734908E+04  0.7818609E-02  0.8323767E-01
        1   -1    0    0  501    0  0.00000000000E+00  0.00000000000E+00  0.17458101662E+04  0.17458101662E+04  0.50400001928E-02 0. -1.
       -1   -1    0    0    0  501  0.00000000000E+00  0.00000000000E+00 -0.10710962921E+04  0.10710962922E+04  0.50400001928E-02 0.  1.
    10030    2    1    2    0    0  0.00000000000E+00  0.00000000000E+00  0.67471387406E+03  0.28169064584E+04  0.27349082587E+04 0.  0.
        5    1    3    3  502    0 -0.14343493767E+03  0.69881346272E+02  0.17361816904E+04  0.17435039248E+04  0.46999998093E+01 0. -1.
       -5    1    3    3    0  502  0.14343493767E+03 -0.69881346272E+02 -0.10614678163E+04  0.10734025335E+04  0.46999998093E+01 0.  1.
</event>
<event>
 5   0  0.1931119E-05  0.2981558E+04  0.7818609E-02  0.8249017E-01
       -2   -1    0    0    0  501  0.00000000000E+00  0.00000000000E+00  0.15861623847E+04  0.15861623847E+04  0.25500000920E-02 0.  1.
        2   -1    0    0  501    0  0.00000000000E+00  0.00000000000E+00 -0.14011311364E+04  0.14011311364E+04  0.25500000920E-02 0. -1.
    10030    2    1    2    0    0  0.00000000000E+00  0.00000000000E+00  0.18503124829E+03  0.29872935212E+04  0.29815576497E+04 0.  0.
        3    1    3    3  502    0  0.22305764897E+03  0.21847185269E+03 -0.13680050126E+04  0.14031829496E+04  0.10100000352E+00 0. -1.
       -3    1    3    3    0  502 -0.22305764897E+03 -0.21847185269E+03  0.15530362609E+04  0.15841105716E+04  0.10100000352E+00 0.  1.
</event>
<event>
 5   0  0.7351590E-06  0.2684051E+04  0.7818609E-02  0.8340199E-01
       -1   -1    0    0    0  501  0.00000000000E+00  0.00000000000E+00  0.15363078021E+04  0.15363078021E+04  0.50400001928E-02 0. -1.
        1   -1    0    0  501    0  0.00000000000E+00  0.00000000000E+00 -0.11723118159E+04  0.11723118159E+04  0.50400001928E-02 0.  1.
    10030    2    1    2    0    0  0.00000000000E+00  0.00000000000E+00  0.36399598617E+03  0.27086196181E+04  0.26840505132E+04 0.  0.
        3    1    3    3  502    0  0.45838150553E+03 -0.11234290340E+04  0.76068002822E+03  0.14320755967E+04  0.10100000352E+00 0.  1.
       -3    1    3    3    0  502 -0.45838150553E+03  0.11234290340E+04 -0.39668404206E+03  0.12765440214E+04  0.10100000352E+00 0. -1.
</event>
<event>
 5   0  0.6804685E-06  0.2678946E+04  0.7818609E-02  0.8341869E-01
       -1   -1    0    0    0  501  0.00000000000E+00  0.00000000000E+00  0.75136819932E+03  0.75136819933E+03  0.50400001928E-02 0.  1.
        1   -1    0    0  501    0  0.00000000000E+00  0.00000000000E+00 -0.23878938301E+04  0.23878938301E+04  0.50400001928E-02 0. -1.
    10030    2    1    2    0    0  0.00000000000E+00  0.00000000000E+00 -0.16365256308E+04  0.31392620295E+04  0.26789456787E+04 0.  0.
        2    1    3    3  502    0 -0.70701345531E+03 -0.68870923647E+03 -0.18793970694E+04  0.21228098791E+04  0.25500000920E-02 0. -1.
       -2    1    3    3    0  502  0.70701345531E+03  0.68870923647E+03  0.24287143854E+03  0.10164521504E+04  0.25500000920E-02 0.  1.
</event>
<event>
 5   0  0.1826851E-05  0.2698532E+04  0.7818609E-02  0.8335481E-01
        2   -1    0    0  501    0  0.00000000000E+00  0.00000000000E+00  0.78048704656E+03  0.78048704657E+03  0.25500000920E-02 0.  1.
       -2   -1    0    0    0  501  0.00000000000E+00  0.00000000000E+00 -0.23325415965E+04  0.23325415965E+04  0.25500000920E-02 0. -1.
    10030    2    1    2    0    0  0.00000000000E+00  0.00000000000E+00 -0.15520545499E+04  0.31130286431E+04  0.26985318243E+04 0.  0.
        5    1    3    3  502    0  0.56181251169E+03  0.88453629665E+03 -0.17565599512E+04  0.20453759338E+04  0.46999998093E+01 0. -1.
       -5    1    3    3    0  502 -0.56181251169E+03 -0.88453629665E+03  0.20450540131E+03  0.10676527092E+04  0.46999998093E+01 0.  1.
</event>
<event>
 5   0  0.1931119E-05  0.2697434E+04  0.7818609E-02  0.8335838E-01
        2   -1    0    0  501    0  0.00000000000E+00  0.00000000000E+00  0.17073010549E+04  0.17073010549E+04  0.25500000920E-02 0.  1.
       -2   -1    0    0    0  501  0.00000000000E+00  0.00000000000E+00 -0.10654459961E+04  0.10654459961E+04  0.25500000920E-02 0. -1.
    10030    2    1    2    0    0  0.00000000000E+00  0.00000000000E+00  0.64185505880E+03  0.27727470510E+04  0.26974336493E+04 0.  0.
        3    1    3    3  502    0 -0.86421679709E+03  0.76998159488E+03 -0.39071322272E+03  0.12216379011E+04  0.10100000352E+00 0.  1.
       -3    1    3    3    0  502  0.86421679709E+03 -0.76998159488E+03  0.10325682815E+04  0.15511091499E+04  0.10100000352E+00 0. -1.
</event>
<event>
 5   0  0.7348964E-06  0.2675144E+04  0.7818609E-02  0.8343115E-01
       -1   -1    0    0    0  501  0.00000000000E+00  0.00000000000E+00  0.78123266255E+03  0.78123266256E+03  0.50400001928E-02 0.  1.
        1   -1    0    0  501    0  0.00000000000E+00  0.00000000000E+00 -0.22900973779E+04  0.22900973780E+04  0.50400001928E-02 0. -1.
    10030    2    1    2    0    0  0.00000000000E+00  0.00000000000E+00 -0.15088647154E+04  0.30713300405E+04  0.26751440126E+04 0.  0.
        1    1    3    3  502    0 -0.52902361461E+03 -0.10972009739E+04 -0.13888886160E+04  0.18473569091E+04  0.50400001928E-02 0. -1.
       -1    1    3    3    0  502  0.52902361461E+03  0.10972009739E+04 -0.11997609944E+03  0.12239731314E+04  0.50400001928E-02 0.  1.
</event>
<event>
 5   0  0.1881699E-05  0.2702560E+04  0.7818609E-02  0.8334175E-01
       -2   -1    0    0    0  501  0.00000000000E+00  0.00000000000E+00  0.12914520259E+04  0.12914520259E+04  0.25500000920E-02 0. -1.
        2   -1    0    0  501    0  0.00000000000E+00  0.00000000000E+00 -0.14138795443E+04  0.14138795444E+04  0.25500000920E-02 0.  1.
    10030    2    1    2    0    0  0.00000000000E+00  0.00000000000E+00 -0.12242751849E+03  0.27053315702E+04  0.27025599730E+04 0.  0.
        4    1    3    3  502    0 -0.72066544719E+02  0.12855765358E+04  0.34915223144E+03  0.13340950153E+04  0.12699999809E+01 0. -1.
       -4    1    3    3    0  502  0.72066544719E+02 -0.12855765358E+04 -0.47157974993E+03  0.13712365549E+04  0.12699999809E+01 0.  1.
</event>
<event>
 5   0  0.1878160E-05  0.2748112E+04  0.7818609E-02  0.8319561E-01
        2   -1    0    0  501    0  0.00000000000E+00  0.00000000000E+00  0.17703629183E+04  0.17703629183E+04  0.25500000920E-02 0. -1.
       -2   -1    0    0    0  501  0.00000000000E+00  0.00000000000E+00 -0.10664647415E+04  0.10664647415E+04  0.25500000920E-02 0.  1.
    10030    2    1    2    0    0  0.00000000000E+00  0.00000000000E+00  0.70389817681E+03  0.28368276598E+04  0.27481118114E+04 0.  0.
        1    1    3    3  502    0  0.16780145496E+03  0.12950134587E+04 -0.89419511680E+02  0.13088976413E+04  0.50400001928E-02 0.  1.
       -1    1    3    3    0  502 -0.16780145496E+03 -0.12950134587E+04  0.79331768849E+03  0.15279300185E+04  0.50400001928E-02 0. -1.
</event>
<event>
 5   0  0.1931119E-05  0.2723846E+04  0.7818609E-02  0.8327309E-01
        2   -1    0    0  501    0  0.00000000000E+00  0.00000000000E+00  0.11388293800E+04  0.11388293800E+04  0.25500000920E-02 0. -1.
       -2   -1    0    0    0  501  0.00000000000E+00  0.00000000000E+00 -0.16287198620E+04  0.16287198620E+04  0.25500000920E-02 0.  1.
    10030    2    1    2    0    0  0.00000000000E+00  0.00000000000E+00 -0.48989048196E+03  0.27675492420E+04  0.27238458331E+04 0.  0.
        3    1    3    3  502    0 -0.34562691468E+03  0.13110357964E+04 -0.11419012371E+03  0.13606293463E+04  0.10100000352E+00 0. -1.
       -3    1    3    3    0  502  0.34562691468E+03 -0.13110357964E+04 -0.37570035825E+03  0.14069198957E+04  0.10100000352E+00 0.  1.
</event>
<event>
 5   0  0.7600052E-06  0.2661875E+04  0.7818609E-02  0.8347482E-01
        1   -1    0    0  501    0  0.00000000000E+00  0.00000000000E+00  0.20439597877E+04  0.20439597877E+04  0.50400001928E-02 0.  1.
       -1   -1    0    0    0  501  0.00000000000E+00  0.00000000000E+00 -0.86664832269E+03  0.86664832270E+03  0.50400001928E-02 0. -1.
    10030    2    1    2    0    0  0.00000000000E+00  0.00000000000E+00  0.11773114650E+04  0.29106081104E+04  0.26618747691E+04 0.  0.
        5    1    3    3  502    0 -0.10703525577E+04 -0.53730666946E+03 -0.46124541149E+02  0.11985418716E+04  0.46999998093E+01 0. -1.
       -5    1    3    3    0  502  0.10703525577E+04  0.53730666946E+03  0.12234360061E+04  0.17120662387E+04  0.46999998093E+01 0.  1.
</event>
<event>
 5   0  0.6804685E-06  0.2692533E+04  0.7818609E-02  0.8337432E-01
       -1   -1    0    0    0  501  0.00000000000E+00  0.00000000000E+00  0.12892262484E+04  0.12892262484E+04  0.50400001928E-02 0.  1.
        1   -1    0    0  501    0  0.00000000000E+00  0.00000000000E+00 -0.14058308366E+04  0.14058308366E+04  0.50400001928E-02 0. -1.
    10030    2    1    2    0    0  0.00000000000E+00  0.00000000000E+00 -0.11660458822E+03  0.26950570850E+04  0.26925333910E+04 0.  0.
        2    1    3    3  502    0 -0.29056562889E+03  0.17547680335E+03 -0.13622948507E+04  0.14039472046E+04  0.25500000920E-02 0. -1.
       -2    1    3    3    0  502  0.29056562889E+03 -0.17547680335E+03  0.12456902625E+04  0.12911098804E+04  0.25500000920E-02 0.  1.
</event>
<event>
 5   0  0.7351590E-06  0.2683712E+04  0.7818609E-02  0.8340309E-01
       -1   -1    0    0    0  501  0.00000000000E+00  0.00000000000E+00  0.12197118922E+04  0.12197118922E+04  0.50400001928E-02 0.  1.
        1   -1    0    0  501    0  0.00000000000E+00  0.00000000000E+00 -0.14762313765E+04  0.14762313765E+04  0.50400001928E-02 0. -1.
    10030    2    1    2    0    0  0.00000000000E+00  0.00000000000E+00 -0.25651948428E+03  0.26959432688E+04  0.26837115833E+04 0.  0.
        3    1    3    3  502    0 -0.13602383615E+03 -0.73684787414E+02  0.12107238038E+04  0.12205671105E+04  0.10100000352E+00 0.  1.
       -3    1    3    3    0  502  0.13602383615E+03  0.73684787414E+02 -0.14672432881E+04  0.14753761583E+04  0.10100000352E+00 0. -1.
</event>
<event>
 5   0  0.1788003E-05  0.2854479E+04  0.7818609E-02  0.8286552E-01
       -2   -1    0    0    0  501  0.00000000000E+00  0.00000000000E+00  0.17088373016E+04  0.17088373016E+04  0.25500000920E-02 0. -1.
        2   -1    0    0  501    0  0.00000000000E+00  0.00000000000E+00 -0.11920455754E+04  0.11920455754E+04  0.25500000920E-02 0.  1.
    10030    2    1    2    0    0  0.00000000000E+00  0.00000000000E+00  0.51679172616E+03  0.29008828771E+04  0.28544785475E+04 0.  0.
        2    1    3    3  502    0 -0.79091339646E+03 -0.62970120186E+03  0.12822180202E+04  0.16328351587E+04  0.25500000920E-02 0. -1.
       -2    1    3    3    0  502  0.79091339646E+03  0.62970120186E+03 -0.76542629402E+03  0.12680477183E+04  0.25500000920E-02 0.  1.
</event>
<event>
 5   0  0.1881699E-05  0.2600800E+04  0.7818609E-02  0.8367929E-01
        2   -1    0    0  501    0  0.00000000000E+00  0.00000000000E+00  0.10532485104E+04  0.10532485104E+04  0.25500000920E-02 0.  1.
       -2   -1    0    0    0  501  0.00000000000E+00  0.00000000000E+00 -0.16055474827E+04  0.16055474827E+04  0.25500000920E-02 0. -1.
    10030    2    1    2    0    0  0.00000000000E+00  0.00000000000E+00 -0.55229897235E+03  0.26587959931E+04  0.26008002573E+04 0.  0.
        4    1    3    3  502    0 -0.72276471862E+03  0.42931200510E+03 -0.12904131281E+04  0.15400861308E+04  0.12699999809E+01 0. -1.
       -4    1    3    3    0  502  0.72276471862E+03 -0.42931200510E+03  0.73811415575E+03  0.11187098623E+04  0.12699999809E+01 0.  1.
</event>
<event>
 5   0  0.6804685E-06  0.2821765E+04  0.7818609E-02  0.8296543E-01
       -1   -1    0    0    0  501  0.00000000000E+00  0.00000000000E+00  0.76701564958E+03  0.76701564959E+03  0.50400001928E-02 0.  1.
        1   -1    0    0  501    0  0.00000000000E+00  0.00000000000E+00 -0.25952397890E+04  0.25952397890E+04  0.50400001928E-02 0. -1.
    10030    2    1    2    0    0  0.00000000000E+00  0.00000000000E+00 -0.18282241394E+04  0.33622554386E+04  0.28217650736E+04 0.  0.
        2    1    3    3  502    0  0.44054619526E+03 -0.89066414835E+02  0.67942995420E+03  0.81464031270E+03  0.25500000920E-02 0.  1.
       -2    1    3    3    0  502 -0.44054619526E+03  0.89066414835E+02 -0.25076540936E+04  0.25476151259E+04  0.25500000920E-02 0. -1.
</event>
<event>
 5   0  0.7600052E-06  0.2258856E+04  0.7818609E-02  0.8494322E-01
        1   -1    0    0  501    0  0.00000000000E+00  0.00000000000E+00  0.10042186630E+04  0.10042186630E+04  0.50400001928E-02 0.  1.
       -1   -1    0    0    0  501  0.00000000000E+00  0.00000000000E+00 -0.12702493672E+04  0.12702493673E+04  0.50400001928E-02 0. -1.
    10030    2    1    2    0    0  0.00000000000E+00  0.00000000000E+00 -0.26603070428E+03  0.22744680302E+04  0.22588564551E+04 0.  0.
        5    1    3    3  502    0  0.91733074126E+03  0.38729393908E+03 -0.66970354497E+03  0.12000071718E+04  0.46999998093E+01 0. -1.
       -5    1    3    3    0  502 -0.91733074126E+03 -0.38729393908E+03  0.40367284069E+03  0.10744608585E+04  0.46999998093E+01 0.  1.
</event>
<event>
 5   0  0.6804685E-06  0.2704801E+04  0.7818609E-02  0.8333449E-01
       -1   -1    0    0    0  501  0.00000000000E+00  0.00000000000E+00  0.22102207696E+04  0.22102207696E+04  0.50400001928E-02 0.  1.
        1   -1    0    0  501    0  0.00000000000E+00  0.00000000000E+00 -0.82751346280E+03  0.82751346282E+03  0.50400001928E-02 0. -1.
    10030    2    1    2    0    0  0.00000000000E+00  0.00000000000E+00  0.13827073068E+04  0.30377342324E+04  0.27048012442E+04 0.  0.
        2    1    3    3  502    0  0.76382586004E+03  0.88923922244E+03 -0.66054449762E+02  0.11741122304E+04  0.25500000920E-02 0. -1.
       -2    1    3    3    0  502 -0.76382586004E+03 -0.88923922244E+03  0.14487617566E+04  0.18636220020E+04  0.25500000920E-02 0.  1.
</event>
<event>
 5   0  0.1788003E-05  0.2679218E+04  0.7818609E-02  0.8341780E-01
        2   -1    0    0  501    0  0.00000000000E+00  0.00000000000E+00  0.24339975693E+04  0.24339975693E+04  0.25500000920E-02 0.  1.
       -2   -1    0    0    0  501  0.00000000000E+00  0.00000000000E+00 -0.73728572708E+03  0.73728572708E+03  0.25500000920E-02 0. -1.
    10030    2    1    2    0    0  0.00000000000E+00  0.00000000000E+00  0.16967118422E+04  0.31712832964E+04  0.26792175482E+04 0.  0.
        2    1    3    3  502    0 -0.29460796749E+03  0.79964561724E+03  0.20717847098E+04  0.22402050914E+04  0.25500000920E-02 0.  1.
       -2    1    3    3    0  502  0.29460796749E+03 -0.79964561724E+03 -0.37507286764E+03  0.93107820494E+03  0.25500000920E-02 0. -1.
</event>
<event>
 5   0  0.1931119E-05  0.2584161E+04  0.7818609E-02  0.8373601E-01
       -2   -1    0    0    0  501  0.00000000000E+00  0.00000000000E+00  0.74882603445E+03  0.74882603446E+03  0.25500000920E-02 0. -1.
        2   -1    0    0  501    0  0.00000000000E+00  0.00000000000E+00 -0.22294524382E+04  0.22294524382E+04  0.25500000920E-02 0.  1.
    10030    2    1    2    0    0  0.00000000000E+00  0.00000000000E+00 -0.14806264037E+04  0.29782784727E+04  0.25841610076E+04 0.  0.
        3    1    3    3  502    0 -0.67077369060E+03 -0.81134405916E+03 -0.16037410165E+04  0.19183852024E+04  0.10100000352E+00 0.  1.
       -3    1    3    3    0  502  0.67077369060E+03  0.81134405916E+03  0.12311461279E+03  0.10598932703E+04  0.10100000352E+00 0. -1.
</event>
<event>
 5   0  0.1788003E-05  0.2703751E+04  0.7818609E-02  0.8333789E-01
       -2   -1    0    0    0  501  0.00000000000E+00  0.00000000000E+00  0.13932813635E+04  0.13932813635E+04  0.25500000920E-02 0.  1.
        2   -1    0    0  501    0  0.00000000000E+00  0.00000000000E+00 -0.13117001362E+04  0.13117001362E+04  0.25500000920E-02 0. -1.
    10030    2    1    2    0    0  0.00000000000E+00  0.00000000000E+00  0.81581227290E+02  0.27049814997E+04  0.27037509902E+04 0.  0.
        2    1    3    3  502    0 -0.13093080113E+04 -0.18527691279E+03  0.32190310370E+03  0.13609689971E+04  0.25500000920E-02 0.  1.
       -2    1    3    3    0  502  0.13093080113E+04  0.18527691279E+03 -0.24032187641E+03  0.13440125026E+04  0.25500000920E-02 0. -1.
</event>
<event>
 5   0  0.7351590E-06  0.2756836E+04  0.7818609E-02  0.8316796E-01
       -1   -1    0    0    0  501  0.00000000000E+00  0.00000000000E+00  0.11587060467E+04  0.11587060468E+04  0.50400001928E-02 0.  1.
        1   -1    0    0  501    0  0.00000000000E+00  0.00000000000E+00 -0.16397909459E+04  0.16397909459E+04  0.50400001928E-02 0. -1.
    10030    2    1    2    0    0  0.00000000000E+00  0.00000000000E+00 -0.48108489912E+03  0.27984969926E+04  0.27568356385E+04 0.  0.
        3    1    3    3  502    0  0.21308211531E+03 -0.58541493227E+03 -0.14887262046E+04  0.16138216609E+04  0.10100000352E+00 0. -1.
       -3    1    3    3    0  502 -0.21308211531E+03  0.58541493227E+03  0.10076413055E+04  0.11846753317E+04  0.10100000352E+00 0.  1.
</event>
<event>
 5   0  0.7600052E-06  0.2752536E+04  0.7818609E-02  0.8318157E-01
       -1   -1    0    0    0  501  0.00000000000E+00  0.00000000000E+00  0.11431201460E+04  0.11431201460E+04  0.50400001928E-02 0.  1.
        1   -1    0    0  501    0  0.00000000000E+00  0.00000000000E+00 -0.16569680153E+04  0.16569680153E+04  0.50400001928E-02 0. -1.
    10030    2    1    2    0    0  0.00000000000E+00  0.00000000000E+00 -0.51384786935E+03  0.28000881613E+04  0.27525359359E+04 0.  0.
        5    1    3    3  502    0  0.36185572947E+03  0.52382493454E+03 -0.14981501836E+04  0.16278231457E+04  0.46999998093E+01 0. -1.
       -5    1    3    3    0  502 -0.36185572947E+03 -0.52382493454E+03  0.98430231427E+03  0.11722650156E+04  0.46999998093E+01 0.  1.
</event>
<event>
 5   0  0.1826851E-05  0.2731672E+04  0.7818609E-02  0.8324801E-01
       -2   -1    0    0    0  501  0.00000000000E+00  0.00000000000E+00  0.53209340152E+03  0.53209340152E+03  0.25500000920E-02 0.  1.
        2   -1    0    0  501    0  0.00000000000E+00  0.00000000000E+00 -0.35059786713E+04  0.35059786713E+04  0.25500000920E-02 0. -1.
    10030    2    1    2    0    0  0.00000000000E+00  0.00000000000E+00 -0.29738852698E+04  0.40380720728E+04  0.27316721010E+04 0.  0.
        5    1    3    3  502    0  0.66235119870E+03  0.35076430240E+03  0.20093599268E+03  0.77597813720E+03  0.46999998093E+01 0.  1.
       -5    1    3    3    0  502 -0.66235119870E+03 -0.35076430240E+03 -0.31748212625E+04  0.32620939356E+04  0.46999998093E+01 0. -1.
</event>
<event>
 5   0  0.7600052E-06  0.2691667E+04  0.7818609E-02  0.8337714E-01
       -1   -1    0    0    0  501  0.00000000000E+00  0.00000000000E+00  0.12805953275E+04  0.12805953276E+04  0.50400001928E-02 0. -1.
        1   -1    0    0  501    0  0.00000000000E+00  0.00000000000E+00 -0.14143948248E+04  0.14143948248E+04  0.50400001928E-02 0.  1.
    10030    2    1    2    0    0  0.00000000000E+00  0.00000000000E+00 -0.13379949727E+03  0.26949901524E+04  0.26916666985E+04 0.  0.
        5    1    3    3  502    0  0.11919252281E+04  0.15487069904E+03  0.53930188776E+03  0.13173986864E+04  0.46999998093E+01 0.  1.
       -5    1    3    3    0  502 -0.11919252281E+04 -0.15487069904E+03 -0.67310138503E+03  0.13775914660E+04  0.46999998093E+01 0. -1.
</event>
<event>
 5   0  0.6804685E-06  0.2729765E+04  0.7818609E-02  0.8325411E-01
        1   -1    0    0  501    0  0.00000000000E+00  0.00000000000E+00  0.10055824090E+04  0.10055824090E+04  0.50400001928E-02 0. -1.
       -1   -1    0    0    0  501  0.00000000000E+00  0.00000000000E+00 -0.18525629681E+04  0.18525629681E+04  0.50400001928E-02 0.  1.
    10030    2    1    2    0    0  0.00000000000E+00  0.00000000000E+00 -0.84698055912E+03  0.28581453772E+04  0.27297653616E+04 0.  0.
        2    1    3    3  502    0  0.12294216395E+04  0.56894702862E+03 -0.59783390693E+03  0.14807375424E+04  0.25500000920E-02 0. -1.
       -2    1    3    3    0  502 -0.12294216395E+04 -0.56894702862E+03 -0.24914665219E+03  0.13774078348E+04  0.25500000920E-02 0.  1.
</event>
<event>
 5   0  0.1826851E-05  0.2701383E+04  0.7818609E-02  0.8334556E-01
        2   -1    0    0  501    0  0.00000000000E+00  0.00000000000E+00  0.15698845170E+04  0.15698845170E+04  0.25500000920E-02 0. -1.
       -2   -1    0    0    0  501  0.00000000000E+00  0.00000000000E+00 -0.11621029249E+04  0.11621029249E+04  0.25500000920E-02 0.  1.
    10030    2    1    2    0    0  0.00000000000E+00  0.00000000000E+00  0.40778159211E+03  0.27319874418E+04  0.27013828968E+04 0.  0.
        5    1    3    3  502    0 -0.11370600976E+04 -0.47867692184E+03 -0.35216375552E+03  0.12829959710E+04  0.46999998093E+01 0.  1.
       -5    1    3    3    0  502  0.11370600976E+04  0.47867692184E+03  0.75994534762E+03  0.14489914708E+04  0.46999998093E+01 0. -1.
</event>
<event>
 5   0  0.7348964E-06  0.2612648E+04  0.7818609E-02  0.8363918E-01
       -1   -1    0    0    0  501  0.00000000000E+00  0.00000000000E+00  0.80769394357E+03  0.80769394359E+03  0.50400001928E-02 0.  1.
        1   -1    0    0  501    0  0.00000000000E+00  0.00000000000E+00 -0.21127832584E+04  0.21127832584E+04  0.50400001928E-02 0. -1.
    10030    2    1    2    0    0  0.00000000000E+00  0.00000000000E+00 -0.13050893149E+04  0.29204772020E+04  0.26126478844E+04 0.  0.
        1    1    3    3  502    0 -0.45296948929E+03  0.72327997154E+03 -0.17580973183E+04  0.19542828496E+04  0.50400001928E-02 0. -1.
       -1    1    3    3    0  502  0.45296948929E+03 -0.72327997154E+03  0.45300800347E+03  0.96619435244E+03  0.50400001928E-02 0.  1.
</event>
<event>
 5   0  0.1931119E-05  0.2798204E+04  0.7818609E-02  0.8303826E-01
        2   -1    0    0  501    0  0.00000000000E+00  0.00000000000E+00  0.16402713013E+04  0.16402713013E+04  0.25500000920E-02 0. -1.
       -2   -1    0    0    0  501  0.00000000000E+00  0.00000000000E+00 -0.11933922354E+04  0.11933922354E+04  0.25500000920E-02 0.  1.
    10030    2    1    2    0    0  0.00000000000E+00  0.00000000000E+00  0.44687906595E+03  0.28336635367E+04  0.27982044492E+04 0.  0.
        3    1    3    3  502    0 -0.87189363343E+03 -0.41409145933E+03  0.12491002880E+04  0.15785822071E+04  0.10100000352E+00 0. -1.
       -3    1    3    3    0  502  0.87189363343E+03  0.41409145933E+03 -0.80222122207E+03  0.12550813297E+04  0.10100000352E+00 0.  1.
</event>
<event>
 5   0  0.1878160E-05  0.2677315E+04  0.7818609E-02  0.8342403E-01
        2   -1    0    0  501    0  0.00000000000E+00  0.00000000000E+00  0.13645468512E+04  0.13645468512E+04  0.25500000920E-02 0.  1.
       -2   -1    0    0    0  501  0.00000000000E+00  0.00000000000E+00 -0.13132593513E+04  0.13132593513E+04  0.25500000920E-02 0. -1.
    10030    2    1    2    0    0  0.00000000000E+00  0.00000000000E+00  0.51287499834E+02  0.26778062025E+04  0.26773150077E+04 0.  0.
        1    1    3    3  502    0  0.36922938255E+03 -0.10109277025E+04 -0.77055427889E+03  0.13236536757E+04  0.50400001928E-02 0. -1.
       -1    1    3    3    0  502 -0.36922938255E+03  0.10109277025E+04  0.82184177873E+03  0.13541525268E+04  0.50400001928E-02 0.  1.
</event>
<event>
 5   0  0.1931119E-05  0.2669190E+04  0.7818609E-02  0.8345072E-01
       -2   -1    0    0    0  501  0.00000000000E+00  0.00000000000E+00  0.83747160110E+03  0.83747160110E+03  0.25500000920E-02 0.  1.
        2   -1    0    0  501    0  0.00000000000E+00  0.00000000000E+00 -0.21268105310E+04  0.21268105310E+04  0.25500000920E-02 0. -1.
    10030    2    1    2    0    0  0.00000000000E+00  0.00000000000E+00 -0.12893389299E+04  0.29642821321E+04  0.26691897052E+04 0.  0.
        3    1    3    3  502    0 -0.40672909823E+03 -0.10469215993E+04 -0.14452479690E+04  0.18303592807E+04  0.10100000352E+00 0. -1.
       -3    1    3    3    0  502  0.40672909823E+03  0.10469215993E+04  0.15590903905E+03  0.11339228514E+04  0.10100000352E+00 0.  1.
</event>
<event>
 5   0  0.6804685E-06  0.2822500E+04  0.7818609E-02  0.8296317E-01
       -1   -1    0    0    0  501  0.00000000000E+00  0.00000000000E+00  0.94392170145E+03  0.94392170146E+03  0.50400001928E-02 0.  1.
        1   -1    0    0  501    0  0.00000000000E+00  0.00000000000E+00 -0.21099496356E+04  0.21099496356E+04  0.50400001928E-02 0. -1.
    10030    2    1    2    0    0  0.00000000000E+00  0.00000000000E+00 -0.11660279341E+04  0.30538713371E+04  0.28225004872E+04 0.  0.
        2    1    3    3  502    0 -0.54168834360E+03  0.58744714508E+03 -0.18415995569E+04  0.20074883157E+04  0.25500000920E-02 0. -1.
       -2    1    3    3    0  502  0.54168834360E+03 -0.58744714508E+03  0.67557162275E+03  0.10463830213E+04  0.25500000920E-02 0.  1.
</event>
<event>
 5   0  0.1881699E-05  0.2711788E+04  0.7818609E-02  0.8331190E-01
        2   -1    0    0  501    0  0.00000000000E+00  0.00000000000E+00  0.12094062996E+04  0.12094062996E+04  0.25500000920E-02 0. -1.
       -2   -1    0    0    0  501  0.00000000000E+00  0.00000000000E+00 -0.15201250818E+04  0.15201250818E+04  0.25500000920E-02 0.  1.
    10030    2    1    2    0    0  0.00000000000E+00  0.00000000000E+00 -0.31071878214E+03  0.27295313814E+04  0.27117882293E+04 0.  0.
        4    1    3    3  502    0  0.96283592631E+03  0.22360519504E+03  0.77882687200E+03  0.12584217154E+04  0.12699999809E+01 0. -1.
       -4    1    3    3    0  502 -0.96283592631E+03 -0.22360519504E+03 -0.10895456541E+04  0.14711096661E+04  0.12699999809E+01 0.  1.
</event>
<event>
 5   0  0.7600052E-06  0.2707908E+04  0.7818609E-02  0.8332444E-01
        1   -1    0    0  501    0  0.00000000000E+00  0.00000000000E+00  0.10097290220E+04  0.10097290220E+04  0.50400001928E-02 0. -1.
       -1   -1    0    0    0  501  0.00000000000E+00  0.00000000000E+00 -0.18155283415E+04  0.18155283416E+04  0.50400001928E-02 0.  1.
    10030    2    1    2    0    0  0.00000000000E+00  0.00000000000E+00 -0.80579931958E+03  0.28252573635E+04  0.27079081644E+04 0.  0.
        5    1    3    3  502    0  0.72425283951E+03  0.62980615718E+02  0.78881668595E+03  0.10727360288E+04  0.46999998093E+01 0. -1.
       -5    1    3    3    0  502 -0.72425283951E+03 -0.62980615718E+02 -0.15946160055E+04  0.17525213347E+04  0.46999998093E+01 0.  1.
</event>
<event>
 5   0  0.6804685E-06  0.2653790E+04  0.7818609E-02  0.8350156E-01
       -1   -1    0    0    0  501  0.00000000000E+00  0.00000000000E+00  0.12253811275E+04  0.12253811275E+04  0.50400001928E-02 0. -1.
        1   -1    0    0  501    0  0.00000000000E+00  0.00000000000E+00 -0.14368190069E+04  0.14368190069E+04  0.50400001928E-02 0.  1.
    10030    2    1    2    0    0  0.00000000000E+00  0.00000000000E+00 -0.21143787941E+03  0.26622001345E+04  0.26537904173E+04 0.  0.
        2    1    3    3  502    0 -0.87903034536E+03  0.33578594120E+03  0.83276925261E+03  0.12565632393E+04  0.25500000920E-02 0. -1.
       -2    1    3    3    0  502  0.87903034536E+03 -0.33578594120E+03 -0.10442071320E+04  0.14056368951E+04  0.25500000920E-02 0.  1.
</event>
<event>
 5   0  0.6804685E-06  0.2276706E+04  0.7818609E-02  0.8487163E-01
        1   -1    0    0  501    0  0.00000000000E+00  0.00000000000E+00  0.54967765754E+03  0.54967765756E+03  0.50400001928E-02 0. -1.
       -1   -1    0    0    0  501  0.00000000000E+00  0.00000000000E+00 -0.23574682291E+04  0.23574682291E+04  0.50400001928E-02 0.  1.
    10030    2    1    2    0    0  0.00000000000E+00  0.00000000000E+00 -0.18077905716E+04  0.29071458867E+04  0.22767060539E+04 0.  0.
        2    1    3    3  502    0 -0.73246833492E+03  0.67314981847E+03 -0.19730530715E+03  0.10141843639E+04  0.25500000920E-02 0. -1.
       -2    1    3    3    0  502  0.73246833492E+03 -0.67314981847E+03 -0.16104852644E+04  0.18929615228E+04  0.25500000920E-02 0.  1.
</event>
<event>
 5   0  0.7351590E-06  0.2710633E+04  0.7818609E-02  0.8331563E-01
        1   -1    0    0  501    0  0.00000000000E+00  0.00000000000E+00  0.23843421126E+04  0.23843421126E+04  0.50400001928E-02 0. -1.
       -1   -1    0    0    0  501  0.00000000000E+00  0.00000000000E+00 -0.77039401704E+03  0.77039401706E+03  0.50400001928E-02 0.  1.
    10030    2    1    2    0    0  0.00000000000E+00  0.00000000000E+00  0.16139480955E+04  0.31547361297E+04  0.27106330612E+04 0.  0.
        3    1    3    3  502    0 -0.12336345657E+04  0.20631509490E+02  0.14597644034E+04  0.19113325258E+04  0.10100000352E+00 0. -1.
       -3    1    3    3    0  502  0.12336345657E+04 -0.20631509490E+02  0.15418369218E+03  0.12434036038E+04  0.10100000352E+00 0.  1.
</event>
<event>
 5   0  0.7600052E-06  0.2706445E+04  0.7818609E-02  0.8332917E-01
        1   -1    0    0  501    0  0.00000000000E+00  0.00000000000E+00  0.14154525439E+04  0.14154525439E+04  0.50400001928E-02 0. -1.
       -1   -1    0    0    0  501  0.00000000000E+00  0.00000000000E+00 -0.12937284364E+04  0.12937284364E+04  0.50400001928E-02 0.  1.
    10030    2    1    2    0    0  0.00000000000E+00  0.00000000000E+00  0.12172410751E+03  0.27091809803E+04  0.27064450532E+04 0.  0.
        5    1    3    3  502    0 -0.75255450392E+03 -0.26976733789E+03 -0.10320641838E+04  0.13054850698E+04  0.46999998093E+01 0.  1.
       -5    1    3    3    0  502  0.75255450392E+03  0.26976733789E+03  0.11537882914E+04  0.14036959105E+04  0.46999998093E+01 0. -1.
</event>
<event>
 5   0  0.1826851E-05  0.2694603E+04  0.7818609E-02  0.8336758E-01
       -2   -1    0    0    0  501  0.00000000000E+00  0.00000000000E+00  0.15960819152E+04  0.15960819152E+04  0.25500000920E-02 0.  1.
        2   -1    0    0  501    0  0.00000000000E+00  0.00000000000E+00 -0.11372983167E+04  0.11372983167E+04  0.25500000920E-02 0. -1.
    10030    2    1    2    0    0  0.00000000000E+00  0.00000000000E+00  0.45878359849E+03  0.27333802319E+04  0.26946029581E+04 0.  0.
        5    1    3    3  502    0  0.44479141990E+02  0.80907898342E+03  0.13212702033E+04  0.15499562044E+04  0.46999998093E+01 0.  1.
       -5    1    3    3    0  502 -0.44479141990E+02 -0.80907898342E+03 -0.86248660479E+03  0.11834240275E+04  0.46999998093E+01 0. -1.
</event>
<event>
 5   0  0.7351590E-06  0.2707368E+04  0.7818609E-02  0.8332618E-01
       -1   -1    0    0    0  501  0.00000000000E+00  0.00000000000E+00  0.91104012373E+03  0.91104012375E+03  0.50400001928E-02 0. -1.
        1   -1    0    0  501    0  0.00000000000E+00  0.00000000000E+00 -0.20113937327E+04  0.20113937327E+04  0.50400001928E-02 0.  1.
    10030    2    1    2    0    0  0.00000000000E+00  0.00000000000E+00 -0.11003536089E+04  0.29224338564E+04  0.27073680172E+04 0.  0.
        3    1    3    3  502    0  0.10941943009E+03  0.37693779317E+03 -0.19486233349E+04  0.19877594480E+04  0.10100000352E+00 0.  1.
       -3    1    3    3    0  502 -0.10941943009E+03 -0.37693779317E+03  0.84826972596E+03  0.93467440843E+03  0.10100000352E+00 0. -1.
</event>
<event>
 5   0  0.7600052E-06  0.2540459E+04  0.7818609E-02  0.8388712E-01
       -1   -1    0    0    0  501  0.00000000000E+00  0.00000000000E+00  0.11797525716E+04  0.11797525716E+04  0.50400001928E-02 0.  1.
        1   -1    0    0  501    0  0.00000000000E+00  0.00000000000E+00 -0.13676453912E+04  0.13676453912E+04  0.50400001928E-02 0. -1.
    10030    2    1    2    0    0  0.00000000000E+00  0.00000000000E+00 -0.18789281957E+03  0.25473979628E+04  0.25404591454E+04 0.  0.
        5    1    3    3  502    0 -0.64377689404E+03 -0.72462592874E+03  0.72922800654E+03  0.12129826880E+04  0.46999998093E+01 0.  1.
       -5    1    3    3    0  502  0.64377689404E+03  0.72462592874E+03 -0.91712082610E+03  0.13344152748E+04  0.46999998093E+01 0. -1.
</event>
<event>
 5   0  0.7754912E-06  0.2694019E+04  0.7818609E-02  0.8336948E-01
        1   -1    0    0  501    0  0.00000000000E+00  0.00000000000E+00  0.16642975095E+04  0.16642975095E+04  0.50400001928E-02 0. -1.
       -1   -1    0    0    0  501  0.00000000000E+00  0.00000000000E+00 -0.10902101442E+04  0.10902101442E+04  0.50400001928E-02 0.  1.
    10030    2    1    2    0    0  0.00000000000E+00  0.00000000000E+00  0.57408736531E+03  0.27545076537E+04  0.26940185803E+04 0.  0.
        4    1    3    3  502    0 -0.37101117078E+03 -0.12775225332E+04  0.50326121700E+03  0.14223173265E+04  0.12699999809E+01 0.  1.
       -4    1    3    3    0  502  0.37101117078E+03  0.12775225332E+04  0.70826148311E+02  0.13321903272E+04  0.12699999809E+01 0. -1.
</event>
<event>
 5   0  0.6804685E-06  0.2750393E+04  0.7818609E-02  0.8318837E-01
       -1   -1    0    0    0  501  0.00000000000E+00  0.00000000000E+00  0.16476333047E+04  0.16476333047E+04  0.50400001928E-02 0. -1.
        1   -1    0    0  501    0  0.00000000000E+00  0.00000000000E+00 -0.11478076069E+04  0.11478076069E+04  0.50400001928E-02 0.  1.
    10030    2    1    2    0    0  0.00000000000E+00  0.00000000000E+00  0.49982569782E+03  0.27954409115E+04  0.27503934558E+04 0.  0.
        2    1    3    3  502    0  0.82797730424E+02  0.65673740441E+02 -0.11436742938E+04  0.11485466445E+04  0.25500000920E-02 0.  1.
       -2    1    3    3    0  502 -0.82797730424E+02 -0.65673740441E+02  0.16434999916E+04  0.16468942670E+04  0.25500000920E-02 0. -1.
</event>
<event>
 5   0  0.1788003E-05  0.2684170E+04  0.7818609E-02  0.8340159E-01
        2   -1    0    0  501    0  0.00000000000E+00  0.00000000000E+00  0.10664406243E+04  0.10664406243E+04  0.25500000920E-02 0.  1.
       -2   -1    0    0    0  501  0.00000000000E+00  0.00000000000E+00 -0.16889760646E+04  0.16889760646E+04  0.25500000920E-02 0. -1.
    10030    2    1    2    0    0  0.00000000000E+00  0.00000000000E+00 -0.62253544026E+03  0.27554166890E+04  0.26841704036E+04 0.  0.
        2    1    3    3  502    0 -0.34132412975E+03 -0.11756040313E+04 -0.87600238553E+03  0.15052996975E+04  0.25500000920E-02 0. -1.
       -2    1    3    3    0  502  0.34132412975E+03  0.11756040313E+04  0.25346694528E+03  0.12501169914E+04  0.25500000920E-02 0.  1.
</event>
<event>
 5   0  0.1931119E-05  0.2689316E+04  0.7818609E-02  0.8338480E-01
        2   -1    0    0  501    0  0.00000000000E+00  0.00000000000E+00  0.13038754708E+04  0.13038754708E+04  0.25500000920E-02 0.  1.
       -2   -1    0    0    0  501  0.00000000000E+00  0.00000000000E+00 -0.13867160663E+04  0.13867160663E+04  0.25500000920E-02 0. -1.
    10030    2    1    2    0    0  0.00000000000E+00  0.00000000000E+00 -0.82840595585E+02  0.26905915371E+04  0.26893159456E+04 0.  0.
        3    1    3    3  502    0  0.11045377059E+04 -0.58055180044E+03 -0.54271795291E+03  0.13607302170E+04  0.10100000352E+00 0. -1.
       -3    1    3    3    0  502 -0.11045377059E+04  0.58055180044E+03  0.45987735732E+03  0.13298613201E+04  0.10100000352E+00 0.  1.
</event>
<event>
 5   0  0.1881699E-05  0.2678859E+04  0.7818609E-02  0.8341897E-01
       -2   -1    0    0    0  501  0.00000000000E+00  0.00000000000E+00  0.74538922583E+03  0.74538922584E+03  0.25500000920E-02 0. -1.
        2   -1    0    0  501    0  0.00000000000E+00  0.00000000000E+00 -0.24068921447E+04  0.24068921447E+04  0.25500000920E-02 0.  1.
    10030    2    1    2    0    0  0.00000000000E+00  0.00000000000E+00 -0.16615029188E+04  0.31522813705E+04  0.26788590649E+04 0.  0.
        4    1    3    3  502    0  0.11674635096E+04  0.52715903513E+02 -0.16008728897E+04  0.19820559111E+04  0.12699999809E+01 0.  1.
       -4    1    3    3    0  502 -0.11674635096E+04 -0.52715903513E+02 -0.60630029127E+02  0.11702254595E+04  0.12699999809E+01 0. -1.
</event>
<event>
 5   0  0.7600052E-06  0.2789633E+04  0.7818609E-02  0.8306494E-01
        1   -1    0    0  501    0  0.00000000000E+00  0.00000000000E+00  0.15983560562E+04  0.15983560562E+04  0.50400001928E-02 0.  1.
       -1   -1    0    0    0  501  0.00000000000E+00  0.00000000000E+00 -0.12171963862E+04  0.12171963862E+04  0.50400001928E-02 0. -1.
    10030    2    1    2    0    0  0.00000000000E+00  0.00000000000E+00  0.38115966996E+03  0.28155524424E+04  0.27896331053E+04 0.  0.
        5    1    3    3  502    0 -0.44180101288E+03 -0.10146057868E+03  0.15219298505E+04  0.15880097430E+04  0.46999998093E+01 0.  1.
       -5    1    3    3    0  502  0.44180101288E+03  0.10146057868E+03 -0.11407701806E+04  0.12275426994E+04  0.46999998093E+01 0. -1.
</event>
<event>
 5   0  0.1878160E-05  0.2401414E+04  0.7818609E-02  0.8438974E-01
       -2   -1    0    0    0  501  0.00000000000E+00  0.00000000000E+00  0.11407531755E+04  0.11407531755E+04  0.25500000920E-02 0.  1.
        2   -1    0    0  501    0  0.00000000000E+00  0.00000000000E+00 -0.12638115953E+04  0.12638115953E+04  0.25500000920E-02 0. -1.
    10030    2    1    2    0    0  0.00000000000E+00  0.00000000000E+00 -0.12305841979E+03  0.24045647708E+04  0.24014138257E+04 0.  0.
        1    1    3    3  502    0  0.72679857153E+03 -0.42132355163E+03 -0.92052860608E+03  0.12462434005E+04  0.50400001928E-02 0. -1.
       -1    1    3    3    0  502 -0.72679857153E+03  0.42132355163E+03  0.79747018629E+03  0.11583213702E+04  0.50400001928E-02 0.  1.
</event>
<event>
 5   0  0.1826851E-05  0.2459512E+04  0.7818609E-02  0.8417553E-01
        2   -1    0    0  501    0  0.00000000000E+00  0.00000000000E+00  0.21921138234E+04  0.21921138234E+04  0.25500000920E-02 0. -1.
       -2   -1    0    0    0  501  0.00000000000E+00  0.00000000000E+00 -0.68988206131E+03  0.68988206132E+03  0.25500000920E-02 0.  1.
    10030    2    1    2    0    0  0.00000000000E+00  0.00000000000E+00  0.15022317621E+04  0.28819958847E+04  0.24595121493E+04 0.  0.
        5    1    3    3  502    0  0.75097107305E+03 -0.86550105466E+03  0.12741377910E+04  0.17136215535E+04  0.46999998093E+01 0.  1.
       -5    1    3    3    0  502 -0.75097107305E+03  0.86550105466E+03  0.22809397107E+03  0.11683743312E+04  0.46999998093E+01 0. -1.
</event>
<event>
 5   0  0.7754912E-06  0.2022145E+04  0.7818609E-02  0.8596337E-01
        1   -1    0    0  501    0  0.00000000000E+00  0.00000000000E+00  0.16659700404E+04  0.16659700404E+04  0.50400001928E-02 0.  1.
       -1   -1    0    0    0  501  0.00000000000E+00  0.00000000000E+00 -0.61361715916E+03  0.61361715918E+03  0.50400001928E-02 0. -1.
    10030    2    1    2    0    0  0.00000000000E+00  0.00000000000E+00  0.10523528813E+04  0.22795871996E+04  0.20221452010E+04 0.  0.
        4    1    3    3  502    0 -0.34813085600E+03  0.24708030320E+03  0.15593881317E+04  0.16167673695E+04  0.12699999809E+01 0.  1.
       -4    1    3    3    0  502  0.34813085600E+03 -0.24708030320E+03 -0.50703525038E+03  0.66281983009E+03  0.12699999809E+01 0. -1.
</event>
<event>
 5   0  0.6804685E-06  0.2836098E+04  0.7818609E-02  0.8292148E-01
       -1   -1    0    0    0  501  0.00000000000E+00  0.00000000000E+00  0.15145023209E+04  0.15145023209E+04  0.50400001928E-02 0.  1.
        1   -1    0    0  501    0  0.00000000000E+00  0.00000000000E+00 -0.13277382031E+04  0.13277382031E+04  0.50400001928E-02 0. -1.
    10030    2    1    2    0    0  0.00000000000E+00  0.00000000000E+00  0.18676411775E+03  0.28422405240E+04  0.28360977347E+04 0.  0.
        2    1    3    3  502    0  0.12184665685E+04  0.20203556461E+03  0.79158570567E+03  0.14669993447E+04  0.25500000920E-02 0.  1.
       -2    1    3    3    0  502 -0.12184665685E+04 -0.20203556461E+03 -0.60482158792E+03  0.13752411793E+04  0.25500000920E-02 0. -1.
</event>
<event>
 5   0  0.6804685E-06  0.2702548E+04  0.7818609E-02  0.8334179E-01
       -1   -1    0    0    0  501  0.00000000000E+00  0.00000000000E+00  0.10514878512E+04  0.10514878512E+04  0.50400001928E-02 0. -1.
        1   -1    0    0  501    0  0.00000000000E+00  0.00000000000E+00 -0.17365306822E+04  0.17365306822E+04  0.50400001928E-02 0.  1.
    10030    2    1    2    0    0  0.00000000000E+00  0.00000000000E+00 -0.68504283100E+03  0.27880185334E+04  0.27025476244E+04 0.  0.
        2    1    3    3  502    0 -0.16097009536E+03  0.13397310052E+04 -0.26848560445E+03  0.13758179595E+04  0.25500000920E-02 0. -1.
       -2    1    3    3    0  502  0.16097009536E+03 -0.13397310052E+04 -0.41655722656E+03  0.14122005739E+04  0.25500000920E-02 0.  1.
</event>
<event>
 5   0  0.7600052E-06  0.2677527E+04  0.7818609E-02  0.8342334E-01
        1   -1    0    0  501    0  0.00000000000E+00  0.00000000000E+00  0.23938634749E+04  0.23938634749E+04  0.50400001928E-02 0. -1.
       -1   -1    0    0    0  501  0.00000000000E+00  0.00000000000E+00 -0.74870107925E+03  0.74870107927E+03  0.50400001928E-02 0.  1.
    10030    2    1    2    0    0  0.00000000000E+00  0.00000000000E+00  0.16451623957E+04  0.31425645542E+04  0.26775273424E+04 0.  0.
        5    1    3    3  502    0  0.20871365309E+03  0.73715535236E+03  0.21111246668E+04  0.22458470231E+04  0.46999998093E+01 0. -1.
       -5    1    3    3    0  502 -0.20871365309E+03 -0.73715535236E+03 -0.46596227110E+03  0.89671753110E+03  0.46999998093E+01 0.  1.
</event>
<event>
 5   0  0.6804685E-06  0.2675973E+04  0.7818609E-02  0.8342843E-01
       -1   -1    0    0    0  501  0.00000000000E+00  0.00000000000E+00  0.19112666083E+04  0.19112666083E+04  0.50400001928E-02 0.  1.
        1   -1    0    0  501    0  0.00000000000E+00  0.00000000000E+00 -0.93666066308E+03  0.93666066310E+03  0.50400001928E-02 0. -1.
    10030    2    1    2    0    0  0.00000000000E+00  0.00000000000E+00  0.97460594523E+03  0.28479272714E+04  0.26759732799E+04 0.  0.
        2    1    3    3  502    0  0.80635783695E+03 -0.88695669645E+03  0.11198908275E+04  0.16404452469E+04  0.25500000920E-02 0.  1.
       -2    1    3    3    0  502 -0.80635783695E+03  0.88695669645E+03 -0.14528488222E+03  0.12074820245E+04  0.25500000920E-02 0. -1.
</event>
<event>
 5   0  0.1788003E-05  0.2719665E+04  0.7818609E-02  0.8328653E-01
        2   -1    0    0  501    0  0.00000000000E+00  0.00000000000E+00  0.20612792773E+04  0.20612792773E+04  0.25500000920E-02 0. -1.
       -2   -1    0    0    0  501  0.00000000000E+00  0.00000000000E+00 -0.89708561943E+03  0.89708561944E+03  0.25500000920E-02 0.  1.
    10030    2    1    2    0    0  0.00000000000E+00  0.00000000000E+00  0.11641936579E+04  0.29583648967E+04  0.27196646832E+04 0.  0.
        2    1    3    3  502    0 -0.10539454495E+04 -0.66744721001E+02 -0.34976454492E+03  0.11124707210E+04  0.25500000920E-02 0.  1.
       -2    1    3    3    0  502  0.10539454495E+04  0.66744721001E+02  0.15139582028E+04  0.18458941757E+04  0.25500000920E-02 0. -1.
</event>
<event>
 5   0  0.1788003E-05  0.2699802E+04  0.7818609E-02  0.8335069E-01
        2   -1    0    0  501    0  0.00000000000E+00  0.00000000000E+00  0.21602399740E+04  0.21602399740E+04  0.25500000920E-02 0. -1.
       -2   -1    0    0    0  501  0.00000000000E+00  0.00000000000E+00 -0.84353223023E+03  0.84353223024E+03  0.25500000920E-02 0.  1.
    10030    2    1    2    0    0  0.00000000000E+00  0.00000000000E+00  0.13167077438E+04  0.30037722043E+04  0.26998015061E+04 0.  0.
        2    1    3    3  502    0  0.41301803638E+03  0.11049224600E+04  0.13886016345E+04  0.18219912294E+04  0.25500000920E-02 0. -1.
       -2    1    3    3    0  502 -0.41301803638E+03 -0.11049224600E+04 -0.71893890681E+02  0.11817809748E+04  0.25500000920E-02 0.  1.
</event>
<event>
 5   0  0.1931119E-05  0.2319127E+04  0.7818609E-02  0.8470418E-01
        2   -1    0    0  501    0  0.00000000000E+00  0.00000000000E+00  0.85004003966E+03  0.85004003967E+03  0.25500000920E-02 0. -1.
       -2   -1    0    0    0  501  0.00000000000E+00  0.00000000000E+00 -0.15817926249E+04  0.15817926249E+04  0.25500000920E-02 0.  1.
    10030    2    1    2    0    0  0.00000000000E+00  0.00000000000E+00 -0.73175258523E+03  0.24318326646E+04  0.23191266163E+04 0.  0.
        3    1    3    3  502    0  0.10599938543E+04  0.33947646620E+03 -0.24870817567E+02  0.11133058025E+04  0.10100000352E+00 0. -1.
       -3    1    3    3    0  502 -0.10599938543E+04 -0.33947646620E+03 -0.70688176766E+03  0.13185268620E+04  0.10100000352E+00 0.  1.
</event>
<event>
 5   0  0.7348964E-06  0.2724951E+04  0.7818609E-02  0.8326954E-01
       -1   -1    0    0    0  501  0.00000000000E+00  0.00000000000E+00  0.95237367698E+03  0.95237367699E+03  0.50400001928E-02 0.  1.
        1   -1    0    0  501    0  0.00000000000E+00  0.00000000000E+00 -0.19491714085E+04  0.19491714086E+04  0.50400001928E-02 0. -1.
    10030    2    1    2    0    0  0.00000000000E+00  0.00000000000E+00 -0.99679773157E+03  0.29015450855E+04  0.27249510392E+04 0.  0.
        1    1    3    3  502    0  0.10064851476E+04  0.21718048561E+03  0.45170426547E+03  0.11243738076E+04  0.50400001928E-02 0.  1.
       -1    1    3    3    0  502 -0.10064851476E+04 -0.21718048561E+03 -0.14485019970E+04  0.17771712780E+04  0.50400001928E-02 0. -1.
</event>
<event>
 5   0  0.6804685E-06  0.2234619E+04  0.7818609E-02  0.8504156E-01
       -1   -1    0    0    0  501  0.00000000000E+00  0.00000000000E+00  0.72997963705E+03  0.72997963707E+03  0.50400001928E-02 0. -1.
        1   -1    0    0  501    0  0.00000000000E+00  0.00000000000E+00 -0.17101577020E+04  0.17101577020E+04  0.50400001928E-02 0.  1.
    10030    2    1    2    0    0  0.00000000000E+00  0.00000000000E+00 -0.98017806496E+03  0.24401373391E+04  0.22346188030E+04 0.  0.
        2    1    3    3  502    0  0.50507995900E+03 -0.93035959317E+03 -0.99863459909E+02  0.10633190717E+04  0.25500000920E-02 0. -1.
       -2    1    3    3    0  502 -0.50507995900E+03  0.93035959317E+03 -0.88031460506E+03  0.13768182674E+04  0.25500000920E-02 0.  1.
</event>
<event>
 5   0  0.6804685E-06  0.2695288E+04  0.7818609E-02  0.8336535E-01
       -1   -1    0    0    0  501  0.00000000000E+00  0.00000000000E+00  0.14699559437E+04  0.14699559437E+04  0.50400001928E-02 0.  1.
        1   -1    0    0  501    0  0.00000000000E+00  0.00000000000E+00 -0.12355093134E+04  0.12355093134E+04  0.50400001928E-02 0. -1.
    10030    2    1    2    0    0  0.00000000000E+00  0.00000000000E+00  0.23444663025E+03  0.27054652571E+04  0.26952879317E+04 0.  0.
        2    1    3    3  502    0  0.11074118473E+04  0.37978071039E+03  0.78723897863E+03  0.14107939598E+04  0.25500000920E-02 0.  1.
       -2    1    3    3    0  502 -0.11074118473E+04 -0.37978071039E+03 -0.55279234838E+03  0.12946712973E+04  0.25500000920E-02 0. -1.
</event>
<event>
 5   0  0.1931119E-05  0.2706952E+04  0.7818609E-02  0.8332753E-01
        2   -1    0    0  501    0  0.00000000000E+00  0.00000000000E+00  0.25487306700E+04  0.25487306700E+04  0.25500000920E-02 0. -1.
       -2   -1    0    0    0  501  0.00000000000E+00  0.00000000000E+00 -0.71874867499E+03  0.71874867500E+03  0.25500000920E-02 0.  1.
    10030    2    1    2    0    0  0.00000000000E+00  0.00000000000E+00  0.18299819950E+04  0.32674793450E+04  0.27069516375E+04 0.  0.
        3    1    3    3  502    0  0.10531558422E+04  0.75514917870E+03  0.13863811197E+04  0.18977460655E+04  0.10100000352E+00 0. -1.
       -3    1    3    3    0  502 -0.10531558422E+04 -0.75514917870E+03  0.44360087530E+03  0.13697332794E+04  0.10100000352E+00 0.  1.
</event>
<event>
 5   0  0.1788003E-05  0.2685988E+04  0.7818609E-02  0.8339566E-01
       -2   -1    0    0    0  501  0.00000000000E+00  0.00000000000E+00  0.11000288654E+04  0.11000288654E+04  0.25500000920E-02 0.  1.
        2   -1    0    0  501    0  0.00000000000E+00  0.00000000000E+00 -0.16396236395E+04  0.16396236395E+04  0.25500000920E-02 0. -1.
    10030    2    1    2    0    0  0.00000000000E+00  0.00000000000E+00 -0.53959477406E+03  0.27396525049E+04  0.26859883334E+04 0.  0.
        2    1    3    3  502    0  0.36339227923E+02 -0.10113437378E+04 -0.11703280012E+04  0.15471924010E+04  0.25500000920E-02 0. -1.
       -2    1    3    3    0  502 -0.36339227923E+02  0.10113437378E+04  0.63073322716E+03  0.11924601038E+04  0.25500000920E-02 0.  1.
</event>
<event>
 5   0  0.1788003E-05  0.2677181E+04  0.7818609E-02  0.8342447E-01
        2   -1    0    0  501    0  0.00000000000E+00  0.00000000000E+00  0.21199160655E+04  0.21199160655E+04  0.25500000920E-02 0.  1.
       -2   -1    0    0    0  501  0.00000000000E+00  0.00000000000E+00 -0.84523393086E+03  0.84523393086E+03  0.25500000920E-02 0. -1.
    10030    2    1    2    0    0  0.00000000000E+00  0.00000000000E+00  0.12746821346E+04  0.29651499963E+04  0.26771813455E+04 0.  0.
        2    1    3    3  502    0  0.57846994560E+03  0.12070147807E+04  0.65693056257E+03  0.14909962853E+04  0.25500000920E-02 0.  1.
       -2    1    3    3    0  502 -0.57846994560E+03 -0.12070147807E+04  0.61775157204E+03  0.14741537110E+04  0.25500000920E-02 0. -1.
</event>
<event>
 5   0  0.7754912E-06  0.2713647E+04  0.7818609E-02  0.8330590E-01
       -1   -1    0    0    0  501  0.00000000000E+00  0.00000000000E+00  0.97955818104E+03  0.97955818106E+03  0.50400001928E-02 0.  1.
        1   -1    0    0  501    0  0.00000000000E+00  0.00000000000E+00 -0.18793888117E+04  0.18793888117E+04  0.50400001928E-02 0. -1.
    10030    2    1    2    0    0  0.00000000000E+00  0.00000000000E+00 -0.89983063066E+03  0.28589469928E+04  0.27136474980E+04 0.  0.
        4    1    3    3  502    0  0.47544474999E+03 -0.44820375059E+03 -0.17027181109E+04  0.18237831259E+04  0.12699999809E+01 0. -1.
       -4    1    3    3    0  502 -0.47544474999E+03  0.44820375059E+03  0.80288748025E+03  0.10351638668E+04  0.12699999809E+01 0.  1.
</event>
<event>
 5   0  0.1878160E-05  0.2561171E+04  0.7818609E-02  0.8381511E-01
       -2   -1    0    0    0  501  0.00000000000E+00  0.00000000000E+00  0.12389587265E+04  0.12389587265E+04  0.25500000920E-02 0. -1.
        2   -1    0    0  501    0  0.00000000000E+00  0.00000000000E+00 -0.13236107940E+04  0.13236107940E+04  0.25500000920E-02 0.  1.
    10030    2    1    2    0    0  0.00000000000E+00  0.00000000000E+00 -0.84652067488E+02  0.25625695205E+04  0.25611709383E+04 0.  0.
        1    1    3    3  502    0  0.83113964411E+03 -0.13734540198E+03 -0.10073433969E+04  0.13131631988E+04  0.50400001928E-02 0.  1.
       -1    1    3    3    0  502 -0.83113964411E+03  0.13734540198E+03  0.92269132936E+03  0.12494063217E+04  0.50400001928E-02 0. -1.
</event>
<event>
 5   0  0.1931119E-05  0.2474600E+04  0.7818609E-02  0.8412091E-01
       -2   -1    0    0    0  501  0.00000000000E+00  0.00000000000E+00  0.21020502902E+04  0.21020502902E+04  0.25500000920E-02 0.  1.
        2   -1    0    0  501    0  0.00000000000E+00  0.00000000000E+00 -0.72829412306E+03  0.72829412307E+03  0.25500000920E-02 0. -1.
    10030    2    1    2    0    0  0.00000000000E+00  0.00000000000E+00  0.13737561672E+04  0.28303444133E+04  0.24745996628E+04 0.  0.
        3    1    3    3  502    0 -0.51076232862E+03  0.80052904118E+03 -0.22036538127E+03  0.97482604273E+03  0.10100000352E+00 0. -1.
       -3    1    3    3    0  502  0.51076232862E+03 -0.80052904118E+03  0.15941215484E+04  0.18555183706E+04  0.10100000352E+00 0.  1.
</event>
<event>
 5   0  0.6804685E-06  0.2692358E+04  0.7818609E-02  0.8337489E-01
        1   -1    0    0  501    0  0.00000000000E+00  0.00000000000E+00  0.12730928130E+04  0.12730928130E+04  0.50400001928E-02 0.  1.
       -1   -1    0    0    0  501  0.00000000000E+00  0.00000000000E+00 -0.14234610325E+04  0.14234610325E+04  0.50400001928E-02 0. -1.
    10030    2    1    2    0    0  0.00000000000E+00  0.00000000000E+00 -0.15036821952E+03  0.26965538456E+04  0.26923580818E+04 0.  0.
        2    1    3    3  502    0 -0.11567054066E+04  0.39989490874E+03  0.48632732564E+03  0.13169653008E+04  0.25500000920E-02 0.  1.
       -2    1    3    3    0  502  0.11567054066E+04 -0.39989490874E+03 -0.63669554516E+03  0.13795885448E+04  0.25500000920E-02 0. -1.
</event>
<event>
 5   0  0.1931119E-05  0.2686205E+04  0.7818609E-02  0.8339495E-01
        2   -1    0    0  501    0  0.00000000000E+00  0.00000000000E+00  0.17616905140E+04  0.17616905140E+04  0.25500000920E-02 0.  1.
       -2   -1    0    0    0  501  0.00000000000E+00  0.00000000000E+00 -0.10239734553E+04  0.10239734553E+04  0.25500000920E-02 0. -1.
    10030    2    1    2    0    0  0.00000000000E+00  0.00000000000E+00  0.73771705869E+03  0.27856639692E+04  0.26862049979E+04 0.  0.
        3    1    3    3  502    0 -0.54412211790E+03 -0.68862088929E+03 -0.68547431791E+03  0.11136169265E+04  0.10100000352E+00 0. -1.
       -3    1    3    3    0  502  0.54412211790E+03  0.68862088929E+03  0.14231913766E+04  0.16720470427E+04  0.10100000352E+00 0.  1.
</event>
<event>
 5   0  0.1788003E-05  0.2706155E+04  0.7818609E-02  0.8333011E-01
       -2   -1    0    0    0  501  0.00000000000E+00  0.00000000000E+00  0.12150153729E+04  0.12150153729E+04  0.25500000920E-02 0.  1.
        2   -1    0    0  501    0  0.00000000000E+00  0.00000000000E+00 -0.15068277441E+04  0.15068277441E+04  0.25500000920E-02 0. -1.
    10030    2    1    2    0    0  0.00000000000E+00  0.00000000000E+00 -0.29181237123E+03  0.27218431171E+04  0.27061551127E+04 0.  0.
        2    1    3    3  502    0  0.48605945554E+03  0.19621038317E+03 -0.14005616690E+04  0.14954348188E+04  0.25500000920E-02 0. -1.
       -2    1    3    3    0  502 -0.48605945554E+03 -0.19621038317E+03  0.11087492977E+04  0.12264082982E+04  0.25500000920E-02 0.  1.
</event>
<event>
 5   0  0.1826851E-05  0.2744278E+04  0.7818609E-02  0.8320780E-01
        2   -1    0    0  501    0  0.00000000000E+00  0.00000000000E+00  0.15434692432E+04  0.15434692432E+04  0.25500000920E-02 0.  1.
       -2   -1    0    0    0  501  0.00000000000E+00  0.00000000000E+00 -0.12198267363E+04  0.12198267363E+04  0.25500000920E-02 0. -1.
    10030    2    1    2    0    0  0.00000000000E+00  0.00000000000E+00  0.32364250691E+03  0.27632959795E+04  0.27442777188E+04 0.  0.
        5    1    3    3  502    0  0.78284972961E+03  0.46055390544E+03  0.11974328144E+04  0.15029407952E+04  0.46999998093E+01 0.  1.
       -5    1    3    3    0  502 -0.78284972961E+03 -0.46055390544E+03 -0.87379030751E+03  0.12603551842E+04  0.46999998093E+01 0. -1.
</event>
<event>
 5   0  0.7600052E-06  0.2711863E+04  0.7818609E-02  0.8331166E-01
       -1   -1    0    0    0  501  0.00000000000E+00  0.00000000000E+00  0.26879628793E+04  0.26879628793E+04  0.50400001928E-02 0.  1.
        1   -1    0    0  501    0  0.00000000000E+00  0.00000000000E+00 -0.68399412409E+03  0.68399412411E+03  0.50400001928E-02 0. -1.
    10030    2    1    2    0    0  0.00000000000E+00  0.00000000000E+00  0.20039687552E+04  0.33719570034E+04  0.27118634296E+04 0.  0.
        5    1    3    3  502    0 -0.12539327247E+04 -0.50053538686E+03  0.11575138630E+04  0.17784103533E+04  0.46999998093E+01 0. -1.
       -5    1    3    3    0  502  0.12539327247E+04  0.50053538686E+03  0.84645489218E+03  0.15935466501E+04  0.46999998093E+01 0.  1.
</event>
<event>
 5   0  0.7600052E-06  0.2679681E+04  0.7818609E-02  0.8341628E-01
        1   -1    0    0  501    0  0.00000000000E+00  0.00000000000E+00  0.29864683109E+04  0.29864683109E+04  0.50400001928E-02 0.  1.
       -1   -1    0    0    0  501  0.00000000000E+00  0.00000000000E+00 -0.60110219397E+03  0.60110219399E+03  0.50400001928E-02 0. -1.
    10030    2    1    2    0    0  0.00000000000E+00  0.00000000000E+00  0.23853661170E+04  0.35875705049E+04  0.26796810661E+04 0.  0.
        5    1    3    3  502    0 -0.41994801797E+03 -0.12722052504E+04  0.12154043958E+04  0.18088926094E+04  0.46999998093E+01 0.  1.
       -5    1    3    3    0  502  0.41994801797E+03  0.12722052504E+04  0.11699617211E+04  0.17786778955E+04  0.46999998093E+01 0. -1.
</event>
<event>
 5   0  0.1878160E-05  0.2498553E+04  0.7818609E-02  0.8403501E-01
       -2   -1    0    0    0  501  0.00000000000E+00  0.00000000000E+00  0.78056447396E+03  0.78056447396E+03  0.25500000920E-02 0. -1.
        2   -1    0    0  501    0  0.00000000000E+00  0.00000000000E+00 -0.19994405042E+04  0.19994405042E+04  0.25500000920E-02 0.  1.
    10030    2    1    2    0    0  0.00000000000E+00  0.00000000000E+00 -0.12188760302E+04  0.27800049781E+04  0.24985533617E+04 0.  0.
        1    1    3    3  502    0  0.11954135103E+04 -0.70926205079E+02 -0.10054027607E+04  0.15636107887E+04  0.50400001928E-02 0. -1.
       -1    1    3    3    0  502 -0.11954135103E+04  0.70926205079E+02 -0.21347326951E+03  0.12163941894E+04  0.50400001928E-02 0.  1.
</event>
<event>
 5   0  0.7754912E-06  0.2704956E+04  0.7818609E-02  0.8333399E-01
       -1   -1    0    0    0  501  0.00000000000E+00  0.00000000000E+00  0.93795253437E+03  0.93795253439E+03  0.50400001928E-02 0.  1.
        1   -1    0    0  501    0  0.00000000000E+00  0.00000000000E+00 -0.19502016652E+04  0.19502016652E+04  0.50400001928E-02 0. -1.
    10030    2    1    2    0    0  0.00000000000E+00  0.00000000000E+00 -0.10122491309E+04  0.28881541996E+04  0.27049558920E+04 0.  0.
        4    1    3    3  502    0  0.58231797326E+03 -0.12052733234E+04 -0.29958915164E+03  0.13716899353E+04  0.12699999809E+01 0.  1.
       -4    1    3    3    0  502 -0.58231797326E+03  0.12052733234E+04 -0.71265997922E+03  0.15164642643E+04  0.12699999809E+01 0. -1.
</event>
<event>
 5   0  0.1788003E-05  0.2713772E+04  0.7818609E-02  0.8330550E-01
       -2   -1    0    0    0  501  0.00000000000E+00  0.00000000000E+00  0.12402363485E+04  0.12402363485E+04  0.25500000920E-02 0.  1.
        2   -1    0    0  501    0  0.00000000000E+00  0.00000000000E+00 -0.14845075211E+04  0.14845075211E+04  0.25500000920E-02 0. -1.
    10030    2    1    2    0    0  0.00000000000E+00  0.00000000000E+00 -0.24427117254E+03  0.27247438696E+04  0.27137724203E+04 0.  0.
        2    1    3    3  502    0 -0.96411915313E+03  0.81893853667E+03  0.37071972044E+03  0.13181878392E+04  0.25500000920E-02 0.  1.
       -2    1    3    3    0  502  0.96411915313E+03 -0.81893853667E+03 -0.61499089298E+03  0.14065560304E+04  0.25500000920E-02 0. -1.
</event>
<event>
 5   0  0.7348964E-06  0.2697321E+04  0.7818609E-02  0.8335875E-01
        1   -1    0    0  501    0  0.00000000000E+00  0.00000000000E+00  0.23486000762E+04  0.23486000762E+04  0.50400001928E-02 0. -1.
       -1   -1    0    0    0  501  0.00000000000E+00  0.00000000000E+00 -0.77445497847E+03  0.77445497848E+03  0.50400001928E-02 0.  1.
    10030    2    1    2    0    0  0.00000000000E+00  0.00000000000E+00  0.15741450977E+04  0.31230550547E+04  0.26973209089E+04 0.  0.
        1    1    3    3  502    0 -0.24205269596E+03  0.11882953016E+04  0.10380239139E+03  0.12171319435E+04  0.50400001928E-02 0.  1.
       -1    1    3    3    0  502  0.24205269596E+03 -0.11882953016E+04  0.14703427063E+04  0.19059231111E+04  0.50400001928E-02 0. -1.
</event>
<event>
 5   0  0.1881699E-05  0.2691948E+04  0.7818609E-02  0.8337622E-01
       -2   -1    0    0    0  501  0.00000000000E+00  0.00000000000E+00  0.72715504073E+03  0.72715504073E+03  0.25500000920E-02 0.  1.
        2   -1    0    0  501    0  0.00000000000E+00  0.00000000000E+00 -0.24914161344E+04  0.24914161344E+04  0.25500000920E-02 0. -1.
    10030    2    1    2    0    0  0.00000000000E+00  0.00000000000E+00 -0.17642610936E+04  0.32185711751E+04  0.26919478455E+04 0.  0.
        4    1    3    3  502    0  0.33428465158E+03 -0.62757283422E+03  0.48426496616E+03  0.86029533352E+03  0.12699999809E+01 0.  1.
       -4    1    3    3    0  502 -0.33428465158E+03  0.62757283422E+03 -0.22485260598E+04  0.23582758416E+04  0.12699999809E+01 0. -1.
</event>
<event>
 5   0  0.7754912E-06  0.2814347E+04  0.7818609E-02  0.8298828E-01
       -1   -1    0    0    0  501  0.00000000000E+00  0.00000000000E+00  0.90162892089E+03  0.90162892090E+03  0.50400001928E-02 0.  1.
        1   -1    0    0  501    0  0.00000000000E+00  0.00000000000E+00 -0.21961781431E+04  0.21961781431E+04  0.50400001928E-02 0. -1.
    10030    2    1    2    0    0  0.00000000000E+00  0.00000000000E+00 -0.12945492222E+04  0.30978070640E+04  0.28143473341E+04 0.  0.
        4    1    3    3  502    0  0.88912988243E+03 -0.77344181304E+03  0.19918652715E+03  0.11951740758E+04  0.12699999809E+01 0.  1.
       -4    1    3    3    0  502 -0.88912988243E+03  0.77344181304E+03 -0.14937357494E+04  0.19026329882E+04  0.12699999809E+01 0. -1.
</event>
<event>
 5   0  0.6175875E-06  0.2679225E+04  0.7818609E-02  0.8341777E-01
       -4   -1    0    0    0  501  0.00000000000E+00  0.00000000000E+00  0.17000401259E+04  0.17000406003E+04  0.12699999809E+01 0. -1.
        4   -1    0    0  501    0  0.00000000000E+00  0.00000000000E+00 -0.10555987749E+04  0.10555995389E+04  0.12699999809E+01 0.  1.
    10030    2    1    2    0    0  0.00000000000E+00  0.00000000000E+00  0.64444135100E+03  0.27556401391E+04  0.26792252465E+04 0.  0.
        3    1    3    3  502    0  0.11177752444E+04  0.15173666788E+03  0.10654057280E+04  0.15516233077E+04  0.10100000352E+00 0. -1.
       -3    1    3    3    0  502 -0.11177752444E+04 -0.15173666788E+03 -0.42096437703E+03  0.12040168314E+04  0.10100000352E+00 0.  1.
</event>
<event>
 5   0  0.7754912E-06  0.2653859E+04  0.7818609E-02  0.8350133E-01
       -1   -1    0    0    0  501  0.00000000000E+00  0.00000000000E+00  0.12362845400E+04  0.12362845400E+04  0.50400001928E-02 0.  1.
        1   -1    0    0  501    0  0.00000000000E+00  0.00000000000E+00 -0.14242207657E+04  0.14242207657E+04  0.50400001928E-02 0. -1.
    10030    2    1    2    0    0  0.00000000000E+00  0.00000000000E+00 -0.18793622568E+03  0.26605053056E+04  0.26538591629E+04 0.  0.
        4    1    3    3  502    0  0.11057529547E+04  0.63374440512E+03 -0.46424242397E+03  0.13564085700E+04  0.12699999809E+01 0.  1.
       -4    1    3    3    0  502 -0.11057529547E+04 -0.63374440512E+03  0.27630619828E+03  0.13040967356E+04  0.12699999809E+01 0. -1.
</event>
<event>
 5   0  0.7600052E-06  0.2675169E+04  0.7818609E-02  0.8343107E-01
       -1   -1    0    0    0  501  0.00000000000E+00  0.00000000000E+00  0.14062767880E+04  0.14062767880E+04  0.50400001928E-02 0. -1.
        1   -1    0    0  501    0  0.00000000000E+00  0.00000000000E+00 -0.12722475801E+04  0.12722475801E+04  0.50400001928E-02 0.  1.
    10030    2    1    2    0    0  0.00000000000E+00  0.00000000000E+00  0.13402920786E+03  0.26785243682E+04  0.26751689596E+04 0.  0.
        5    1    3    3  502    0 -0.12338644203E+04 -0.43127559119E+03 -0.21740172858E+03  0.13250304316E+04  0.46999998093E+01 0.  1.
       -5    1    3    3    0  502  0.12338644203E+04  0.43127559119E+03  0.35143093644E+03  0.13534939365E+04  0.46999998093E+01 0. -1.
</event>
<event>
 5   0  0.1878160E-05  0.2655867E+04  0.7818609E-02  0.8349468E-01
        2   -1    0    0  501    0  0.00000000000E+00  0.00000000000E+00  0.17739800452E+04  0.17739800452E+04  0.25500000920E-02 0.  1.
       -2   -1    0    0    0  501  0.00000000000E+00  0.00000000000E+00 -0.99403997637E+03  0.99403997637E+03  0.25500000920E-02 0. -1.
    10030    2    1    2    0    0  0.00000000000E+00  0.00000000000E+00  0.77994006879E+03  0.27680200215E+04  0.26558667754E+04 0.  0.
        1    1    3    3  502    0  0.10231590174E+04  0.78137192668E+02 -0.48850388213E+03  0.11364839808E+04  0.50400001928E-02 0. -1.
       -1    1    3    3    0  502 -0.10231590174E+04 -0.78137192668E+02  0.12684439509E+04  0.16315360408E+04  0.50400001928E-02 0.  1.
</event>
<event>
 5   0  0.7600052E-06  0.2692447E+04  0.7818609E-02  0.8337460E-01
       -1   -1    0    0    0  501  0.00000000000E+00  0.00000000000E+00  0.18638077664E+04  0.18638077664E+04  0.50400001928E-02 0. -1.
        1   -1    0    0  501    0  0.00000000000E+00  0.00000000000E+00 -0.97237356927E+03  0.97237356929E+03  0.50400001928E-02 0.  1.
    10030    2    1    2    0    0  0.00000000000E+00  0.00000000000E+00  0.89143419713E+03  0.28361813357E+04  0.26924467759E+04 0.  0.
        5    1    3    3  502    0 -0.43523126058E+03  0.39271234957E+03  0.17222894764E+04  0.18193274500E+04  0.46999998093E+01 0. -1.
       -5    1    3    3    0  502  0.43523126058E+03 -0.39271234957E+03 -0.83085527931E+03  0.10168538857E+04  0.46999998093E+01 0.  1.
</event>
<event>
 5   0  0.1878160E-05  0.2689140E+04  0.7818609E-02  0.8338537E-01
       -2   -1    0    0    0  501  0.00000000000E+00  0.00000000000E+00  0.13620860688E+04  0.13620860688E+04  0.25500000920E-02 0. -1.
        2   -1    0    0  501    0  0.00000000000E+00  0.00000000000E+00 -0.13272794947E+04  0.13272794947E+04  0.25500000920E-02 0.  1.
    10030    2    1    2    0    0  0.00000000000E+00  0.00000000000E+00  0.34806574113E+02  0.26893655635E+04  0.26891403156E+04 0.  0.
        1    1    3    3  502    0  0.48476520823E+03 -0.32163044699E+01  0.12716459911E+04  0.13609155663E+04  0.50400001928E-02 0. -1.
       -1    1    3    3    0  502 -0.48476520823E+03  0.32163044699E+01 -0.12368394170E+04  0.13284499973E+04  0.50400001928E-02 0.  1.
</event>
<event>
 5   0  0.7351590E-06  0.3301356E+04  0.7818609E-02  0.8162551E-01
       -1   -1    0    0    0  501  0.00000000000E+00  0.00000000000E+00  0.18924757786E+04  0.18924757786E+04  0.50400001928E-02 0.  1.
        1   -1    0    0  501    0  0.00000000000E+00  0.00000000000E+00 -0.14397739914E+04  0.14397739915E+04  0.50400001928E-02 0. -1.
    10030    2    1    2    0    0  0.00000000000E+00  0.00000000000E+00  0.45270178717E+03  0.33322497701E+04  0.33013557249E+04 0.  0.
        3    1    3    3  502    0 -0.71734345323E+03 -0.63257214377E+03  0.15843062769E+04  0.18506095039E+04  0.10100000352E+00 0.  1.
       -3    1    3    3    0  502  0.71734345323E+03  0.63257214377E+03 -0.11316044897E+04  0.14816402661E+04  0.10100000352E+00 0. -1.
</event>
<event>
 5   0  0.7600052E-06  0.3287655E+04  0.7818609E-02  0.8166044E-01
       -1   -1    0    0    0  501  0.00000000000E+00  0.00000000000E+00  0.23001403237E+04  0.23001403237E+04  0.50400001928E-02 0.  1.
        1   -1    0    0  501    0  0.00000000000E+00  0.00000000000E+00 -0.11747845044E+04  0.11747845044E+04  0.50400001928E-02 0. -1.
    10030    2    1    2    0    0  0.00000000000E+00  0.00000000000E+00  0.11253558193E+04  0.34749248280E+04  0.32876552192E+04 0.  0.
        5    1    3    3  502    0 -0.35616883776E+03  0.40039961067E+03 -0.10798588985E+04  0.12055262004E+04  0.46999998093E+01 0. -1.
       -5    1    3    3    0  502  0.35616883776E+03 -0.40039961067E+03  0.22052147178E+04  0.22693986276E+04  0.46999998093E+01 0.  1.
</event>
<event>
 5   0  0.1881699E-05  0.2638092E+04  0.7818609E-02  0.8355376E-01
       -2   -1    0    0    0  501  0.00000000000E+00  0.00000000000E+00  0.88349366266E+03  0.88349366266E+03  0.25500000920E-02 0. -1.
        2   -1    0    0  501    0  0.00000000000E+00  0.00000000000E+00 -0.19693213276E+04  0.19693213276E+04  0.25500000920E-02 0.  1.
    10030    2    1    2    0    0  0.00000000000E+00  0.00000000000E+00 -0.10858276649E+04  0.28528149902E+04  0.26380924265E+04 0.  0.
        4    1    3    3  502    0  0.15046353822E+03 -0.13046088088E+04 -0.67640295113E+03  0.14772156192E+04  0.12699999809E+01 0.  1.
       -4    1    3    3    0  502 -0.15046353822E+03  0.13046088088E+04 -0.40942471378E+03  0.13755993710E+04  0.12699999809E+01 0. -1.
</event>
<event>
 5   0  0.1788003E-05  0.2693884E+04  0.7818609E-02  0.8336992E-01
       -2   -1    0    0    0  501  0.00000000000E+00  0.00000000000E+00  0.14930686348E+04  0.14930686348E+04  0.25500000920E-02 0. -1.
        2   -1    0    0  501    0  0.00000000000E+00  0.00000000000E+00 -0.12151166933E+04  0.12151166933E+04  0.25500000920E-02 0.  1.
    10030    2    1    2    0    0  0.00000000000E+00  0.00000000000E+00  0.27795194147E+03  0.27081853282E+04  0.26938839043E+04 0.  0.
        2    1    3    3  502    0 -0.26815350418E+03  0.12978282478E+04  0.38106168897E+03  0.13789388940E+04  0.25500000920E-02 0. -1.
       -2    1    3    3    0  502  0.26815350418E+03 -0.12978282478E+04 -0.10310974750E+03  0.13292464341E+04  0.25500000920E-02 0.  1.
</event>
<event>
 5   0  0.7754912E-06  0.2699986E+04  0.7818609E-02  0.8335009E-01
        1   -1    0    0  501    0  0.00000000000E+00  0.00000000000E+00  0.22191685129E+04  0.22191685129E+04  0.50400001928E-02 0. -1.
       -1   -1    0    0    0  501  0.00000000000E+00  0.00000000000E+00 -0.82124512292E+03  0.82124512293E+03  0.50400001928E-02 0.  1.
    10030    2    1    2    0    0  0.00000000000E+00  0.00000000000E+00  0.13979233900E+04  0.30404136359E+04  0.26999861616E+04 0.  0.
        4    1    3    3  502    0  0.60503812736E+03  0.11960351800E+04  0.88021735632E+03  0.16035446656E+04  0.12699999809E+01 0. -1.
       -4    1    3    3    0  502 -0.60503812736E+03 -0.11960351800E+04  0.51770603370E+03  0.14368689702E+04  0.12699999809E+01 0.  1.
</event>
<event>
 5   0  0.1826851E-05  0.2386844E+04  0.7818609E-02  0.8444445E-01
        2   -1    0    0  501    0  0.00000000000E+00  0.00000000000E+00  0.13531470261E+04  0.13531470261E+04  0.25500000920E-02 0.  1.
       -2   -1    0    0    0  501  0.00000000000E+00  0.00000000000E+00 -0.10525512188E+04  0.10525512188E+04  0.25500000920E-02 0. -1.
    10030    2    1    2    0    0  0.00000000000E+00  0.00000000000E+00  0.30059580731E+03  0.24056982450E+04  0.23868444035E+04 0.  0.
        5    1    3    3  502    0  0.70602770328E+03 -0.96213189600E+03  0.14239000373E+03  0.12018610179E+04  0.46999998093E+01 0.  1.
       -5    1    3    3    0  502 -0.70602770328E+03  0.96213189600E+03  0.15820580358E+03  0.12038372271E+04  0.46999998093E+01 0. -1.
</event>
<event>
 5   0  0.7348964E-06  0.2696027E+04  0.7818609E-02  0.8336295E-01
        1   -1    0    0  501    0  0.00000000000E+00  0.00000000000E+00  0.20648282399E+04  0.20648282399E+04  0.50400001928E-02 0. -1.
       -1   -1    0    0    0  501  0.00000000000E+00  0.00000000000E+00 -0.88004419296E+03  0.88004419298E+03  0.50400001928E-02 0.  1.
    10030    2    1    2    0    0  0.00000000000E+00  0.00000000000E+00  0.11847840469E+04  0.29448724329E+04  0.26960267818E+04 0.  0.
        1    1    3    3  502    0 -0.77360688433E+03 -0.32569150371E+03 -0.55976409695E+03  0.10088996042E+04  0.50400001928E-02 0.  1.
       -1    1    3    3    0  502  0.77360688433E+03  0.32569150371E+03  0.17445481439E+04  0.19359728287E+04  0.50400001928E-02 0. -1.
</event>
<event>
 5   0  0.1881699E-05  0.2737647E+04  0.7818609E-02  0.8322892E-01
       -2   -1    0    0    0  501  0.00000000000E+00  0.00000000000E+00  0.18298023424E+04  0.18298023424E+04  0.25500000920E-02 0.  1.
        2   -1    0    0  501    0  0.00000000000E+00  0.00000000000E+00 -0.10239779355E+04  0.10239779356E+04  0.25500000920E-02 0. -1.
    10030    2    1    2    0    0  0.00000000000E+00  0.00000000000E+00  0.80582440682E+03  0.28537802779E+04  0.27376465988E+04 0.  0.
        4    1    3    3  502    0  0.17163367273E+02  0.11520657256E+04 -0.36744014896E+03  0.12093650785E+04  0.12699999809E+01 0. -1.
       -4    1    3    3    0  502 -0.17163367273E+02 -0.11520657256E+04  0.11732645558E+04  0.16444151994E+04  0.12699999809E+01 0.  1.
</event>
<event>
 5   0  0.6804685E-06  0.2653821E+04  0.7818609E-02  0.8350146E-01
        1   -1    0    0  501    0  0.00000000000E+00  0.00000000000E+00  0.15358980747E+04  0.15358980747E+04  0.50400001928E-02 0.  1.
       -1   -1    0    0    0  501  0.00000000000E+00  0.00000000000E+00 -0.11463599378E+04  0.11463599378E+04  0.50400001928E-02 0. -1.
    10030    2    1    2    0    0  0.00000000000E+00  0.00000000000E+00  0.38953813688E+03  0.26822580125E+04  0.26538214118E+04 0.  0.
        2    1    3    3  502    0  0.63942868862E+03 -0.25269509886E+03 -0.95227848010E+03  0.11745459397E+04  0.25500000920E-02 0. -1.
       -2    1    3    3    0  502 -0.63942868862E+03  0.25269509886E+03  0.13418166170E+04  0.15077120728E+04  0.25500000920E-02 0.  1.
</event>
<event>
 5   0  0.6804685E-06  0.2759947E+04  0.7818609E-02  0.8315812E-01
        1   -1    0    0  501    0  0.00000000000E+00  0.00000000000E+00  0.13378851275E+04  0.13378851275E+04  0.50400001928E-02 0.  1.
       -1   -1    0    0    0  501  0.00000000000E+00  0.00000000000E+00 -0.14233863661E+04  0.14233863661E+04  0.50400001928E-02 0. -1.
    10030    2    1    2    0    0  0.00000000000E+00  0.00000000000E+00 -0.85501238600E+02  0.27612714935E+04  0.27599474269E+04 0.  0.
        2    1    3    3  502    0  0.74905014719E+03  0.73925044873E+03 -0.93579303994E+03  0.14082883095E+04  0.25500000920E-02 0. -1.
       -2    1    3    3    0  502 -0.74905014719E+03 -0.73925044873E+03  0.85029180134E+03  0.13529831841E+04  0.25500000920E-02 0.  1.
</event>
<event>
 5   0  0.1788003E-05  0.2699463E+04  0.7818609E-02  0.8335179E-01
       -2   -1    0    0    0  501  0.00000000000E+00  0.00000000000E+00  0.82573554902E+03  0.82573554902E+03  0.25500000920E-02 0. -1.
        2   -1    0    0  501    0  0.00000000000E+00  0.00000000000E+00 -0.22062452501E+04  0.22062452501E+04  0.25500000920E-02 0.  1.
    10030    2    1    2    0    0  0.00000000000E+00  0.00000000000E+00 -0.13805097011E+04  0.30319807991E+04  0.26994630080E+04 0.  0.
        2    1    3    3  502    0 -0.29307934658E+01  0.25365419271E+03  0.79872081938E+03  0.83803579061E+03  0.25500000920E-02 0. -1.
       -2    1    3    3    0  502  0.29307934658E+01 -0.25365419271E+03 -0.21792305205E+04  0.21939450085E+04  0.25500000920E-02 0.  1.
</event>
<event>
 5   0  0.6175875E-06  0.2701561E+04  0.7818609E-02  0.8334499E-01
        3   -1    0    0  501    0  0.00000000000E+00  0.00000000000E+00  0.16613938538E+04  0.16613938568E+04  0.10100000352E+00 0.  1.
       -3   -1    0    0    0  501  0.00000000000E+00  0.00000000000E+00 -0.10982392399E+04  0.10982392446E+04  0.10100000352E+00 0. -1.
    10030    2    1    2    0    0  0.00000000000E+00  0.00000000000E+00  0.56315461382E+03  0.27596331014E+04  0.27015609812E+04 0.  0.
        2    1    3    3  502    0  0.59132306668E+03 -0.11614575785E+04 -0.80961970640E+02  0.13058336481E+04  0.25500000920E-02 0. -1.
       -2    1    3    3    0  502 -0.59132306668E+03  0.11614575785E+04  0.64411658446E+03  0.14537994533E+04  0.25500000920E-02 0.  1.
</event>
<event>
 5   0  0.7348964E-06  0.2704717E+04  0.7818609E-02  0.8333476E-01
        1   -1    0    0  501    0  0.00000000000E+00  0.00000000000E+00  0.10705966259E+04  0.10705966260E+04  0.50400001928E-02 0. -1.
       -1   -1    0    0    0  501  0.00000000000E+00  0.00000000000E+00 -0.17082753091E+04  0.17082753091E+04  0.50400001928E-02 0.  1.
    10030    2    1    2    0    0  0.00000000000E+00  0.00000000000E+00 -0.63767868319E+03  0.27788719351E+04  0.27047171994E+04 0.  0.
        1    1    3    3  502    0 -0.54470003264E+03 -0.37167902542E+03  0.89422206476E+03  0.11110699909E+04  0.50400001928E-02 0. -1.
       -1    1    3    3    0  502  0.54470003264E+03  0.37167902542E+03 -0.15319007480E+04  0.16678019442E+04  0.50400001928E-02 0.  1.
</event>
<event>
 5   0  0.7600052E-06  0.2690332E+04  0.7818609E-02  0.8338149E-01
       -1   -1    0    0    0  501  0.00000000000E+00  0.00000000000E+00  0.10707281625E+04  0.10707281626E+04  0.50400001928E-02 0.  1.
        1   -1    0    0  501    0  0.00000000000E+00  0.00000000000E+00 -0.16899450211E+04  0.16899450211E+04  0.50400001928E-02 0. -1.
    10030    2    1    2    0    0  0.00000000000E+00  0.00000000000E+00 -0.61921685857E+03  0.27606731837E+04  0.26903321187E+04 0.  0.
        5    1    3    3  502    0  0.29216572662E+03  0.34922218346E+03  0.98923960482E+03  0.10890059830E+04  0.46999998093E+01 0.  1.
       -5    1    3    3    0  502 -0.29216572662E+03 -0.34922218346E+03 -0.16084564634E+04  0.16716672007E+04  0.46999998093E+01 0. -1.
</event>
<event>
 5   0  0.1788003E-05  0.2693719E+04  0.7818609E-02  0.8337046E-01
       -2   -1    0    0    0  501  0.00000000000E+00  0.00000000000E+00  0.87686715140E+03  0.87686715140E+03  0.25500000920E-02 0. -1.
        2   -1    0    0  501    0  0.00000000000E+00  0.00000000000E+00 -0.20687628680E+04  0.20687628680E+04  0.25500000920E-02 0.  1.
    10030    2    1    2    0    0  0.00000000000E+00  0.00000000000E+00 -0.11918957166E+04  0.29456300194E+04  0.26937187700E+04 0.  0.
        2    1    3    3  502    0 -0.45264869463E+03 -0.53907539847E+03 -0.18516080268E+04  0.19808951034E+04  0.25500000920E-02 0.  1.
       -2    1    3    3    0  502  0.45264869463E+03  0.53907539847E+03  0.65971231014E+03  0.96473491600E+03  0.25500000920E-02 0. -1.
</event>
<event>
 5   0  0.1788003E-05  0.2705712E+04  0.7818609E-02  0.8333154E-01
       -2   -1    0    0    0  501  0.00000000000E+00  0.00000000000E+00  0.84584553366E+03  0.84584553367E+03  0.25500000920E-02 0.  1.
        2   -1    0    0  501    0  0.00000000000E+00  0.00000000000E+00 -0.21637745005E+04  0.21637745005E+04  0.25500000920E-02 0. -1.
    10030    2    1    2    0    0  0.00000000000E+00  0.00000000000E+00 -0.13179289668E+04  0.30096200342E+04  0.27057117342E+04 0.  0.
        2    1    3    3  502    0 -0.98146044335E+03  0.61091674958E+03  0.12262220544E+03  0.11625489590E+04  0.25500000920E-02 0.  1.
       -2    1    3    3    0  502  0.98146044335E+03 -0.61091674958E+03 -0.14405511723E+04  0.18470710752E+04  0.25500000920E-02 0. -1.
</event>
<event>
 5   0  0.7348964E-06  0.2715981E+04  0.7818609E-02  0.8329838E-01
       -1   -1    0    0    0  501  0.00000000000E+00  0.00000000000E+00  0.10692141355E+04  0.10692141356E+04  0.50400001928E-02 0. -1.
        1   -1    0    0  501    0  0.00000000000E+00  0.00000000000E+00 -0.17247598305E+04  0.17247598305E+04  0.50400001928E-02 0.  1.
    10030    2    1    2    0    0  0.00000000000E+00  0.00000000000E+00 -0.65554569491E+03  0.27939739660E+04  0.27159805531E+04 0.  0.
        1    1    3    3  502    0 -0.23021792168E+03  0.21153733704E+03  0.10316864974E+04  0.10780191860E+04  0.50400001928E-02 0. -1.
       -1    1    3    3    0  502  0.23021792168E+03 -0.21153733704E+03 -0.16872321923E+04  0.17159547800E+04  0.50400001928E-02 0.  1.
</event>
<event>
 5   0  0.1931119E-05  0.2630572E+04  0.7818609E-02  0.8357890E-01
       -2   -1    0    0    0  501  0.00000000000E+00  0.00000000000E+00  0.19848783463E+04  0.19848783463E+04  0.25500000920E-02 0. -1.
        2   -1    0    0  501    0  0.00000000000E+00  0.00000000000E+00 -0.87157823333E+03  0.87157823333E+03  0.25500000920E-02 0.  1.
    10030    2    1    2    0    0  0.00000000000E+00  0.00000000000E+00  0.11133001129E+04  0.28564565796E+04  0.26305716203E+04 0.  0.
        3    1    3    3  502    0  0.12012724556E+04 -0.53063562624E+03  0.63605279913E+03  0.14591754020E+04  0.10100000352E+00 0. -1.
       -3    1    3    3    0  502 -0.12012724556E+04  0.53063562624E+03  0.47724731379E+03  0.13972811776E+04  0.10100000352E+00 0.  1.
</event>
<event>
 5   0  0.1931119E-05  0.2698699E+04  0.7818609E-02  0.8335427E-01
        2   -1    0    0  501    0  0.00000000000E+00  0.00000000000E+00  0.18289073714E+04  0.18289073714E+04  0.25500000920E-02 0. -1.
       -2   -1    0    0    0  501  0.00000000000E+00  0.00000000000E+00 -0.99553653239E+03  0.99553653240E+03  0.25500000920E-02 0.  1.
    10030    2    1    2    0    0  0.00000000000E+00  0.00000000000E+00  0.83337083897E+03  0.28244439038E+04  0.26986990218E+04 0.  0.
        3    1    3    3  502    0  0.11247074422E+04  0.74333696546E+03  0.35722799530E+03  0.13946786460E+04  0.10100000352E+00 0.  1.
       -3    1    3    3    0  502 -0.11247074422E+04 -0.74333696546E+03  0.47614284367E+03  0.14297652578E+04  0.10100000352E+00 0. -1.
</event>
<event>
 5   0  0.1881699E-05  0.2708415E+04  0.7818609E-02  0.8332280E-01
        2   -1    0    0  501    0  0.00000000000E+00  0.00000000000E+00  0.19750385790E+04  0.19750385790E+04  0.25500000920E-02 0. -1.
       -2   -1    0    0    0  501  0.00000000000E+00  0.00000000000E+00 -0.92852786132E+03  0.92852786132E+03  0.25500000920E-02 0.  1.
    10030    2    1    2    0    0  0.00000000000E+00  0.00000000000E+00  0.10465107177E+04  0.29035664403E+04  0.27084152915E+04 0.  0.
        4    1    3    3  502    0  0.17894624160E+03 -0.12875413707E+04  0.93020131901E+03  0.15984557064E+04  0.12699999809E+01 0. -1.
       -4    1    3    3    0  502 -0.17894624160E+03  0.12875413707E+04  0.11630939865E+03  0.13051107339E+04  0.12699999809E+01 0.  1.
</event>
<event>
 5   0  0.7754912E-06  0.2687164E+04  0.7818609E-02  0.8339182E-01
        1   -1    0    0  501    0  0.00000000000E+00  0.00000000000E+00  0.12991860089E+04  0.12991860089E+04  0.50400001928E-02 0. -1.
       -1   -1    0    0    0  501  0.00000000000E+00  0.00000000000E+00 -0.13894950204E+04  0.13894950204E+04  0.50400001928E-02 0.  1.
    10030    2    1    2    0    0  0.00000000000E+00  0.00000000000E+00 -0.90309011562E+02  0.26886810293E+04  0.26871639250E+04 0.  0.
        4    1    3    3  502    0 -0.26212817128E+03  0.56116027088E+03  0.11478268433E+04  0.13042699502E+04  0.12699999809E+01 0. -1.
       -4    1    3    3    0  502  0.26212817128E+03 -0.56116027088E+03 -0.12381358549E+04  0.13844110791E+04  0.12699999809E+01 0.  1.
</event>
<event>
 5   0  0.7754912E-06  0.2722601E+04  0.7818609E-02  0.8327709E-01
        1   -1    0    0  501    0  0.00000000000E+00  0.00000000000E+00  0.21070104514E+04  0.21070104514E+04  0.50400001928E-02 0. -1.
       -1   -1    0    0    0  501  0.00000000000E+00  0.00000000000E+00 -0.87951103902E+03  0.87951103904E+03  0.50400001928E-02 0.  1.
    10030    2    1    2    0    0  0.00000000000E+00  0.00000000000E+00  0.12274994124E+04  0.29865214905E+04  0.27226009266E+04 0.  0.
        4    1    3    3  502    0 -0.22651264529E+03 -0.78770315713E+03 -0.57851178839E+03  0.10032256697E+04  0.12699999809E+01 0.  1.
       -4    1    3    3    0  502  0.22651264529E+03  0.78770315713E+03  0.18060112008E+04  0.19832958207E+04  0.12699999809E+01 0. -1.
</event>
<event>
 5   0  0.1826851E-05  0.2646813E+04  0.7818609E-02  0.8352472E-01
        2   -1    0    0  501    0  0.00000000000E+00  0.00000000000E+00  0.27242884674E+04  0.27242884674E+04  0.25500000920E-02 0. -1.
       -2   -1    0    0    0  501  0.00000000000E+00  0.00000000000E+00 -0.64288504630E+03  0.64288504631E+03  0.25500000920E-02 0.  1.
    10030    2    1    2    0    0  0.00000000000E+00  0.00000000000E+00  0.20814034211E+04  0.33671735137E+04  0.26468126624E+04 0.  0.
        5    1    3    3  502    0  0.11132945243E+04 -0.44269943150E+03  0.17558045090E+04  0.21256243902E+04  0.46999998093E+01 0. -1.
       -5    1    3    3    0  502 -0.11132945243E+04  0.44269943150E+03  0.32559891210E+03  0.12415491235E+04  0.46999998093E+01 0.  1.
</event>
<event>
 5   0  0.7754912E-06  0.2708921E+04  0.7818609E-02  0.8332116E-01
        1   -1    0    0  501    0  0.00000000000E+00  0.00000000000E+00  0.20157791430E+04  0.20157791430E+04  0.50400001928E-02 0. -1.
       -1   -1    0    0    0  501  0.00000000000E+00  0.00000000000E+00 -0.91010120241E+03  0.91010120242E+03  0.50400001928E-02 0.  1.
    10030    2    1    2    0    0  0.00000000000E+00  0.00000000000E+00  0.11056779406E+04  0.29258803454E+04  0.27089208345E+04 0.  0.
        4    1    3    3  502    0  0.41363503982E+03 -0.12325007992E+04  0.96328659188E+03  0.16180466116E+04  0.12699999809E+01 0. -1.
       -4    1    3    3    0  502 -0.41363503982E+03  0.12325007992E+04  0.14239134871E+03  0.13078337338E+04  0.12699999809E+01 0.  1.
</event>
<event>
 5   0  0.1931119E-05  0.2552161E+04  0.7818609E-02  0.8384635E-01
       -2   -1    0    0    0  501  0.00000000000E+00  0.00000000000E+00  0.19864220239E+04  0.19864220239E+04  0.25500000920E-02 0. -1.
        2   -1    0    0  501    0  0.00000000000E+00  0.00000000000E+00 -0.81975576276E+03  0.81975576276E+03  0.25500000920E-02 0.  1.
    10030    2    1    2    0    0  0.00000000000E+00  0.00000000000E+00  0.11666662611E+04  0.28061777866E+04  0.25521605759E+04 0.  0.
        3    1    3    3  502    0 -0.31296131450E+03 -0.48197678067E+03 -0.66942442620E+03  0.88225590056E+03  0.10100000352E+00 0.  1.
       -3    1    3    3    0  502  0.31296131450E+03  0.48197678067E+03  0.18360906873E+04  0.19239218861E+04  0.10100000352E+00 0. -1.
</event>
<event>
 5   0  0.1826851E-05  0.2640189E+04  0.7818609E-02  0.8354677E-01
       -2   -1    0    0    0  501  0.00000000000E+00  0.00000000000E+00  0.15329606745E+04  0.15329606745E+04  0.25500000920E-02 0. -1.
        2   -1    0    0  501    0  0.00000000000E+00  0.00000000000E+00 -0.11367864301E+04  0.11367864301E+04  0.25500000920E-02 0.  1.
    10030    2    1    2    0    0  0.00000000000E+00  0.00000000000E+00  0.39617424442E+03  0.26697471047E+04  0.26401885484E+04 0.  0.
        5    1    3    3  502    0  0.96439459579E+03  0.79667323491E+03 -0.22839489432E+03  0.12715862131E+04  0.46999998093E+01 0. -1.
       -5    1    3    3    0  502 -0.96439459579E+03 -0.79667323491E+03  0.62456913875E+03  0.13981608916E+04  0.46999998093E+01 0.  1.
</event>
<event>
 5   0  0.7754912E-06  0.2766910E+04  0.7818609E-02  0.8313616E-01
        1   -1    0    0  501    0  0.00000000000E+00  0.00000000000E+00  0.16216992132E+04  0.16216992132E+04  0.50400001928E-02 0.  1.
       -1   -1    0    0    0  501  0.00000000000E+00  0.00000000000E+00 -0.11802109448E+04  0.11802109448E+04  0.50400001928E-02 0. -1.
    10030    2    1    2    0    0  0.00000000000E+00  0.00000000000E+00  0.44148826836E+03  0.28019101580E+04  0.27669095834E+04 0.  0.
        4    1    3    3  502    0 -0.53670341017E+03  0.12384957106E+04 -0.86446739968E+02  0.13525519685E+04  0.12699999809E+01 0. -1.
       -4    1    3    3    0  502  0.53670341017E+03 -0.12384957106E+04  0.52793500833E+03  0.14493581896E+04  0.12699999809E+01 0.  1.
</event>
<event>
 5   0  0.7351590E-06  0.2707409E+04  0.7818609E-02  0.8332605E-01
        1   -1    0    0  501    0  0.00000000000E+00  0.00000000000E+00  0.14193740067E+04  0.14193740067E+04  0.50400001928E-02 0.  1.
       -1   -1    0    0    0  501  0.00000000000E+00  0.00000000000E+00 -0.12910736772E+04  0.12910736772E+04  0.50400001928E-02 0. -1.
    10030    2    1    2    0    0  0.00000000000E+00  0.00000000000E+00  0.12830032946E+03  0.27104476839E+04  0.27074094025E+04 0.  0.
        3    1    3    3  502    0  0.91503608490E+03  0.72998311759E+03  0.74487647471E+03  0.13874463454E+04  0.10100000352E+00 0.  1.
       -3    1    3    3    0  502 -0.91503608490E+03 -0.72998311759E+03 -0.61657614525E+03  0.13230013385E+04  0.10100000352E+00 0. -1.
</event>
<event>
 5   0  0.7754912E-06  0.2785617E+04  0.7818609E-02  0.8307748E-01
       -1   -1    0    0    0  501  0.00000000000E+00  0.00000000000E+00  0.21016675701E+04  0.21016675701E+04  0.50400001928E-02 0.  1.
        1   -1    0    0  501    0  0.00000000000E+00  0.00000000000E+00 -0.92303662483E+03  0.92303662484E+03  0.50400001928E-02 0. -1.
    10030    2    1    2    0    0  0.00000000000E+00  0.00000000000E+00  0.11786309452E+04  0.30247041949E+04  0.27856174471E+04 0.  0.
        4    1    3    3  502    0  0.45131193093E+03 -0.11888866717E+04  0.12062159604E+04  0.17527385809E+04  0.12699999809E+01 0.  1.
       -4    1    3    3    0  502 -0.45131193093E+03  0.11888866717E+04 -0.27585015136E+02  0.12719656140E+04  0.12699999809E+01 0. -1.
</event>
<event>
 5   0  0.1826851E-05  0.2713544E+04  0.7818609E-02  0.8330624E-01
       -2   -1    0    0    0  501  0.00000000000E+00  0.00000000000E+00  0.76518974074E+03  0.76518974075E+03  0.25500000920E-02 0.  1.
        2   -1    0    0  501    0  0.00000000000E+00  0.00000000000E+00 -0.24057179778E+04  0.24057179778E+04  0.25500000920E-02 0. -1.
    10030    2    1    2    0    0  0.00000000000E+00  0.00000000000E+00 -0.16405282370E+04  0.31709077185E+04  0.27135443359E+04 0.  0.
        5    1    3    3  502    0 -0.22980728298E+03  0.94162244407E+03 -0.19296740936E+04  0.21594277974E+04  0.46999998093E+01 0. -1.
       -5    1    3    3    0  502  0.22980728298E+03 -0.94162244407E+03  0.28914585660E+03  0.10114799211E+04  0.46999998093E+01 0.  1.
</event>
<event>
 5   0  0.7754912E-06  0.2753719E+04  0.7818609E-02  0.8317783E-01
       -1   -1    0    0    0  501  0.00000000000E+00  0.00000000000E+00  0.11329942746E+04  0.11329942746E+04  0.50400001928E-02 0. -1.
        1   -1    0    0  501    0  0.00000000000E+00  0.00000000000E+00 -0.16732140300E+04  0.16732140300E+04  0.50400001928E-02 0.  1.
    10030    2    1    2    0    0  0.00000000000E+00  0.00000000000E+00 -0.54021975535E+03  0.28062083046E+04  0.27537188791E+04 0.  0.
        4    1    3    3  502    0  0.63696571003E+03  0.98472293791E+03 -0.10052026032E+04  0.15446159609E+04  0.12699999809E+01 0.  1.
       -4    1    3    3    0  502 -0.63696571003E+03 -0.98472293791E+03  0.46498284783E+03  0.12615923438E+04  0.12699999809E+01 0. -1.
</event>
<event>
 5   0  0.6804685E-06  0.2648875E+04  0.7818609E-02  0.8351787E-01
        1   -1    0    0  501    0  0.00000000000E+00  0.00000000000E+00  0.11750759037E+04  0.11750759037E+04  0.50400001928E-02 0.  1.
       -1   -1    0    0    0  501  0.00000000000E+00  0.00000000000E+00 -0.14927839098E+04  0.14927839098E+04  0.50400001928E-02 0. -1.
    10030    2    1    2    0    0  0.00000000000E+00  0.00000000000E+00 -0.31770800610E+03  0.26678598135E+04  0.26488747814E+04 0.  0.
        2    1    3    3  502    0  0.63296044970E+03  0.69663575246E+02  0.10107800136E+04  0.11946414444E+04  0.25500000920E-02 0.  1.
       -2    1    3    3    0  502 -0.63296044970E+03 -0.69663575246E+02 -0.13284880197E+04  0.14732183691E+04  0.25500000920E-02 0. -1.
</event>
<event>
 5   0  0.6175875E-06  0.2106105E+04  0.7818609E-02  0.8558559E-01
        3   -1    0    0  501    0  0.00000000000E+00  0.00000000000E+00  0.13333817583E+04  0.13333817621E+04  0.10100000352E+00 0. -1.
       -3   -1    0    0    0  501  0.00000000000E+00  0.00000000000E+00 -0.83165951800E+03  0.83165952413E+03  0.10100000352E+00 0.  1.
    10030    2    1    2    0    0  0.00000000000E+00  0.00000000000E+00  0.50172224031E+03  0.21650412863E+04  0.21061050697E+04 0.  0.
        2    1    3    3  502    0  0.17580133724E+03  0.53756700323E+03 -0.66227253821E+03  0.87091291644E+03  0.25500000920E-02 0.  1.
       -2    1    3    3    0  502 -0.17580133724E+03 -0.53756700323E+03  0.11639947785E+04  0.12941283698E+04  0.25500000920E-02 0. -1.
</event>
<event>
 5   0  0.1788003E-05  0.2721870E+04  0.7818609E-02  0.8327944E-01
        2   -1    0    0  501    0  0.00000000000E+00  0.00000000000E+00  0.17570362834E+04  0.17570362834E+04  0.25500000920E-02 0.  1.
       -2   -1    0    0    0  501  0.00000000000E+00  0.00000000000E+00 -0.10541293488E+04  0.10541293488E+04  0.25500000920E-02 0. -1.
    10030    2    1    2    0    0  0.00000000000E+00  0.00000000000E+00  0.70290693454E+03  0.28111656322E+04  0.27218695878E+04 0.  0.
        2    1    3    3  502    0 -0.12912953609E+04 -0.36213547247E+03  0.11243574907E+03  0.13458185640E+04  0.25500000920E-02 0. -1.
       -2    1    3    3    0  502  0.12912953609E+04  0.36213547247E+03  0.59047118547E+03  0.14653470682E+04  0.25500000920E-02 0.  1.
</event>
<event>
 5   0  0.1881699E-05  0.2591671E+04  0.7818609E-02  0.8371036E-01
       -2   -1    0    0    0  501  0.00000000000E+00  0.00000000000E+00  0.10255471001E+04  0.10255471001E+04  0.25500000920E-02 0.  1.
        2   -1    0    0  501    0  0.00000000000E+00  0.00000000000E+00 -0.16373601919E+04  0.16373601919E+04  0.25500000920E-02 0. -1.
    10030    2    1    2    0    0  0.00000000000E+00  0.00000000000E+00 -0.61181309182E+03  0.26629072919E+04  0.25916712728E+04 0.  0.
        4    1    3    3  502    0  0.73709993828E+03 -0.63209659044E+03  0.57577386072E+03  0.11288842147E+04  0.12699999809E+01 0.  1.
       -4    1    3    3    0  502 -0.73709993828E+03  0.63209659044E+03 -0.11875869525E+04  0.15340230772E+04  0.12699999809E+01 0. -1.
</event>
<event>
 5   0  0.1931119E-05  0.2694865E+04  0.7818609E-02  0.8336673E-01
        2   -1    0    0  501    0  0.00000000000E+00  0.00000000000E+00  0.20251689513E+04  0.20251689513E+04  0.25500000920E-02 0.  1.
       -2   -1    0    0    0  501  0.00000000000E+00  0.00000000000E+00 -0.89650496950E+03  0.89650496950E+03  0.25500000920E-02 0. -1.
    10030    2    1    2    0    0  0.00000000000E+00  0.00000000000E+00  0.11286639818E+04  0.29216739208E+04  0.26948647676E+04 0.  0.
        3    1    3    3  502    0 -0.91496987152E+03  0.48699215207E+03  0.14977474955E+04  0.18214221895E+04  0.10100000352E+00 0.  1.
       -3    1    3    3    0  502  0.91496987152E+03 -0.48699215207E+03 -0.36908351369E+03  0.11002517313E+04  0.10100000352E+00 0. -1.
</event>
<event>
 5   0  0.7348964E-06  0.2738762E+04  0.7818609E-02  0.8322537E-01
       -1   -1    0    0    0  501  0.00000000000E+00  0.00000000000E+00  0.10804647784E+04  0.10804647784E+04  0.50400001928E-02 0.  1.
        1   -1    0    0  501    0  0.00000000000E+00  0.00000000000E+00 -0.17355533046E+04  0.17355533046E+04  0.50400001928E-02 0. -1.
    10030    2    1    2    0    0  0.00000000000E+00  0.00000000000E+00 -0.65508852622E+03  0.28160180830E+04  0.27387619222E+04 0.  0.
        1    1    3    3  502    0  0.58009299403E+02  0.13485107435E+04 -0.90034988433E+02  0.13527574074E+04  0.50400001928E-02 0.  1.
       -1    1    3    3    0  502 -0.58009299403E+02 -0.13485107435E+04 -0.56505353779E+03  0.14632606756E+04  0.50400001928E-02 0. -1.
</event>
<event>
 5   0  0.7351590E-06  0.2695340E+04  0.7818609E-02  0.8336518E-01
        1   -1    0    0  501    0  0.00000000000E+00  0.00000000000E+00  0.94629943326E+03  0.94629943327E+03  0.50400001928E-02 0.  1.
       -1   -1    0    0    0  501  0.00000000000E+00  0.00000000000E+00 -0.19192814232E+04  0.19192814233E+04  0.50400001928E-02 0. -1.
    10030    2    1    2    0    0  0.00000000000E+00  0.00000000000E+00 -0.97298198999E+03  0.28655808565E+04  0.26953403667E+04 0.  0.
        3    1    3    3  502    0  0.10688662616E+04 -0.57481650850E+03 -0.11094396865E+04  0.16443070065E+04  0.10100000352E+00 0. -1.
       -3    1    3    3    0  502 -0.10688662616E+04  0.57481650850E+03  0.13645769650E+03  0.12212738500E+04  0.10100000352E+00 0.  1.
</event>
<event>
 5   0  0.7600052E-06  0.2727112E+04  0.7818609E-02  0.8326261E-01
       -1   -1    0    0    0  501  0.00000000000E+00  0.00000000000E+00  0.14141948280E+04  0.14141948280E+04  0.50400001928E-02 0. -1.
        1   -1    0    0  501    0  0.00000000000E+00  0.00000000000E+00 -0.13147303673E+04  0.13147303673E+04  0.50400001928E-02 0.  1.
    10030    2    1    2    0    0  0.00000000000E+00  0.00000000000E+00  0.99464460744E+02  0.27289251953E+04  0.27271119417E+04 0.  0.
        5    1    3    3  502    0 -0.93280257615E+03  0.83150922347E+03 -0.49628115708E+03  0.13445613826E+04  0.46999998093E+01 0.  1.
       -5    1    3    3    0  502  0.93280257615E+03 -0.83150922347E+03  0.59574561782E+03  0.13843638127E+04  0.46999998093E+01 0. -1.
</event>
<event>
 5   0  0.7600052E-06  0.2730210E+04  0.7818609E-02  0.8325269E-01
       -1   -1    0    0    0  501  0.00000000000E+00  0.00000000000E+00  0.10627776930E+04  0.10627776930E+04  0.50400001928E-02 0.  1.
        1   -1    0    0  501    0  0.00000000000E+00  0.00000000000E+00 -0.17534354735E+04  0.17534354735E+04  0.50400001928E-02 0. -1.
    10030    2    1    2    0    0  0.00000000000E+00  0.00000000000E+00 -0.69065778049E+03  0.28162131665E+04  0.27302103270E+04 0.  0.
        5    1    3    3  502    0  0.11742829289E+04 -0.47073262755E+03 -0.87427887230E+03  0.15378280919E+04  0.46999998093E+01 0. -1.
       -5    1    3    3    0  502 -0.11742829289E+04  0.47073262755E+03  0.18362109181E+03  0.12783850746E+04  0.46999998093E+01 0.  1.
</event>
<event>
 5   0  0.1788003E-05  0.2719253E+04  0.7818609E-02  0.8328785E-01
        2   -1    0    0  501    0  0.00000000000E+00  0.00000000000E+00  0.18772272173E+04  0.18772272173E+04  0.25500000920E-02 0.  1.
       -2   -1    0    0    0  501  0.00000000000E+00  0.00000000000E+00 -0.98474197938E+03  0.98474197938E+03  0.25500000920E-02 0. -1.
    10030    2    1    2    0    0  0.00000000000E+00  0.00000000000E+00  0.89248523795E+03  0.28619691967E+04  0.27192531664E+04 0.  0.
        2    1    3    3  502    0  0.84217194708E+03  0.10455754811E+04  0.22025802889E+03  0.13605128718E+04  0.25500000920E-02 0.  1.
       -2    1    3    3    0  502 -0.84217194708E+03 -0.10455754811E+04  0.67222720905E+03  0.15014563249E+04  0.25500000920E-02 0. -1.
</event>
<event>
 5   0  0.1788003E-05  0.2696245E+04  0.7818609E-02  0.8336224E-01
       -2   -1    0    0    0  501  0.00000000000E+00  0.00000000000E+00  0.12702333763E+04  0.12702333763E+04  0.25500000920E-02 0.  1.
        2   -1    0    0  501    0  0.00000000000E+00  0.00000000000E+00 -0.14307876528E+04  0.14307876528E+04  0.25500000920E-02 0. -1.
    10030    2    1    2    0    0  0.00000000000E+00  0.00000000000E+00 -0.16055427646E+03  0.27010210291E+04  0.26962449673E+04 0.  0.
        2    1    3    3  502    0  0.97228564018E+03  0.28903651032E+03 -0.96985506098E+03  0.14033888662E+04  0.25500000920E-02 0. -1.
       -2    1    3    3    0  502 -0.97228564018E+03 -0.28903651032E+03  0.80930078452E+03  0.12976321629E+04  0.25500000920E-02 0.  1.
</event>
<event>
 5   0  0.7351590E-06  0.2659726E+04  0.7818609E-02  0.8348192E-01
       -1   -1    0    0    0  501  0.00000000000E+00  0.00000000000E+00  0.10416116623E+04  0.10416116623E+04  0.50400001928E-02 0.  1.
        1   -1    0    0  501    0  0.00000000000E+00  0.00000000000E+00 -0.16978842214E+04  0.16978842214E+04  0.50400001928E-02 0. -1.
    10030    2    1    2    0    0  0.00000000000E+00  0.00000000000E+00 -0.65627255913E+03  0.27394958837E+04  0.26597263064E+04 0.  0.
        3    1    3    3  502    0  0.13155887222E+04  0.93426361278E+02 -0.50363979927E+03  0.14117914962E+04  0.10100000352E+00 0. -1.
       -3    1    3    3    0  502 -0.13155887222E+04 -0.93426361278E+02 -0.15263275986E+03  0.13277043875E+04  0.10100000352E+00 0.  1.
</event>
<event>
 5   0  0.7348964E-06  0.2721802E+04  0.7818609E-02  0.8327966E-01
       -1   -1    0    0    0  501  0.00000000000E+00  0.00000000000E+00  0.16945429713E+04  0.16945429713E+04  0.50400001928E-02 0.  1.
        1   -1    0    0  501    0  0.00000000000E+00  0.00000000000E+00 -0.10929501742E+04  0.10929501742E+04  0.50400001928E-02 0. -1.
    10030    2    1    2    0    0  0.00000000000E+00  0.00000000000E+00  0.60159279704E+03  0.27874931455E+04  0.27218016354E+04 0.  0.
        1    1    3    3  502    0  0.60016213439E+03 -0.36400555536E+03  0.14948505039E+04  0.16514456276E+04  0.50400001928E-02 0.  1.
       -1    1    3    3    0  502 -0.60016213439E+03  0.36400555536E+03 -0.89325770688E+03  0.11360475179E+04  0.50400001928E-02 0. -1.
</event>
<event>
 5   0  0.1878160E-05  0.2588958E+04  0.7818609E-02  0.8371961E-01
       -2   -1    0    0    0  501  0.00000000000E+00  0.00000000000E+00  0.11752745033E+04  0.11752745033E+04  0.25500000920E-02 0. -1.
        2   -1    0    0  501    0  0.00000000000E+00  0.00000000000E+00 -0.14257743751E+04  0.14257743751E+04  0.25500000920E-02 0.  1.
    10030    2    1    2    0    0  0.00000000000E+00  0.00000000000E+00 -0.25049987185E+03  0.26010488784E+04  0.25889583006E+04 0.  0.
        1    1    3    3  502    0  0.55957561754E+03  0.71426122218E+02 -0.12957874376E+04  0.14132556903E+04  0.50400001928E-02 0.  1.
       -1    1    3    3    0  502 -0.55957561754E+03 -0.71426122218E+02  0.10452875657E+04  0.11877931881E+04  0.50400001928E-02 0. -1.
</event>
<event>
 5   0  0.1826851E-05  0.2708633E+04  0.7818609E-02  0.8332209E-01
       -2   -1    0    0    0  501  0.00000000000E+00  0.00000000000E+00  0.15183759666E+04  0.15183759666E+04  0.25500000920E-02 0. -1.
        2   -1    0    0  501    0  0.00000000000E+00  0.00000000000E+00 -0.12079838282E+04  0.12079838282E+04  0.25500000920E-02 0.  1.
    10030    2    1    2    0    0  0.00000000000E+00  0.00000000000E+00  0.31039213844E+03  0.27263597948E+04  0.27086333179E+04 0.  0.
        5    1    3    3  502    0  0.11519918150E+04 -0.67959623586E+03 -0.58834516052E+02  0.13388128233E+04  0.46999998093E+01 0. -1.
       -5    1    3    3    0  502 -0.11519918150E+04  0.67959623586E+03  0.36922665449E+03  0.13875469715E+04  0.46999998093E+01 0.  1.
</event>
<event>
 5   0  0.6804685E-06  0.2446734E+04  0.7818609E-02  0.8422211E-01
       -1   -1    0    0    0  501  0.00000000000E+00  0.00000000000E+00  0.14726398450E+04  0.14726398450E+04  0.50400001928E-02 0.  1.
        1   -1    0    0  501    0  0.00000000000E+00  0.00000000000E+00 -0.10162882143E+04  0.10162882143E+04  0.50400001928E-02 0. -1.
    10030    2    1    2    0    0  0.00000000000E+00  0.00000000000E+00  0.45635163070E+03  0.24889280593E+04  0.24467337562E+04 0.  0.
        2    1    3    3  502    0 -0.96274148582E+03 -0.22956468914E+03  0.95964186003E+03  0.13785802895E+04  0.25500000920E-02 0.  1.
       -2    1    3    3    0  502  0.96274148582E+03  0.22956468914E+03 -0.50329022934E+03  0.11103477698E+04  0.25500000920E-02 0. -1.
</event>
<event>
 5   0  0.6804685E-06  0.2695983E+04  0.7818609E-02  0.8336310E-01
        1   -1    0    0  501    0  0.00000000000E+00  0.00000000000E+00  0.16337128028E+04  0.16337128028E+04  0.50400001928E-02 0. -1.
       -1   -1    0    0    0  501  0.00000000000E+00  0.00000000000E+00 -0.11122400701E+04  0.11122400701E+04  0.50400001928E-02 0.  1.
    10030    2    1    2    0    0  0.00000000000E+00  0.00000000000E+00  0.52147273275E+03  0.27459528729E+04  0.26959828207E+04 0.  0.
        2    1    3    3  502    0 -0.10985393157E+04 -0.43796532046E+03  0.91962585927E+03  0.14981034581E+04  0.25500000920E-02 0. -1.
       -2    1    3    3    0  502  0.10985393157E+04  0.43796532046E+03 -0.39815312652E+03  0.12478494149E+04  0.25500000920E-02 0.  1.
</event>
<event>
 5   0  0.7351590E-06  0.2713293E+04  0.7818609E-02  0.8330705E-01
       -1   -1    0    0    0  501  0.00000000000E+00  0.00000000000E+00  0.84060593092E+03  0.84060593094E+03  0.50400001928E-02 0.  1.
        1   -1    0    0  501    0  0.00000000000E+00  0.00000000000E+00 -0.21894801385E+04  0.21894801385E+04  0.50400001928E-02 0. -1.
    10030    2    1    2    0    0  0.00000000000E+00  0.00000000000E+00 -0.13488742076E+04  0.30300860695E+04  0.27132931947E+04 0.  0.
        3    1    3    3  502    0 -0.11292199923E+04 -0.71545261208E+03 -0.93269458959E+03  0.16300090303E+04  0.10100000352E+00 0. -1.
       -3    1    3    3    0  502  0.11292199923E+04  0.71545261208E+03 -0.41617961800E+03  0.14000770392E+04  0.10100000352E+00 0.  1.
</event>
<event>
 5   0  0.1931119E-05  0.2641895E+04  0.7818609E-02  0.8354108E-01
        2   -1    0    0  501    0  0.00000000000E+00  0.00000000000E+00  0.15142544963E+04  0.15142544963E+04  0.25500000920E-02 0. -1.
       -2   -1    0    0    0  501  0.00000000000E+00  0.00000000000E+00 -0.11523175748E+04  0.11523175748E+04  0.25500000920E-02 0.  1.
    10030    2    1    2    0    0  0.00000000000E+00  0.00000000000E+00  0.36193692146E+03  0.26665720711E+04  0.26418948266E+04 0.  0.
        3    1    3    3  502    0  0.22755565529E+03 -0.58492613572E+01  0.14943089862E+04  0.15115472690E+04  0.10100000352E+00 0. -1.
       -3    1    3    3    0  502 -0.22755565529E+03  0.58492613572E+01 -0.11323720647E+04  0.11550248020E+04  0.10100000352E+00 0.  1.
</event>
<event>
 5   0  0.7600052E-06  0.2705959E+04  0.7818609E-02  0.8333074E-01
        1   -1    0    0  501    0  0.00000000000E+00  0.00000000000E+00  0.12459619715E+04  0.12459619715E+04  0.50400001928E-02 0. -1.
       -1   -1    0    0    0  501  0.00000000000E+00  0.00000000000E+00 -0.14691891609E+04  0.14691891609E+04  0.50400001928E-02 0.  1.
    10030    2    1    2    0    0  0.00000000000E+00  0.00000000000E+00 -0.22322718941E+03  0.27151511324E+04  0.27059592188E+04 0.  0.
        5    1    3    3  502    0 -0.64676060705E+03 -0.57730319319E+03  0.93064172449E+03  0.12718861463E+04  0.46999998093E+01 0. -1.
       -5    1    3    3    0  502  0.64676060705E+03  0.57730319319E+03 -0.11538689139E+04  0.14432649861E+04  0.46999998093E+01 0.  1.
</event>
<event>
 5   0  0.6804685E-06  0.2699460E+04  0.7818609E-02  0.8335180E-01
        1   -1    0    0  501    0  0.00000000000E+00  0.00000000000E+00  0.18094630655E+04  0.18094630656E+04  0.50400001928E-02 0. -1.
       -1   -1    0    0    0  501  0.00000000000E+00  0.00000000000E+00 -0.10068017719E+04  0.10068017719E+04  0.50400001928E-02 0.  1.
    10030    2    1    2    0    0  0.00000000000E+00  0.00000000000E+00  0.80266129368E+03  0.28162648374E+04  0.26994596649E+04 0.  0.
        2    1    3    3  502    0  0.10409451572E+04  0.86805275092E+02  0.12931089164E+04  0.16622973999E+04  0.25500000920E-02 0. -1.
       -2    1    3    3    0  502 -0.10409451572E+04 -0.86805275092E+02 -0.49044762276E+03  0.11539674375E+04  0.25500000920E-02 0.  1.
</event>
<event>
 5   0  0.1931119E-05  0.2688849E+04  0.7818609E-02  0.8338632E-01
       -2   -1    0    0    0  501  0.00000000000E+00  0.00000000000E+00  0.11228266154E+04  0.11228266154E+04  0.25500000920E-02 0.  1.
        2   -1    0    0  501    0  0.00000000000E+00  0.00000000000E+00 -0.16097557210E+04  0.16097557210E+04  0.25500000920E-02 0. -1.
    10030    2    1    2    0    0  0.00000000000E+00  0.00000000000E+00 -0.48692910564E+03  0.27325823364E+04  0.26888485028E+04 0.  0.
        3    1    3    3  502    0 -0.97518204635E+03  0.80876636243E+03 -0.70066348658E+03  0.14477611627E+04  0.10100000352E+00 0. -1.
       -3    1    3    3    0  502  0.97518204635E+03 -0.80876636243E+03  0.21373438094E+03  0.12848211737E+04  0.10100000352E+00 0.  1.
</event>
<event>
 5   0  0.1826851E-05  0.2583853E+04  0.7818609E-02  0.8373707E-01
        2   -1    0    0  501    0  0.00000000000E+00  0.00000000000E+00  0.19836093778E+04  0.19836093778E+04  0.25500000920E-02 0. -1.
       -2   -1    0    0    0  501  0.00000000000E+00  0.00000000000E+00 -0.84143285997E+03  0.84143285998E+03  0.25500000920E-02 0.  1.
    10030    2    1    2    0    0  0.00000000000E+00  0.00000000000E+00  0.11421765178E+04  0.28250422378E+04  0.25838530236E+04 0.  0.
        5    1    3    3  502    0 -0.28940099738E+02 -0.12839174733E+04  0.41735599433E+03  0.13503665145E+04  0.46999998093E+01 0.  1.
       -5    1    3    3    0  502  0.28940099738E+02  0.12839174733E+04  0.72482052351E+03  0.14746757233E+04  0.46999998093E+01 0. -1.
</event>
<event>
 5   0  0.1826851E-05  0.2689725E+04  0.7818609E-02  0.8338347E-01
        2   -1    0    0  501    0  0.00000000000E+00  0.00000000000E+00  0.12350261690E+04  0.12350261690E+04  0.25500000920E-02 0.  1.
       -2   -1    0    0    0  501  0.00000000000E+00  0.00000000000E+00 -0.14644667057E+04  0.14644667057E+04  0.25500000920E-02 0. -1.
    10030    2    1    2    0    0  0.00000000000E+00  0.00000000000E+00 -0.22944053668E+03  0.26994928747E+04  0.26897246737E+04 0.  0.
        5    1    3    3  502    0 -0.10084934897E+04 -0.77457947429E+03  0.32459091918E+03  0.13124076484E+04  0.46999998093E+01 0.  1.
       -5    1    3    3    0  502  0.10084934897E+04  0.77457947429E+03 -0.55403145586E+03  0.13870852262E+04  0.46999998093E+01 0. -1.
</event>
<event>
 5   0  0.1826851E-05  0.2660910E+04  0.7818609E-02  0.8347801E-01
        2   -1    0    0  501    0  0.00000000000E+00  0.00000000000E+00  0.16207784373E+04  0.16207784373E+04  0.25500000920E-02 0. -1.
       -2   -1    0    0    0  501  0.00000000000E+00  0.00000000000E+00 -0.10921362719E+04  0.10921362719E+04  0.25500000920E-02 0.  1.
    10030    2    1    2    0    0  0.00000000000E+00  0.00000000000E+00  0.52864216532E+03  0.27129147092E+04  0.26609103105E+04 0.  0.
        5    1    3    3  502    0  0.87027247439E+03  0.17111439307E+03  0.12753850360E+04  0.15534746201E+04  0.46999998093E+01 0. -1.
       -5    1    3    3    0  502 -0.87027247439E+03 -0.17111439307E+03 -0.74674287072E+03  0.11594400891E+04  0.46999998093E+01 0.  1.
</event>
<event>
 5   0  0.1788003E-05  0.2663522E+04  0.7818609E-02  0.8346939E-01
        2   -1    0    0  501    0  0.00000000000E+00  0.00000000000E+00  0.18479203155E+04  0.18479203155E+04  0.25500000920E-02 0.  1.
       -2   -1    0    0    0  501  0.00000000000E+00  0.00000000000E+00 -0.95977465697E+03  0.95977465697E+03  0.25500000920E-02 0. -1.
    10030    2    1    2    0    0  0.00000000000E+00  0.00000000000E+00  0.88814565848E+03  0.28076949724E+04  0.26635217941E+04 0.  0.
        2    1    3    3  502    0  0.13196790490E+04 -0.73037464162E+02  0.61631832108E+03  0.14583331363E+04  0.25500000920E-02 0. -1.
       -2    1    3    3    0  502 -0.13196790490E+04  0.73037464162E+02  0.27182733740E+03  0.13493618361E+04  0.25500000920E-02 0.  1.
</event>
<event>
 5   0  0.1881699E-05  0.2722904E+04  0.7818609E-02  0.8327612E-01
        2   -1    0    0  501    0  0.00000000000E+00  0.00000000000E+00  0.24303077437E+04  0.24303077437E+04  0.25500000920E-02 0.  1.
       -2   -1    0    0    0  501  0.00000000000E+00  0.00000000000E+00 -0.76268164467E+03  0.76268164467E+03  0.25500000920E-02 0. -1.
    10030    2    1    2    0    0  0.00000000000E+00  0.00000000000E+00  0.16676260991E+04  0.31929893884E+04  0.27229036759E+04 0.  0.
        4    1    3    3  502    0 -0.10309117272E+04  0.42597523819E+03  0.17491612796E+04  0.20745603601E+04  0.12699999809E+01 0.  1.
       -4    1    3    3    0  502  0.10309117272E+04 -0.42597523819E+03 -0.81535180562E+02  0.11184290283E+04  0.12699999809E+01 0. -1.
</event>
<event>
 5   0  0.1826851E-05  0.2681838E+04  0.7818609E-02  0.8340922E-01
       -2   -1    0    0    0  501  0.00000000000E+00  0.00000000000E+00  0.10069222346E+04  0.10069222346E+04  0.25500000920E-02 0. -1.
        2   -1    0    0  501    0  0.00000000000E+00  0.00000000000E+00 -0.17857026696E+04  0.17857026696E+04  0.25500000920E-02 0.  1.
    10030    2    1    2    0    0  0.00000000000E+00  0.00000000000E+00 -0.77878043501E+03  0.27926249043E+04  0.26818379686E+04 0.  0.
        5    1    3    3  502    0  0.72043050114E+02 -0.59582063063E+03  0.85924834327E+03  0.10481041124E+04  0.46999998093E+01 0. -1.
       -5    1    3    3    0  502 -0.72043050114E+02  0.59582063063E+03 -0.16380287783E+04  0.17445207919E+04  0.46999998093E+01 0.  1.
</event>
<event>
 5   0  0.1826851E-05  0.2623390E+04  0.7818609E-02  0.8360299E-01
        2   -1    0    0  501    0  0.00000000000E+00  0.00000000000E+00  0.18380619056E+04  0.18380619056E+04  0.25500000920E-02 0.  1.
       -2   -1    0    0    0  501  0.00000000000E+00  0.00000000000E+00 -0.93606415204E+03  0.93606415204E+03  0.25500000920E-02 0. -1.
    10030    2    1    2    0    0  0.00000000000E+00  0.00000000000E+00  0.90199775354E+03  0.27741260576E+04  0.26233900656E+04 0.  0.
        5    1    3    3  502    0 -0.79180979344E+02 -0.67758183646E+03  0.16356992947E+04  0.17722643835E+04  0.46999998093E+01 0.  1.
       -5    1    3    3    0  502  0.79180979344E+02  0.67758183646E+03 -0.73370154112E+03  0.10018616741E+04  0.46999998093E+01 0. -1.
</event>
<event>
 5   0  0.1878160E-05  0.2313722E+04  0.7818609E-02  0.8472530E-01
        2   -1    0    0  501    0  0.00000000000E+00  0.00000000000E+00  0.10184166234E+04  0.10184166234E+04  0.25500000920E-02 0.  1.
       -2   -1    0    0    0  501  0.00000000000E+00  0.00000000000E+00 -0.13141256534E+04  0.13141256535E+04  0.25500000920E-02 0. -1.
    10030    2    1    2    0    0  0.00000000000E+00  0.00000000000E+00 -0.29570903009E+03  0.23325422768E+04  0.23137220323E+04 0.  0.
        1    1    3    3  502    0  0.10905332737E+04  0.33047757245E+02  0.23994633126E+03  0.11171075227E+04  0.50400001928E-02 0. -1.
       -1    1    3    3    0  502 -0.10905332737E+04 -0.33047757245E+02 -0.53565536135E+03  0.12154347541E+04  0.50400001928E-02 0.  1.
</event>
<event>
 5   0  0.1878160E-05  0.2683960E+04  0.7818609E-02  0.8340228E-01
        2   -1    0    0  501    0  0.00000000000E+00  0.00000000000E+00  0.90174552350E+03  0.90174552350E+03  0.25500000920E-02 0.  1.
       -2   -1    0    0    0  501  0.00000000000E+00  0.00000000000E+00 -0.19971381792E+04  0.19971381792E+04  0.25500000920E-02 0. -1.
    10030    2    1    2    0    0  0.00000000000E+00  0.00000000000E+00 -0.10953926557E+04  0.28988837027E+04  0.26839600689E+04 0.  0.
        1    1    3    3  502    0 -0.37371437813E+03 -0.11877509369E+04 -0.10882699749E+04  0.16537068249E+04  0.50400001928E-02 0. -1.
       -1    1    3    3    0  502  0.37371437813E+03  0.11877509369E+04 -0.71226808139E+01  0.12451768778E+04  0.50400001928E-02 0.  1.
</event>
<event>
 5   0  0.6804685E-06  0.2749843E+04  0.7818609E-02  0.8319011E-01
       -1   -1    0    0    0  501  0.00000000000E+00  0.00000000000E+00  0.18183633837E+04  0.18183633837E+04  0.50400001928E-02 0. -1.
        1   -1    0    0  501    0  0.00000000000E+00  0.00000000000E+00 -0.10396211861E+04  0.10396211861E+04  0.50400001928E-02 0.  1.
    10030    2    1    2    0    0  0.00000000000E+00  0.00000000000E+00  0.77874219765E+03  0.28579845698E+04  0.27498429757E+04 0.  0.
        2    1    3    3  502    0  0.15922334867E+02  0.77204747744E+03  0.15716926692E+04  0.17511506715E+04  0.25500000920E-02 0. -1.
       -2    1    3    3    0  502 -0.15922334867E+02 -0.77204747744E+03 -0.79295047150E+03  0.11068338983E+04  0.25500000920E-02 0.  1.
</event>
<event>
 5   0  0.1931119E-05  0.2651897E+04  0.7818609E-02  0.8350784E-01
       -2   -1    0    0    0  501  0.00000000000E+00  0.00000000000E+00  0.94406680718E+03  0.94406680718E+03  0.25500000920E-02 0.  1.
        2   -1    0    0  501    0  0.00000000000E+00  0.00000000000E+00 -0.18623041476E+04  0.18623041476E+04  0.25500000920E-02 0. -1.
    10030    2    1    2    0    0  0.00000000000E+00  0.00000000000E+00 -0.91823734037E+03  0.28063709547E+04  0.26518970799E+04 0.  0.
        3    1    3    3  502    0  0.28451382054E+03  0.19559555646E+03  0.89566238711E+03  0.95990460863E+03  0.10100000352E+00 0.  1.
       -3    1    3    3    0  502 -0.28451382054E+03 -0.19559555646E+03 -0.18138997275E+04  0.18464663461E+04  0.10100000352E+00 0. -1.
</event>
<event>
 5   0  0.7754912E-06  0.2568273E+04  0.7818609E-02  0.8379059E-01
       -1   -1    0    0    0  501  0.00000000000E+00  0.00000000000E+00  0.75666121209E+03  0.75666121210E+03  0.50400001928E-02 0.  1.
        1   -1    0    0  501    0  0.00000000000E+00  0.00000000000E+00 -0.21793191012E+04  0.21793191012E+04  0.50400001928E-02 0. -1.
    10030    2    1    2    0    0  0.00000000000E+00  0.00000000000E+00 -0.14226578891E+04  0.29359803133E+04  0.25682727524E+04 0.  0.
        4    1    3    3  502    0 -0.83740050875E+03 -0.21235833720E+03  0.37478714048E+03  0.94170201709E+03  0.12699999809E+01 0.  1.
       -4    1    3    3    0  502  0.83740050875E+03  0.21235833720E+03 -0.17974450296E+04  0.19942782962E+04  0.12699999809E+01 0. -1.
</event>
<event>
 5   0  0.7348964E-06  0.2717318E+04  0.7818609E-02  0.8329408E-01
       -1   -1    0    0    0  501  0.00000000000E+00  0.00000000000E+00  0.10103419054E+04  0.10103419054E+04  0.50400001928E-02 0.  1.
        1   -1    0    0  501    0  0.00000000000E+00  0.00000000000E+00 -0.18270587788E+04  0.18270587788E+04  0.50400001928E-02 0. -1.
    10030    2    1    2    0    0  0.00000000000E+00  0.00000000000E+00 -0.81671687345E+03  0.28374006842E+04  0.27173178304E+04 0.  0.
        1    1    3    3  502    0  0.72328142284E+03 -0.11005279051E+04 -0.75727530526E+03  0.15191325072E+04  0.50400001928E-02 0. -1.
       -1    1    3    3    0  502 -0.72328142284E+03  0.11005279051E+04 -0.59441568187E+02  0.13182681770E+04  0.50400001928E-02 0.  1.
</event>
<event>
 5   0  0.7600052E-06  0.2692880E+04  0.7818609E-02  0.8337319E-01
        1   -1    0    0  501    0  0.00000000000E+00  0.00000000000E+00  0.65223306650E+03  0.65223306652E+03  0.50400001928E-02 0.  1.
       -1   -1    0    0    0  501  0.00000000000E+00  0.00000000000E+00 -0.27795282006E+04  0.27795282006E+04  0.50400001928E-02 0. -1.
    10030    2    1    2    0    0  0.00000000000E+00  0.00000000000E+00 -0.21272951341E+04  0.34317612671E+04  0.26928796496E+04 0.  0.
        5    1    3    3  502    0 -0.57216963473E+03  0.11112697710E+04 -0.17015773929E+04  0.21113233549E+04  0.46999998093E+01 0. -1.
       -5    1    3    3    0  502  0.57216963473E+03 -0.11112697710E+04 -0.42571774118E+03  0.13204379122E+04  0.46999998093E+01 0.  1.
</event>
<event>
 5   0  0.1881699E-05  0.2701115E+04  0.7818609E-02  0.8334643E-01
        2   -1    0    0  501    0  0.00000000000E+00  0.00000000000E+00  0.11490469601E+04  0.11490469601E+04  0.25500000920E-02 0.  1.
       -2   -1    0    0    0  501  0.00000000000E+00  0.00000000000E+00 -0.15874073716E+04  0.15874073716E+04  0.25500000920E-02 0. -1.
    10030    2    1    2    0    0  0.00000000000E+00  0.00000000000E+00 -0.43836041149E+03  0.27364543318E+04  0.27011150400E+04 0.  0.
        4    1    3    3  502    0  0.10322639614E+04 -0.40616486524E+02  0.66213548234E+03  0.12270466963E+04  0.12699999809E+01 0.  1.
       -4    1    3    3    0  502 -0.10322639614E+04  0.40616486524E+02 -0.11004958938E+04  0.15094076355E+04  0.12699999809E+01 0. -1.
</event>
<event>
 5   0  0.6804685E-06  0.2056377E+04  0.7818609E-02  0.8580707E-01
        1   -1    0    0  501    0  0.00000000000E+00  0.00000000000E+00  0.85641766632E+03  0.85641766634E+03  0.50400001928E-02 0.  1.
       -1   -1    0    0    0  501  0.00000000000E+00  0.00000000000E+00 -0.12344113389E+04  0.12344113389E+04  0.50400001928E-02 0. -1.
    10030    2    1    2    0    0  0.00000000000E+00  0.00000000000E+00 -0.37799367256E+03  0.20908290052E+04  0.20563770842E+04 0.  0.
        2    1    3    3  502    0 -0.50868401513E+03  0.56570330341E+03 -0.89224357298E+03  0.11725520237E+04  0.25500000920E-02 0. -1.
       -2    1    3    3    0  502  0.50868401513E+03 -0.56570330341E+03  0.51424990041E+03  0.91827698154E+03  0.25500000920E-02 0.  1.
</event>
<event>
 5   0  0.1788003E-05  0.2182205E+04  0.7818609E-02  0.8525871E-01
       -2   -1    0    0    0  501  0.00000000000E+00  0.00000000000E+00  0.64908034116E+03  0.64908034117E+03  0.25500000920E-02 0. -1.
        2   -1    0    0  501    0  0.00000000000E+00  0.00000000000E+00 -0.18341407733E+04  0.18341407733E+04  0.25500000920E-02 0.  1.
    10030    2    1    2    0    0  0.00000000000E+00  0.00000000000E+00 -0.11850604321E+04  0.24832211144E+04  0.21822050489E+04 0.  0.
        2    1    3    3  502    0 -0.36078944191E+03  0.10179498101E+04 -0.41582336050E+03  0.11572812555E+04  0.25500000920E-02 0. -1.
       -2    1    3    3    0  502  0.36078944191E+03 -0.10179498101E+04 -0.76923707160E+03  0.13259398589E+04  0.25500000920E-02 0.  1.
</event>
<event>
 5   0  0.1878160E-05  0.2661987E+04  0.7818609E-02  0.8347445E-01
        2   -1    0    0  501    0  0.00000000000E+00  0.00000000000E+00  0.18194263075E+04  0.18194263075E+04  0.25500000920E-02 0.  1.
       -2   -1    0    0    0  501  0.00000000000E+00  0.00000000000E+00 -0.97368275016E+03  0.97368275016E+03  0.25500000920E-02 0. -1.
    10030    2    1    2    0    0  0.00000000000E+00  0.00000000000E+00  0.84574355734E+03  0.27931090577E+04  0.26619872357E+04 0.  0.
        1    1    3    3  502    0 -0.13073987018E+04  0.10096059945E+03  0.18346725667E+03  0.13240636852E+04  0.50400001928E-02 0.  1.
       -1    1    3    3    0  502  0.13073987018E+04 -0.10096059945E+03  0.66227630067E+03  0.14690453725E+04  0.50400001928E-02 0. -1.
</event>
<event>
 5   0  0.1826851E-05  0.2626096E+04  0.7818609E-02  0.8359391E-01
       -2   -1    0    0    0  501  0.00000000000E+00  0.00000000000E+00  0.10249151079E+04  0.10249151079E+04  0.25500000920E-02 0.  1.
        2   -1    0    0  501    0  0.00000000000E+00  0.00000000000E+00 -0.16821831999E+04  0.16821831999E+04  0.25500000920E-02 0. -1.
    10030    2    1    2    0    0  0.00000000000E+00  0.00000000000E+00 -0.65726809192E+03  0.27070983078E+04  0.26260959433E+04 0.  0.
        5    1    3    3  502    0  0.12205519489E+04  0.23669810521E+03  0.10664614823E+03  0.12478655953E+04  0.46999998093E+01 0.  1.
       -5    1    3    3    0  502 -0.12205519489E+04 -0.23669810521E+03 -0.76391424015E+03  0.14592327125E+04  0.46999998093E+01 0. -1.
</event>
<event>
 5   0  0.6804685E-06  0.2706668E+04  0.7818609E-02  0.8332845E-01
        1   -1    0    0  501    0  0.00000000000E+00  0.00000000000E+00  0.11165304079E+04  0.11165304079E+04  0.50400001928E-02 0. -1.
       -1   -1    0    0    0  501  0.00000000000E+00  0.00000000000E+00 -0.16403603951E+04  0.16403603951E+04  0.50400001928E-02 0.  1.
    10030    2    1    2    0    0  0.00000000000E+00  0.00000000000E+00 -0.52382998726E+03  0.27568908030E+04  0.27066675164E+04 0.  0.
        2    1    3    3  502    0 -0.82759467404E+03  0.65083384924E+03 -0.11279953581E+04  0.15430071846E+04  0.25500000920E-02 0.  1.
       -2    1    3    3    0  502  0.82759467404E+03 -0.65083384924E+03  0.60416537082E+03  0.12138836184E+04  0.25500000920E-02 0. -1.
</event>
<event>
 5   0  0.7754912E-06  0.2694863E+04  0.7818609E-02  0.8336674E-01
        1   -1    0    0  501    0  0.00000000000E+00  0.00000000000E+00  0.25390544628E+04  0.25390544628E+04  0.50400001928E-02 0.  1.
       -1   -1    0    0    0  501  0.00000000000E+00  0.00000000000E+00 -0.71505842344E+03  0.71505842346E+03  0.50400001928E-02 0. -1.
    10030    2    1    2    0    0  0.00000000000E+00  0.00000000000E+00  0.18239960393E+04  0.32541128862E+04  0.26948634705E+04 0.  0.
        4    1    3    3  502    0 -0.62937170070E+03  0.11859052893E+04  0.77384028073E+03  0.15496162382E+04  0.12699999809E+01 0. -1.
       -4    1    3    3    0  502  0.62937170070E+03 -0.11859052893E+04  0.10501557586E+04  0.17044966480E+04  0.12699999809E+01 0.  1.
</event>
<event>
 5   0  0.1881699E-05  0.2746521E+04  0.7818609E-02  0.8320066E-01
       -2   -1    0    0    0  501  0.00000000000E+00  0.00000000000E+00  0.14718895266E+04  0.14718895266E+04  0.25500000920E-02 0. -1.
        2   -1    0    0  501    0  0.00000000000E+00  0.00000000000E+00 -0.12812409149E+04  0.12812409149E+04  0.25500000920E-02 0.  1.
    10030    2    1    2    0    0  0.00000000000E+00  0.00000000000E+00  0.19064861168E+03  0.27531304414E+04  0.27465214972E+04 0.  0.
        4    1    3    3  502    0  0.94738019769E+03  0.27464020392E+03 -0.86242598989E+03  0.13102429857E+04  0.12699999809E+01 0.  1.
       -4    1    3    3    0  502 -0.94738019769E+03 -0.27464020392E+03  0.10530746016E+04  0.14428874558E+04  0.12699999809E+01 0. -1.
</event>
<event>
 5   0  0.1931119E-05  0.2682102E+04  0.7818609E-02  0.8340836E-01
        2   -1    0    0  501    0  0.00000000000E+00  0.00000000000E+00  0.21233192795E+04  0.21233192795E+04  0.25500000920E-02 0.  1.
       -2   -1    0    0    0  501  0.00000000000E+00  0.00000000000E+00 -0.84698430607E+03  0.84698430607E+03  0.25500000920E-02 0. -1.
    10030    2    1    2    0    0  0.00000000000E+00  0.00000000000E+00  0.12763349735E+04  0.29703035856E+04  0.26821022401E+04 0.  0.
        3    1    3    3  502    0  0.41121464461E+03 -0.75351358363E+03 -0.50285252438E+03  0.99485721394E+03  0.10100000352E+00 0. -1.
       -3    1    3    3    0  502 -0.41121464461E+03  0.75351358363E+03  0.17791874978E+04  0.19754463717E+04  0.10100000352E+00 0.  1.
</event>
<event>
 5   0  0.7348964E-06  0.2788928E+04  0.7818609E-02  0.8306714E-01
        1   -1    0    0  501    0  0.00000000000E+00  0.00000000000E+00  0.25886852575E+04  0.25886852575E+04  0.50400001928E-02 0. -1.
       -1   -1    0    0    0  501  0.00000000000E+00  0.00000000000E+00 -0.75116479261E+03  0.75116479263E+03  0.50400001928E-02 0.  1.
    10030    2    1    2    0    0  0.00000000000E+00  0.00000000000E+00  0.18375204648E+04  0.33398500501E+04  0.27889275534E+04 0.  0.
        1    1    3    3  502    0 -0.67035640858E+03  0.35889510832E+03  0.23185733229E+04  0.24400749306E+04  0.50400001928E-02 0. -1.
       -1    1    3    3    0  502  0.67035640858E+03 -0.35889510832E+03 -0.48105285808E+03  0.89977511946E+03  0.50400001928E-02 0.  1.
</event>
<event>
 5   0  0.7351590E-06  0.2681997E+04  0.7818609E-02  0.8340870E-01
       -1   -1    0    0    0  501  0.00000000000E+00  0.00000000000E+00  0.14043303731E+04  0.14043303732E+04  0.50400001928E-02 0. -1.
        1   -1    0    0  501    0  0.00000000000E+00  0.00000000000E+00 -0.12805232115E+04  0.12805232115E+04  0.50400001928E-02 0.  1.
    10030    2    1    2    0    0  0.00000000000E+00  0.00000000000E+00  0.12380716162E+03  0.26848535847E+04  0.26819974940E+04 0.  0.
        3    1    3    3  502    0  0.65682811615E+02  0.48041542665E+03 -0.11896935798E+04  0.12847116555E+04  0.10100000352E+00 0.  1.
       -3    1    3    3    0  502 -0.65682811615E+02 -0.48041542665E+03  0.13135007414E+04  0.14001419291E+04  0.10100000352E+00 0. -1.
</event>
<event>
 5   0  0.6804685E-06  0.2689555E+04  0.7818609E-02  0.8338402E-01
       -1   -1    0    0    0  501  0.00000000000E+00  0.00000000000E+00  0.99801935610E+03  0.99801935611E+03  0.50400001928E-02 0.  1.
        1   -1    0    0  501    0  0.00000000000E+00  0.00000000000E+00 -0.18120152857E+04  0.18120152857E+04  0.50400001928E-02 0. -1.
    10030    2    1    2    0    0  0.00000000000E+00  0.00000000000E+00 -0.81399592958E+03  0.28100346418E+04  0.26895548544E+04 0.  0.
        2    1    3    3  502    0  0.66986068062E+03 -0.34648201279E+03  0.75627898926E+03  0.10680454233E+04  0.25500000920E-02 0.  1.
       -2    1    3    3    0  502 -0.66986068062E+03  0.34648201279E+03 -0.15702749188E+04  0.17419892185E+04  0.25500000920E-02 0. -1.
</event>
<event>
 5   0  0.6804685E-06  0.2631696E+04  0.7818609E-02  0.8357514E-01
       -1   -1    0    0    0  501  0.00000000000E+00  0.00000000000E+00  0.78759110579E+03  0.78759110580E+03  0.50400001928E-02 0.  1.
        1   -1    0    0  501    0  0.00000000000E+00  0.00000000000E+00 -0.21984191904E+04  0.21984191904E+04  0.50400001928E-02 0. -1.
    10030    2    1    2    0    0  0.00000000000E+00  0.00000000000E+00 -0.14108280846E+04  0.29860102962E+04  0.26316955760E+04 0.  0.
        2    1    3    3  502    0  0.98030935007E+03  0.45365950541E+03  0.14717991965E+03  0.10901721412E+04  0.25500000920E-02 0.  1.
       -2    1    3    3    0  502 -0.98030935007E+03 -0.45365950541E+03 -0.15580080043E+04  0.18958381550E+04  0.25500000920E-02 0. -1.
</event>
<event>
 5   0  0.1826851E-05  0.2563120E+04  0.7818609E-02  0.8380838E-01
        2   -1    0    0  501    0  0.00000000000E+00  0.00000000000E+00  0.26374181449E+04  0.26374181449E+04  0.25500000920E-02 0. -1.
       -2   -1    0    0    0  501  0.00000000000E+00  0.00000000000E+00 -0.62272855240E+03  0.62272855241E+03  0.25500000920E-02 0.  1.
    10030    2    1    2    0    0  0.00000000000E+00  0.00000000000E+00  0.20146895925E+04  0.32601466973E+04  0.25631196487E+04 0.  0.
        5    1    3    3  502    0  0.26577847508E+03 -0.63392647033E+03  0.23830884987E+04  0.24802487477E+04  0.46999998093E+01 0. -1.
       -5    1    3    3    0  502 -0.26577847508E+03  0.63392647033E+03 -0.36839890628E+03  0.77989794957E+03  0.46999998093E+01 0.  1.
</event>
<event>
 5   0  0.7600052E-06  0.2624041E+04  0.7818609E-02  0.8360081E-01
       -1   -1    0    0    0  501  0.00000000000E+00  0.00000000000E+00  0.16428671002E+04  0.16428671002E+04  0.50400001928E-02 0. -1.
        1   -1    0    0  501    0  0.00000000000E+00  0.00000000000E+00 -0.10478009290E+04  0.10478009290E+04  0.50400001928E-02 0.  1.
    10030    2    1    2    0    0  0.00000000000E+00  0.00000000000E+00  0.59506617120E+03  0.26906680292E+04  0.26240409096E+04 0.  0.
        5    1    3    3  502    0  0.22908403805E+03  0.11991888010E+04 -0.19512682055E+03  0.12363777105E+04  0.46999998093E+01 0.  1.
       -5    1    3    3    0  502 -0.22908403805E+03 -0.11991888010E+04  0.79019299175E+03  0.14542903187E+04  0.46999998093E+01 0. -1.
</event>
<event>
 5   0  0.7351590E-06  0.2691637E+04  0.7818609E-02  0.8337724E-01
       -1   -1    0    0    0  501  0.00000000000E+00  0.00000000000E+00  0.10538032545E+04  0.10538032545E+04  0.50400001928E-02 0. -1.
        1   -1    0    0  501    0  0.00000000000E+00  0.00000000000E+00 -0.17187523044E+04  0.17187523044E+04  0.50400001928E-02 0.  1.
    10030    2    1    2    0    0  0.00000000000E+00  0.00000000000E+00 -0.66494904992E+03  0.27725555589E+04  0.26916365074E+04 0.  0.
        3    1    3    3  502    0 -0.94365752495E+03  0.29907644899E+03  0.60668693048E+03  0.11610362994E+04  0.10100000352E+00 0. -1.
       -3    1    3    3    0  502  0.94365752495E+03 -0.29907644899E+03 -0.12716359804E+04  0.16115192595E+04  0.10100000352E+00 0.  1.
</event>
<event>
 5   0  0.7600052E-06  0.2662457E+04  0.7818609E-02  0.8347290E-01
        1   -1    0    0  501    0  0.00000000000E+00  0.00000000000E+00  0.12114904512E+04  0.12114904512E+04  0.50400001928E-02 0. -1.
       -1   -1    0    0    0  501  0.00000000000E+00  0.00000000000E+00 -0.14628013491E+04  0.14628013492E+04  0.50400001928E-02 0.  1.
    10030    2    1    2    0    0  0.00000000000E+00  0.00000000000E+00 -0.25131089795E+03  0.26742918004E+04  0.26624574111E+04 0.  0.
        5    1    3    3  502    0 -0.74411750469E+03 -0.17586214436E+03 -0.12202282578E+04  0.14400060576E+04  0.46999998093E+01 0.  1.
       -5    1    3    3    0  502  0.74411750469E+03  0.17586214436E+03  0.96891735987E+03  0.12342857428E+04  0.46999998093E+01 0. -1.
</event>
<event>
 5   0  0.7348964E-06  0.2698213E+04  0.7818609E-02  0.8335585E-01
       -1   -1    0    0    0  501  0.00000000000E+00  0.00000000000E+00  0.95786628094E+03  0.95786628095E+03  0.50400001928E-02 0.  1.
        1   -1    0    0  501    0  0.00000000000E+00  0.00000000000E+00 -0.19001483046E+04  0.19001483046E+04  0.50400001928E-02 0. -1.
    10030    2    1    2    0    0  0.00000000000E+00  0.00000000000E+00 -0.94228202363E+03  0.28580145855E+04  0.26982127342E+04 0.  0.
        1    1    3    3  502    0  0.15578319146E+03  0.78623854130E+03 -0.16206069403E+04  0.18079840435E+04  0.50400001928E-02 0. -1.
       -1    1    3    3    0  502 -0.15578319146E+03 -0.78623854130E+03  0.67832491668E+03  0.10500305420E+04  0.50400001928E-02 0.  1.
</event>
<event>
 5   0  0.1788003E-05  0.2744399E+04  0.7818609E-02  0.8320741E-01
       -2   -1    0    0    0  501  0.00000000000E+00  0.00000000000E+00  0.70074372389E+03  0.70074372390E+03  0.25500000920E-02 0.  1.
        2   -1    0    0  501    0  0.00000000000E+00  0.00000000000E+00 -0.26870465597E+04  0.26870465597E+04  0.25500000920E-02 0. -1.
    10030    2    1    2    0    0  0.00000000000E+00  0.00000000000E+00 -0.19863028358E+04  0.33877902836E+04  0.27443986682E+04 0.  0.
        2    1    3    3  502    0 -0.25305683784E+03  0.93676072320E+03 -0.21908570565E+04  0.23961245915E+04  0.25500000920E-02 0.  1.
       -2    1    3    3    0  502  0.25305683784E+03 -0.93676072320E+03  0.20455422073E+03  0.99166569212E+03  0.25500000920E-02 0. -1.
</event>
<event>
 5   0  0.1878160E-05  0.2621636E+04  0.7818609E-02  0.8360889E-01
        2   -1    0    0  501    0  0.00000000000E+00  0.00000000000E+00  0.24049642413E+04  0.24049642413E+04  0.25500000920E-02 0. -1.
       -2   -1    0    0    0  501  0.00000000000E+00  0.00000000000E+00 -0.71445721804E+03  0.71445721805E+03  0.25500000920E-02 0.  1.
    10030    2    1    2    0    0  0.00000000000E+00  0.00000000000E+00  0.16905070233E+04  0.31194214594E+04  0.26216361772E+04 0.  0.
        1    1    3    3  502    0  0.27847086095E+03  0.54562233116E+03 -0.53366537733E+03  0.81243367954E+03  0.50400001928E-02 0.  1.
       -1    1    3    3    0  502 -0.27847086095E+03 -0.54562233116E+03  0.22241724006E+04  0.23069877798E+04  0.50400001928E-02 0. -1.
</event>
<event>
 5   0  0.6175875E-06  0.2660524E+04  0.7818609E-02  0.8347928E-01
       -3   -1    0    0    0  501  0.00000000000E+00  0.00000000000E+00  0.61483109582E+03  0.61483110412E+03  0.10100000352E+00 0. -1.
        3   -1    0    0  501    0  0.00000000000E+00  0.00000000000E+00 -0.28781843095E+04  0.28781843112E+04  0.10100000352E+00 0.  1.
    10030    2    1    2    0    0  0.00000000000E+00  0.00000000000E+00 -0.22633532136E+04  0.34930154154E+04  0.26605241818E+04 0.  0.
        1    1    3    3  502    0 -0.48258067494E+03  0.10612070105E+04 -0.19729125158E+04  0.22915994899E+04  0.50400001928E-02 0.  1.
       -1    1    3    3    0  502  0.48258067494E+03 -0.10612070105E+04 -0.29044069785E+03  0.12014159255E+04  0.50400001928E-02 0. -1.
</event>
<event>
 5   0  0.6804685E-06  0.2673024E+04  0.7818609E-02  0.8343811E-01
        1   -1    0    0  501    0  0.00000000000E+00  0.00000000000E+00  0.21506632866E+04  0.21506632866E+04  0.50400001928E-02 0. -1.
       -1   -1    0    0    0  501  0.00000000000E+00  0.00000000000E+00 -0.83056410260E+03  0.83056410262E+03  0.50400001928E-02 0.  1.
    10030    2    1    2    0    0  0.00000000000E+00  0.00000000000E+00  0.13200991840E+04  0.29812273892E+04  0.26730235485E+04 0.  0.
        2    1    3    3  502    0  0.44890706866E+03  0.19830397231E+01  0.20640642241E+04  0.21123168819E+04  0.25500000920E-02 0. -1.
       -2    1    3    3    0  502 -0.44890706866E+03 -0.19830397231E+01 -0.74396504008E+03  0.86891050725E+03  0.25500000920E-02 0.  1.
</event>
<event>
 5   0  0.7351590E-06  0.2696028E+04  0.7818609E-02  0.8336295E-01
       -1   -1    0    0    0  501  0.00000000000E+00  0.00000000000E+00  0.10970727937E+04  0.10970727937E+04  0.50400001928E-02 0.  1.
        1   -1    0    0  501    0  0.00000000000E+00  0.00000000000E+00 -0.16563542058E+04  0.16563542058E+04  0.50400001928E-02 0. -1.
    10030    2    1    2    0    0  0.00000000000E+00  0.00000000000E+00 -0.55928141213E+03  0.27534269995E+04  0.26960275488E+04 0.  0.
        3    1    3    3  502    0  0.89240153559E+03  0.35209085819E+02 -0.13108511843E+04  0.15861749646E+04  0.10100000352E+00 0. -1.
       -3    1    3    3    0  502 -0.89240153559E+03 -0.35209085819E+02  0.75156977222E+03  0.11672520350E+04  0.10100000352E+00 0.  1.
</event>
<event>
 5   0  0.1788003E-05  0.2714366E+04  0.7818609E-02  0.8330359E-01
        2   -1    0    0  501    0  0.00000000000E+00  0.00000000000E+00  0.28796896444E+04  0.28796896444E+04  0.25500000920E-02 0. -1.
       -2   -1    0    0    0  501  0.00000000000E+00  0.00000000000E+00 -0.63963351821E+03  0.63963351822E+03  0.25500000920E-02 0.  1.
    10030    2    1    2    0    0  0.00000000000E+00  0.00000000000E+00  0.22400561262E+04  0.35193231626E+04  0.27143662381E+04 0.  0.
        2    1    3    3  502    0 -0.94682727323E+03 -0.39556081417E+03 -0.31641905100E+02  0.10266213777E+04  0.25500000920E-02 0.  1.
       -2    1    3    3    0  502  0.94682727323E+03  0.39556081417E+03  0.22716980313E+04  0.24927017849E+04  0.25500000920E-02 0. -1.
</event>
<event>
 5   0  0.1878160E-05  0.2768097E+04  0.7818609E-02  0.8313242E-01
       -2   -1    0    0    0  501  0.00000000000E+00  0.00000000000E+00  0.20782429341E+04  0.20782429341E+04  0.25500000920E-02 0.  1.
        2   -1    0    0  501    0  0.00000000000E+00  0.00000000000E+00 -0.92173573596E+03  0.92173573596E+03  0.25500000920E-02 0. -1.
    10030    2    1    2    0    0  0.00000000000E+00  0.00000000000E+00  0.11565071981E+04  0.29999786701E+04  0.27680973829E+04 0.  0.
        1    1    3    3  502    0  0.18706038645E+03  0.25431913681E+03 -0.88219162869E+03  0.93698019258E+03  0.50400001928E-02 0. -1.
       -1    1    3    3    0  502 -0.18706038645E+03 -0.25431913681E+03  0.20386988268E+04  0.20629984775E+04  0.50400001928E-02 0.  1.
</event>
<event>
 5   0  0.7348964E-06  0.2856302E+04  0.7818609E-02  0.8285999E-01
       -1   -1    0    0    0  501  0.00000000000E+00  0.00000000000E+00  0.13433534283E+04  0.13433534283E+04  0.50400001928E-02 0. -1.
        1   -1    0    0  501    0  0.00000000000E+00  0.00000000000E+00 -0.15183014671E+04  0.15183014671E+04  0.50400001928E-02 0.  1.
    10030    2    1    2    0    0  0.00000000000E+00  0.00000000000E+00 -0.17494803882E+03  0.28616548954E+04  0.28563021415E+04 0.  0.
        1    1    3    3  502    0  0.13503383212E+04 -0.38120217423E+03  0.17927068308E+03  0.14145199388E+04  0.50400001928E-02 0. -1.
       -1    1    3    3    0  502 -0.13503383212E+04  0.38120217423E+03 -0.35421872190E+03  0.14471349565E+04  0.50400001928E-02 0.  1.
</event>
<event>
 5   0  0.1788003E-05  0.2693569E+04  0.7818609E-02  0.8337095E-01
       -2   -1    0    0    0  501  0.00000000000E+00  0.00000000000E+00  0.96863207460E+03  0.96863207461E+03  0.25500000920E-02 0.  1.
        2   -1    0    0  501    0  0.00000000000E+00  0.00000000000E+00 -0.18725667037E+04  0.18725667037E+04  0.25500000920E-02 0. -1.
    10030    2    1    2    0    0  0.00000000000E+00  0.00000000000E+00 -0.90393462906E+03  0.28411987783E+04  0.26935687636E+04 0.  0.
        2    1    3    3  502    0  0.32594703893E+03  0.38939486357E+03  0.86378012782E+03  0.10019909886E+04  0.25500000920E-02 0.  1.
       -2    1    3    3    0  502 -0.32594703893E+03 -0.38939486357E+03 -0.17677147569E+04  0.18392077897E+04  0.25500000920E-02 0. -1.
</event>
<event>
 5   0  0.7754912E-06  0.2699252E+04  0.7818609E-02  0.8335248E-01
       -1   -1    0    0    0  501  0.00000000000E+00  0.00000000000E+00  0.11093328502E+04  0.11093328502E+04  0.50400001928E-02 0. -1.
        1   -1    0    0  501    0  0.00000000000E+00  0.00000000000E+00 -0.16419690304E+04  0.16419690304E+04  0.50400001928E-02 0.  1.
    10030    2    1    2    0    0  0.00000000000E+00  0.00000000000E+00 -0.53263618023E+03  0.27513018806E+04  0.26992518849E+04 0.  0.
        4    1    3    3  502    0 -0.59738214949E+03 -0.11595903196E+04 -0.61936902764E+03  0.14439995661E+04  0.12699999809E+01 0.  1.
       -4    1    3    3    0  502  0.59738214949E+03  0.11595903196E+04  0.86732847413E+02  0.13073023145E+04  0.12699999809E+01 0. -1.
</event>
<event>
 5   0  0.7351590E-06  0.2074185E+04  0.7818609E-02  0.8572701E-01
       -1   -1    0    0    0  501  0.00000000000E+00  0.00000000000E+00  0.99884341879E+03  0.99884341880E+03  0.50400001928E-02 0.  1.
        1   -1    0    0  501    0  0.00000000000E+00  0.00000000000E+00 -0.10768061618E+04  0.10768061618E+04  0.50400001928E-02 0. -1.
    10030    2    1    2    0    0  0.00000000000E+00  0.00000000000E+00 -0.77962743006E+02  0.20756495806E+04  0.20741848983E+04 0.  0.
        3    1    3    3  502    0 -0.59614280565E+03 -0.74310195802E+03 -0.44911706363E+03  0.10532297526E+04  0.10100000352E+00 0. -1.
       -3    1    3    3    0  502  0.59614280565E+03  0.74310195802E+03  0.37115432062E+03  0.10224198280E+04  0.10100000352E+00 0.  1.
</event>
<event>
 5   0  0.1826851E-05  0.2703532E+04  0.7818609E-02  0.8333860E-01
        2   -1    0    0  501    0  0.00000000000E+00  0.00000000000E+00  0.17194009898E+04  0.17194009898E+04  0.25500000920E-02 0.  1.
       -2   -1    0    0    0  501  0.00000000000E+00  0.00000000000E+00 -0.10627371884E+04  0.10627371884E+04  0.25500000920E-02 0. -1.
    10030    2    1    2    0    0  0.00000000000E+00  0.00000000000E+00  0.65666380142E+03  0.27821381782E+04  0.27035320405E+04 0.  0.
        5    1    3    3  502    0 -0.20204076766E+02  0.11767888942E+04 -0.35583604047E+03  0.12295859807E+04  0.46999998093E+01 0. -1.
       -5    1    3    3    0  502  0.20204076766E+02 -0.11767888942E+04  0.10124998419E+04  0.15525521975E+04  0.46999998093E+01 0.  1.
</event>
<event>
 5   0  0.1788003E-05  0.2678119E+04  0.7818609E-02  0.8342140E-01
        2   -1    0    0  501    0  0.00000000000E+00  0.00000000000E+00  0.17517622968E+04  0.17517622968E+04  0.25500000920E-02 0.  1.
       -2   -1    0    0    0  501  0.00000000000E+00  0.00000000000E+00 -0.10235866425E+04  0.10235866425E+04  0.25500000920E-02 0. -1.
    10030    2    1    2    0    0  0.00000000000E+00  0.00000000000E+00  0.72817565430E+03  0.27753489393E+04  0.26781191070E+04 0.  0.
        2    1    3    3  502    0  0.15095960055E+03 -0.12506408025E+04 -0.10647838070E+03  0.12642107670E+04  0.25500000920E-02 0. -1.
       -2    1    3    3    0  502 -0.15095960055E+03  0.12506408025E+04  0.83465403500E+03  0.15111381723E+04  0.25500000920E-02 0.  1.
</event>
<event>
 5   0  0.6175875E-06  0.2700863E+04  0.7818609E-02  0.8334725E-01
       -3   -1    0    0    0  501  0.00000000000E+00  0.00000000000E+00  0.13692508085E+04  0.13692508122E+04  0.10100000352E+00 0. -1.
        3   -1    0    0  501    0  0.00000000000E+00  0.00000000000E+00 -0.13318706499E+04  0.13318706537E+04  0.10100000352E+00 0.  1.
    10030    2    1    2    0    0  0.00000000000E+00  0.00000000000E+00  0.37380158558E+02  0.27011214659E+04  0.27008628061E+04 0.  0.
        4    1    3    3  502    0 -0.19235284562E+03 -0.64499930756E+03  0.11895453993E+04  0.13667639130E+04  0.12699999809E+01 0. -1.
       -4    1    3    3    0  502  0.19235284562E+03  0.64499930756E+03 -0.11521652408E+04  0.13343575529E+04  0.12699999809E+01 0.  1.
</event>
<event>
 5   0  0.6804685E-06  0.2771876E+04  0.7818609E-02  0.8312053E-01
        1   -1    0    0  501    0  0.00000000000E+00  0.00000000000E+00  0.80099822461E+03  0.80099822463E+03  0.50400001928E-02 0.  1.
       -1   -1    0    0    0  501  0.00000000000E+00  0.00000000000E+00 -0.23980386625E+04  0.23980386625E+04  0.50400001928E-02 0. -1.
    10030    2    1    2    0    0  0.00000000000E+00  0.00000000000E+00 -0.15970404379E+04  0.31990368872E+04  0.27718764123E+04 0.  0.
        2    1    3    3  502    0 -0.67971469835E+03  0.81618955574E+03  0.22898813957E+03  0.10865601825E+04  0.25500000920E-02 0.  1.
       -2    1    3    3    0  502  0.67971469835E+03 -0.81618955574E+03 -0.18260285775E+04  0.21124767047E+04  0.25500000920E-02 0. -1.
</event>
<event>
 5   0  0.7348964E-06  0.2683373E+04  0.7818609E-02  0.8340420E-01
        1   -1    0    0  501    0  0.00000000000E+00  0.00000000000E+00  0.12817712859E+04  0.12817712860E+04  0.50400001928E-02 0. -1.
       -1   -1    0    0    0  501  0.00000000000E+00  0.00000000000E+00 -0.14044028645E+04  0.14044028645E+04  0.50400001928E-02 0.  1.
    10030    2    1    2    0    0  0.00000000000E+00  0.00000000000E+00 -0.12263157857E+03  0.26861741505E+04  0.26833734482E+04 0.  0.
        1    1    3    3  502    0  0.82079650356E+03  0.10604024366E+04 -0.16963363879E+02  0.13410622594E+04  0.50400001928E-02 0. -1.
       -1    1    3    3    0  502 -0.82079650356E+03 -0.10604024366E+04 -0.10566821469E+03  0.13451118911E+04  0.50400001928E-02 0.  1.
</event>
<event>
 5   0  0.1788003E-05  0.2713659E+04  0.7818609E-02  0.8330587E-01
       -2   -1    0    0    0  501  0.00000000000E+00  0.00000000000E+00  0.11495631792E+04  0.11495631792E+04  0.25500000920E-02 0.  1.
        2   -1    0    0  501    0  0.00000000000E+00  0.00000000000E+00 -0.16014653717E+04  0.16014653717E+04  0.25500000920E-02 0. -1.
    10030    2    1    2    0    0  0.00000000000E+00  0.00000000000E+00 -0.45190219257E+03  0.27510285509E+04  0.27136585077E+04 0.  0.
        2    1    3    3  502    0 -0.55861360050E+03 -0.19050429310E+01 -0.14794792945E+04  0.15814271298E+04  0.25500000920E-02 0. -1.
       -2    1    3    3    0  502  0.55861360050E+03  0.19050429310E+01  0.10275771020E+04  0.11696014211E+04  0.25500000920E-02 0.  1.
</event>
<event>
 5   0  0.7348964E-06  0.2720992E+04  0.7818609E-02  0.8328226E-01
        1   -1    0    0  501    0  0.00000000000E+00  0.00000000000E+00  0.20513456522E+04  0.20513456522E+04  0.50400001928E-02 0. -1.
       -1   -1    0    0    0  501  0.00000000000E+00  0.00000000000E+00 -0.90230963124E+03  0.90230963125E+03  0.50400001928E-02 0.  1.
    10030    2    1    2    0    0  0.00000000000E+00  0.00000000000E+00  0.11490360209E+04  0.29536552834E+04  0.27209916861E+04 0.  0.
        1    1    3    3  502    0 -0.29802474828E+03  0.31362098190E+03  0.19746839467E+04  0.20215225846E+04  0.50400001928E-02 0. -1.
       -1    1    3    3    0  502  0.29802474828E+03 -0.31362098190E+03 -0.82564792574E+03  0.93213269881E+03  0.50400001928E-02 0.  1.
</event>
<event>
 5   0  0.6175875E-06  0.2658730E+04  0.7818609E-02  0.8348521E-01
        4   -1    0    0  501    0  0.00000000000E+00  0.00000000000E+00  0.19882297165E+04  0.19882301221E+04  0.12699999809E+01 0.  1.
       -4   -1    0    0    0  501  0.00000000000E+00  0.00000000000E+00 -0.88883595702E+03  0.88883686433E+03  0.12699999809E+01 0. -1.
    10030    2    1    2    0    0  0.00000000000E+00  0.00000000000E+00  0.10993937595E+04  0.28770669864E+04  0.26587304877E+04 0.  0.
        4    1    3    3  502    0 -0.58324355874E+03 -0.11772058934E+04  0.76940620033E+03  0.15224895002E+04  0.12699999809E+01 0.  1.
       -4    1    3    3    0  502  0.58324355874E+03  0.11772058934E+04  0.32998755914E+03  0.13545774862E+04  0.12699999809E+01 0. -1.
</event>
<event>
 5   0  0.7351590E-06  0.2622012E+04  0.7818609E-02  0.8360762E-01
       -1   -1    0    0    0  501  0.00000000000E+00  0.00000000000E+00  0.11256447313E+04  0.11256447313E+04  0.50400001928E-02 0. -1.
        1   -1    0    0  501    0  0.00000000000E+00  0.00000000000E+00 -0.15268913749E+04  0.15268913749E+04  0.50400001928E-02 0.  1.
    10030    2    1    2    0    0  0.00000000000E+00  0.00000000000E+00 -0.40124664361E+03  0.26525361062E+04  0.26220123810E+04 0.  0.
        3    1    3    3  502    0 -0.12200591481E+04  0.32225664942E+02 -0.68489678230E+03  0.13995236443E+04  0.10100000352E+00 0. -1.
       -3    1    3    3    0  502  0.12200591481E+04 -0.32225664942E+02  0.28365013869E+03  0.12530124619E+04  0.10100000352E+00 0.  1.
</event>
<event>
 5   0  0.7600052E-06  0.2547594E+04  0.7818609E-02  0.8386223E-01
       -1   -1    0    0    0  501  0.00000000000E+00  0.00000000000E+00  0.86552163515E+03  0.86552163517E+03  0.50400001928E-02 0. -1.
        1   -1    0    0  501    0  0.00000000000E+00  0.00000000000E+00 -0.18746602494E+04  0.18746602494E+04  0.50400001928E-02 0.  1.
    10030    2    1    2    0    0  0.00000000000E+00  0.00000000000E+00 -0.10091386142E+04  0.27401818846E+04  0.25475941627E+04 0.  0.
        5    1    3    3  502    0 -0.72656671600E+03  0.15232148758E+03 -0.16179206567E+04  0.17801096510E+04  0.46999998093E+01 0.  1.
       -5    1    3    3    0  502  0.72656671600E+03 -0.15232148758E+03  0.60878204245E+03  0.96007223353E+03  0.46999998093E+01 0. -1.
</event>
<event>
 5   0  0.1788003E-05  0.1992082E+04  0.7818609E-02  0.8610332E-01
        2   -1    0    0  501    0  0.00000000000E+00  0.00000000000E+00  0.15865609058E+04  0.15865609058E+04  0.25500000920E-02 0. -1.
       -2   -1    0    0    0  501  0.00000000000E+00  0.00000000000E+00 -0.62531305822E+03  0.62531305823E+03  0.25500000920E-02 0.  1.
    10030    2    1    2    0    0  0.00000000000E+00  0.00000000000E+00  0.96124784754E+03  0.22118739640E+04  0.19920815767E+04 0.  0.
        2    1    3    3  502    0  0.72426267276E+03 -0.66846145977E+03  0.64037345071E+03  0.11753617736E+04  0.25500000920E-02 0. -1.
       -2    1    3    3    0  502 -0.72426267276E+03  0.66846145977E+03  0.32087439683E+03  0.10365121904E+04  0.25500000920E-02 0.  1.
</event>
<event>
 5   0  0.7348964E-06  0.2351560E+04  0.7818609E-02  0.8457865E-01
        1   -1    0    0  501    0  0.00000000000E+00  0.00000000000E+00  0.18540142385E+04  0.18540142385E+04  0.50400001928E-02 0.  1.
       -1   -1    0    0    0  501  0.00000000000E+00  0.00000000000E+00 -0.74565709901E+03  0.74565709903E+03  0.50400001928E-02 0. -1.
    10030    2    1    2    0    0  0.00000000000E+00  0.00000000000E+00  0.11083571394E+04  0.25996713375E+04  0.23515602298E+04 0.  0.
        1    1    3    3  502    0  0.66179038500E+02 -0.32897706111E+03 -0.69159501056E+03  0.76870620560E+03  0.50400001928E-02 0. -1.
       -1    1    3    3    0  502 -0.66179038500E+02  0.32897706111E+03  0.17999521500E+04  0.18309651319E+04  0.50400001928E-02 0.  1.
</event>
<event>
 5   0  0.1788003E-05  0.2710310E+04  0.7818609E-02  0.8331667E-01
        2   -1    0    0  501    0  0.00000000000E+00  0.00000000000E+00  0.80556783780E+03  0.80556783781E+03  0.25500000920E-02 0.  1.
       -2   -1    0    0    0  501  0.00000000000E+00  0.00000000000E+00 -0.22796907502E+04  0.22796907502E+04  0.25500000920E-02 0. -1.
    10030    2    1    2    0    0  0.00000000000E+00  0.00000000000E+00 -0.14741229124E+04  0.30852585880E+04  0.27103103502E+04 0.  0.
        2    1    3    3  502    0  0.12722097267E+04 -0.24209680968E+03 -0.11914252689E+04  0.17597223148E+04  0.25500000920E-02 0. -1.
       -2    1    3    3    0  502 -0.12722097267E+04  0.24209680968E+03 -0.28269764356E+03  0.13255362732E+04  0.25500000920E-02 0.  1.
</event>
<event>
 5   0  0.6804685E-06  0.2659832E+04  0.7818609E-02  0.8348157E-01
       -1   -1    0    0    0  501  0.00000000000E+00  0.00000000000E+00  0.13542974059E+04  0.13542974059E+04  0.50400001928E-02 0. -1.
        1   -1    0    0  501    0  0.00000000000E+00  0.00000000000E+00 -0.13059734465E+04  0.13059734465E+04  0.50400001928E-02 0.  1.
    10030    2    1    2    0    0  0.00000000000E+00  0.00000000000E+00  0.48323959478E+02  0.26602708524E+04  0.26598319126E+04 0.  0.
        2    1    3    3  502    0 -0.66351327411E+02  0.61492286437E+03  0.12017023649E+04  0.13515255090E+04  0.25500000920E-02 0. -1.
       -2    1    3    3    0  502  0.66351327411E+02 -0.61492286437E+03 -0.11533784054E+04  0.13087453434E+04  0.25500000920E-02 0.  1.
</event>
<event>
 5   0  0.6804685E-06  0.2643334E+04  0.7818609E-02  0.8353629E-01
        1   -1    0    0  501    0  0.00000000000E+00  0.00000000000E+00  0.17845308045E+04  0.17845308045E+04  0.50400001928E-02 0.  1.
       -1   -1    0    0    0  501  0.00000000000E+00  0.00000000000E+00 -0.97885847892E+03  0.97885847894E+03  0.50400001928E-02 0. -1.
    10030    2    1    2    0    0  0.00000000000E+00  0.00000000000E+00  0.80567232559E+03  0.27633892835E+04  0.26433335839E+04 0.  0.
        2    1    3    3  502    0  0.11801064106E+04  0.12447520977E+03  0.10112102320E+04  0.15590674622E+04  0.25500000920E-02 0.  1.
       -2    1    3    3    0  502 -0.11801064106E+04 -0.12447520977E+03 -0.20553790644E+03  0.12043218213E+04  0.25500000920E-02 0. -1.
</event>
<event>
 5   0  0.7754912E-06  0.2666717E+04  0.7818609E-02  0.8345885E-01
        1   -1    0    0  501    0  0.00000000000E+00  0.00000000000E+00  0.18803952569E+04  0.18803952569E+04  0.50400001928E-02 0.  1.
       -1   -1    0    0    0  501  0.00000000000E+00  0.00000000000E+00 -0.94546370445E+03  0.94546370446E+03  0.50400001928E-02 0. -1.
    10030    2    1    2    0    0  0.00000000000E+00  0.00000000000E+00  0.93493155244E+03  0.28258589614E+04  0.26667174319E+04 0.  0.
        4    1    3    3  502    0 -0.72257736019E+03  0.44414108153E+03  0.15576794710E+04  0.17736251828E+04  0.12699999809E+01 0.  1.
       -4    1    3    3    0  502  0.72257736019E+03 -0.44414108153E+03 -0.62274791857E+03  0.10522337786E+04  0.12699999809E+01 0. -1.
</event>
<event>
 5   0  0.7754912E-06  0.2666936E+04  0.7818609E-02  0.8345814E-01
       -1   -1    0    0    0  501  0.00000000000E+00  0.00000000000E+00  0.99689273445E+03  0.99689273446E+03  0.50400001928E-02 0.  1.
        1   -1    0    0  501    0  0.00000000000E+00  0.00000000000E+00 -0.17836789014E+04  0.17836789014E+04  0.50400001928E-02 0. -1.
    10030    2    1    2    0    0  0.00000000000E+00  0.00000000000E+00 -0.78678616694E+03  0.27805716359E+04  0.26669357228E+04 0.  0.
        4    1    3    3  502    0  0.10162612273E+04  0.77914780818E+02  0.50305518725E+03  0.11366282284E+04  0.12699999809E+01 0.  1.
       -4    1    3    3    0  502 -0.10162612273E+04 -0.77914780818E+02 -0.12898413542E+04  0.16439434075E+04  0.12699999809E+01 0. -1.
</event>
<event>
 5   0  0.7600052E-06  0.2656196E+04  0.7818609E-02  0.8349359E-01
        1   -1    0    0  501    0  0.00000000000E+00  0.00000000000E+00  0.86823053785E+03  0.86823053786E+03  0.50400001928E-02 0.  1.
       -1   -1    0    0    0  501  0.00000000000E+00  0.00000000000E+00 -0.20315392858E+04  0.20315392858E+04  0.50400001928E-02 0. -1.
    10030    2    1    2    0    0  0.00000000000E+00  0.00000000000E+00 -0.11633087480E+04  0.28997698237E+04  0.26561961123E+04 0.  0.
        5    1    3    3  502    0 -0.67597308836E+03  0.81157979937E+03 -0.14606059061E+04  0.18024963495E+04  0.46999998093E+01 0. -1.
       -5    1    3    3    0  502  0.67597308836E+03 -0.81157979937E+03  0.29729715815E+03  0.10972734742E+04  0.46999998093E+01 0.  1.
</event>
<event>
 5   0  0.7351590E-06  0.2608199E+04  0.7818609E-02  0.8365421E-01
        1   -1    0    0  501    0  0.00000000000E+00  0.00000000000E+00  0.14419318550E+04  0.14419318550E+04  0.50400001928E-02 0. -1.
       -1   -1    0    0    0  501  0.00000000000E+00  0.00000000000E+00 -0.11794427751E+04  0.11794427751E+04  0.50400001928E-02 0.  1.
    10030    2    1    2    0    0  0.00000000000E+00  0.00000000000E+00  0.26248907985E+03  0.26213746301E+04  0.26081994621E+04 0.  0.
        3    1    3    3  502    0 -0.98432698600E+02  0.38842027883E+03  0.13785278715E+04  0.14355829520E+04  0.10100000352E+00 0. -1.
       -3    1    3    3    0  502  0.98432698600E+02 -0.38842027883E+03 -0.11160387917E+04  0.11857916781E+04  0.10100000352E+00 0.  1.
</event>
<event>
 5   0  0.1826851E-05  0.2675477E+04  0.7818609E-02  0.8343006E-01
        2   -1    0    0  501    0  0.00000000000E+00  0.00000000000E+00  0.13676482743E+04  0.13676482743E+04  0.25500000920E-02 0. -1.
       -2   -1    0    0    0  501  0.00000000000E+00  0.00000000000E+00 -0.13084829360E+04  0.13084829360E+04  0.25500000920E-02 0.  1.
    10030    2    1    2    0    0  0.00000000000E+00  0.00000000000E+00  0.59165338256E+02  0.26761312103E+04  0.26754771009E+04 0.  0.
        5    1    3    3  502    0  0.40054884440E+03  0.10960245729E+04 -0.62465147088E+03  0.13236014473E+04  0.46999998093E+01 0. -1.
       -5    1    3    3    0  502 -0.40054884440E+03 -0.10960245729E+04  0.68381680913E+03  0.13525297630E+04  0.46999998093E+01 0.  1.
</event>
<event>
 5   0  0.7600052E-06  0.2607233E+04  0.7818609E-02  0.8365748E-01
       -1   -1    0    0    0  501  0.00000000000E+00  0.00000000000E+00  0.10868591562E+04  0.10868591562E+04  0.50400001928E-02 0.  1.
        1   -1    0    0  501    0  0.00000000000E+00  0.00000000000E+00 -0.15636026825E+04  0.15636026825E+04  0.50400001928E-02 0. -1.
    10030    2    1    2    0    0  0.00000000000E+00  0.00000000000E+00 -0.47674352624E+03  0.26504618387E+04  0.26072329333E+04 0.  0.
        5    1    3    3  502    0 -0.44376467919E+03 -0.88574602376E+03 -0.10997223582E+04  0.14801636613E+04  0.46999998093E+01 0. -1.
       -5    1    3    3    0  502  0.44376467919E+03  0.88574602376E+03  0.62297883192E+03  0.11702981774E+04  0.46999998093E+01 0.  1.
</event>
<event>
 5   0  0.1878160E-05  0.2689256E+04  0.7818609E-02  0.8338500E-01
       -2   -1    0    0    0  501  0.00000000000E+00  0.00000000000E+00  0.10514443027E+04  0.10514443027E+04  0.25500000920E-02 0.  1.
        2   -1    0    0  501    0  0.00000000000E+00  0.00000000000E+00 -0.17195621600E+04  0.17195621600E+04  0.25500000920E-02 0. -1.
    10030    2    1    2    0    0  0.00000000000E+00  0.00000000000E+00 -0.66811785729E+03  0.27710064627E+04  0.26892555373E+04 0.  0.
        1    1    3    3  502    0 -0.10576150630E+04  0.16887054797E+03 -0.11717657557E+04  0.15874828722E+04  0.50400001928E-02 0. -1.
       -1    1    3    3    0  502  0.10576150630E+04 -0.16887054797E+03  0.50364789838E+03  0.11835235904E+04  0.50400001928E-02 0.  1.
</event>
<event>
 5   0  0.7351590E-06  0.2744325E+04  0.7818609E-02  0.8320765E-01
       -1   -1    0    0    0  501  0.00000000000E+00  0.00000000000E+00  0.15805923919E+04  0.15805923919E+04  0.50400001928E-02 0.  1.
        1   -1    0    0  501    0  0.00000000000E+00  0.00000000000E+00 -0.11912176462E+04  0.11912176462E+04  0.50400001928E-02 0. -1.
    10030    2    1    2    0    0  0.00000000000E+00  0.00000000000E+00  0.38937474565E+03  0.27718100381E+04  0.27443247248E+04 0.  0.
        3    1    3    3  502    0 -0.30558640105E+03 -0.10239843391E+04 -0.67469036202E+03  0.12637776980E+04  0.10100000352E+00 0. -1.
       -3    1    3    3    0  502  0.30558640105E+03  0.10239843391E+04  0.10640651077E+04  0.15080323401E+04  0.10100000352E+00 0.  1.
</event>
<event>
 5   0  0.7754912E-06  0.2705032E+04  0.7818609E-02  0.8333374E-01
       -1   -1    0    0    0  501  0.00000000000E+00  0.00000000000E+00  0.16003296931E+04  0.16003296931E+04  0.50400001928E-02 0. -1.
        1   -1    0    0  501    0  0.00000000000E+00  0.00000000000E+00 -0.11430768443E+04  0.11430768443E+04  0.50400001928E-02 0.  1.
    10030    2    1    2    0    0  0.00000000000E+00  0.00000000000E+00  0.45725284882E+03  0.27434065374E+04  0.27050322108E+04 0.  0.
        4    1    3    3  502    0 -0.12875092717E+04 -0.75326114248E+02 -0.18451484200E+03  0.13028436161E+04  0.12699999809E+01 0.  1.
       -4    1    3    3    0  502  0.12875092717E+04  0.75326114248E+02  0.64176769082E+03  0.14405629213E+04  0.12699999809E+01 0. -1.
</event>
<event>
 5   0  0.1878160E-05  0.2708851E+04  0.7818609E-02  0.8332139E-01
        2   -1    0    0  501    0  0.00000000000E+00  0.00000000000E+00  0.14958195535E+04  0.14958195535E+04  0.25500000920E-02 0. -1.
       -2   -1    0    0    0  501  0.00000000000E+00  0.00000000000E+00 -0.12263971361E+04  0.12263971361E+04  0.25500000920E-02 0.  1.
    10030    2    1    2    0    0  0.00000000000E+00  0.00000000000E+00  0.26942241735E+03  0.27222166896E+04  0.27088512817E+04 0.  0.
        1    1    3    3  502    0  0.20316133294E+03 -0.52972226206E+02 -0.12099446150E+04  0.12280254702E+04  0.50400001928E-02 0.  1.
       -1    1    3    3    0  502 -0.20316133294E+03  0.52972226206E+02  0.14793670323E+04  0.14941912195E+04  0.50400001928E-02 0. -1.
</event>
<event>
 5   0  0.1931119E-05  0.2744981E+04  0.7818609E-02  0.8320556E-01
        2   -1    0    0  501    0  0.00000000000E+00  0.00000000000E+00  0.21641060247E+04  0.21641060247E+04  0.25500000920E-02 0. -1.
       -2   -1    0    0    0  501  0.00000000000E+00  0.00000000000E+00 -0.87044247589E+03  0.87044247590E+03  0.25500000920E-02 0.  1.
    10030    2    1    2    0    0  0.00000000000E+00  0.00000000000E+00  0.12936635488E+04  0.30345485006E+04  0.27449807331E+04 0.  0.
        3    1    3    3  502    0  0.32303035630E+03 -0.11346376420E+04  0.14222355147E+04  0.18478379418E+04  0.10100000352E+00 0. -1.
       -3    1    3    3    0  502 -0.32303035630E+03  0.11346376420E+04 -0.12857196591E+03  0.11867105588E+04  0.10100000352E+00 0.  1.
</event>
<event>
 5   0  0.1878160E-05  0.2709553E+04  0.7818609E-02  0.8331912E-01
       -2   -1    0    0    0  501  0.00000000000E+00  0.00000000000E+00  0.15019055180E+04  0.15019055180E+04  0.25500000920E-02 0. -1.
        2   -1    0    0  501    0  0.00000000000E+00  0.00000000000E+00 -0.12220602835E+04  0.12220602836E+04  0.25500000920E-02 0.  1.
    10030    2    1    2    0    0  0.00000000000E+00  0.00000000000E+00  0.27984523444E+03  0.27239658015E+04  0.27095527920E+04 0.  0.
        1    1    3    3  502    0  0.90155901654E+03  0.17207687436E+03 -0.86187190335E+03  0.12590640527E+04  0.50400001928E-02 0.  1.
       -1    1    3    3    0  502 -0.90155901654E+03 -0.17207687436E+03  0.11417171378E+04  0.14649017488E+04  0.50400001928E-02 0. -1.
</event>
<event>
 5   0  0.1931119E-05  0.2697365E+04  0.7818609E-02  0.8335860E-01
       -2   -1    0    0    0  501  0.00000000000E+00  0.00000000000E+00  0.16289339989E+04  0.16289339989E+04  0.25500000920E-02 0.  1.
        2   -1    0    0  501    0  0.00000000000E+00  0.00000000000E+00 -0.11166469970E+04  0.11166469970E+04  0.25500000920E-02 0. -1.
    10030    2    1    2    0    0  0.00000000000E+00  0.00000000000E+00  0.51228700194E+03  0.27455809959E+04  0.26973648313E+04 0.  0.
        3    1    3    3  502    0  0.73194666749E+03  0.11203274133E+04  0.42666362089E+03  0.14046071667E+04  0.10100000352E+00 0.  1.
       -3    1    3    3    0  502 -0.73194666749E+03 -0.11203274133E+04  0.85623381057E+02  0.13409738292E+04  0.10100000352E+00 0. -1.
</event>
<event>
 5   0  0.1788003E-05  0.2267368E+04  0.7818609E-02  0.8490900E-01
       -2   -1    0    0    0  501  0.00000000000E+00  0.00000000000E+00  0.18760313086E+04  0.18760313086E+04  0.25500000920E-02 0.  1.
        2   -1    0    0  501    0  0.00000000000E+00  0.00000000000E+00 -0.68508401735E+03  0.68508401735E+03  0.25500000920E-02 0. -1.
    10030    2    1    2    0    0  0.00000000000E+00  0.00000000000E+00  0.11909472912E+04  0.25611153259E+04  0.22673676945E+04 0.  0.
        2    1    3    3  502    0 -0.52843538229E+03 -0.97631567394E+03  0.33591486378E+03  0.11598599244E+04  0.25500000920E-02 0. -1.
       -2    1    3    3    0  502  0.52843538229E+03  0.97631567394E+03  0.85503242746E+03  0.14012554016E+04  0.25500000920E-02 0.  1.
</event>
<event>
 5   0  0.1878160E-05  0.2693688E+04  0.7818609E-02  0.8337056E-01
        2   -1    0    0  501    0  0.00000000000E+00  0.00000000000E+00  0.11046535074E+04  0.11046535074E+04  0.25500000920E-02 0.  1.
       -2   -1    0    0    0  501  0.00000000000E+00  0.00000000000E+00 -0.16421341806E+04  0.16421341806E+04  0.25500000920E-02 0. -1.
    10030    2    1    2    0    0  0.00000000000E+00  0.00000000000E+00 -0.53748067320E+03  0.27467876880E+04  0.26936883875E+04 0.  0.
        1    1    3    3  502    0 -0.12769328540E+04  0.42304170259E+03 -0.33689716237E+03  0.13867305051E+04  0.50400001928E-02 0.  1.
       -1    1    3    3    0  502  0.12769328540E+04 -0.42304170259E+03 -0.20058351084E+03  0.13600571829E+04  0.50400001928E-02 0. -1.
</event>
<event>
 5   0  0.7600052E-06  0.2700992E+04  0.7818609E-02  0.8334683E-01
       -1   -1    0    0    0  501  0.00000000000E+00  0.00000000000E+00  0.14376551819E+04  0.14376551819E+04  0.50400001928E-02 0. -1.
        1   -1    0    0  501    0  0.00000000000E+00  0.00000000000E+00 -0.12686213577E+04  0.12686213577E+04  0.50400001928E-02 0.  1.
    10030    2    1    2    0    0  0.00000000000E+00  0.00000000000E+00  0.16903382421E+03  0.27062765397E+04  0.27009924612E+04 0.  0.
        5    1    3    3  502    0  0.23766605692E+03 -0.37596289955E+03  0.13621525903E+04  0.14329392959E+04  0.46999998093E+01 0. -1.
       -5    1    3    3    0  502 -0.23766605692E+03  0.37596289955E+03 -0.11931187661E+04  0.12733372438E+04  0.46999998093E+01 0.  1.
</event>
<event>
 5   0  0.7600052E-06  0.2639115E+04  0.7818609E-02  0.8355035E-01
       -1   -1    0    0    0  501  0.00000000000E+00  0.00000000000E+00  0.18413029196E+04  0.18413029196E+04  0.50400001928E-02 0. -1.
        1   -1    0    0  501    0  0.00000000000E+00  0.00000000000E+00 -0.94565190774E+03  0.94565190775E+03  0.50400001928E-02 0.  1.
    10030    2    1    2    0    0  0.00000000000E+00  0.00000000000E+00  0.89565101190E+03  0.27869548274E+04  0.26391147142E+04 0.  0.
        5    1    3    3  502    0 -0.35241607438E+03  0.45273063655E+03 -0.80703745496E+03  0.99019879946E+03  0.46999998093E+01 0.  1.
       -5    1    3    3    0  502  0.35241607438E+03 -0.45273063655E+03  0.17026884669E+04  0.17967560279E+04  0.46999998093E+01 0. -1.
</event>
<event>
 5   0  0.1788003E-05  0.2523867E+04  0.7818609E-02  0.8394532E-01
       -2   -1    0    0    0  501  0.00000000000E+00  0.00000000000E+00  0.11567882710E+04  0.11567882710E+04  0.25500000920E-02 0. -1.
        2   -1    0    0  501    0  0.00000000000E+00  0.00000000000E+00 -0.13766358744E+04  0.13766358744E+04  0.25500000920E-02 0.  1.
    10030    2    1    2    0    0  0.00000000000E+00  0.00000000000E+00 -0.21984760337E+03  0.25334241454E+04  0.25238670591E+04 0.  0.
        2    1    3    3  502    0 -0.85212331837E+03 -0.86335374656E+03  0.23921853377E+03  0.12364139066E+04  0.25500000920E-02 0. -1.
       -2    1    3    3    0  502  0.85212331837E+03  0.86335374656E+03 -0.45906613714E+03  0.12970102389E+04  0.25500000920E-02 0.  1.
</event>
<event>
 5   0  0.7351590E-06  0.2672523E+04  0.7818609E-02  0.8343976E-01
        1   -1    0    0  501    0  0.00000000000E+00  0.00000000000E+00  0.28760308220E+04  0.28760308220E+04  0.50400001928E-02 0. -1.
       -1   -1    0    0    0  501  0.00000000000E+00  0.00000000000E+00 -0.62085391778E+03  0.62085391780E+03  0.50400001928E-02 0.  1.
    10030    2    1    2    0    0  0.00000000000E+00  0.00000000000E+00  0.22551769042E+04  0.34968847398E+04  0.26725231550E+04 0.  0.
        3    1    3    3  502    0  0.10179352376E+03  0.51775634359E+03  0.27339367907E+04  0.27843929210E+04  0.10100000352E+00 0. -1.
       -3    1    3    3    0  502 -0.10179352376E+03 -0.51775634359E+03 -0.47875988646E+03  0.71249181882E+03  0.10100000352E+00 0.  1.
</event>
<event>
 5   0  0.7600052E-06  0.2682869E+04  0.7818609E-02  0.8340585E-01
       -1   -1    0    0    0  501  0.00000000000E+00  0.00000000000E+00  0.10251045813E+04  0.10251045813E+04  0.50400001928E-02 0. -1.
        1   -1    0    0  501    0  0.00000000000E+00  0.00000000000E+00 -0.17553782581E+04  0.17553782582E+04  0.50400001928E-02 0.  1.
    10030    2    1    2    0    0  0.00000000000E+00  0.00000000000E+00 -0.73027367683E+03  0.27804828395E+04  0.26828688335E+04 0.  0.
        5    1    3    3  502    0 -0.10650909630E+04 -0.79110999870E+03 -0.16007305622E+03  0.13363829028E+04  0.46999998093E+01 0.  1.
       -5    1    3    3    0  502  0.10650909630E+04  0.79110999870E+03 -0.57020062061E+03  0.14440999367E+04  0.46999998093E+01 0. -1.
</event>
<event>
 5   0  0.6175875E-06  0.2783877E+04  0.7818609E-02  0.8308291E-01
       -4   -1    0    0    0  501  0.00000000000E+00  0.00000000000E+00  0.12652282422E+04  0.12652288796E+04  0.12699999809E+01 0. -1.
        4   -1    0    0  501    0  0.00000000000E+00  0.00000000000E+00 -0.15313377807E+04  0.15313383073E+04  0.12699999809E+01 0.  1.
    10030    2    1    2    0    0  0.00000000000E+00  0.00000000000E+00 -0.26610953851E+03  0.27965671869E+04  0.27838774657E+04 0.  0.
        5    1    3    3  502    0  0.81600428851E+02 -0.44119175228E+03  0.11905866070E+04  0.12723314627E+04  0.46999998093E+01 0. -1.
       -5    1    3    3    0  502 -0.81600428851E+02  0.44119175228E+03 -0.14566961455E+04  0.15242357241E+04  0.46999998093E+01 0.  1.
</event>
<event>
 5   0  0.1931119E-05  0.2687517E+04  0.7818609E-02  0.8339067E-01
       -2   -1    0    0    0  501  0.00000000000E+00  0.00000000000E+00  0.11203175765E+04  0.11203175765E+04  0.25500000920E-02 0. -1.
        2   -1    0    0  501    0  0.00000000000E+00  0.00000000000E+00 -0.16117629912E+04  0.16117629912E+04  0.25500000920E-02 0.  1.
    10030    2    1    2    0    0  0.00000000000E+00  0.00000000000E+00 -0.49144541469E+03  0.27320805676E+04  0.26875166292E+04 0.  0.
        3    1    3    3  502    0 -0.89714275026E+02  0.15694333583E+03 -0.15993450385E+04  0.16095292555E+04  0.10100000352E+00 0.  1.
       -3    1    3    3    0  502  0.89714275026E+02 -0.15694333583E+03  0.11078996238E+04  0.11225513122E+04  0.10100000352E+00 0. -1.
</event>
<event>
 5   0  0.6175875E-06  0.2683382E+04  0.7818609E-02  0.8340417E-01
        3   -1    0    0  501    0  0.00000000000E+00  0.00000000000E+00  0.13734545451E+04  0.13734545489E+04  0.10100000352E+00 0.  1.
       -3   -1    0    0    0  501  0.00000000000E+00  0.00000000000E+00 -0.13106616630E+04  0.13106616669E+04  0.10100000352E+00 0. -1.
    10030    2    1    2    0    0  0.00000000000E+00  0.00000000000E+00  0.62792882149E+02  0.26841162157E+04  0.26833816191E+04 0.  0.
        4    1    3    3  502    0 -0.93984084235E+03  0.71509675891E+03 -0.60554190966E+03  0.13271574137E+04  0.12699999809E+01 0. -1.
       -4    1    3    3    0  502  0.93984084235E+03 -0.71509675891E+03  0.66833479181E+03  0.13569588020E+04  0.12699999809E+01 0.  1.
</event>
<event>
 5   0  0.1788003E-05  0.2702989E+04  0.7818609E-02  0.8334036E-01
        2   -1    0    0  501    0  0.00000000000E+00  0.00000000000E+00  0.24091859285E+04  0.24091859285E+04  0.25500000920E-02 0. -1.
       -2   -1    0    0    0  501  0.00000000000E+00  0.00000000000E+00 -0.75815534502E+03  0.75815534503E+03  0.25500000920E-02 0.  1.
    10030    2    1    2    0    0  0.00000000000E+00  0.00000000000E+00  0.16510305835E+04  0.31673412735E+04  0.27029888560E+04 0.  0.
        2    1    3    3  502    0  0.12243673430E+03 -0.11003199197E+04 -0.82788088714E+02  0.11102020299E+04  0.25500000920E-02 0.  1.
       -2    1    3    3    0  502 -0.12243673430E+03  0.11003199197E+04  0.17338186722E+04  0.20571392436E+04  0.25500000920E-02 0. -1.
</event>
<event>
 5   0  0.7348964E-06  0.2734195E+04  0.7818609E-02  0.8323995E-01
       -1   -1    0    0    0  501  0.00000000000E+00  0.00000000000E+00  0.23313258013E+04  0.23313258013E+04  0.50400001928E-02 0.  1.
        1   -1    0    0  501    0  0.00000000000E+00  0.00000000000E+00 -0.80167047309E+03  0.80167047310E+03  0.50400001928E-02 0. -1.
    10030    2    1    2    0    0  0.00000000000E+00  0.00000000000E+00  0.15296553283E+04  0.31329962744E+04  0.27341946223E+04 0.  0.
        1    1    3    3  502    0 -0.38395091316E+03 -0.98804329935E+03  0.17540595579E+04  0.20494811045E+04  0.50400001928E-02 0.  1.
       -1    1    3    3    0  502  0.38395091316E+03  0.98804329935E+03 -0.22440422967E+03  0.10835151699E+04  0.50400001928E-02 0. -1.
</event>
<event>
 5   0  0.1931119E-05  0.2674124E+04  0.7818609E-02  0.8343450E-01
        2   -1    0    0  501    0  0.00000000000E+00  0.00000000000E+00  0.26378317464E+04  0.26378317464E+04  0.25500000920E-02 0. -1.
       -2   -1    0    0    0  501  0.00000000000E+00  0.00000000000E+00 -0.67772903556E+03  0.67772903556E+03  0.25500000920E-02 0.  1.
    10030    2    1    2    0    0  0.00000000000E+00  0.00000000000E+00  0.19601027108E+04  0.33155607820E+04  0.26741242794E+04 0.  0.
        3    1    3    3  502    0  0.13095112122E+04  0.19170124408E+03  0.12158420639E+04  0.17971758168E+04  0.10100000352E+00 0. -1.
       -3    1    3    3    0  502 -0.13095112122E+04 -0.19170124408E+03  0.74426064691E+03  0.15183849652E+04  0.10100000352E+00 0.  1.
</event>
<event>
 5   0  0.6804685E-06  0.2730500E+04  0.7818609E-02  0.8325176E-01
       -1   -1    0    0    0  501  0.00000000000E+00  0.00000000000E+00  0.65541121995E+03  0.65541121997E+03  0.50400001928E-02 0. -1.
        1   -1    0    0  501    0  0.00000000000E+00  0.00000000000E+00 -0.28438759531E+04  0.28438759531E+04  0.50400001928E-02 0.  1.
    10030    2    1    2    0    0  0.00000000000E+00  0.00000000000E+00 -0.21884647331E+04  0.34992871730E+04  0.27305004727E+04 0.  0.
        2    1    3    3  502    0  0.34789268632E+03 -0.98203408311E+03  0.36508985761E+02  0.10424745405E+04  0.25500000920E-02 0. -1.
       -2    1    3    3    0  502 -0.34789268632E+03  0.98203408311E+03 -0.22249737189E+04  0.24568126325E+04  0.25500000920E-02 0.  1.
</event>
<event>
 5   0  0.7351590E-06  0.2436585E+04  0.7818609E-02  0.8425932E-01
       -1   -1    0    0    0  501  0.00000000000E+00  0.00000000000E+00  0.55179289576E+03  0.55179289579E+03  0.50400001928E-02 0. -1.
        1   -1    0    0  501    0  0.00000000000E+00  0.00000000000E+00 -0.26898429577E+04  0.26898429577E+04  0.50400001928E-02 0.  1.
    10030    2    1    2    0    0  0.00000000000E+00  0.00000000000E+00 -0.21380500619E+04  0.32416358535E+04  0.24365846875E+04 0.  0.
        3    1    3    3  502    0  0.60537510684E+03  0.60676128957E+03 -0.22208776373E+04  0.23805326657E+04  0.10100000352E+00 0.  1.
       -3    1    3    3    0  502 -0.60537510684E+03 -0.60676128957E+03  0.82827575389E+02  0.86110318775E+03  0.10100000352E+00 0. -1.
</event>
<event>
 5   0  0.7600052E-06  0.2654072E+04  0.7818609E-02  0.8350063E-01
       -1   -1    0    0    0  501  0.00000000000E+00  0.00000000000E+00  0.19032254516E+04  0.19032254516E+04  0.50400001928E-02 0.  1.
        1   -1    0    0  501    0  0.00000000000E+00  0.00000000000E+00 -0.92528448994E+03  0.92528448996E+03  0.50400001928E-02 0. -1.
    10030    2    1    2    0    0  0.00000000000E+00  0.00000000000E+00  0.97794096163E+03  0.28285099415E+04  0.26540723360E+04 0.  0.
        5    1    3    3  502    0 -0.85906578267E+03  0.45240181546E+03  0.14530486235E+04  0.17475794156E+04  0.46999998093E+01 0.  1.
       -5    1    3    3    0  502  0.85906578267E+03 -0.45240181546E+03 -0.47510766185E+03  0.10809305260E+04  0.46999998093E+01 0. -1.
</event>
<event>
 5   0  0.6804685E-06  0.2566453E+04  0.7818609E-02  0.8379686E-01
        1   -1    0    0  501    0  0.00000000000E+00  0.00000000000E+00  0.14564512770E+04  0.14564512770E+04  0.50400001928E-02 0.  1.
       -1   -1    0    0    0  501  0.00000000000E+00  0.00000000000E+00 -0.11306042752E+04  0.11306042752E+04  0.50400001928E-02 0. -1.
    10030    2    1    2    0    0  0.00000000000E+00  0.00000000000E+00  0.32584700182E+03  0.25870555523E+04  0.25664528365E+04 0.  0.
        2    1    3    3  502    0  0.13199430129E+03  0.10929119550E+04 -0.50175669851E+03  0.12098094153E+04  0.25500000920E-02 0. -1.
       -2    1    3    3    0  502 -0.13199430129E+03 -0.10929119550E+04  0.82760370033E+03  0.13772461369E+04  0.25500000920E-02 0.  1.
</event>
<event>
 5   0  0.1881699E-05  0.2659847E+04  0.7818609E-02  0.8348152E-01
       -2   -1    0    0    0  501  0.00000000000E+00  0.00000000000E+00  0.10549953627E+04  0.10549953627E+04  0.25500000920E-02 0. -1.
        2   -1    0    0  501    0  0.00000000000E+00  0.00000000000E+00 -0.16764964601E+04  0.16764964601E+04  0.25500000920E-02 0.  1.
    10030    2    1    2    0    0  0.00000000000E+00  0.00000000000E+00 -0.62150109740E+03  0.27314918229E+04  0.26598466054E+04 0.  0.
        4    1    3    3  502    0 -0.68984867928E+03  0.66199457666E+02 -0.14764113133E+04  0.16309707378E+04  0.12699999809E+01 0.  1.
       -4    1    3    3    0  502  0.68984867928E+03 -0.66199457666E+02  0.85491021595E+03  0.11005210851E+04  0.12699999809E+01 0. -1.
</event>
<event>
 5   0  0.7754912E-06  0.2722908E+04  0.7818609E-02  0.8327610E-01
       -1   -1    0    0    0  501  0.00000000000E+00  0.00000000000E+00  0.14798639576E+04  0.14798639576E+04  0.50400001928E-02 0. -1.
        1   -1    0    0  501    0  0.00000000000E+00  0.00000000000E+00 -0.12525184411E+04  0.12525184411E+04  0.50400001928E-02 0.  1.
    10030    2    1    2    0    0  0.00000000000E+00  0.00000000000E+00  0.22734551651E+03  0.27323823987E+04  0.27229079288E+04 0.  0.
        4    1    3    3  502    0  0.87334868865E+03  0.10218506369E+04  0.33038398316E+03  0.13842224696E+04  0.12699999809E+01 0. -1.
       -4    1    3    3    0  502 -0.87334868865E+03 -0.10218506369E+04 -0.10303846664E+03  0.13481599291E+04  0.12699999809E+01 0.  1.
</event>
<event>
 5   0  0.7600052E-06  0.2670632E+04  0.7818609E-02  0.8344597E-01
       -1   -1    0    0    0  501  0.00000000000E+00  0.00000000000E+00  0.31031603024E+04  0.31031603024E+04  0.50400001928E-02 0.  1.
        1   -1    0    0  501    0  0.00000000000E+00  0.00000000000E+00 -0.57459765821E+03  0.57459765823E+03  0.50400001928E-02 0. -1.
    10030    2    1    2    0    0  0.00000000000E+00  0.00000000000E+00  0.25285626442E+04  0.36777579606E+04  0.26706318674E+04 0.  0.
        5    1    3    3  502    0 -0.53728350979E+03  0.10447391390E+04  0.39017544578E+03  0.12379064613E+04  0.46999998093E+01 0.  1.
       -5    1    3    3    0  502  0.53728350979E+03 -0.10447391390E+04  0.21383871984E+04  0.24398514993E+04  0.46999998093E+01 0. -1.
</event>
<event>
 5   0  0.6804685E-06  0.2686190E+04  0.7818609E-02  0.8339500E-01
       -1   -1    0    0    0  501  0.00000000000E+00  0.00000000000E+00  0.28342829530E+04  0.28342829530E+04  0.50400001928E-02 0.  1.
        1   -1    0    0  501    0  0.00000000000E+00  0.00000000000E+00 -0.63645896778E+03  0.63645896780E+03  0.50400001928E-02 0. -1.
    10030    2    1    2    0    0  0.00000000000E+00  0.00000000000E+00  0.21978239853E+04  0.34707419208E+04  0.26861904644E+04 0.  0.
        2    1    3    3  502    0 -0.13420370337E+04 -0.48627800215E+02  0.10707004888E+04  0.17175062153E+04  0.25500000920E-02 0. -1.
       -2    1    3    3    0  502  0.13420370337E+04  0.48627800215E+02  0.11271234965E+04  0.17532357056E+04  0.25500000920E-02 0.  1.
</event>
<event>
 5   0  0.1878160E-05  0.2682695E+04  0.7818609E-02  0.8340642E-01
        2   -1    0    0  501    0  0.00000000000E+00  0.00000000000E+00  0.14685205099E+04  0.14685205099E+04  0.25500000920E-02 0.  1.
       -2   -1    0    0    0  501  0.00000000000E+00  0.00000000000E+00 -0.12251878179E+04  0.12251878179E+04  0.25500000920E-02 0. -1.
    10030    2    1    2    0    0  0.00000000000E+00  0.00000000000E+00  0.24333269205E+03  0.26937083278E+04  0.26826952410E+04 0.  0.
        1    1    3    3  502    0 -0.10552957604E+04  0.80806579108E+03 -0.59612817776E+02  0.13304785428E+04  0.50400001928E-02 0. -1.
       -1    1    3    3    0  502  0.10552957604E+04 -0.80806579108E+03  0.30294550983E+03  0.13632297850E+04  0.50400001928E-02 0.  1.
</event>
<event>
 5   0  0.1931119E-05  0.2697698E+04  0.7818609E-02  0.8335752E-01
        2   -1    0    0  501    0  0.00000000000E+00  0.00000000000E+00  0.15521387831E+04  0.15521387831E+04  0.25500000920E-02 0. -1.
       -2   -1    0    0    0  501  0.00000000000E+00  0.00000000000E+00 -0.11721845104E+04  0.11721845104E+04  0.25500000920E-02 0.  1.
    10030    2    1    2    0    0  0.00000000000E+00  0.00000000000E+00  0.37995427272E+03  0.27243232935E+04  0.26976975661E+04 0.  0.
        3    1    3    3  502    0 -0.11848092285E+04  0.16698846409E+03 -0.43885231239E+03  0.12744604417E+04  0.10100000352E+00 0.  1.
       -3    1    3    3    0  502  0.11848092285E+04 -0.16698846409E+03  0.81880658511E+03  0.14498628518E+04  0.10100000352E+00 0. -1.
</event>
<event>
 5   0  0.1931119E-05  0.2747903E+04  0.7818609E-02  0.8319627E-01
        2   -1    0    0  501    0  0.00000000000E+00  0.00000000000E+00  0.20633448730E+04  0.20633448730E+04  0.25500000920E-02 0.  1.
       -2   -1    0    0    0  501  0.00000000000E+00  0.00000000000E+00 -0.91489436315E+03  0.91489436315E+03  0.25500000920E-02 0. -1.
    10030    2    1    2    0    0  0.00000000000E+00  0.00000000000E+00  0.11484505099E+04  0.29782392362E+04  0.27479029048E+04 0.  0.
        3    1    3    3  502    0  0.50688454970E+03 -0.11299635928E+04 -0.70619962252E+02  0.12404583254E+04  0.10100000352E+00 0. -1.
       -3    1    3    3    0  502 -0.50688454970E+03  0.11299635928E+04  0.12190704721E+04  0.17377809108E+04  0.10100000352E+00 0.  1.
</event>
<event>
 5   0  0.7754912E-06  0.2779112E+04  0.7818609E-02  0.8309783E-01
       -1   -1    0    0    0  501  0.00000000000E+00  0.00000000000E+00  0.10315208134E+04  0.10315208134E+04  0.50400001928E-02 0.  1.
        1   -1    0    0  501    0  0.00000000000E+00  0.00000000000E+00 -0.18718633861E+04  0.18718633861E+04  0.50400001928E-02 0. -1.
    10030    2    1    2    0    0  0.00000000000E+00  0.00000000000E+00 -0.84034257261E+03  0.29033841995E+04  0.27791121191E+04 0.  0.
        4    1    3    3  502    0  0.99283556306E+02  0.13776543981E+04 -0.57887043970E+03  0.14976252749E+04  0.12699999809E+01 0. -1.
       -4    1    3    3    0  502 -0.99283556306E+02 -0.13776543981E+04 -0.26147213292E+03  0.14057589246E+04  0.12699999809E+01 0.  1.
</event>
<event>
 5   0  0.1878160E-05  0.2725838E+04  0.7818609E-02  0.8326670E-01
       -2   -1    0    0    0  501  0.00000000000E+00  0.00000000000E+00  0.12218051920E+04  0.12218051920E+04  0.25500000920E-02 0.  1.
        2   -1    0    0  501    0  0.00000000000E+00  0.00000000000E+00 -0.15203312411E+04  0.15203312411E+04  0.25500000920E-02 0. -1.
    10030    2    1    2    0    0  0.00000000000E+00  0.00000000000E+00 -0.29852604913E+03  0.27421364331E+04  0.27258382959E+04 0.  0.
        1    1    3    3  502    0 -0.33678442972E+03 -0.98912556206E+03 -0.10295697612E+04  0.14669038901E+04  0.50400001928E-02 0. -1.
       -1    1    3    3    0  502  0.33678442972E+03  0.98912556206E+03  0.73104371206E+03  0.12752325429E+04  0.50400001928E-02 0.  1.
</event>
<event>
 5   0  0.6804685E-06  0.2893085E+04  0.7818609E-02  0.8274938E-01
       -1   -1    0    0    0  501  0.00000000000E+00  0.00000000000E+00  0.12709203734E+04  0.12709203734E+04  0.50400001928E-02 0. -1.
        1   -1    0    0  501    0  0.00000000000E+00  0.00000000000E+00 -0.16464335135E+04  0.16464335135E+04  0.50400001928E-02 0.  1.
    10030    2    1    2    0    0  0.00000000000E+00  0.00000000000E+00 -0.37551314011E+03  0.29173538869E+04  0.28930854780E+04 0.  0.
        2    1    3    3  502    0  0.42983697608E+02  0.14443118814E+04 -0.11935328830E+03  0.14498722759E+04  0.25500000920E-02 0. -1.
       -2    1    3    3    0  502 -0.42983697608E+02 -0.14443118814E+04 -0.25615985181E+03  0.14674816110E+04  0.25500000920E-02 0.  1.
</event>
<event>
 5   0  0.7351590E-06  0.2079103E+04  0.7818609E-02  0.8570505E-01
       -1   -1    0    0    0  501  0.00000000000E+00  0.00000000000E+00  0.81262427964E+03  0.81262427966E+03  0.50400001928E-02 0.  1.
        1   -1    0    0  501    0  0.00000000000E+00  0.00000000000E+00 -0.13298489171E+04  0.13298489171E+04  0.50400001928E-02 0. -1.
    10030    2    1    2    0    0  0.00000000000E+00  0.00000000000E+00 -0.51722463746E+03  0.21424731968E+04  0.20791031897E+04 0.  0.
        3    1    3    3  502    0  0.56224277216E+03  0.77622283372E+03 -0.67340903278E+03  0.11713746446E+04  0.10100000352E+00 0.  1.
       -3    1    3    3    0  502 -0.56224277216E+03 -0.77622283372E+03  0.15618439532E+03  0.97109855214E+03  0.10100000352E+00 0. -1.
</event>
<event>
 5   0  0.7600052E-06  0.2729908E+04  0.7818609E-02  0.8325366E-01
        1   -1    0    0  501    0  0.00000000000E+00  0.00000000000E+00  0.10250405562E+04  0.10250405562E+04  0.50400001928E-02 0.  1.
       -1   -1    0    0    0  501  0.00000000000E+00  0.00000000000E+00 -0.18175859140E+04  0.18175859140E+04  0.50400001928E-02 0. -1.
    10030    2    1    2    0    0  0.00000000000E+00  0.00000000000E+00 -0.79254535778E+03  0.28426264702E+04  0.27299078931E+04 0.  0.
        5    1    3    3  502    0  0.55137093854E+03 -0.45256902838E+03  0.81549953837E+03  0.10834621472E+04  0.46999998093E+01 0.  1.
       -5    1    3    3    0  502 -0.55137093854E+03  0.45256902838E+03 -0.16080448962E+04  0.17591643230E+04  0.46999998093E+01 0. -1.
</event>
<event>
 5   0  0.1788003E-05  0.2471960E+04  0.7818609E-02  0.8413044E-01
       -2   -1    0    0    0  501  0.00000000000E+00  0.00000000000E+00  0.71875930994E+03  0.71875930994E+03  0.25500000920E-02 0. -1.
        2   -1    0    0  501    0  0.00000000000E+00  0.00000000000E+00 -0.21253937851E+04  0.21253937851E+04  0.25500000920E-02 0.  1.
    10030    2    1    2    0    0  0.00000000000E+00  0.00000000000E+00 -0.14066344752E+04  0.28441530951E+04  0.24719600081E+04 0.  0.
        2    1    3    3  502    0 -0.48734199202E+03  0.48004824266E+03  0.48109420550E+03  0.83630148095E+03  0.25500000920E-02 0. -1.
       -2    1    3    3    0  502  0.48734199202E+03 -0.48004824266E+03 -0.18877286807E+04  0.20078516141E+04  0.25500000920E-02 0.  1.
</event>
<event>
 5   0  0.1878160E-05  0.2718262E+04  0.7818609E-02  0.8329104E-01
       -2   -1    0    0    0  501  0.00000000000E+00  0.00000000000E+00  0.12421670205E+04  0.12421670205E+04  0.25500000920E-02 0. -1.
        2   -1    0    0  501    0  0.00000000000E+00  0.00000000000E+00 -0.14871079147E+04  0.14871079147E+04  0.25500000920E-02 0.  1.
    10030    2    1    2    0    0  0.00000000000E+00  0.00000000000E+00 -0.24494089419E+03  0.27292749351E+04  0.27182615087E+04 0.  0.
        1    1    3    3  502    0 -0.30965766620E+03  0.48481661777E+03 -0.13588414678E+04  0.14755965430E+04  0.50400001928E-02 0.  1.
       -1    1    3    3    0  502  0.30965766620E+03 -0.48481661777E+03  0.11139005736E+04  0.12536783921E+04  0.50400001928E-02 0. -1.
</event>
<event>
 5   0  0.1826851E-05  0.2272508E+04  0.7818609E-02  0.8488840E-01
       -2   -1    0    0    0  501  0.00000000000E+00  0.00000000000E+00  0.45535179281E+03  0.45535179282E+03  0.25500000920E-02 0.  1.
        2   -1    0    0  501    0  0.00000000000E+00  0.00000000000E+00 -0.28353314029E+04  0.28353314029E+04  0.25500000920E-02 0. -1.
    10030    2    1    2    0    0  0.00000000000E+00  0.00000000000E+00 -0.23799796101E+04  0.32906831957E+04  0.22725080748E+04 0.  0.
        5    1    3    3  502    0 -0.59499983073E+03 -0.62635866105E+03 -0.22586996130E+04  0.24182836895E+04  0.46999998093E+01 0. -1.
       -5    1    3    3    0  502  0.59499983073E+03  0.62635866105E+03 -0.12127999708E+03  0.87239950627E+03  0.46999998093E+01 0.  1.
</event>
<event>
 5   0  0.6804685E-06  0.2634850E+04  0.7818609E-02  0.8356459E-01
        1   -1    0    0  501    0  0.00000000000E+00  0.00000000000E+00  0.17461430853E+04  0.17461430853E+04  0.50400001928E-02 0.  1.
       -1   -1    0    0    0  501  0.00000000000E+00  0.00000000000E+00 -0.99396730029E+03  0.99396730030E+03  0.50400001928E-02 0. -1.
    10030    2    1    2    0    0  0.00000000000E+00  0.00000000000E+00  0.75217578500E+03  0.27401103856E+04  0.26348503779E+04 0.  0.
        2    1    3    3  502    0  0.12080801355E+03 -0.12993458578E+04  0.56418618783E+03  0.14216892378E+04  0.25500000920E-02 0. -1.
       -2    1    3    3    0  502 -0.12080801355E+03  0.12993458578E+04  0.18798959717E+03  0.13184211478E+04  0.25500000920E-02 0.  1.
</event>
<event>
 5   0  0.1881699E-05  0.2691503E+04  0.7818609E-02  0.8337767E-01
        2   -1    0    0  501    0  0.00000000000E+00  0.00000000000E+00  0.12175855186E+04  0.12175855186E+04  0.25500000920E-02 0. -1.
       -2   -1    0    0    0  501  0.00000000000E+00  0.00000000000E+00 -0.14874080872E+04  0.14874080872E+04  0.25500000920E-02 0.  1.
    10030    2    1    2    0    0  0.00000000000E+00  0.00000000000E+00 -0.26982256862E+03  0.27049936058E+04  0.26915025894E+04 0.  0.
        4    1    3    3  502    0  0.79442237772E+03 -0.76093888350E+03  0.64415815660E+03  0.12747847827E+04  0.12699999809E+01 0. -1.
       -4    1    3    3    0  502 -0.79442237772E+03  0.76093888350E+03 -0.91398072521E+03  0.14302088231E+04  0.12699999809E+01 0.  1.
</event>
<event>
 5   0  0.1878160E-05  0.2746229E+04  0.7818609E-02  0.8320159E-01
       -2   -1    0    0    0  501  0.00000000000E+00  0.00000000000E+00  0.12449901795E+04  0.12449901795E+04  0.25500000920E-02 0.  1.
        2   -1    0    0  501    0  0.00000000000E+00  0.00000000000E+00 -0.15144242463E+04  0.15144242464E+04  0.25500000920E-02 0. -1.
    10030    2    1    2    0    0  0.00000000000E+00  0.00000000000E+00 -0.26943406685E+03  0.27594144259E+04  0.27462289157E+04 0.  0.
        1    1    3    3  502    0  0.85894416961E+03 -0.43643757423E+03 -0.11177704333E+04  0.14756942720E+04  0.50400001928E-02 0. -1.
       -1    1    3    3    0  502 -0.85894416961E+03  0.43643757423E+03  0.84833636649E+03  0.12837201539E+04  0.50400001928E-02 0.  1.
</event>
<event>
 5   0  0.7348964E-06  0.2735147E+04  0.7818609E-02  0.8323690E-01
        1   -1    0    0  501    0  0.00000000000E+00  0.00000000000E+00  0.14343549859E+04  0.14343549859E+04  0.50400001928E-02 0. -1.
       -1   -1    0    0    0  501  0.00000000000E+00  0.00000000000E+00 -0.13039013579E+04  0.13039013579E+04  0.50400001928E-02 0.  1.
    10030    2    1    2    0    0  0.00000000000E+00  0.00000000000E+00  0.13045362801E+03  0.27382563438E+04  0.27351470993E+04 0.  0.
        1    1    3    3  502    0 -0.96040239898E+03 -0.86504812406E+03  0.51247438891E+03  0.13904355520E+04  0.50400001928E-02 0. -1.
       -1    1    3    3    0  502  0.96040239898E+03  0.86504812406E+03 -0.38202076090E+03  0.13478207918E+04  0.50400001928E-02 0.  1.
</event>
<event>
 5   0  0.7600052E-06  0.2715839E+04  0.7818609E-02  0.8329884E-01
       -1   -1    0    0    0  501  0.00000000000E+00  0.00000000000E+00  0.10199482505E+04  0.10199482505E+04  0.50400001928E-02 0.  1.
        1   -1    0    0  501    0  0.00000000000E+00  0.00000000000E+00 -0.18078807416E+04  0.18078807416E+04  0.50400001928E-02 0. -1.
    10030    2    1    2    0    0  0.00000000000E+00  0.00000000000E+00 -0.78793249114E+03  0.28278289922E+04  0.27158385810E+04 0.  0.
        5    1    3    3  502    0  0.31338852621E+03 -0.13210415582E+04 -0.36933616678E+03  0.14070516909E+04  0.46999998093E+01 0.  1.
       -5    1    3    3    0  502 -0.31338852621E+03  0.13210415582E+04 -0.41859632436E+03  0.14207773012E+04  0.46999998093E+01 0. -1.
</event>
<event>
 5   0  0.1826851E-05  0.2744102E+04  0.7818609E-02  0.8320835E-01
        2   -1    0    0  501    0  0.00000000000E+00  0.00000000000E+00  0.13874545436E+04  0.13874545436E+04  0.25500000920E-02 0. -1.
       -2   -1    0    0    0  501  0.00000000000E+00  0.00000000000E+00 -0.13568189524E+04  0.13568189524E+04  0.25500000920E-02 0.  1.
    10030    2    1    2    0    0  0.00000000000E+00  0.00000000000E+00  0.30635591227E+02  0.27442734960E+04  0.27441024911E+04 0.  0.
        5    1    3    3  502    0  0.79342854191E+02 -0.45514411231E+03  0.13073159019E+04  0.13865599190E+04  0.46999998093E+01 0. -1.
       -5    1    3    3    0  502 -0.79342854191E+02  0.45514411231E+03 -0.12766803107E+04  0.13577135770E+04  0.46999998093E+01 0.  1.
</event>
<event>
 5   0  0.1826851E-05  0.2634373E+04  0.7818609E-02  0.8356618E-01
        2   -1    0    0  501    0  0.00000000000E+00  0.00000000000E+00  0.13155804571E+04  0.13155804572E+04  0.25500000920E-02 0. -1.
       -2   -1    0    0    0  501  0.00000000000E+00  0.00000000000E+00 -0.13187946082E+04  0.13187946082E+04  0.25500000920E-02 0.  1.
    10030    2    1    2    0    0  0.00000000000E+00  0.00000000000E+00 -0.32141510445E+01  0.26343750653E+04  0.26343731046E+04 0.  0.
        5    1    3    3  502    0  0.26545203445E+03 -0.97779205073E+03  0.84006821877E+03  0.13161606206E+04  0.46999998093E+01 0. -1.
       -5    1    3    3    0  502 -0.26545203445E+03  0.97779205073E+03 -0.84328236981E+03  0.13182144447E+04  0.46999998093E+01 0.  1.
</event>
<event>
 5   0  0.1826851E-05  0.2752942E+04  0.7818609E-02  0.8318029E-01
        2   -1    0    0  501    0  0.00000000000E+00  0.00000000000E+00  0.14744332897E+04  0.14744332897E+04  0.25500000920E-02 0. -1.
       -2   -1    0    0    0  501  0.00000000000E+00  0.00000000000E+00 -0.12850169524E+04  0.12850169524E+04  0.25500000920E-02 0.  1.
    10030    2    1    2    0    0  0.00000000000E+00  0.00000000000E+00  0.18941633735E+03  0.27594502421E+04  0.27529415340E+04 0.  0.
        5    1    3    3  502    0  0.64360357511E+03  0.77377698099E+03  0.10359134395E+04  0.14443320679E+04  0.46999998093E+01 0. -1.
       -5    1    3    3    0  502 -0.64360357511E+03 -0.77377698099E+03 -0.84649710215E+03  0.13151181742E+04  0.46999998093E+01 0.  1.
</event>
<event>
 5   0  0.1881699E-05  0.2703899E+04  0.7818609E-02  0.8333741E-01
       -2   -1    0    0    0  501  0.00000000000E+00  0.00000000000E+00  0.17065536015E+04  0.17065536015E+04  0.25500000920E-02 0. -1.
        2   -1    0    0  501    0  0.00000000000E+00  0.00000000000E+00 -0.10710282429E+04  0.10710282429E+04  0.25500000920E-02 0.  1.
    10030    2    1    2    0    0  0.00000000000E+00  0.00000000000E+00  0.63552535866E+03  0.27775818444E+04  0.27038987446E+04 0.  0.
        4    1    3    3  502    0 -0.33599837264E+03  0.62619955994E+03  0.14992102542E+04  0.16591123513E+04  0.12699999809E+01 0. -1.
       -4    1    3    3    0  502  0.33599837264E+03 -0.62619955994E+03 -0.86368489552E+03  0.11184694931E+04  0.12699999809E+01 0.  1.
</event>
<event>
 5   0  0.1881699E-05  0.2678905E+04  0.7818609E-02  0.8341882E-01
       -2   -1    0    0    0  501  0.00000000000E+00  0.00000000000E+00  0.15280657802E+04  0.15280657802E+04  0.25500000920E-02 0.  1.
        2   -1    0    0  501    0  0.00000000000E+00  0.00000000000E+00 -0.11741202101E+04  0.11741202101E+04  0.25500000920E-02 0. -1.
    10030    2    1    2    0    0  0.00000000000E+00  0.00000000000E+00  0.35394557008E+03  0.27021859903E+04  0.26789049366E+04 0.  0.
        4    1    3    3  502    0  0.76584753751E+03  0.36756797179E+03 -0.86764428869E+03  0.12142639290E+04  0.12699999809E+01 0. -1.
       -4    1    3    3    0  502 -0.76584753751E+03 -0.36756797179E+03  0.12215898588E+04  0.14879220613E+04  0.12699999809E+01 0.  1.
</event>
<event>
 5   0  0.7600052E-06  0.2629892E+04  0.7818609E-02  0.8358118E-01
        1   -1    0    0  501    0  0.00000000000E+00  0.00000000000E+00  0.14083147045E+04  0.14083147045E+04  0.50400001928E-02 0.  1.
       -1   -1    0    0    0  501  0.00000000000E+00  0.00000000000E+00 -0.12277673976E+04  0.12277673976E+04  0.50400001928E-02 0. -1.
    10030    2    1    2    0    0  0.00000000000E+00  0.00000000000E+00  0.18054730690E+03  0.26360821021E+04  0.26298919216E+04 0.  0.
        5    1    3    3  502    0 -0.55397507166E+03 -0.10958794927E+04  0.56172161543E+03  0.13503308875E+04  0.46999998093E+01 0.  1.
       -5    1    3    3    0  502  0.55397507166E+03  0.10958794927E+04 -0.38117430853E+03  0.12857512146E+04  0.46999998093E+01 0. -1.
</event>
<event>
 5   0  0.1931119E-05  0.2741048E+04  0.7818609E-02  0.8321808E-01
        2   -1    0    0  501    0  0.00000000000E+00  0.00000000000E+00  0.14905808056E+04  0.14905808056E+04  0.25500000920E-02 0. -1.
       -2   -1    0    0    0  501  0.00000000000E+00  0.00000000000E+00 -0.12601373042E+04  0.12601373042E+04  0.25500000920E-02 0.  1.
    10030    2    1    2    0    0  0.00000000000E+00  0.00000000000E+00  0.23044350138E+03  0.27507181097E+04  0.27410483235E+04 0.  0.
        3    1    3    3  502    0  0.80298760817E+03 -0.35194210404E+03  0.11723534141E+04  0.14639210638E+04  0.10100000352E+00 0. -1.
       -3    1    3    3    0  502 -0.80298760817E+03  0.35194210404E+03 -0.94190991269E+03  0.12867970459E+04  0.10100000352E+00 0.  1.
</event>
<event>
 5   0  0.1788003E-05  0.2679580E+04  0.7818609E-02  0.8341661E-01
       -2   -1    0    0    0  501  0.00000000000E+00  0.00000000000E+00  0.98448197094E+03  0.98448197094E+03  0.25500000920E-02 0.  1.
        2   -1    0    0  501    0  0.00000000000E+00  0.00000000000E+00 -0.18233319730E+04  0.18233319730E+04  0.25500000920E-02 0. -1.
    10030    2    1    2    0    0  0.00000000000E+00  0.00000000000E+00 -0.83885000209E+03  0.28078139440E+04  0.26795801570E+04 0.  0.
        2    1    3    3  502    0  0.26037418267E+03 -0.12143903369E+04  0.10711488467E+03  0.12466002583E+04  0.25500000920E-02 0. -1.
       -2    1    3    3    0  502 -0.26037418267E+03  0.12143903369E+04 -0.94596488676E+03  0.15612136857E+04  0.25500000920E-02 0.  1.
</event>
<event>
 5   0  0.7351590E-06  0.2767901E+04  0.7818609E-02  0.8313304E-01
        1   -1    0    0  501    0  0.00000000000E+00  0.00000000000E+00  0.12147570844E+04  0.12147570844E+04  0.50400001928E-02 0.  1.
       -1   -1    0    0    0  501  0.00000000000E+00  0.00000000000E+00 -0.15767096423E+04  0.15767096423E+04  0.50400001928E-02 0. -1.
    10030    2    1    2    0    0  0.00000000000E+00  0.00000000000E+00 -0.36195255793E+03  0.27914667267E+04  0.27679011601E+04 0.  0.
        3    1    3    3  502    0  0.67505252918E+03  0.38101562990E+03 -0.13372322126E+04  0.15456580567E+04  0.10100000352E+00 0. -1.
       -3    1    3    3    0  502 -0.67505252918E+03 -0.38101562990E+03  0.97527965470E+03  0.12458086701E+04  0.10100000352E+00 0.  1.
</event>
<event>
 5   0  0.1826851E-05  0.2490960E+04  0.7818609E-02  0.8406213E-01
        2   -1    0    0  501    0  0.00000000000E+00  0.00000000000E+00  0.12348933369E+04  0.12348933369E+04  0.25500000920E-02 0.  1.
       -2   -1    0    0    0  501  0.00000000000E+00  0.00000000000E+00 -0.12561573839E+04  0.12561573839E+04  0.25500000920E-02 0. -1.
    10030    2    1    2    0    0  0.00000000000E+00  0.00000000000E+00 -0.21264047090E+02  0.24910507208E+04  0.24909599623E+04 0.  0.
        5    1    3    3  502    0  0.44586645933E+03 -0.43479212837E+03 -0.10892616981E+04  0.12547327330E+04  0.46999998093E+01 0. -1.
       -5    1    3    3    0  502 -0.44586645933E+03  0.43479212837E+03  0.10679976510E+04  0.12363179878E+04  0.46999998093E+01 0.  1.
</event>
<event>
 5   0  0.1788003E-05  0.2729693E+04  0.7818609E-02  0.8325435E-01
        2   -1    0    0  501    0  0.00000000000E+00  0.00000000000E+00  0.18643339423E+04  0.18643339423E+04  0.25500000920E-02 0.  1.
       -2   -1    0    0    0  501  0.00000000000E+00  0.00000000000E+00 -0.99918010048E+03  0.99918010048E+03  0.25500000920E-02 0. -1.
    10030    2    1    2    0    0  0.00000000000E+00  0.00000000000E+00  0.86515384184E+03  0.28635140428E+04  0.27296925657E+04 0.  0.
        2    1    3    3  502    0  0.55155712214E+03 -0.50630537063E+02 -0.87598445674E+03  0.10364012151E+04  0.25500000920E-02 0. -1.
       -2    1    3    3    0  502 -0.55155712214E+03  0.50630537063E+02  0.17411382986E+04  0.18271128277E+04  0.25500000920E-02 0.  1.
</event>
<event>
 5   0  0.7348964E-06  0.2660178E+04  0.7818609E-02  0.8348043E-01
        1   -1    0    0  501    0  0.00000000000E+00  0.00000000000E+00  0.14373287832E+04  0.14373287833E+04  0.50400001928E-02 0. -1.
       -1   -1    0    0    0  501  0.00000000000E+00  0.00000000000E+00 -0.12308505421E+04  0.12308505421E+04  0.50400001928E-02 0.  1.
    10030    2    1    2    0    0  0.00000000000E+00  0.00000000000E+00  0.20647824113E+03  0.26681793254E+04  0.26601781234E+04 0.  0.
        1    1    3    3  502    0  0.49535250989E+03 -0.54647867045E+03  0.12134214159E+04  0.14200016123E+04  0.50400001928E-02 0. -1.
       -1    1    3    3    0  502 -0.49535250989E+03  0.54647867045E+03 -0.10069431747E+04  0.12481777131E+04  0.50400001928E-02 0.  1.
</event>
<event>
 5   0  0.1826851E-05  0.2637766E+04  0.7818609E-02  0.8355485E-01
       -2   -1    0    0    0  501  0.00000000000E+00  0.00000000000E+00  0.81250797973E+03  0.81250797974E+03  0.25500000920E-02 0. -1.
        2   -1    0    0  501    0  0.00000000000E+00  0.00000000000E+00 -0.21408432039E+04  0.21408432039E+04  0.25500000920E-02 0.  1.
    10030    2    1    2    0    0  0.00000000000E+00  0.00000000000E+00 -0.13283352241E+04  0.29533511836E+04  0.26377658626E+04 0.  0.
        5    1    3    3  502    0 -0.39329216876E+03  0.12585128185E+04 -0.69769805210E+03  0.14917566512E+04  0.46999998093E+01 0. -1.
       -5    1    3    3    0  502  0.39329216876E+03 -0.12585128185E+04 -0.63063717205E+03  0.14615945324E+04  0.46999998093E+01 0.  1.
</event>
<event>
 5   0  0.6175875E-06  0.2591563E+04  0.7818609E-02  0.8371073E-01
        4   -1    0    0  501    0  0.00000000000E+00  0.00000000000E+00  0.18237303383E+04  0.18237307805E+04  0.12699999809E+01 0.  1.
       -4   -1    0    0    0  501  0.00000000000E+00  0.00000000000E+00 -0.92066682268E+03  0.92066769862E+03  0.12699999809E+01 0. -1.
    10030    2    1    2    0    0  0.00000000000E+00  0.00000000000E+00  0.90306351559E+03  0.27443984791E+04  0.25915630995E+04 0.  0.
        5    1    3    3  502    0  0.65734470375E+03  0.30092037852E+03 -0.68723368352E+03  0.99748050583E+03  0.46999998093E+01 0. -1.
       -5    1    3    3    0  502 -0.65734470375E+03 -0.30092037852E+03  0.15902971991E+04  0.17469179732E+04  0.46999998093E+01 0.  1.
</event>
<event>
 5   0  0.1931119E-05  0.2639647E+04  0.7818609E-02  0.8354858E-01
       -2   -1    0    0    0  501  0.00000000000E+00  0.00000000000E+00  0.26783834881E+04  0.26783834881E+04  0.25500000920E-02 0.  1.
        2   -1    0    0  501    0  0.00000000000E+00  0.00000000000E+00 -0.65036750633E+03  0.65036750634E+03  0.25500000920E-02 0. -1.
    10030    2    1    2    0    0  0.00000000000E+00  0.00000000000E+00  0.20280159818E+04  0.33287509945E+04  0.26396466356E+04 0.  0.
        3    1    3    3  502    0  0.10005579076E+04 -0.85951558647E+03  0.10711105919E+04  0.16991648184E+04  0.10100000352E+00 0.  1.
       -3    1    3    3    0  502 -0.10005579076E+04  0.85951558647E+03  0.95690538991E+03  0.16295861761E+04  0.10100000352E+00 0. -1.
</event>
<event>
 5   0  0.6804685E-06  0.2726697E+04  0.7818609E-02  0.8326395E-01
       -1   -1    0    0    0  501  0.00000000000E+00  0.00000000000E+00  0.19827628143E+04  0.19827628143E+04  0.50400001928E-02 0. -1.
        1   -1    0    0  501    0  0.00000000000E+00  0.00000000000E+00 -0.93743868113E+03  0.93743868114E+03  0.50400001928E-02 0.  1.
    10030    2    1    2    0    0  0.00000000000E+00  0.00000000000E+00  0.10453241331E+04  0.29202014954E+04  0.27266965784E+04 0.  0.
        2    1    3    3  502    0 -0.23134609141E+03  0.87304220569E+03 -0.57108547035E+03  0.10685795812E+04  0.25500000920E-02 0.  1.
       -2    1    3    3    0  502  0.23134609141E+03 -0.87304220569E+03  0.16164096035E+04  0.18516219142E+04  0.25500000920E-02 0. -1.
</event>
<event>
 5   0  0.7600052E-06  0.2019681E+04  0.7818609E-02  0.8597474E-01
       -1   -1    0    0    0  501  0.00000000000E+00  0.00000000000E+00  0.77357678689E+03  0.77357678691E+03  0.50400001928E-02 0.  1.
        1   -1    0    0  501    0  0.00000000000E+00  0.00000000000E+00 -0.13182635888E+04  0.13182635888E+04  0.50400001928E-02 0. -1.
    10030    2    1    2    0    0  0.00000000000E+00  0.00000000000E+00 -0.54468680189E+03  0.20918403757E+04  0.20196812732E+04 0.  0.
        5    1    3    3  502    0 -0.40907316890E+03  0.23234847716E+03  0.65313001642E+03  0.80493948885E+03  0.46999998093E+01 0.  1.
       -5    1    3    3    0  502  0.40907316890E+03 -0.23234847716E+03 -0.11978168183E+04  0.12869008868E+04  0.46999998093E+01 0. -1.
</event>
<event>
 5   0  0.1788003E-05  0.2764547E+04  0.7818609E-02  0.8314360E-01
       -2   -1    0    0    0  501  0.00000000000E+00  0.00000000000E+00  0.11088314680E+04  0.11088314680E+04  0.25500000920E-02 0.  1.
        2   -1    0    0  501    0  0.00000000000E+00  0.00000000000E+00 -0.17231473665E+04  0.17231473665E+04  0.25500000920E-02 0. -1.
    10030    2    1    2    0    0  0.00000000000E+00  0.00000000000E+00 -0.61431589848E+03  0.28319788344E+04  0.27645469965E+04 0.  0.
        2    1    3    3  502    0 -0.21188909513E+03 -0.12065799411E+04 -0.96304695159E+03  0.15582655659E+04  0.25500000920E-02 0. -1.
       -2    1    3    3    0  502  0.21188909513E+03  0.12065799411E+04  0.34873105310E+03  0.12737132685E+04  0.25500000920E-02 0.  1.
</event>
<event>
 5   0  0.1878160E-05  0.2731361E+04  0.7818609E-02  0.8324901E-01
       -2   -1    0    0    0  501  0.00000000000E+00  0.00000000000E+00  0.88456156745E+03  0.88456156746E+03  0.25500000920E-02 0. -1.
        2   -1    0    0  501    0  0.00000000000E+00  0.00000000000E+00 -0.21084825120E+04  0.21084825120E+04  0.25500000920E-02 0.  1.
    10030    2    1    2    0    0  0.00000000000E+00  0.00000000000E+00 -0.12239209446E+04  0.29930440795E+04  0.27313605370E+04 0.  0.
        1    1    3    3  502    0 -0.58058198636E+03 -0.29072505623E+03 -0.19285196497E+04  0.20348917761E+04  0.50400001928E-02 0.  1.
       -1    1    3    3    0  502  0.58058198636E+03  0.29072505623E+03  0.70459870511E+03  0.95815230338E+03  0.50400001928E-02 0. -1.
</event>
<event>
 5   0  0.7754912E-06  0.2689378E+04  0.7818609E-02  0.8338460E-01
        1   -1    0    0  501    0  0.00000000000E+00  0.00000000000E+00  0.21496422590E+04  0.21496422590E+04  0.50400001928E-02 0. -1.
       -1   -1    0    0    0  501  0.00000000000E+00  0.00000000000E+00 -0.84115808872E+03  0.84115808874E+03  0.50400001928E-02 0.  1.
    10030    2    1    2    0    0  0.00000000000E+00  0.00000000000E+00  0.13084841703E+04  0.29908003478E+04  0.26893783476E+04 0.  0.
        4    1    3    3  502    0  0.54831547604E+03 -0.39160054623E+03 -0.63987854455E+03  0.92921849623E+03  0.12699999809E+01 0.  1.
       -4    1    3    3    0  502 -0.54831547604E+03  0.39160054623E+03  0.19483627148E+04  0.20615818515E+04  0.12699999809E+01 0. -1.
</event>
<event>
 5   0  0.7351590E-06  0.2711621E+04  0.7818609E-02  0.8331244E-01
       -1   -1    0    0    0  501  0.00000000000E+00  0.00000000000E+00  0.10536502678E+04  0.10536502679E+04  0.50400001928E-02 0. -1.
        1   -1    0    0  501    0  0.00000000000E+00  0.00000000000E+00 -0.17446221201E+04  0.17446221201E+04  0.50400001928E-02 0.  1.
    10030    2    1    2    0    0  0.00000000000E+00  0.00000000000E+00 -0.69097185224E+03  0.27982723879E+04  0.27116205960E+04 0.  0.
        3    1    3    3  502    0 -0.12226919028E+04 -0.56174228504E+03 -0.17376009147E+03  0.13567322741E+04  0.10100000352E+00 0.  1.
       -3    1    3    3    0  502  0.12226919028E+04  0.56174228504E+03 -0.51721176077E+03  0.14415401138E+04  0.10100000352E+00 0. -1.
</event>
<event>
 5   0  0.1788003E-05  0.2716101E+04  0.7818609E-02  0.8329800E-01
       -2   -1    0    0    0  501  0.00000000000E+00  0.00000000000E+00  0.81385868985E+03  0.81385868985E+03  0.25500000920E-02 0.  1.
        2   -1    0    0  501    0  0.00000000000E+00  0.00000000000E+00 -0.22661197913E+04  0.22661197913E+04  0.25500000920E-02 0. -1.
    10030    2    1    2    0    0  0.00000000000E+00  0.00000000000E+00 -0.14522611014E+04  0.30799784811E+04  0.27161010912E+04 0.  0.
        2    1    3    3  502    0  0.58162933705E+03  0.12266493247E+04 -0.76764119559E+03  0.15595622003E+04  0.25500000920E-02 0.  1.
       -2    1    3    3    0  502 -0.58162933705E+03 -0.12266493247E+04 -0.68461990581E+03  0.15204162808E+04  0.25500000920E-02 0. -1.
</event>
<event>
 5   0  0.7351590E-06  0.2670209E+04  0.7818609E-02  0.8344736E-01
        1   -1    0    0  501    0  0.00000000000E+00  0.00000000000E+00  0.16644065112E+04  0.16644065112E+04  0.50400001928E-02 0.  1.
       -1   -1    0    0    0  501  0.00000000000E+00  0.00000000000E+00 -0.10709545124E+04  0.10709545124E+04  0.50400001928E-02 0. -1.
    10030    2    1    2    0    0  0.00000000000E+00  0.00000000000E+00  0.59345199880E+03  0.27353610237E+04  0.26702087287E+04 0.  0.
        3    1    3    3  502    0 -0.17556065735E+03  0.10502178896E+04  0.11218127077E+04  0.15466877259E+04  0.10100000352E+00 0.  1.
       -3    1    3    3    0  502  0.17556065735E+03 -0.10502178896E+04 -0.52836070888E+03  0.11886732978E+04  0.10100000352E+00 0. -1.
</event>
<event>
 5   0  0.7348964E-06  0.2654382E+04  0.7818609E-02  0.8349960E-01
        1   -1    0    0  501    0  0.00000000000E+00  0.00000000000E+00  0.15830774367E+04  0.15830774367E+04  0.50400001928E-02 0. -1.
       -1   -1    0    0    0  501  0.00000000000E+00  0.00000000000E+00 -0.11126656949E+04  0.11126656949E+04  0.50400001928E-02 0.  1.
    10030    2    1    2    0    0  0.00000000000E+00  0.00000000000E+00  0.47041174179E+03  0.26957431315E+04  0.26543820042E+04 0.  0.
        1    1    3    3  502    0  0.11408948807E+04  0.67758824899E+03  0.26147378265E+03  0.13524553609E+04  0.50400001928E-02 0.  1.
       -1    1    3    3    0  502 -0.11408948807E+04 -0.67758824899E+03  0.20893795914E+03  0.13432877707E+04  0.50400001928E-02 0. -1.
</event>
<event>
 5   0  0.6804685E-06  0.2692806E+04  0.7818609E-02  0.8337343E-01
        1   -1    0    0  501    0  0.00000000000E+00  0.00000000000E+00  0.20980383862E+04  0.20980383862E+04  0.50400001928E-02 0.  1.
       -1   -1    0    0    0  501  0.00000000000E+00  0.00000000000E+00 -0.86404581953E+03  0.86404581954E+03  0.50400001928E-02 0. -1.
    10030    2    1    2    0    0  0.00000000000E+00  0.00000000000E+00  0.12339925667E+04  0.29620842057E+04  0.26928061919E+04 0.  0.
        2    1    3    3  502    0 -0.39403513412E+03 -0.95253997570E+03 -0.33576113632E+03  0.10841271295E+04  0.25500000920E-02 0. -1.
       -2    1    3    3    0  502  0.39403513412E+03  0.95253997570E+03  0.15697537030E+04  0.18779570763E+04  0.25500000920E-02 0.  1.
</event>
<event>
 5   0  0.1881699E-05  0.2656986E+04  0.7818609E-02  0.8349098E-01
       -2   -1    0    0    0  501  0.00000000000E+00  0.00000000000E+00  0.16898136184E+04  0.16898136184E+04  0.25500000920E-02 0. -1.
        2   -1    0    0  501    0  0.00000000000E+00  0.00000000000E+00 -0.10444311247E+04  0.10444311247E+04  0.25500000920E-02 0.  1.
    10030    2    1    2    0    0  0.00000000000E+00  0.00000000000E+00  0.64538249371E+03  0.27342447432E+04  0.26569862161E+04 0.  0.
        4    1    3    3  502    0 -0.29177886429E+03  0.10208054008E+04  0.11444814812E+04  0.15610951431E+04  0.12699999809E+01 0. -1.
       -4    1    3    3    0  502  0.29177886429E+03 -0.10208054008E+04 -0.49909898749E+03  0.11731496001E+04  0.12699999809E+01 0.  1.
</event>
<event>
 5   0  0.6804685E-06  0.2767103E+04  0.7818609E-02  0.8313555E-01
       -1   -1    0    0    0  501  0.00000000000E+00  0.00000000000E+00  0.12809655983E+04  0.12809655983E+04  0.50400001928E-02 0. -1.
        1   -1    0    0  501    0  0.00000000000E+00  0.00000000000E+00 -0.14943534394E+04  0.14943534394E+04  0.50400001928E-02 0.  1.
    10030    2    1    2    0    0  0.00000000000E+00  0.00000000000E+00 -0.21338784103E+03  0.27753190377E+04  0.27671034297E+04 0.  0.
        2    1    3    3  502    0 -0.56494060799E+03 -0.30142957671E+03  0.11234048306E+04  0.12930800802E+04  0.25500000920E-02 0. -1.
       -2    1    3    3    0  502  0.56494060799E+03  0.30142957671E+03 -0.13367926716E+04  0.14822389575E+04  0.25500000920E-02 0.  1.
</event>
<event>
 5   0  0.1881699E-05  0.2462417E+04  0.7818609E-02  0.8416498E-01
       -2   -1    0    0    0  501  0.00000000000E+00  0.00000000000E+00  0.90502829327E+03  0.90502829328E+03  0.25500000920E-02 0. -1.
        2   -1    0    0  501    0  0.00000000000E+00  0.00000000000E+00 -0.16749471633E+04  0.16749471633E+04  0.25500000920E-02 0.  1.
    10030    2    1    2    0    0  0.00000000000E+00  0.00000000000E+00 -0.76991887004E+03  0.25799754566E+04  0.24624171641E+04 0.  0.
        4    1    3    3  502    0 -0.31114723812E+03 -0.10263009011E+04 -0.10186191474E+04  0.14790850969E+04  0.12699999809E+01 0.  1.
       -4    1    3    3    0  502  0.31114723812E+03  0.10263009011E+04  0.24870027740E+03  0.11008903597E+04  0.12699999809E+01 0. -1.
</event>
<event>
 5   0  0.1878160E-05  0.2702728E+04  0.7818609E-02  0.8334120E-01
        2   -1    0    0  501    0  0.00000000000E+00  0.00000000000E+00  0.18844374101E+04  0.18844374101E+04  0.25500000920E-02 0.  1.
       -2   -1    0    0    0  501  0.00000000000E+00  0.00000000000E+00 -0.96908743453E+03  0.96908743453E+03  0.25500000920E-02 0. -1.
    10030    2    1    2    0    0  0.00000000000E+00  0.00000000000E+00  0.91534997555E+03  0.28535248446E+04  0.27027279665E+04 0.  0.
        1    1    3    3  502    0 -0.25946168463E+02  0.11407253628E+04 -0.30677920288E+03  0.11815418047E+04  0.50400001928E-02 0. -1.
       -1    1    3    3    0  502  0.25946168463E+02 -0.11407253628E+04  0.12221291784E+04  0.16719830399E+04  0.50400001928E-02 0.  1.
</event>
<event>
 5   0  0.6175875E-06  0.2547651E+04  0.7818609E-02  0.8386203E-01
        4   -1    0    0  501    0  0.00000000000E+00  0.00000000000E+00  0.15180124639E+04  0.15180129951E+04  0.12699999809E+01 0. -1.
       -4   -1    0    0    0  501  0.00000000000E+00  0.00000000000E+00 -0.10689176007E+04  0.10689183551E+04  0.12699999809E+01 0.  1.
    10030    2    1    2    0    0  0.00000000000E+00  0.00000000000E+00  0.44909486323E+03  0.25869313502E+04  0.25476513919E+04 0.  0.
        1    1    3    3  502    0  0.30046983173E+02 -0.20403094685E+03  0.15009487733E+04  0.15150507148E+04  0.50400001928E-02 0. -1.
       -1    1    3    3    0  502 -0.30046983173E+02  0.20403094685E+03 -0.10518539100E+04  0.10718806354E+04  0.50400001928E-02 0.  1.
</event>
<event>
 5   0  0.1931119E-05  0.2707927E+04  0.7818609E-02  0.8332437E-01
        2   -1    0    0  501    0  0.00000000000E+00  0.00000000000E+00  0.25791540579E+04  0.25791540579E+04  0.25500000920E-02 0.  1.
       -2   -1    0    0    0  501  0.00000000000E+00  0.00000000000E+00 -0.71078238278E+03  0.71078238278E+03  0.25500000920E-02 0. -1.
    10030    2    1    2    0    0  0.00000000000E+00  0.00000000000E+00  0.18683716752E+04  0.32899364407E+04  0.27079270794E+04 0.  0.
        3    1    3    3  502    0  0.86421793560E+03 -0.50532015085E+03 -0.17333027035E+03  0.10160041771E+04  0.10100000352E+00 0. -1.
       -3    1    3    3    0  502 -0.86421793560E+03  0.50532015085E+03  0.20417019455E+04  0.22739322636E+04  0.10100000352E+00 0.  1.
</event>
<event>
 5   0  0.1881699E-05  0.2740262E+04  0.7818609E-02  0.8322058E-01
        2   -1    0    0  501    0  0.00000000000E+00  0.00000000000E+00  0.13297743197E+04  0.13297743197E+04  0.25500000920E-02 0. -1.
       -2   -1    0    0    0  501  0.00000000000E+00  0.00000000000E+00 -0.14117120058E+04  0.14117120058E+04  0.25500000920E-02 0.  1.
    10030    2    1    2    0    0  0.00000000000E+00  0.00000000000E+00 -0.81937686034E+02  0.27414863255E+04  0.27402615730E+04 0.  0.
        4    1    3    3  502    0  0.58416251573E+03 -0.17711849343E+03 -0.12681547474E+04  0.14074213590E+04  0.12699999809E+01 0.  1.
       -4    1    3    3    0  502 -0.58416251573E+03  0.17711849343E+03  0.11862170613E+04  0.13340649665E+04  0.12699999809E+01 0. -1.
</event>
<event>
 5   0  0.7351590E-06  0.2694355E+04  0.7818609E-02  0.8336839E-01
       -1   -1    0    0    0  501  0.00000000000E+00  0.00000000000E+00  0.84605584505E+03  0.84605584507E+03  0.50400001928E-02 0.  1.
        1   -1    0    0  501    0  0.00000000000E+00  0.00000000000E+00 -0.21451147253E+04  0.21451147253E+04  0.50400001928E-02 0. -1.
    10030    2    1    2    0    0  0.00000000000E+00  0.00000000000E+00 -0.12990588803E+04  0.29911705704E+04  0.26943547292E+04 0.  0.
        3    1    3    3  502    0 -0.96310548490E+03 -0.42611284373E+03  0.28310091243E+03  0.10905459493E+04  0.10100000352E+00 0.  1.
       -3    1    3    3    0  502  0.96310548490E+03  0.42611284373E+03 -0.15821597927E+04  0.19006246211E+04  0.10100000352E+00 0. -1.
</event>
<event>
 5   0  0.6804685E-06  0.2996859E+04  0.7818609E-02  0.8244628E-01
       -1   -1    0    0    0  501  0.00000000000E+00  0.00000000000E+00  0.16918905441E+04  0.16918905442E+04  0.50400001928E-02 0. -1.
        1   -1    0    0  501    0  0.00000000000E+00  0.00000000000E+00 -0.13270903517E+04  0.13270903517E+04  0.50400001928E-02 0.  1.
    10030    2    1    2    0    0  0.00000000000E+00  0.00000000000E+00  0.36480019241E+03  0.30189808959E+04  0.29968594344E+04 0.  0.
        2    1    3    3  502    0  0.11608419613E+04 -0.84529525918E+02 -0.76827794767E+03  0.13946147514E+04  0.25500000920E-02 0.  1.
       -2    1    3    3    0  502 -0.11608419613E+04  0.84529525918E+02  0.11330781401E+04  0.16243661445E+04  0.25500000920E-02 0. -1.
</event>
<event>
 5   0  0.7600052E-06  0.2661198E+04  0.7818609E-02  0.8347706E-01
       -1   -1    0    0    0  501  0.00000000000E+00  0.00000000000E+00  0.14687318734E+04  0.14687318734E+04  0.50400001928E-02 0.  1.
        1   -1    0    0  501    0  0.00000000000E+00  0.00000000000E+00 -0.12054573419E+04  0.12054573420E+04  0.50400001928E-02 0. -1.
    10030    2    1    2    0    0  0.00000000000E+00  0.00000000000E+00  0.26327453147E+03  0.26741892154E+04  0.26611979409E+04 0.  0.
        5    1    3    3  502    0 -0.87109373572E+03 -0.36794364861E+03  0.10723078644E+04  0.14297038403E+04  0.46999998093E+01 0.  1.
       -5    1    3    3    0  502  0.87109373572E+03  0.36794364861E+03 -0.80903333294E+03  0.12444853751E+04  0.46999998093E+01 0. -1.
</event>
<event>
 5   0  0.1881699E-05  0.2735554E+04  0.7818609E-02  0.8323560E-01
       -2   -1    0    0    0  501  0.00000000000E+00  0.00000000000E+00  0.97903585182E+03  0.97903585183E+03  0.25500000920E-02 0. -1.
        2   -1    0    0  501    0  0.00000000000E+00  0.00000000000E+00 -0.19108733040E+04  0.19108733040E+04  0.25500000920E-02 0.  1.
    10030    2    1    2    0    0  0.00000000000E+00  0.00000000000E+00 -0.93183745214E+03  0.28899091558E+04  0.27355536718E+04 0.  0.
        4    1    3    3  502    0 -0.11041064554E+04  0.25913596705E+02  0.38651225109E+03  0.11700922666E+04  0.12699999809E+01 0. -1.
       -4    1    3    3    0  502  0.11041064554E+04 -0.25913596705E+02 -0.13183497032E+04  0.17198168892E+04  0.12699999809E+01 0.  1.
</event>
<event>
 5   0  0.7348964E-06  0.2704325E+04  0.7818609E-02  0.8333603E-01
       -1   -1    0    0    0  501  0.00000000000E+00  0.00000000000E+00  0.10739528359E+04  0.10739528359E+04  0.50400001928E-02 0.  1.
        1   -1    0    0  501    0  0.00000000000E+00  0.00000000000E+00 -0.17024426475E+04  0.17024426475E+04  0.50400001928E-02 0. -1.
    10030    2    1    2    0    0  0.00000000000E+00  0.00000000000E+00 -0.62848981159E+03  0.27763954835E+04  0.27043247655E+04 0.  0.
        1    1    3    3  502    0 -0.91615229865E+03  0.44011251521E+03  0.60132275811E+03  0.11809416242E+04  0.50400001928E-02 0.  1.
       -1    1    3    3    0  502  0.91615229865E+03 -0.44011251521E+03 -0.12298125697E+04  0.15954538592E+04  0.50400001928E-02 0. -1.
</event>
<event>
 5   0  0.7600052E-06  0.2727201E+04  0.7818609E-02  0.8326233E-01
       -1   -1    0    0    0  501  0.00000000000E+00  0.00000000000E+00  0.81117850068E+03  0.81117850069E+03  0.50400001928E-02 0.  1.
        1   -1    0    0  501    0  0.00000000000E+00  0.00000000000E+00 -0.22922287659E+04  0.22922287659E+04  0.50400001928E-02 0. -1.
    10030    2    1    2    0    0  0.00000000000E+00  0.00000000000E+00 -0.14810502652E+04  0.31034072666E+04  0.27272012713E+04 0.  0.
        5    1    3    3  502    0  0.30242807066E+03 -0.11987537017E+04 -0.85922925806E+02  0.12393054565E+04  0.46999998093E+01 0.  1.
       -5    1    3    3    0  502 -0.30242807066E+03  0.11987537017E+04 -0.13951273394E+04  0.18641018101E+04  0.46999998093E+01 0. -1.
</event>
<event>
 5   0  0.7348964E-06  0.2631792E+04  0.7818609E-02  0.8357482E-01
        1   -1    0    0  501    0  0.00000000000E+00  0.00000000000E+00  0.17317141123E+04  0.17317141123E+04  0.50400001928E-02 0.  1.
       -1   -1    0    0    0  501  0.00000000000E+00  0.00000000000E+00 -0.99992384912E+03  0.99992384913E+03  0.50400001928E-02 0. -1.
    10030    2    1    2    0    0  0.00000000000E+00  0.00000000000E+00  0.73179026320E+03  0.27316379615E+04  0.26317919681E+04 0.  0.
        1    1    3    3  502    0  0.12212484359E+04  0.43848562641E+03  0.13881457407E+03  0.13049853918E+04  0.50400001928E-02 0.  1.
       -1    1    3    3    0  502 -0.12212484359E+04 -0.43848562641E+03  0.59297568913E+03  0.14266525697E+04  0.50400001928E-02 0. -1.
</event>
<event>
 5   0  0.6804685E-06  0.2697367E+04  0.7818609E-02  0.8335860E-01
       -1   -1    0    0    0  501  0.00000000000E+00  0.00000000000E+00  0.21879010705E+04  0.21879010705E+04  0.50400001928E-02 0. -1.
        1   -1    0    0  501    0  0.00000000000E+00  0.00000000000E+00 -0.83136613512E+03  0.83136613514E+03  0.50400001928E-02 0.  1.
    10030    2    1    2    0    0  0.00000000000E+00  0.00000000000E+00  0.13565349354E+04  0.30192672056E+04  0.26973667582E+04 0.  0.
        2    1    3    3  502    0  0.94596552638E+03 -0.34557587343E+03 -0.32581959229E+03  0.10585045433E+04  0.25500000920E-02 0.  1.
       -2    1    3    3    0  502 -0.94596552638E+03  0.34557587343E+03  0.16823545277E+04  0.19607626624E+04  0.25500000920E-02 0. -1.
</event>
<event>
 5   0  0.1826851E-05  0.2653454E+04  0.7818609E-02  0.8350267E-01
       -2   -1    0    0    0  501  0.00000000000E+00  0.00000000000E+00  0.66407729706E+03  0.66407729707E+03  0.25500000920E-02 0.  1.
        2   -1    0    0  501    0  0.00000000000E+00  0.00000000000E+00 -0.26506020932E+04  0.26506020932E+04  0.25500000920E-02 0. -1.
    10030    2    1    2    0    0  0.00000000000E+00  0.00000000000E+00 -0.19865247961E+04  0.33146793902E+04  0.26534541064E+04 0.  0.
        5    1    3    3  502    0 -0.67778782109E+03  0.98432721492E+03 -0.17129177116E+04  0.20886372527E+04  0.46999998093E+01 0. -1.
       -5    1    3    3    0  502  0.67778782109E+03 -0.98432721492E+03 -0.27360708449E+03  0.12260421376E+04  0.46999998093E+01 0.  1.
</event>
<event>
 5   0  0.1881699E-05  0.2692803E+04  0.7818609E-02  0.8337344E-01
       -2   -1    0    0    0  501  0.00000000000E+00  0.00000000000E+00  0.16675784426E+04  0.16675784426E+04  0.25500000920E-02 0. -1.
        2   -1    0    0  501    0  0.00000000000E+00  0.00000000000E+00 -0.10870832169E+04  0.10870832169E+04  0.25500000920E-02 0.  1.
    10030    2    1    2    0    0  0.00000000000E+00  0.00000000000E+00  0.58049522567E+03  0.27546616595E+04  0.26928026573E+04 0.  0.
        4    1    3    3  502    0 -0.21945954810E+03 -0.13257527370E+04  0.37590960258E+03  0.13953825480E+04  0.12699999809E+01 0.  1.
       -4    1    3    3    0  502  0.21945954810E+03  0.13257527370E+04  0.20458562309E+03  0.13592791115E+04  0.12699999809E+01 0. -1.
</event>
<event>
 5   0  0.7351590E-06  0.2561457E+04  0.7818609E-02  0.8381412E-01
        1   -1    0    0  501    0  0.00000000000E+00  0.00000000000E+00  0.15380374198E+04  0.15380374199E+04  0.50400001928E-02 0. -1.
       -1   -1    0    0    0  501  0.00000000000E+00  0.00000000000E+00 -0.10664668600E+04  0.10664668600E+04  0.50400001928E-02 0.  1.
    10030    2    1    2    0    0  0.00000000000E+00  0.00000000000E+00  0.47157055985E+03  0.26045042799E+04  0.25614573490E+04 0.  0.
        3    1    3    3  502    0 -0.64011066807E+03  0.93197776212E+03  0.84751173717E+03  0.14130111009E+04  0.10100000352E+00 0. -1.
       -3    1    3    3    0  502  0.64011066807E+03 -0.93197776212E+03 -0.37594117733E+03  0.11914931789E+04  0.10100000352E+00 0.  1.
</event>
<event>
 5   0  0.6804685E-06  0.2685093E+04  0.7818609E-02  0.8339858E-01
        1   -1    0    0  501    0  0.00000000000E+00  0.00000000000E+00  0.14837999758E+04  0.14837999758E+04  0.50400001928E-02 0. -1.
       -1   -1    0    0    0  501  0.00000000000E+00  0.00000000000E+00 -0.12147401564E+04  0.12147401565E+04  0.50400001928E-02 0.  1.
    10030    2    1    2    0    0  0.00000000000E+00  0.00000000000E+00  0.26905981937E+03  0.26985401323E+04  0.26850932310E+04 0.  0.
        2    1    3    3  502    0  0.31136413807E+03  0.59581042302E+03 -0.10333973559E+04  0.12328210664E+04  0.25500000920E-02 0.  1.
       -2    1    3    3    0  502 -0.31136413807E+03 -0.59581042302E+03  0.13024571752E+04  0.14657190659E+04  0.25500000920E-02 0. -1.
</event>
<event>
 5   0  0.1881699E-05  0.2670026E+04  0.7818609E-02  0.8344796E-01
        2   -1    0    0  501    0  0.00000000000E+00  0.00000000000E+00  0.22465334244E+04  0.22465334244E+04  0.25500000920E-02 0.  1.
       -2   -1    0    0    0  501  0.00000000000E+00  0.00000000000E+00 -0.79333774870E+03  0.79333774870E+03  0.25500000920E-02 0. -1.
    10030    2    1    2    0    0  0.00000000000E+00  0.00000000000E+00  0.14531956757E+04  0.30398711731E+04  0.26700260443E+04 0.  0.
        4    1    3    3  502    0  0.47008655833E+03  0.10558002380E+04 -0.34220331307E+02  0.11562301496E+04  0.12699999809E+01 0. -1.
       -4    1    3    3    0  502 -0.47008655833E+03 -0.10558002380E+04  0.14874160070E+04  0.18836410236E+04  0.12699999809E+01 0.  1.
</event>
<event>
 5   0  0.7348964E-06  0.2644862E+04  0.7818609E-02  0.8353120E-01
       -1   -1    0    0    0  501  0.00000000000E+00  0.00000000000E+00  0.85614971261E+03  0.85614971262E+03  0.50400001928E-02 0.  1.
        1   -1    0    0  501    0  0.00000000000E+00  0.00000000000E+00 -0.20426605101E+04  0.20426605101E+04  0.50400001928E-02 0. -1.
    10030    2    1    2    0    0  0.00000000000E+00  0.00000000000E+00 -0.11865107975E+04  0.28988102227E+04  0.26448615909E+04 0.  0.
        1    1    3    3  502    0  0.60003219711E+03  0.88650386131E+03 -0.14442716363E+04  0.17977342109E+04  0.50400001928E-02 0. -1.
       -1    1    3    3    0  502 -0.60003219711E+03 -0.88650386131E+03  0.25776083882E+03  0.11010760118E+04  0.50400001928E-02 0.  1.
</event>
<event>
 5   0  0.1878160E-05  0.2646455E+04  0.7818609E-02  0.8352591E-01
        2   -1    0    0  501    0  0.00000000000E+00  0.00000000000E+00  0.14937228800E+04  0.14937228800E+04  0.25500000920E-02 0. -1.
       -2   -1    0    0    0  501  0.00000000000E+00  0.00000000000E+00 -0.11721926556E+04  0.11721926556E+04  0.25500000920E-02 0.  1.
    10030    2    1    2    0    0  0.00000000000E+00  0.00000000000E+00  0.32153022442E+03  0.26659155356E+04  0.26464549793E+04 0.  0.
        1    1    3    3  502    0  0.87712083524E+03 -0.93303069132E+03 -0.17491758210E+03  0.12924718144E+04  0.50400001928E-02 0.  1.
       -1    1    3    3    0  502 -0.87712083524E+03  0.93303069132E+03  0.49644780652E+03  0.13734437212E+04  0.50400001928E-02 0. -1.
</event>
<event>
 5   0  0.7348964E-06  0.2715784E+04  0.7818609E-02  0.8329902E-01
       -1   -1    0    0    0  501  0.00000000000E+00  0.00000000000E+00  0.18520623576E+04  0.18520623576E+04  0.50400001928E-02 0. -1.
        1   -1    0    0  501    0  0.00000000000E+00  0.00000000000E+00 -0.99557725625E+03  0.99557725626E+03  0.50400001928E-02 0.  1.
    10030    2    1    2    0    0  0.00000000000E+00  0.00000000000E+00  0.85648510138E+03  0.28476396139E+04  0.27157843511E+04 0.  0.
        1    1    3    3  502    0  0.11291365594E+04  0.27372142351E+03 -0.30873202136E+03  0.12021598265E+04  0.50400001928E-02 0.  1.
       -1    1    3    3    0  502 -0.11291365594E+04 -0.27372142351E+03  0.11652171227E+04  0.16454797874E+04  0.50400001928E-02 0. -1.
</event>
<event>
 5   0  0.7348964E-06  0.2596247E+04  0.7818609E-02  0.8369477E-01
       -1   -1    0    0    0  501  0.00000000000E+00  0.00000000000E+00  0.11968648989E+04  0.11968648989E+04  0.50400001928E-02 0. -1.
        1   -1    0    0  501    0  0.00000000000E+00  0.00000000000E+00 -0.14079492433E+04  0.14079492433E+04  0.50400001928E-02 0.  1.
    10030    2    1    2    0    0  0.00000000000E+00  0.00000000000E+00 -0.21108434435E+03  0.26048141422E+04  0.25962473139E+04 0.  0.
        1    1    3    3  502    0  0.10239403080E+03  0.12480646735E+04 -0.44868689385E+03  0.13302142292E+04  0.50400001928E-02 0. -1.
       -1    1    3    3    0  502 -0.10239403080E+03 -0.12480646735E+04  0.23760254950E+03  0.12745999130E+04  0.50400001928E-02 0.  1.
</event>
<event>
 5   0  0.1826851E-05  0.2846373E+04  0.7818609E-02  0.8289014E-01
       -2   -1    0    0    0  501  0.00000000000E+00  0.00000000000E+00  0.89545544315E+03  0.89545544315E+03  0.25500000920E-02 0. -1.
        2   -1    0    0  501    0  0.00000000000E+00  0.00000000000E+00 -0.22619317736E+04  0.22619317736E+04  0.25500000920E-02 0.  1.
    10030    2    1    2    0    0  0.00000000000E+00  0.00000000000E+00 -0.13664763305E+04  0.31573872168E+04  0.28463725116E+04 0.  0.
        5    1    3    3  502    0  0.55222885181E+03 -0.27420103087E+03  0.73960778569E+03  0.96290429262E+03  0.46999998093E+01 0. -1.
       -5    1    3    3    0  502 -0.55222885181E+03  0.27420103087E+03 -0.21060841162E+04  0.21944829242E+04  0.46999998093E+01 0.  1.
</event>
<event>
 5   0  0.6175875E-06  0.2671779E+04  0.7818609E-02  0.8344220E-01
       -3   -1    0    0    0  501  0.00000000000E+00  0.00000000000E+00  0.10795023239E+04  0.10795023286E+04  0.10100000352E+00 0.  1.
        3   -1    0    0  501    0  0.00000000000E+00  0.00000000000E+00 -0.16531698612E+04  0.16531698642E+04  0.10100000352E+00 0. -1.
    10030    2    1    2    0    0  0.00000000000E+00  0.00000000000E+00 -0.57366753727E+03  0.27326721928E+04  0.26717789711E+04 0.  0.
        4    1    3    3  502    0  0.13101377910E+04 -0.19018616508E+03 -0.46970271425E+03  0.14047256178E+04  0.12699999809E+01 0. -1.
       -4    1    3    3    0  502 -0.13101377910E+04  0.19018616508E+03 -0.10396482303E+03  0.13279465750E+04  0.12699999809E+01 0.  1.
</event>
<event>
 5   0  0.1931119E-05  0.2699016E+04  0.7818609E-02  0.8335324E-01
        2   -1    0    0  501    0  0.00000000000E+00  0.00000000000E+00  0.19006599392E+04  0.19006599392E+04  0.25500000920E-02 0.  1.
       -2   -1    0    0    0  501  0.00000000000E+00  0.00000000000E+00 -0.95817894512E+03  0.95817894512E+03  0.25500000920E-02 0. -1.
    10030    2    1    2    0    0  0.00000000000E+00  0.00000000000E+00  0.94248099408E+03  0.28588388843E+04  0.26990163657E+04 0.  0.
        3    1    3    3  502    0  0.12266387535E+04 -0.41395477547E+03  0.87481554100E+03  0.15624670968E+04  0.10100000352E+00 0. -1.
       -3    1    3    3    0  502 -0.12266387535E+04  0.41395477547E+03  0.67665453074E+02  0.12963717875E+04  0.10100000352E+00 0.  1.
</event>
<event>
 5   0  0.1881699E-05  0.2681600E+04  0.7818609E-02  0.8341000E-01
       -2   -1    0    0    0  501  0.00000000000E+00  0.00000000000E+00  0.12532320592E+04  0.12532320592E+04  0.25500000920E-02 0. -1.
        2   -1    0    0  501    0  0.00000000000E+00  0.00000000000E+00 -0.14344867285E+04  0.14344867285E+04  0.25500000920E-02 0.  1.
    10030    2    1    2    0    0  0.00000000000E+00  0.00000000000E+00 -0.18125466927E+03  0.26877187877E+04  0.26816000870E+04 0.  0.
        4    1    3    3  502    0  0.95039789332E+03  0.82833408626E+03  0.36686748688E+03  0.13130068088E+04  0.12699999809E+01 0. -1.
       -4    1    3    3    0  502 -0.95039789332E+03 -0.82833408626E+03 -0.54812215615E+03  0.13747119789E+04  0.12699999809E+01 0.  1.
</event>
<event>
 5   0  0.1931119E-05  0.2740241E+04  0.7818609E-02  0.8322065E-01
       -2   -1    0    0    0  501  0.00000000000E+00  0.00000000000E+00  0.28171308290E+04  0.28171308290E+04  0.25500000920E-02 0.  1.
        2   -1    0    0  501    0  0.00000000000E+00  0.00000000000E+00 -0.66636236839E+03  0.66636236840E+03  0.25500000920E-02 0. -1.
    10030    2    1    2    0    0  0.00000000000E+00  0.00000000000E+00  0.21507684607E+04  0.34834931974E+04  0.27402408444E+04 0.  0.
        3    1    3    3  502    0  0.13089980216E+04 -0.11681027774E+03  0.15679115441E+04  0.20458414117E+04  0.10100000352E+00 0. -1.
       -3    1    3    3    0  502 -0.13089980216E+04  0.11681027774E+03  0.58285691660E+03  0.14376517857E+04  0.10100000352E+00 0.  1.
</event>
<event>
 5   0  0.1878160E-05  0.2689278E+04  0.7818609E-02  0.8338492E-01
       -2   -1    0    0    0  501  0.00000000000E+00  0.00000000000E+00  0.12481106460E+04  0.12481106460E+04  0.25500000920E-02 0.  1.
        2   -1    0    0  501    0  0.00000000000E+00  0.00000000000E+00 -0.14486325709E+04  0.14486325709E+04  0.25500000920E-02 0. -1.
    10030    2    1    2    0    0  0.00000000000E+00  0.00000000000E+00 -0.20052192491E+03  0.26967432168E+04  0.26892777720E+04 0.  0.
        1    1    3    3  502    0 -0.23036484245E+03  0.16256410238E+03  0.12181354031E+04  0.12503395172E+04  0.50400001928E-02 0.  1.
       -1    1    3    3    0  502  0.23036484245E+03 -0.16256410238E+03 -0.14186573280E+04  0.14464036996E+04  0.50400001928E-02 0. -1.
</event>
<event>
 5   0  0.6804685E-06  0.2816014E+04  0.7818609E-02  0.8298314E-01
        1   -1    0    0  501    0  0.00000000000E+00  0.00000000000E+00  0.19584670273E+04  0.19584670273E+04  0.50400001928E-02 0.  1.
       -1   -1    0    0    0  501  0.00000000000E+00  0.00000000000E+00 -0.10122629768E+04  0.10122629768E+04  0.50400001928E-02 0. -1.
    10030    2    1    2    0    0  0.00000000000E+00  0.00000000000E+00  0.94620405058E+03  0.29707300041E+04  0.28160139652E+04 0.  0.
        2    1    3    3  502    0 -0.11789250446E+04 -0.41920608895E+03 -0.20803871211E+03  0.12684155910E+04  0.25500000920E-02 0. -1.
       -2    1    3    3    0  502  0.11789250446E+04  0.41920608895E+03  0.11542427627E+04  0.17023144131E+04  0.25500000920E-02 0.  1.
</event>
<event>
 5   0  0.7754912E-06  0.2579156E+04  0.7818609E-02  0.8375316E-01
       -1   -1    0    0    0  501  0.00000000000E+00  0.00000000000E+00  0.94810458495E+03  0.94810458497E+03  0.50400001928E-02 0. -1.
        1   -1    0    0  501    0  0.00000000000E+00  0.00000000000E+00 -0.17540386038E+04  0.17540386038E+04  0.50400001928E-02 0.  1.
    10030    2    1    2    0    0  0.00000000000E+00  0.00000000000E+00 -0.80593401889E+03  0.27021431888E+04  0.25791564842E+04 0.  0.
        4    1    3    3  502    0  0.23321677022E+03 -0.10254634361E+04 -0.11849113647E+04  0.15842922318E+04  0.12699999809E+01 0.  1.
       -4    1    3    3    0  502 -0.23321677022E+03  0.10254634361E+04  0.37897734581E+03  0.11178509570E+04  0.12699999809E+01 0. -1.
</event>
<event>
 5   0  0.1826851E-05  0.2703392E+04  0.7818609E-02  0.8333905E-01
       -2   -1    0    0    0  501  0.00000000000E+00  0.00000000000E+00  0.14723023090E+04  0.14723023090E+04  0.25500000920E-02 0. -1.
        2   -1    0    0  501    0  0.00000000000E+00  0.00000000000E+00 -0.12409689492E+04  0.12409689492E+04  0.25500000920E-02 0.  1.
    10030    2    1    2    0    0  0.00000000000E+00  0.00000000000E+00  0.23133335980E+03  0.27132712581E+04  0.27033915360E+04 0.  0.
        5    1    3    3  502    0 -0.62833465405E+03 -0.11419461258E+04 -0.24371168998E+03  0.13259950488E+04  0.46999998093E+01 0. -1.
       -5    1    3    3    0  502  0.62833465405E+03  0.11419461258E+04  0.47504504978E+03  0.13872762093E+04  0.46999998093E+01 0.  1.
</event>
<event>
 5   0  0.7348964E-06  0.2700924E+04  0.7818609E-02  0.8334705E-01
        1   -1    0    0  501    0  0.00000000000E+00  0.00000000000E+00  0.11366331735E+04  0.11366331735E+04  0.50400001928E-02 0. -1.
       -1   -1    0    0    0  501  0.00000000000E+00  0.00000000000E+00 -0.16045172076E+04  0.16045172076E+04  0.50400001928E-02 0.  1.
    10030    2    1    2    0    0  0.00000000000E+00  0.00000000000E+00 -0.46788403417E+03  0.27411503811E+04  0.27009239053E+04 0.  0.
        1    1    3    3  502    0 -0.94831665949E+03  0.31162426856E+03  0.68918352842E+03  0.12130078760E+04  0.50400001928E-02 0. -1.
       -1    1    3    3    0  502  0.94831665949E+03 -0.31162426856E+03 -0.11570675626E+04  0.15281425051E+04  0.50400001928E-02 0.  1.
</event>
<event>
 5   0  0.7754912E-06  0.2723578E+04  0.7818609E-02  0.8327395E-01
        1   -1    0    0  501    0  0.00000000000E+00  0.00000000000E+00  0.16449259202E+04  0.16449259202E+04  0.50400001928E-02 0.  1.
       -1   -1    0    0    0  501  0.00000000000E+00  0.00000000000E+00 -0.11273876740E+04  0.11273876740E+04  0.50400001928E-02 0. -1.
    10030    2    1    2    0    0  0.00000000000E+00  0.00000000000E+00  0.51753824624E+03  0.27723135942E+04  0.27235779461E+04 0.  0.
        4    1    3    3  502    0  0.88074607901E+03 -0.74704088753E+03  0.99326540175E+03  0.15232732895E+04  0.12699999809E+01 0.  1.
       -4    1    3    3    0  502 -0.88074607901E+03  0.74704088753E+03 -0.47572715552E+03  0.12490403047E+04  0.12699999809E+01 0. -1.
</event>
<event>
 5   0  0.7600052E-06  0.2717021E+04  0.7818609E-02  0.8329503E-01
       -1   -1    0    0    0  501  0.00000000000E+00  0.00000000000E+00  0.96229650587E+03  0.96229650588E+03  0.50400001928E-02 0.  1.
        1   -1    0    0  501    0  0.00000000000E+00  0.00000000000E+00 -0.19178605585E+04  0.19178605585E+04  0.50400001928E-02 0. -1.
    10030    2    1    2    0    0  0.00000000000E+00  0.00000000000E+00 -0.95556405260E+03  0.28801570644E+04  0.27170208054E+04 0.  0.
        5    1    3    3  502    0  0.75370637678E+03 -0.45870912355E+03 -0.15727811560E+04  0.18033718466E+04  0.46999998093E+01 0. -1.
       -5    1    3    3    0  502 -0.75370637678E+03  0.45870912355E+03  0.61721710341E+03  0.10767852178E+04  0.46999998093E+01 0.  1.
</event>
<event>
 5   0  0.1881699E-05  0.2649197E+04  0.7818609E-02  0.8351679E-01
       -2   -1    0    0    0  501  0.00000000000E+00  0.00000000000E+00  0.94998186411E+03  0.94998186412E+03  0.25500000920E-02 0.  1.
        2   -1    0    0  501    0  0.00000000000E+00  0.00000000000E+00 -0.18469422641E+04  0.18469422641E+04  0.25500000920E-02 0. -1.
    10030    2    1    2    0    0  0.00000000000E+00  0.00000000000E+00 -0.89696039994E+03  0.27969241282E+04  0.26491973539E+04 0.  0.
        4    1    3    3  502    0  0.34747389501E+02 -0.12419937323E+04 -0.93321704679E+03  0.15539148887E+04  0.12699999809E+01 0. -1.
       -4    1    3    3    0  502 -0.34747389501E+02  0.12419937323E+04  0.36256646850E+02  0.12430092395E+04  0.12699999809E+01 0.  1.
</event>
<event>
 5   0  0.7348964E-06  0.2632258E+04  0.7818609E-02  0.8357326E-01
       -1   -1    0    0    0  501  0.00000000000E+00  0.00000000000E+00  0.13341616651E+04  0.13341616651E+04  0.50400001928E-02 0. -1.
        1   -1    0    0  501    0  0.00000000000E+00  0.00000000000E+00 -0.12983399582E+04  0.12983399582E+04  0.50400001928E-02 0.  1.
    10030    2    1    2    0    0  0.00000000000E+00  0.00000000000E+00  0.35821706903E+02  0.26325016233E+04  0.26322578905E+04 0.  0.
        1    1    3    3  502    0  0.62934545090E+03  0.24847159795E+02 -0.11378355091E+04  0.13005240189E+04  0.50400001928E-02 0.  1.
       -1    1    3    3    0  502 -0.62934545090E+03 -0.24847159795E+02  0.11736572160E+04  0.13319776044E+04  0.50400001928E-02 0. -1.
</event>
<event>
 5   0  0.1788003E-05  0.2647000E+04  0.7818609E-02  0.8352409E-01
        2   -1    0    0  501    0  0.00000000000E+00  0.00000000000E+00  0.75299380463E+03  0.75299380464E+03  0.25500000920E-02 0. -1.
       -2   -1    0    0    0  501  0.00000000000E+00  0.00000000000E+00 -0.23262501644E+04  0.23262501644E+04  0.25500000920E-02 0.  1.
    10030    2    1    2    0    0  0.00000000000E+00  0.00000000000E+00 -0.15732563598E+04  0.30792439691E+04  0.26469997823E+04 0.  0.
        2    1    3    3  502    0  0.78579421011E+03  0.88847145144E+03 -0.10354671565E+03  0.11906199994E+04  0.25500000920E-02 0. -1.
       -2    1    3    3    0  502 -0.78579421011E+03 -0.88847145144E+03 -0.14697096442E+04  0.18886239697E+04  0.25500000920E-02 0.  1.
</event>
<event>
 5   0  0.1826851E-05  0.2612796E+04  0.7818609E-02  0.8363868E-01
        2   -1    0    0  501    0  0.00000000000E+00  0.00000000000E+00  0.15426306771E+04  0.15426306771E+04  0.25500000920E-02 0.  1.
       -2   -1    0    0    0  501  0.00000000000E+00  0.00000000000E+00 -0.11063408124E+04  0.11063408124E+04  0.25500000920E-02 0. -1.
    10030    2    1    2    0    0  0.00000000000E+00  0.00000000000E+00  0.43628986476E+03  0.26489714895E+04  0.26127956495E+04 0.  0.
        5    1    3    3  502    0 -0.10165317537E+04 -0.16980906550E+03  0.10320560619E+04  0.14585382168E+04  0.46999998093E+01 0.  1.
       -5    1    3    3    0  502  0.10165317537E+04  0.16980906550E+03 -0.59576619713E+03  0.11904332727E+04  0.46999998093E+01 0. -1.
</event>
<event>
 5   0  0.7351590E-06  0.2700299E+04  0.7818609E-02  0.8334908E-01
        1   -1    0    0  501    0  0.00000000000E+00  0.00000000000E+00  0.10484876978E+04  0.10484876979E+04  0.50400001928E-02 0. -1.
       -1   -1    0    0    0  501  0.00000000000E+00  0.00000000000E+00 -0.17386023940E+04  0.17386023940E+04  0.50400001928E-02 0.  1.
    10030    2    1    2    0    0  0.00000000000E+00  0.00000000000E+00 -0.69011469615E+03  0.27870900919E+04  0.27002986661E+04 0.  0.
        3    1    3    3  502    0  0.86801618349E+03  0.98018596802E+03 -0.47845938093E+01  0.13092897041E+04  0.10100000352E+00 0. -1.
       -3    1    3    3    0  502 -0.86801618349E+03 -0.98018596802E+03 -0.68533010234E+03  0.14778003878E+04  0.10100000352E+00 0.  1.
</event>
<event>
 5   0  0.7600052E-06  0.2762869E+04  0.7818609E-02  0.8314890E-01
       -1   -1    0    0    0  501  0.00000000000E+00  0.00000000000E+00  0.69653370589E+03  0.69653370591E+03  0.50400001928E-02 0. -1.
        1   -1    0    0  501    0  0.00000000000E+00  0.00000000000E+00 -0.27397978908E+04  0.27397978908E+04  0.50400001928E-02 0.  1.
    10030    2    1    2    0    0  0.00000000000E+00  0.00000000000E+00 -0.20432641849E+04  0.34363315967E+04  0.27628692175E+04 0.  0.
        5    1    3    3  502    0 -0.80812878725E+03 -0.63385556636E+03  0.12740776632E+03  0.10349395367E+04  0.46999998093E+01 0. -1.
       -5    1    3    3    0  502  0.80812878725E+03  0.63385556636E+03 -0.21706719512E+04  0.24013920599E+04  0.46999998093E+01 0.  1.
</event>
<event>
 5   0  0.1788003E-05  0.2718629E+04  0.7818609E-02  0.8328986E-01
       -2   -1    0    0    0  501  0.00000000000E+00  0.00000000000E+00  0.13637392667E+04  0.13637392667E+04  0.25500000920E-02 0. -1.
        2   -1    0    0  501    0  0.00000000000E+00  0.00000000000E+00 -0.13549040459E+04  0.13549040459E+04  0.25500000920E-02 0.  1.
    10030    2    1    2    0    0  0.00000000000E+00  0.00000000000E+00  0.88352208037E+01  0.27186433127E+04  0.27186289560E+04 0.  0.
        2    1    3    3  502    0  0.48747707285E+02 -0.11132203793E+04 -0.77411068052E+03  0.13567915453E+04  0.25500000920E-02 0.  1.
       -2    1    3    3    0  502 -0.48747707285E+02  0.11132203793E+04  0.78294590132E+03  0.13618517673E+04  0.25500000920E-02 0. -1.
</event>
<event>
 5   0  0.7754912E-06  0.2719676E+04  0.7818609E-02  0.8328649E-01
        1   -1    0    0  501    0  0.00000000000E+00  0.00000000000E+00  0.22506393492E+04  0.22506393492E+04  0.50400001928E-02 0.  1.
       -1   -1    0    0    0  501  0.00000000000E+00  0.00000000000E+00 -0.82161526090E+03  0.82161526092E+03  0.50400001928E-02 0. -1.
    10030    2    1    2    0    0  0.00000000000E+00  0.00000000000E+00  0.14290240883E+04  0.30722546101E+04  0.27196761838E+04 0.  0.
        4    1    3    3  502    0 -0.93681164230E+03 -0.49043666730E+03 -0.25132266314E+03  0.10868803392E+04  0.12699999809E+01 0.  1.
       -4    1    3    3    0  502  0.93681164230E+03  0.49043666730E+03  0.16803467514E+04  0.19853742709E+04  0.12699999809E+01 0. -1.
</event>
<event>
 5   0  0.1931119E-05  0.2785377E+04  0.7818609E-02  0.8307823E-01
        2   -1    0    0  501    0  0.00000000000E+00  0.00000000000E+00  0.14399302782E+04  0.14399302782E+04  0.25500000920E-02 0.  1.
       -2   -1    0    0    0  501  0.00000000000E+00  0.00000000000E+00 -0.13469968294E+04  0.13469968294E+04  0.25500000920E-02 0. -1.
    10030    2    1    2    0    0  0.00000000000E+00  0.00000000000E+00  0.92933448805E+02  0.27869271076E+04  0.27853771876E+04 0.  0.
        3    1    3    3  502    0  0.58284173091E+03 -0.36255562343E+03 -0.11659956929E+04  0.13530325308E+04  0.10100000352E+00 0. -1.
       -3    1    3    3    0  502 -0.58284173091E+03  0.36255562343E+03  0.12589291417E+04  0.14338945768E+04  0.10100000352E+00 0.  1.
</event>
<event>
 5   0  0.1826851E-05  0.2713327E+04  0.7818609E-02  0.8330694E-01
       -2   -1    0    0    0  501  0.00000000000E+00  0.00000000000E+00  0.13648371457E+04  0.13648371457E+04  0.25500000920E-02 0.  1.
        2   -1    0    0  501    0  0.00000000000E+00  0.00000000000E+00 -0.13485389938E+04  0.13485389938E+04  0.25500000920E-02 0. -1.
    10030    2    1    2    0    0  0.00000000000E+00  0.00000000000E+00  0.16298151909E+02  0.27133761395E+04  0.27133271908E+04 0.  0.
        5    1    3    3  502    0 -0.49540832109E+03  0.30561104235E+03 -0.12173062226E+04  0.13493272559E+04  0.46999998093E+01 0. -1.
       -5    1    3    3    0  502  0.49540832109E+03 -0.30561104235E+03  0.12336043746E+04  0.13640488836E+04  0.46999998093E+01 0.  1.
</event>
<event>
 5   0  0.1878160E-05  0.2732403E+04  0.7818609E-02  0.8324567E-01
        2   -1    0    0  501    0  0.00000000000E+00  0.00000000000E+00  0.33111017821E+04  0.33111017821E+04  0.25500000920E-02 0. -1.
       -2   -1    0    0    0  501  0.00000000000E+00  0.00000000000E+00 -0.56371154939E+03  0.56371154939E+03  0.25500000920E-02 0.  1.
    10030    2    1    2    0    0  0.00000000000E+00  0.00000000000E+00  0.27473902327E+04  0.38748133315E+04  0.27324028369E+04 0.  0.
        1    1    3    3  502    0  0.35128352858E+03 -0.12185826566E+04  0.65316416238E+03  0.14265227764E+04  0.50400001928E-02 0.  1.
       -1    1    3    3    0  502 -0.35128352858E+03  0.12185826566E+04  0.20942260703E+04  0.24482905551E+04  0.50400001928E-02 0. -1.
</event>
<event>
 5   0  0.7348964E-06  0.2705589E+04  0.7818609E-02  0.8333194E-01
       -1   -1    0    0    0  501  0.00000000000E+00  0.00000000000E+00  0.11450175867E+04  0.11450175867E+04  0.50400001928E-02 0.  1.
        1   -1    0    0  501    0  0.00000000000E+00  0.00000000000E+00 -0.15982746515E+04  0.15982746515E+04  0.50400001928E-02 0. -1.
    10030    2    1    2    0    0  0.00000000000E+00  0.00000000000E+00 -0.45325706475E+03  0.27432922382E+04  0.27055887229E+04 0.  0.
        1    1    3    3  502    0 -0.59991415822E+03 -0.11946328262E+04 -0.16354856832E+02  0.13369039113E+04  0.50400001928E-02 0.  1.
       -1    1    3    3    0  502  0.59991415822E+03  0.11946328262E+04 -0.43690220792E+03  0.14063883269E+04  0.50400001928E-02 0. -1.
</event>
<event>
 5   0  0.1878160E-05  0.2744659E+04  0.7818609E-02  0.8320658E-01
       -2   -1    0    0    0  501  0.00000000000E+00  0.00000000000E+00  0.15875851174E+04  0.15875851174E+04  0.25500000920E-02 0.  1.
        2   -1    0    0  501    0  0.00000000000E+00  0.00000000000E+00 -0.11862596074E+04  0.11862596074E+04  0.25500000920E-02 0. -1.
    10030    2    1    2    0    0  0.00000000000E+00  0.00000000000E+00  0.40132550999E+03  0.27738447249E+04  0.27446588846E+04 0.  0.
        1    1    3    3  502    0  0.35445624489E+03  0.92385547187E+03 -0.76031115288E+03  0.12478866982E+04  0.50400001928E-02 0. -1.
       -1    1    3    3    0  502 -0.35445624489E+03 -0.92385547187E+03  0.11616366629E+04  0.15259580266E+04  0.50400001928E-02 0.  1.
</event>
<event>
 5   0  0.7348964E-06  0.2719380E+04  0.7818609E-02  0.8328744E-01
        1   -1    0    0  501    0  0.00000000000E+00  0.00000000000E+00  0.21604757045E+04  0.21604757045E+04  0.50400001928E-02 0. -1.
       -1   -1    0    0    0  501  0.00000000000E+00  0.00000000000E+00 -0.85571778123E+03  0.85571778124E+03  0.50400001928E-02 0.  1.
    10030    2    1    2    0    0  0.00000000000E+00  0.00000000000E+00  0.13047579233E+04  0.30161934858E+04  0.27193804267E+04 0.  0.
        1    1    3    3  502    0  0.16489945435E+03 -0.89174590489E+03 -0.47128902428E+03  0.10220156229E+04  0.50400001928E-02 0.  1.
       -1    1    3    3    0  502 -0.16489945435E+03  0.89174590489E+03  0.17760469476E+04  0.19941778629E+04  0.50400001928E-02 0. -1.
</event>
<event>
 5   0  0.1881699E-05  0.2704647E+04  0.7818609E-02  0.8333499E-01
       -2   -1    0    0    0  501  0.00000000000E+00  0.00000000000E+00  0.11704293436E+04  0.11704293436E+04  0.25500000920E-02 0.  1.
        2   -1    0    0  501    0  0.00000000000E+00  0.00000000000E+00 -0.15624853584E+04  0.15624853584E+04  0.25500000920E-02 0. -1.
    10030    2    1    2    0    0  0.00000000000E+00  0.00000000000E+00 -0.39205601487E+03  0.27329147020E+04  0.27046468993E+04 0.  0.
        4    1    3    3  502    0  0.12335199956E+04  0.33336867946E+01  0.36401599954E+03  0.12861150625E+04  0.12699999809E+01 0.  1.
       -4    1    3    3    0  502 -0.12335199956E+04 -0.33336867946E+01 -0.75607201440E+03  0.14467996395E+04  0.12699999809E+01 0. -1.
</event>
<event>
 5   0  0.7348964E-06  0.2399017E+04  0.7818609E-02  0.8439872E-01
        1   -1    0    0  501    0  0.00000000000E+00  0.00000000000E+00  0.79538992434E+03  0.79538992435E+03  0.50400001928E-02 0.  1.
       -1   -1    0    0    0  501  0.00000000000E+00  0.00000000000E+00 -0.18089496923E+04  0.18089496923E+04  0.50400001928E-02 0. -1.
    10030    2    1    2    0    0  0.00000000000E+00  0.00000000000E+00 -0.10135597679E+04  0.26043396166E+04  0.23990167643E+04 0.  0.
        1    1    3    3  502    0  0.68303461035E+03  0.97567745459E+03 -0.66159523438E+03  0.13624210173E+04  0.50400001928E-02 0.  1.
       -1    1    3    3    0  502 -0.68303461035E+03 -0.97567745459E+03 -0.35196453354E+03  0.12419185993E+04  0.50400001928E-02 0. -1.
</event>
<event>
 5   0  0.1826851E-05  0.2797161E+04  0.7818609E-02  0.8304150E-01
       -2   -1    0    0    0  501  0.00000000000E+00  0.00000000000E+00  0.15234698382E+04  0.15234698383E+04  0.25500000920E-02 0.  1.
        2   -1    0    0  501    0  0.00000000000E+00  0.00000000000E+00 -0.12839289383E+04  0.12839289383E+04  0.25500000920E-02 0. -1.
    10030    2    1    2    0    0  0.00000000000E+00  0.00000000000E+00  0.23954089997E+03  0.28073987765E+04  0.27971607118E+04 0.  0.
        5    1    3    3  502    0  0.40251689362E+03  0.55652381187E+03 -0.11029934346E+04  0.12993672343E+04  0.46999998093E+01 0. -1.
       -5    1    3    3    0  502 -0.40251689362E+03 -0.55652381187E+03  0.13425343346E+04  0.15080315422E+04  0.46999998093E+01 0.  1.
</event>
<event>
 5   0  0.1826851E-05  0.2654225E+04  0.7818609E-02  0.8350012E-01
       -2   -1    0    0    0  501  0.00000000000E+00  0.00000000000E+00  0.10888253552E+04  0.10888253552E+04  0.25500000920E-02 0. -1.
        2   -1    0    0  501    0  0.00000000000E+00  0.00000000000E+00 -0.16175481639E+04  0.16175481639E+04  0.25500000920E-02 0.  1.
    10030    2    1    2    0    0  0.00000000000E+00  0.00000000000E+00 -0.52872280871E+03  0.27063735191E+04  0.26542248994E+04 0.  0.
        5    1    3    3  502    0 -0.71399703071E+03 -0.66269288225E+03  0.65459592037E+03  0.11736573286E+04  0.46999998093E+01 0. -1.
       -5    1    3    3    0  502  0.71399703071E+03  0.66269288225E+03 -0.11833187291E+04  0.15327161905E+04  0.46999998093E+01 0.  1.
</event>
<event>
 5   0  0.1788003E-05  0.2656085E+04  0.7818609E-02  0.8349396E-01
       -2   -1    0    0    0  501  0.00000000000E+00  0.00000000000E+00  0.73231134761E+03  0.73231134762E+03  0.25500000920E-02 0. -1.
        2   -1    0    0  501    0  0.00000000000E+00  0.00000000000E+00 -0.24083974694E+04  0.24083974694E+04  0.25500000920E-02 0.  1.
    10030    2    1    2    0    0  0.00000000000E+00  0.00000000000E+00 -0.16760861218E+04  0.31407088170E+04  0.26560849357E+04 0.  0.
        2    1    3    3  502    0 -0.80297635189E+03  0.10396898486E+04 -0.60762816573E+03  0.14473900617E+04  0.25500000920E-02 0.  1.
       -2    1    3    3    0  502  0.80297635189E+03 -0.10396898486E+04 -0.10684579560E+04  0.16933187552E+04  0.25500000920E-02 0. -1.
</event>
<event>
 5   0  0.1788003E-05  0.2738939E+04  0.7818609E-02  0.8322480E-01
       -2   -1    0    0    0  501  0.00000000000E+00  0.00000000000E+00  0.31215822268E+04  0.31215822268E+04  0.25500000920E-02 0. -1.
        2   -1    0    0  501    0  0.00000000000E+00  0.00000000000E+00 -0.60080006070E+03  0.60080006070E+03  0.25500000920E-02 0.  1.
    10030    2    1    2    0    0  0.00000000000E+00  0.00000000000E+00  0.25207821661E+04  0.37223822875E+04  0.27389390583E+04 0.  0.
        2    1    3    3  502    0 -0.62786700942E+03 -0.81125728592E+03  0.27392315314E+02  0.10262093862E+04  0.25500000920E-02 0.  1.
       -2    1    3    3    0  502  0.62786700942E+03  0.81125728592E+03  0.24933898508E+04  0.26961729012E+04  0.25500000920E-02 0. -1.
</event>
<event>
 5   0  0.1878160E-05  0.2658672E+04  0.7818609E-02  0.8348540E-01
        2   -1    0    0  501    0  0.00000000000E+00  0.00000000000E+00  0.12208324678E+04  0.12208324678E+04  0.25500000920E-02 0.  1.
       -2   -1    0    0    0  501  0.00000000000E+00  0.00000000000E+00 -0.14474826066E+04  0.14474826067E+04  0.25500000920E-02 0. -1.
    10030    2    1    2    0    0  0.00000000000E+00  0.00000000000E+00 -0.22665013882E+03  0.26683150745E+04  0.26586716705E+04 0.  0.
        1    1    3    3  502    0  0.10204452696E+04 -0.57201155745E+03 -0.74698507686E+03  0.13879814391E+04  0.50400001928E-02 0. -1.
       -1    1    3    3    0  502 -0.10204452696E+04  0.57201155745E+03  0.52033493803E+03  0.12803336354E+04  0.50400001928E-02 0.  1.
</event>
<event>
 5   0  0.7600052E-06  0.2681006E+04  0.7818609E-02  0.8341194E-01
       -1   -1    0    0    0  501  0.00000000000E+00  0.00000000000E+00  0.17233004596E+04  0.17233004596E+04  0.50400001928E-02 0.  1.
        1   -1    0    0  501    0  0.00000000000E+00  0.00000000000E+00 -0.10427367493E+04  0.10427367494E+04  0.50400001928E-02 0. -1.
    10030    2    1    2    0    0  0.00000000000E+00  0.00000000000E+00  0.68056371028E+03  0.27660372090E+04  0.26810063181E+04 0.  0.
        5    1    3    3  502    0 -0.86140262229E+03 -0.39153366351E+03 -0.63936690597E+03  0.11419830199E+04  0.46999998093E+01 0. -1.
       -5    1    3    3    0  502  0.86140262229E+03  0.39153366351E+03  0.13199306163E+04  0.16240541891E+04  0.46999998093E+01 0.  1.
</event>
<event>
 5   0  0.7351590E-06  0.2590351E+04  0.7818609E-02  0.8371486E-01
       -1   -1    0    0    0  501  0.00000000000E+00  0.00000000000E+00  0.17147379159E+04  0.17147379159E+04  0.50400001928E-02 0.  1.
        1   -1    0    0  501    0  0.00000000000E+00  0.00000000000E+00 -0.97827200341E+03  0.97827200342E+03  0.50400001928E-02 0. -1.
    10030    2    1    2    0    0  0.00000000000E+00  0.00000000000E+00  0.73646591245E+03  0.26930099193E+04  0.25903514019E+04 0.  0.
        3    1    3    3  502    0  0.10430367454E+04 -0.41392671298E+03  0.10405609683E+04  0.15303686207E+04  0.10100000352E+00 0.  1.
       -3    1    3    3    0  502 -0.10430367454E+04  0.41392671298E+03 -0.30409505589E+03  0.11626412986E+04  0.10100000352E+00 0. -1.
</event>
<event>
 5   0  0.1931119E-05  0.2729772E+04  0.7818609E-02  0.8325409E-01
        2   -1    0    0  501    0  0.00000000000E+00  0.00000000000E+00  0.19202786251E+04  0.19202786251E+04  0.25500000920E-02 0.  1.
       -2   -1    0    0    0  501  0.00000000000E+00  0.00000000000E+00 -0.97012707761E+03  0.97012707762E+03  0.25500000920E-02 0. -1.
    10030    2    1    2    0    0  0.00000000000E+00  0.00000000000E+00  0.95015154749E+03  0.28904057027E+04  0.27297723647E+04 0.  0.
        3    1    3    3  502    0  0.10520037033E+03  0.74174886772E+03 -0.73296181609E+03  0.10480894689E+04  0.10100000352E+00 0. -1.
       -3    1    3    3    0  502 -0.10520037033E+03 -0.74174886772E+03  0.16831133636E+04  0.18423162339E+04  0.10100000352E+00 0.  1.
</event>
<event>
 5   0  0.7348964E-06  0.2681544E+04  0.7818609E-02  0.8341018E-01
        1   -1    0    0  501    0  0.00000000000E+00  0.00000000000E+00  0.19331048654E+04  0.19331048654E+04  0.50400001928E-02 0. -1.
       -1   -1    0    0    0  501  0.00000000000E+00  0.00000000000E+00 -0.92993887405E+03  0.92993887406E+03  0.50400001928E-02 0.  1.
    10030    2    1    2    0    0  0.00000000000E+00  0.00000000000E+00  0.10031659914E+04  0.28630437395E+04  0.26815438553E+04 0.  0.
        1    1    3    3  502    0  0.32425235211E+03  0.49946418683E+03  0.17841677426E+04  0.18809196143E+04  0.50400001928E-02 0. -1.
       -1    1    3    3    0  502 -0.32425235211E+03 -0.49946418683E+03 -0.78100175124E+03  0.98212412517E+03  0.50400001928E-02 0.  1.
</event>
<event>
 5   0  0.1788003E-05  0.2735852E+04  0.7818609E-02  0.8323465E-01
        2   -1    0    0  501    0  0.00000000000E+00  0.00000000000E+00  0.20733584534E+04  0.20733584534E+04  0.25500000920E-02 0. -1.
       -2   -1    0    0    0  501  0.00000000000E+00  0.00000000000E+00 -0.90250732179E+03  0.90250732180E+03  0.25500000920E-02 0.  1.
    10030    2    1    2    0    0  0.00000000000E+00  0.00000000000E+00  0.11708511316E+04  0.29758657752E+04  0.27358517394E+04 0.  0.
        2    1    3    3  502    0  0.79365382977E+03 -0.65898041606E+03  0.15626154529E+04  0.18724071790E+04  0.25500000920E-02 0. -1.
       -2    1    3    3    0  502 -0.79365382977E+03  0.65898041606E+03 -0.39176432124E+03  0.11034585963E+04  0.25500000920E-02 0.  1.
</event>
<event>
 5   0  0.7754912E-06  0.2600441E+04  0.7818609E-02  0.8368051E-01
       -1   -1    0    0    0  501  0.00000000000E+00  0.00000000000E+00  0.72144284911E+03  0.72144284913E+03  0.50400001928E-02 0.  1.
        1   -1    0    0  501    0  0.00000000000E+00  0.00000000000E+00 -0.23433226688E+04  0.23433226688E+04  0.50400001928E-02 0. -1.
    10030    2    1    2    0    0  0.00000000000E+00  0.00000000000E+00 -0.16218798197E+04  0.30647655180E+04  0.26004410262E+04 0.  0.
        4    1    3    3  502    0 -0.77284784354E+02  0.79982514654E+03 -0.20156516814E+04  0.21699185507E+04  0.12699999809E+01 0. -1.
       -4    1    3    3    0  502  0.77284784354E+02 -0.79982514654E+03  0.39377186167E+03  0.89484696730E+03  0.12699999809E+01 0.  1.
</event>
<event>
 5   0  0.7348964E-06  0.2679567E+04  0.7818609E-02  0.8341665E-01
        1   -1    0    0  501    0  0.00000000000E+00  0.00000000000E+00  0.27132027422E+04  0.27132027422E+04  0.50400001928E-02 0.  1.
       -1   -1    0    0    0  501  0.00000000000E+00  0.00000000000E+00 -0.66158714881E+03  0.66158714883E+03  0.50400001928E-02 0. -1.
    10030    2    1    2    0    0  0.00000000000E+00  0.00000000000E+00  0.20516155934E+04  0.33747898911E+04  0.26795671788E+04 0.  0.
        1    1    3    3  502    0 -0.28234009596E+03 -0.51941244254E+03 -0.48842751243E+03  0.76685503857E+03  0.50400001928E-02 0. -1.
       -1    1    3    3    0  502  0.28234009596E+03  0.51941244254E+03  0.25400431059E+04  0.26079348525E+04  0.50400001928E-02 0.  1.
</event>
<event>
 5   0  0.6804685E-06  0.2777665E+04  0.7818609E-02  0.8310236E-01
       -1   -1    0    0    0  501  0.00000000000E+00  0.00000000000E+00  0.81314353452E+03  0.81314353453E+03  0.50400001928E-02 0.  1.
        1   -1    0    0  501    0  0.00000000000E+00  0.00000000000E+00 -0.23720975358E+04  0.23720975358E+04  0.50400001928E-02 0. -1.
    10030    2    1    2    0    0  0.00000000000E+00  0.00000000000E+00 -0.15589540013E+04  0.31852410703E+04  0.27776650442E+04 0.  0.
        2    1    3    3  502    0  0.11899186590E+04  0.40879918484E+03 -0.10511143018E+03  0.12625654840E+04  0.25500000920E-02 0. -1.
       -2    1    3    3    0  502 -0.11899186590E+04 -0.40879918484E+03 -0.14538425711E+04  0.19226755863E+04  0.25500000920E-02 0.  1.
</event>
<event>
 5   0  0.7600052E-06  0.2303854E+04  0.7818609E-02  0.8476403E-01
        1   -1    0    0  501    0  0.00000000000E+00  0.00000000000E+00  0.12126353640E+04  0.12126353640E+04  0.50400001928E-02 0.  1.
       -1   -1    0    0    0  501  0.00000000000E+00  0.00000000000E+00 -0.10942577873E+04  0.10942577873E+04  0.50400001928E-02 0. -1.
    10030    2    1    2    0    0  0.00000000000E+00  0.00000000000E+00  0.11837757674E+03  0.23068931513E+04  0.23038538931E+04 0.  0.
        5    1    3    3  502    0  0.81882178519E+03 -0.74345319841E+03  0.38167238108E+03  0.11699947310E+04  0.46999998093E+01 0.  1.
       -5    1    3    3    0  502 -0.81882178519E+03  0.74345319841E+03 -0.26329480434E+03  0.11368984203E+04  0.46999998093E+01 0. -1.
</event>
<event>
 5   0  0.1881699E-05  0.2718031E+04  0.7818609E-02  0.8329178E-01
       -2   -1    0    0    0  501  0.00000000000E+00  0.00000000000E+00  0.14720746392E+04  0.14720746392E+04  0.25500000920E-02 0. -1.
        2   -1    0    0  501    0  0.00000000000E+00  0.00000000000E+00 -0.12546396623E+04  0.12546396623E+04  0.25500000920E-02 0.  1.
    10030    2    1    2    0    0  0.00000000000E+00  0.00000000000E+00  0.21743497689E+03  0.27267143015E+04  0.27180310728E+04 0.  0.
        4    1    3    3  502    0  0.59528326593E+03  0.12189308263E+04  0.26192366322E+02  0.13567763924E+04  0.12699999809E+01 0.  1.
       -4    1    3    3    0  502 -0.59528326593E+03 -0.12189308263E+04  0.19124261057E+03  0.13699379091E+04  0.12699999809E+01 0. -1.
</event>
<event>
 5   0  0.1881699E-05  0.2901255E+04  0.7818609E-02  0.8272504E-01
        2   -1    0    0  501    0  0.00000000000E+00  0.00000000000E+00  0.11976340061E+04  0.11976340061E+04  0.25500000920E-02 0.  1.
       -2   -1    0    0    0  501  0.00000000000E+00  0.00000000000E+00 -0.17570640498E+04  0.17570640498E+04  0.25500000920E-02 0. -1.
    10030    2    1    2    0    0  0.00000000000E+00  0.00000000000E+00 -0.55943004376E+03  0.29546980559E+04  0.29012546644E+04 0.  0.
        4    1    3    3  502    0  0.57913761755E+03 -0.12018634966E+03  0.10692496858E+04  0.12219417507E+04  0.12699999809E+01 0.  1.
       -4    1    3    3    0  502 -0.57913761755E+03  0.12018634966E+03 -0.16286797296E+04  0.17327563052E+04  0.12699999809E+01 0. -1.
</event>
<event>
 5   0  0.6804685E-06  0.2693818E+04  0.7818609E-02  0.8337014E-01
        1   -1    0    0  501    0  0.00000000000E+00  0.00000000000E+00  0.14171496792E+04  0.14171496792E+04  0.50400001928E-02 0.  1.
       -1   -1    0    0    0  501  0.00000000000E+00  0.00000000000E+00 -0.12801494542E+04  0.12801494542E+04  0.50400001928E-02 0. -1.
    10030    2    1    2    0    0  0.00000000000E+00  0.00000000000E+00  0.13700022507E+03  0.26972991334E+04  0.26938176541E+04 0.  0.
        2    1    3    3  502    0  0.12465993540E+04 -0.31163429278E+03 -0.33580076172E+03  0.13281144655E+04  0.25500000920E-02 0. -1.
       -2    1    3    3    0  502 -0.12465993540E+04  0.31163429278E+03  0.47280098679E+03  0.13691846679E+04  0.25500000920E-02 0.  1.
</event>
<event>
 5   0  0.1881699E-05  0.2710643E+04  0.7818609E-02  0.8331560E-01
        2   -1    0    0  501    0  0.00000000000E+00  0.00000000000E+00  0.12795418239E+04  0.12795418239E+04  0.25500000920E-02 0. -1.
       -2   -1    0    0    0  501  0.00000000000E+00  0.00000000000E+00 -0.14355891028E+04  0.14355891028E+04  0.25500000920E-02 0.  1.
    10030    2    1    2    0    0  0.00000000000E+00  0.00000000000E+00 -0.15604727889E+03  0.27151309268E+04  0.27106429489E+04 0.  0.
        4    1    3    3  502    0  0.11045369680E+04 -0.77913638396E+03 -0.17738095505E+03  0.13632758468E+04  0.12699999809E+01 0.  1.
       -4    1    3    3    0  502 -0.11045369680E+04  0.77913638396E+03  0.21333676161E+02  0.13518550799E+04  0.12699999809E+01 0. -1.
</event>
<event>
 5   0  0.1878160E-05  0.2540247E+04  0.7818609E-02  0.8388786E-01
        2   -1    0    0  501    0  0.00000000000E+00  0.00000000000E+00  0.19267288167E+04  0.19267288167E+04  0.25500000920E-02 0. -1.
       -2   -1    0    0    0  501  0.00000000000E+00  0.00000000000E+00 -0.83728099727E+03  0.83728099728E+03  0.25500000920E-02 0.  1.
    10030    2    1    2    0    0  0.00000000000E+00  0.00000000000E+00  0.10894478194E+04  0.27640098140E+04  0.25402467795E+04 0.  0.
        1    1    3    3  502    0 -0.74211558356E+03  0.54563351913E+03 -0.40681555860E+03  0.10069510292E+04  0.50400001928E-02 0.  1.
       -1    1    3    3    0  502  0.74211558356E+03 -0.54563351913E+03  0.14962633780E+04  0.17570587847E+04  0.50400001928E-02 0. -1.
</event>
<event>
 5   0  0.1881699E-05  0.2688383E+04  0.7818609E-02  0.8338784E-01
       -2   -1    0    0    0  501  0.00000000000E+00  0.00000000000E+00  0.17610955898E+04  0.17610955898E+04  0.25500000920E-02 0. -1.
        2   -1    0    0  501    0  0.00000000000E+00  0.00000000000E+00 -0.10259809043E+04  0.10259809043E+04  0.25500000920E-02 0.  1.
    10030    2    1    2    0    0  0.00000000000E+00  0.00000000000E+00  0.73511468549E+03  0.27870764941E+04  0.26883827449E+04 0.  0.
        4    1    3    3  502    0  0.35991172753E+03  0.12541159501E+04  0.70269829370E+03  0.14819344698E+04  0.12699999809E+01 0. -1.
       -4    1    3    3    0  502 -0.35991172753E+03 -0.12541159501E+04  0.32416391782E+02  0.13051420242E+04  0.12699999809E+01 0.  1.
</event>
<event>
 5   0  0.7600052E-06  0.2678454E+04  0.7818609E-02  0.8342030E-01
       -1   -1    0    0    0  501  0.00000000000E+00  0.00000000000E+00  0.12038569866E+04  0.12038569866E+04  0.50400001928E-02 0.  1.
        1   -1    0    0  501    0  0.00000000000E+00  0.00000000000E+00 -0.14898193227E+04  0.14898193227E+04  0.50400001928E-02 0. -1.
    10030    2    1    2    0    0  0.00000000000E+00  0.00000000000E+00 -0.28596233615E+03  0.26936763093E+04  0.26784543307E+04 0.  0.
        5    1    3    3  502    0  0.33850782559E+01 -0.29092476218E+03  0.11716811938E+04  0.12072727886E+04  0.46999998093E+01 0.  1.
       -5    1    3    3    0  502 -0.33850782559E+01  0.29092476218E+03 -0.14576435300E+04  0.14864035208E+04  0.46999998093E+01 0. -1.
</event>
<event>
 5   0  0.1826851E-05  0.2189414E+04  0.7818609E-02  0.8522847E-01
        2   -1    0    0  501    0  0.00000000000E+00  0.00000000000E+00  0.16741150780E+04  0.16741150780E+04  0.25500000920E-02 0. -1.
       -2   -1    0    0    0  501  0.00000000000E+00  0.00000000000E+00 -0.71583094101E+03  0.71583094101E+03  0.25500000920E-02 0.  1.
    10030    2    1    2    0    0  0.00000000000E+00  0.00000000000E+00  0.95828413696E+03  0.23899460190E+04  0.21894139596E+04 0.  0.
        5    1    3    3  502    0 -0.91614276565E+02  0.41809201693E+03 -0.62069661724E+03  0.75397645251E+03  0.46999998093E+01 0.  1.
       -5    1    3    3    0  502  0.91614276565E+02 -0.41809201693E+03  0.15789807542E+04  0.16359695665E+04  0.46999998093E+01 0. -1.
</event>
<event>
 5   0  0.7600052E-06  0.2208119E+04  0.7818609E-02  0.8515056E-01
        1   -1    0    0  501    0  0.00000000000E+00  0.00000000000E+00  0.81623321702E+03  0.81623321704E+03  0.50400001928E-02 0.  1.
       -1   -1    0    0    0  501  0.00000000000E+00  0.00000000000E+00 -0.14933811341E+04  0.14933811341E+04  0.50400001928E-02 0. -1.
    10030    2    1    2    0    0  0.00000000000E+00  0.00000000000E+00 -0.67714791704E+03  0.23096143511E+04  0.22081189165E+04 0.  0.
        5    1    3    3  502    0  0.27327988229E+03 -0.35930854359E+03 -0.13924271757E+04  0.14637827890E+04  0.46999998093E+01 0. -1.
       -5    1    3    3    0  502 -0.27327988229E+03  0.35930854359E+03  0.71527925870E+03  0.84583156213E+03  0.46999998093E+01 0.  1.
</event>
<event>
 5   0  0.7351590E-06  0.2685872E+04  0.7818609E-02  0.8339604E-01
        1   -1    0    0  501    0  0.00000000000E+00  0.00000000000E+00  0.12488727261E+04  0.12488727261E+04  0.50400001928E-02 0. -1.
       -1   -1    0    0    0  501  0.00000000000E+00  0.00000000000E+00 -0.14440839318E+04  0.14440839318E+04  0.50400001928E-02 0.  1.
    10030    2    1    2    0    0  0.00000000000E+00  0.00000000000E+00 -0.19521120573E+03  0.26929566579E+04  0.26858719527E+04 0.  0.
        3    1    3    3  502    0 -0.71600777873E+03 -0.17767069120E+03  0.10275143704E+04  0.12649188928E+04  0.10100000352E+00 0. -1.
       -3    1    3    3    0  502  0.71600777873E+03  0.17767069120E+03 -0.12227255761E+04  0.14280377651E+04  0.10100000352E+00 0.  1.
</event>
<event>
 5   0  0.1826851E-05  0.2652720E+04  0.7818609E-02  0.8350511E-01
        2   -1    0    0  501    0  0.00000000000E+00  0.00000000000E+00  0.19449983089E+04  0.19449983089E+04  0.25500000920E-02 0. -1.
       -2   -1    0    0    0  501  0.00000000000E+00  0.00000000000E+00 -0.90448941828E+03  0.90448941829E+03  0.25500000920E-02 0.  1.
    10030    2    1    2    0    0  0.00000000000E+00  0.00000000000E+00  0.10405088906E+04  0.28494877272E+04  0.26527196527E+04 0.  0.
        5    1    3    3  502    0  0.34148302122E+03  0.12624600314E+04  0.75752898789E+03  0.15113861989E+04  0.46999998093E+01 0. -1.
       -5    1    3    3    0  502 -0.34148302122E+03 -0.12624600314E+04  0.28297990275E+03  0.13381015283E+04  0.46999998093E+01 0.  1.
</event>
<event>
 5   0  0.7348964E-06  0.2700350E+04  0.7818609E-02  0.8334891E-01
       -1   -1    0    0    0  501  0.00000000000E+00  0.00000000000E+00  0.12261741593E+04  0.12261741593E+04  0.50400001928E-02 0.  1.
        1   -1    0    0  501    0  0.00000000000E+00  0.00000000000E+00 -0.14867156215E+04  0.14867156215E+04  0.50400001928E-02 0. -1.
    10030    2    1    2    0    0  0.00000000000E+00  0.00000000000E+00 -0.26054146220E+03  0.27128897809E+04  0.27003498124E+04 0.  0.
        1    1    3    3  502    0 -0.88071806252E+03 -0.88945789582E+03  0.37821465953E+03  0.13076107918E+04  0.50400001928E-02 0.  1.
       -1    1    3    3    0  502  0.88071806252E+03  0.88945789582E+03 -0.63875612173E+03  0.14052789891E+04  0.50400001928E-02 0. -1.
</event>
<event>
 5   0  0.7754912E-06  0.2668588E+04  0.7818609E-02  0.8345270E-01
        1   -1    0    0  501    0  0.00000000000E+00  0.00000000000E+00  0.12319108775E+04  0.12319108775E+04  0.50400001928E-02 0.  1.
       -1   -1    0    0    0  501  0.00000000000E+00  0.00000000000E+00 -0.14451857984E+04  0.14451857984E+04  0.50400001928E-02 0. -1.
    10030    2    1    2    0    0  0.00000000000E+00  0.00000000000E+00 -0.21327492088E+03  0.26770966760E+04  0.26685877202E+04 0.  0.
        4    1    3    3  502    0  0.51202499191E+03 -0.57373119223E+03 -0.12005277271E+04  0.14256947463E+04  0.12699999809E+01 0. -1.
       -4    1    3    3    0  502 -0.51202499191E+03  0.57373119223E+03  0.98725280619E+03  0.12514019296E+04  0.12699999809E+01 0.  1.
</event>
<event>
 5   0  0.7600052E-06  0.2675397E+04  0.7818609E-02  0.8343032E-01
        1   -1    0    0  501    0  0.00000000000E+00  0.00000000000E+00  0.11430577743E+04  0.11430577743E+04  0.50400001928E-02 0.  1.
       -1   -1    0    0    0  501  0.00000000000E+00  0.00000000000E+00 -0.15654824697E+04  0.15654824697E+04  0.50400001928E-02 0. -1.
    10030    2    1    2    0    0  0.00000000000E+00  0.00000000000E+00 -0.42242469540E+03  0.27085402441E+04  0.26753967239E+04 0.  0.
        5    1    3    3  502    0 -0.10761198274E+03  0.57057406527E+03 -0.14312472009E+04  0.15445470996E+04  0.46999998093E+01 0. -1.
       -5    1    3    3    0  502  0.10761198274E+03 -0.57057406527E+03  0.10088225055E+04  0.11639931445E+04  0.46999998093E+01 0.  1.
</event>
<event>
 5   0  0.7348964E-06  0.2684696E+04  0.7818609E-02  0.8339988E-01
       -1   -1    0    0    0  501  0.00000000000E+00  0.00000000000E+00  0.30569756441E+04  0.30569756441E+04  0.50400001928E-02 0.  1.
        1   -1    0    0  501    0  0.00000000000E+00  0.00000000000E+00 -0.58943797060E+03  0.58943797063E+03  0.50400001928E-02 0. -1.
    10030    2    1    2    0    0  0.00000000000E+00  0.00000000000E+00  0.24675376735E+04  0.36464136148E+04  0.26846955283E+04 0.  0.
        1    1    3    3  502    0 -0.12076954388E+04 -0.56986931999E+03  0.14190963059E+04  0.19486183927E+04  0.50400001928E-02 0.  1.
       -1    1    3    3    0  502  0.12076954388E+04  0.56986931999E+03  0.10484413676E+04  0.16977952221E+04  0.50400001928E-02 0. -1.
</event>
<event>
 5   0  0.7348964E-06  0.2679664E+04  0.7818609E-02  0.8341633E-01
        1   -1    0    0  501    0  0.00000000000E+00  0.00000000000E+00  0.13777420923E+04  0.13777420923E+04  0.50400001928E-02 0. -1.
       -1   -1    0    0    0  501  0.00000000000E+00  0.00000000000E+00 -0.13029655031E+04  0.13029655031E+04  0.50400001928E-02 0.  1.
    10030    2    1    2    0    0  0.00000000000E+00  0.00000000000E+00  0.74776589221E+02  0.26807075954E+04  0.26796644704E+04 0.  0.
        1    1    3    3  502    0  0.63864180657E+03  0.63830313264E+03  0.10276504754E+04  0.13679765151E+04  0.50400001928E-02 0. -1.
       -1    1    3    3    0  502 -0.63864180657E+03 -0.63830313264E+03 -0.95287388621E+03  0.13127310803E+04  0.50400001928E-02 0.  1.
</event>
<event>
 5   0  0.1881699E-05  0.2726315E+04  0.7818609E-02  0.8326517E-01
        2   -1    0    0  501    0  0.00000000000E+00  0.00000000000E+00  0.83229849803E+03  0.83229849803E+03  0.25500000920E-02 0.  1.
       -2   -1    0    0    0  501  0.00000000000E+00  0.00000000000E+00 -0.22326110322E+04  0.22326110322E+04  0.25500000920E-02 0. -1.
    10030    2    1    2    0    0  0.00000000000E+00  0.00000000000E+00 -0.14003125342E+04  0.30649095302E+04  0.27263153220E+04 0.  0.
        4    1    3    3  502    0 -0.27599251740E+03  0.12996358507E+04 -0.35737457376E+03  0.13758428009E+04  0.12699999809E+01 0.  1.
       -4    1    3    3    0  502  0.27599251740E+03 -0.12996358507E+04 -0.10429379604E+04  0.16890667293E+04  0.12699999809E+01 0. -1.
</event>
<event>
 5   0  0.7754912E-06  0.2729553E+04  0.7818609E-02  0.8325479E-01
        1   -1    0    0  501    0  0.00000000000E+00  0.00000000000E+00  0.27874267778E+04  0.27874267778E+04  0.50400001928E-02 0. -1.
       -1   -1    0    0    0  501  0.00000000000E+00  0.00000000000E+00 -0.66822029798E+03  0.66822029800E+03  0.50400001928E-02 0.  1.
    10030    2    1    2    0    0  0.00000000000E+00  0.00000000000E+00  0.21192064798E+04  0.34556470758E+04  0.27295531884E+04 0.  0.
        4    1    3    3  502    0  0.78255644582E+03 -0.43749039066E+03  0.23623173442E+04  0.25267246151E+04  0.12699999809E+01 0. -1.
       -4    1    3    3    0  502 -0.78255644582E+03  0.43749039066E+03 -0.24311086435E+03  0.92892246075E+03  0.12699999809E+01 0.  1.
</event>
<event>
 5   0  0.7348964E-06  0.2231173E+04  0.7818609E-02  0.8505564E-01
       -1   -1    0    0    0  501  0.00000000000E+00  0.00000000000E+00  0.58987334743E+03  0.58987334746E+03  0.50400001928E-02 0. -1.
        1   -1    0    0  501    0  0.00000000000E+00  0.00000000000E+00 -0.21098304536E+04  0.21098304536E+04  0.50400001928E-02 0.  1.
    10030    2    1    2    0    0  0.00000000000E+00  0.00000000000E+00 -0.15199571062E+04  0.26997038011E+04  0.22311725637E+04 0.  0.
        1    1    3    3  502    0  0.35988902183E+02  0.96216863601E+03 -0.14417419253E+04  0.17336907061E+04  0.50400001928E-02 0.  1.
       -1    1    3    3    0  502 -0.35988902183E+02 -0.96216863601E+03 -0.78215180925E+02  0.96601309502E+03  0.50400001928E-02 0. -1.
</event>
<event>
 5   0  0.7351590E-06  0.2845492E+04  0.7818609E-02  0.8289283E-01
        1   -1    0    0  501    0  0.00000000000E+00  0.00000000000E+00  0.11395037616E+04  0.11395037616E+04  0.50400001928E-02 0.  1.
       -1   -1    0    0    0  501  0.00000000000E+00  0.00000000000E+00 -0.17763921170E+04  0.17763921170E+04  0.50400001928E-02 0. -1.
    10030    2    1    2    0    0  0.00000000000E+00  0.00000000000E+00 -0.63688835536E+03  0.29158958786E+04  0.28454915213E+04 0.  0.
        3    1    3    3  502    0 -0.38331847207E+03 -0.32045188965E+03 -0.16835391828E+04  0.17561112308E+04  0.10100000352E+00 0. -1.
       -3    1    3    3    0  502  0.38331847207E+03  0.32045188965E+03  0.10466508274E+04  0.11597846479E+04  0.10100000352E+00 0.  1.
</event>
<event>
 5   0  0.7600052E-06  0.2712102E+04  0.7818609E-02  0.8331089E-01
        1   -1    0    0  501    0  0.00000000000E+00  0.00000000000E+00  0.22492972069E+04  0.22492972069E+04  0.50400001928E-02 0. -1.
       -1   -1    0    0    0  501  0.00000000000E+00  0.00000000000E+00 -0.81753265284E+03  0.81753265286E+03  0.50400001928E-02 0.  1.
    10030    2    1    2    0    0  0.00000000000E+00  0.00000000000E+00  0.14317645541E+04  0.30668298598E+04  0.27121017036E+04 0.  0.
        5    1    3    3  502    0 -0.10277916298E+04 -0.86841507787E+03  0.90628417799E+03  0.16223049907E+04  0.46999998093E+01 0.  1.
       -5    1    3    3    0  502  0.10277916298E+04  0.86841507787E+03  0.52548037610E+03  0.14445248691E+04  0.46999998093E+01 0. -1.
</event>
<event>
 5   0  0.1881699E-05  0.2721898E+04  0.7818609E-02  0.8327935E-01
       -2   -1    0    0    0  501  0.00000000000E+00  0.00000000000E+00  0.11157536615E+04  0.11157536615E+04  0.25500000920E-02 0.  1.
        2   -1    0    0  501    0  0.00000000000E+00  0.00000000000E+00 -0.16600282040E+04  0.16600282040E+04  0.25500000920E-02 0. -1.
    10030    2    1    2    0    0  0.00000000000E+00  0.00000000000E+00 -0.54427454250E+03  0.27757818656E+04  0.27218982691E+04 0.  0.
        4    1    3    3  502    0  0.37921270941E+03  0.43745090881E+03 -0.15281916256E+04  0.16341777241E+04  0.12699999809E+01 0. -1.
       -4    1    3    3    0  502 -0.37921270941E+03 -0.43745090881E+03  0.98391708305E+03  0.11416041415E+04  0.12699999809E+01 0.  1.
</event>
<event>
 5   0  0.6804685E-06  0.2940386E+04  0.7818609E-02  0.8260962E-01
       -1   -1    0    0    0  501  0.00000000000E+00  0.00000000000E+00  0.30959065506E+04  0.30959065506E+04  0.50400001928E-02 0.  1.
        1   -1    0    0  501    0  0.00000000000E+00  0.00000000000E+00 -0.69816928826E+03  0.69816928828E+03  0.50400001928E-02 0. -1.
    10030    2    1    2    0    0  0.00000000000E+00  0.00000000000E+00  0.23977372623E+04  0.37940758389E+04  0.29403856026E+04 0.  0.
        2    1    3    3  502    0  0.37602528164E+03  0.50127449831E+03 -0.51722334854E+03  0.81252146272E+03  0.25500000920E-02 0. -1.
       -2    1    3    3    0  502 -0.37602528164E+03 -0.50127449831E+03  0.29149606108E+04  0.29815543761E+04  0.25500000920E-02 0.  1.
</event>
<event>
 5   0  0.7754912E-06  0.2685798E+04  0.7818609E-02  0.8339628E-01
       -1   -1    0    0    0  501  0.00000000000E+00  0.00000000000E+00  0.22001648800E+04  0.22001648800E+04  0.50400001928E-02 0.  1.
        1   -1    0    0  501    0  0.00000000000E+00  0.00000000000E+00 -0.81965552922E+03  0.81965552924E+03  0.50400001928E-02 0. -1.
    10030    2    1    2    0    0  0.00000000000E+00  0.00000000000E+00  0.13805093508E+04  0.30198204092E+04  0.26857976909E+04 0.  0.
        4    1    3    3  502    0  0.13013574775E+04  0.32470267879E+03  0.61556609089E+03  0.14757663565E+04  0.12699999809E+01 0.  1.
       -4    1    3    3    0  502 -0.13013574775E+04 -0.32470267879E+03  0.76494325986E+03  0.15440540527E+04  0.12699999809E+01 0. -1.
</event>
<event>
 5   0  0.1881699E-05  0.2703965E+04  0.7818609E-02  0.8333719E-01
        2   -1    0    0  501    0  0.00000000000E+00  0.00000000000E+00  0.21289359394E+04  0.21289359394E+04  0.25500000920E-02 0.  1.
       -2   -1    0    0    0  501  0.00000000000E+00  0.00000000000E+00 -0.85857784664E+03  0.85857784665E+03  0.25500000920E-02 0. -1.
    10030    2    1    2    0    0  0.00000000000E+00  0.00000000000E+00  0.12703580928E+04  0.29875137860E+04  0.27039654099E+04 0.  0.
        4    1    3    3  502    0  0.31277303144E+03 -0.19405166724E+02 -0.81789640115E+03  0.87587651277E+03  0.12699999809E+01 0. -1.
       -4    1    3    3    0  502 -0.31277303144E+03  0.19405166724E+02  0.20882544939E+04  0.21116372733E+04  0.12699999809E+01 0.  1.
</event>
<event>
 5   0  0.1826851E-05  0.2785919E+04  0.7818609E-02  0.8307653E-01
        2   -1    0    0  501    0  0.00000000000E+00  0.00000000000E+00  0.84886004181E+03  0.84886004181E+03  0.25500000920E-02 0. -1.
       -2   -1    0    0    0  501  0.00000000000E+00  0.00000000000E+00 -0.22858144707E+04  0.22858144707E+04  0.25500000920E-02 0.  1.
    10030    2    1    2    0    0  0.00000000000E+00  0.00000000000E+00 -0.14369544289E+04  0.31346745125E+04  0.27859192861E+04 0.  0.
        5    1    3    3  502    0  0.16718358791E+03 -0.47412739456E+03  0.74321010253E+03  0.89729063566E+03  0.46999998093E+01 0. -1.
       -5    1    3    3    0  502 -0.16718358791E+03  0.47412739456E+03 -0.21801645314E+04  0.22373838768E+04  0.46999998093E+01 0.  1.
</event>
<event>
 5   0  0.7754912E-06  0.2733286E+04  0.7818609E-02  0.8324285E-01
       -1   -1    0    0    0  501  0.00000000000E+00  0.00000000000E+00  0.68105817593E+03  0.68105817595E+03  0.50400001928E-02 0.  1.
        1   -1    0    0  501    0  0.00000000000E+00  0.00000000000E+00 -0.27423699845E+04  0.27423699845E+04  0.50400001928E-02 0. -1.
    10030    2    1    2    0    0  0.00000000000E+00  0.00000000000E+00 -0.20613118086E+04  0.34234281604E+04  0.27332863000E+04 0.  0.
        4    1    3    3  502    0 -0.11080800242E+04  0.62255991228E+03 -0.16597648435E+04  0.20905126483E+04  0.12699999809E+01 0. -1.
       -4    1    3    3    0  502  0.11080800242E+04 -0.62255991228E+03 -0.40154696511E+03  0.13329155121E+04  0.12699999809E+01 0.  1.
</event>
<event>
 5   0  0.1881699E-05  0.2764208E+04  0.7818609E-02  0.8314467E-01
        2   -1    0    0  501    0  0.00000000000E+00  0.00000000000E+00  0.21501788029E+04  0.21501788029E+04  0.25500000920E-02 0.  1.
       -2   -1    0    0    0  501  0.00000000000E+00  0.00000000000E+00 -0.88839666759E+03  0.88839666759E+03  0.25500000920E-02 0. -1.
    10030    2    1    2    0    0  0.00000000000E+00  0.00000000000E+00  0.12617821354E+04  0.30385754705E+04  0.27642081566E+04 0.  0.
        4    1    3    3  502    0  0.12624746347E+04 -0.20042942849E+03  0.12085984349E+04  0.17591833187E+04  0.12699999809E+01 0. -1.
       -4    1    3    3    0  502 -0.12624746347E+04  0.20042942849E+03  0.53183700436E+02  0.12793921518E+04  0.12699999809E+01 0.  1.
</event>
<event>
 5   0  0.1931119E-05  0.2671293E+04  0.7818609E-02  0.8344380E-01
        2   -1    0    0  501    0  0.00000000000E+00  0.00000000000E+00  0.20828837085E+04  0.20828837085E+04  0.25500000920E-02 0. -1.
       -2   -1    0    0    0  501  0.00000000000E+00  0.00000000000E+00 -0.85648133628E+03  0.85648133628E+03  0.25500000920E-02 0.  1.
    10030    2    1    2    0    0  0.00000000000E+00  0.00000000000E+00  0.12264023723E+04  0.29393650448E+04  0.26712925875E+04 0.  0.
        3    1    3    3  502    0 -0.73435245242E+03  0.91485457359E+02  0.18366769990E+04  0.19801579538E+04  0.10100000352E+00 0. -1.
       -3    1    3    3    0  502  0.73435245242E+03 -0.91485457359E+02 -0.61027462670E+03  0.95920709103E+03  0.10100000352E+00 0.  1.
</event>
<event>
 5   0  0.7600052E-06  0.2706892E+04  0.7818609E-02  0.8332772E-01
        1   -1    0    0  501    0  0.00000000000E+00  0.00000000000E+00  0.97844064593E+03  0.97844064594E+03  0.50400001928E-02 0.  1.
       -1   -1    0    0    0  501  0.00000000000E+00  0.00000000000E+00 -0.18721791966E+04  0.18721791966E+04  0.50400001928E-02 0. -1.
    10030    2    1    2    0    0  0.00000000000E+00  0.00000000000E+00 -0.89373855067E+03  0.28506198425E+04  0.27068921090E+04 0.  0.
        5    1    3    3  502    0 -0.45865260441E+03  0.38568409877E+01  0.89409042103E+03  0.10048864900E+04  0.46999998093E+01 0.  1.
       -5    1    3    3    0  502  0.45865260441E+03 -0.38568409877E+01 -0.17878289717E+04  0.18457333526E+04  0.46999998093E+01 0. -1.
</event>
<event>
 5   0  0.1788003E-05  0.2654965E+04  0.7818609E-02  0.8349767E-01
       -2   -1    0    0    0  501  0.00000000000E+00  0.00000000000E+00  0.10280097246E+04  0.10280097246E+04  0.25500000920E-02 0.  1.
        2   -1    0    0  501    0  0.00000000000E+00  0.00000000000E+00 -0.17141954534E+04  0.17141954534E+04  0.25500000920E-02 0. -1.
    10030    2    1    2    0    0  0.00000000000E+00  0.00000000000E+00 -0.68618572882E+03  0.27422051780E+04  0.26549648554E+04 0.  0.
        2    1    3    3  502    0 -0.40389066642E+03  0.12632674212E+04 -0.28432554807E+03  0.13563971635E+04  0.25500000920E-02 0. -1.
       -2    1    3    3    0  502  0.40389066642E+03 -0.12632674212E+04 -0.40186018075E+03  0.13858080144E+04  0.25500000920E-02 0.  1.
</event>
<event>
 5   0  0.6175875E-06  0.2708661E+04  0.7818609E-02  0.8332200E-01
        3   -1    0    0  501    0  0.00000000000E+00  0.00000000000E+00  0.13609236553E+04  0.13609236591E+04  0.10100000352E+00 0. -1.
       -3   -1    0    0    0  501  0.00000000000E+00  0.00000000000E+00 -0.13477695692E+04  0.13477695730E+04  0.10100000352E+00 0.  1.
    10030    2    1    2    0    0  0.00000000000E+00  0.00000000000E+00  0.13154086057E+02  0.27086932321E+04  0.27086612921E+04 0.  0.
        3    1    3    3  502    0  0.93694590112E+03 -0.95059864661E+03  0.23615779821E+03  0.13554615171E+04  0.10100000352E+00 0. -1.
       -3    1    3    3    0  502 -0.93694590112E+03  0.95059864661E+03 -0.22300371216E+03  0.13532317150E+04  0.10100000352E+00 0.  1.
</event>
<event>
 5   0  0.1788003E-05  0.2719875E+04  0.7818609E-02  0.8328585E-01
        2   -1    0    0  501    0  0.00000000000E+00  0.00000000000E+00  0.20143956793E+04  0.20143956793E+04  0.25500000920E-02 0.  1.
       -2   -1    0    0    0  501  0.00000000000E+00  0.00000000000E+00 -0.91810644956E+03  0.91810644956E+03  0.25500000920E-02 0. -1.
    10030    2    1    2    0    0  0.00000000000E+00  0.00000000000E+00  0.10962892298E+04  0.29325021289E+04  0.27198747509E+04 0.  0.
        2    1    3    3  502    0 -0.23981679185E+03 -0.11290567781E+04 -0.22720398671E+03  0.11763940468E+04  0.25500000920E-02 0.  1.
       -2    1    3    3    0  502  0.23981679185E+03  0.11290567781E+04  0.13234932165E+04  0.17561080821E+04  0.25500000920E-02 0. -1.
</event>
<event>
 5   0  0.7351590E-06  0.2648220E+04  0.7818609E-02  0.8352004E-01
        1   -1    0    0  501    0  0.00000000000E+00  0.00000000000E+00  0.12271745064E+04  0.12271745064E+04  0.50400001928E-02 0.  1.
       -1   -1    0    0    0  501  0.00000000000E+00  0.00000000000E+00 -0.14287026254E+04  0.14287026255E+04  0.50400001928E-02 0. -1.
    10030    2    1    2    0    0  0.00000000000E+00  0.00000000000E+00 -0.20152811907E+03  0.26558771318E+04  0.26482201111E+04 0.  0.
        3    1    3    3  502    0  0.63018388890E+03 -0.45061296896E+03 -0.11776862025E+04  0.14096554839E+04  0.10100000352E+00 0. -1.
       -3    1    3    3    0  502 -0.63018388890E+03  0.45061296896E+03  0.97615808344E+03  0.12462216479E+04  0.10100000352E+00 0.  1.
</event>
<event>
 5   0  0.1931119E-05  0.2671153E+04  0.7818609E-02  0.8344426E-01
       -2   -1    0    0    0  501  0.00000000000E+00  0.00000000000E+00  0.96794530164E+03  0.96794530165E+03  0.25500000920E-02 0.  1.
        2   -1    0    0  501    0  0.00000000000E+00  0.00000000000E+00 -0.18428357366E+04  0.18428357366E+04  0.25500000920E-02 0. -1.
    10030    2    1    2    0    0  0.00000000000E+00  0.00000000000E+00 -0.87489043494E+03  0.28107810382E+04  0.26711527047E+04 0.  0.
        3    1    3    3  502    0  0.78816358728E+02  0.82196189624E+03  0.66715585547E+03  0.10615697447E+04  0.10100000352E+00 0.  1.
       -3    1    3    3    0  502 -0.78816358728E+02 -0.82196189624E+03 -0.15420462904E+04  0.17492112935E+04  0.10100000352E+00 0. -1.
</event>
<event>
 5   0  0.7754912E-06  0.2732197E+04  0.7818609E-02  0.8324633E-01
       -1   -1    0    0    0  501  0.00000000000E+00  0.00000000000E+00  0.98676369991E+03  0.98676369993E+03  0.50400001928E-02 0.  1.
        1   -1    0    0  501    0  0.00000000000E+00  0.00000000000E+00 -0.18912587335E+04  0.18912587335E+04  0.50400001928E-02 0. -1.
    10030    2    1    2    0    0  0.00000000000E+00  0.00000000000E+00 -0.90449503355E+03  0.28780224334E+04  0.27321972589E+04 0.  0.
        4    1    3    3  502    0  0.21647187921E+03 -0.20747695705E+03  0.95167251456E+03  0.99779203748E+03  0.12699999809E+01 0.  1.
       -4    1    3    3    0  502 -0.21647187921E+03  0.20747695705E+03 -0.18561675481E+04  0.18802303959E+04  0.12699999809E+01 0. -1.
</event>
<event>
 5   0  0.7348964E-06  0.2604559E+04  0.7818609E-02  0.8366654E-01
        1   -1    0    0  501    0  0.00000000000E+00  0.00000000000E+00  0.19803766666E+04  0.19803766666E+04  0.50400001928E-02 0. -1.
       -1   -1    0    0    0  501  0.00000000000E+00  0.00000000000E+00 -0.85636841095E+03  0.85636841097E+03  0.50400001928E-02 0.  1.
    10030    2    1    2    0    0  0.00000000000E+00  0.00000000000E+00  0.11240082556E+04  0.28367450775E+04  0.26045590944E+04 0.  0.
        1    1    3    3  502    0  0.30236363012E+03 -0.92869514004E+03 -0.37620116207E+03  0.10466258846E+04  0.50400001928E-02 0.  1.
       -1    1    3    3    0  502 -0.30236363012E+03  0.92869514004E+03  0.15002094177E+04  0.17901191929E+04  0.50400001928E-02 0. -1.
</event>
<event>
 5   0  0.1788003E-05  0.2633096E+04  0.7818609E-02  0.8357045E-01
       -2   -1    0    0    0  501  0.00000000000E+00  0.00000000000E+00  0.90566329630E+03  0.90566329630E+03  0.25500000920E-02 0. -1.
        2   -1    0    0  501    0  0.00000000000E+00  0.00000000000E+00 -0.19138450318E+04  0.19138450318E+04  0.25500000920E-02 0.  1.
    10030    2    1    2    0    0  0.00000000000E+00  0.00000000000E+00 -0.10081817355E+04  0.28195083281E+04  0.26330964282E+04 0.  0.
        2    1    3    3  502    0 -0.77245585808E+03  0.67821459278E+03 -0.13849048587E+04  0.17247099914E+04  0.25500000920E-02 0. -1.
       -2    1    3    3    0  502  0.77245585808E+03 -0.67821459278E+03  0.37672312323E+03  0.10947983367E+04  0.25500000920E-02 0.  1.
</event>
<event>
 5   0  0.7600052E-06  0.2648705E+04  0.7818609E-02  0.8351843E-01
       -1   -1    0    0    0  501  0.00000000000E+00  0.00000000000E+00  0.13498685638E+04  0.13498685638E+04  0.50400001928E-02 0.  1.
        1   -1    0    0  501    0  0.00000000000E+00  0.00000000000E+00 -0.12993189375E+04  0.12993189375E+04  0.50400001928E-02 0. -1.
    10030    2    1    2    0    0  0.00000000000E+00  0.00000000000E+00  0.50549626284E+02  0.26491875013E+04  0.26487051841E+04 0.  0.
        5    1    3    3  502    0 -0.34994123039E+03 -0.21361037439E+03 -0.12342397869E+04  0.13005607246E+04  0.46999998093E+01 0. -1.
       -5    1    3    3    0  502  0.34994123039E+03  0.21361037439E+03  0.12847894132E+04  0.13486267767E+04  0.46999998093E+01 0.  1.
</event>
<event>
 5   0  0.1881699E-05  0.2248980E+04  0.7818609E-02  0.8498314E-01
       -2   -1    0    0    0  501  0.00000000000E+00  0.00000000000E+00  0.79350171855E+03  0.79350171855E+03  0.25500000920E-02 0. -1.
        2   -1    0    0  501    0  0.00000000000E+00  0.00000000000E+00 -0.15935408249E+04  0.15935408249E+04  0.25500000920E-02 0.  1.
    10030    2    1    2    0    0  0.00000000000E+00  0.00000000000E+00 -0.80003910633E+03  0.23870425434E+04  0.22489796648E+04 0.  0.
        4    1    3    3  502    0 -0.52338636338E+03  0.24514841450E+03 -0.14238308641E+04  0.15366609818E+04  0.12699999809E+01 0.  1.
       -4    1    3    3    0  502  0.52338636338E+03 -0.24514841450E+03  0.62379175774E+03  0.85038156167E+03  0.12699999809E+01 0. -1.
</event>
<event>
 5   0  0.1931119E-05  0.2726368E+04  0.7818609E-02  0.8326500E-01
        2   -1    0    0  501    0  0.00000000000E+00  0.00000000000E+00  0.24281063808E+04  0.24281063808E+04  0.25500000920E-02 0. -1.
       -2   -1    0    0    0  501  0.00000000000E+00  0.00000000000E+00 -0.76531687916E+03  0.76531687916E+03  0.25500000920E-02 0.  1.
    10030    2    1    2    0    0  0.00000000000E+00  0.00000000000E+00  0.16627895016E+04  0.31934232599E+04  0.27263681318E+04 0.  0.
        3    1    3    3  502    0  0.29486660058E+03 -0.56673244512E+03 -0.57911721746E+03  0.86226952761E+03  0.10100000352E+00 0.  1.
       -3    1    3    3    0  502 -0.29486660058E+03  0.56673244512E+03  0.22419067191E+04  0.23311537323E+04  0.10100000352E+00 0. -1.
</event>
<event>
 5   0  0.6175875E-06  0.2679958E+04  0.7818609E-02  0.8341537E-01
        4   -1    0    0  501    0  0.00000000000E+00  0.00000000000E+00  0.16694154647E+04  0.16694159478E+04  0.12699999809E+01 0. -1.
       -4   -1    0    0    0  501  0.00000000000E+00  0.00000000000E+00 -0.10755514361E+04  0.10755521859E+04  0.12699999809E+01 0.  1.
    10030    2    1    2    0    0  0.00000000000E+00  0.00000000000E+00  0.59386402868E+03  0.27449681337E+04  0.26799581285E+04 0.  0.
        4    1    3    3  502    0  0.34322777023E+03 -0.36419305958E+03  0.15701056881E+04  0.16479306332E+04  0.12699999809E+01 0. -1.
       -4    1    3    3    0  502 -0.34322777023E+03  0.36419305958E+03 -0.97624165947E+03  0.10970375005E+04  0.12699999809E+01 0.  1.
</event>
<event>
 5   0  0.7754912E-06  0.2620929E+04  0.7818609E-02  0.8361127E-01
       -1   -1    0    0    0  501  0.00000000000E+00  0.00000000000E+00  0.11309757853E+04  0.11309757854E+04  0.50400001928E-02 0.  1.
        1   -1    0    0  501    0  0.00000000000E+00  0.00000000000E+00 -0.15184384263E+04  0.15184384264E+04  0.50400001928E-02 0. -1.
    10030    2    1    2    0    0  0.00000000000E+00  0.00000000000E+00 -0.38746264100E+03  0.26494142117E+04  0.26209289130E+04 0.  0.
        4    1    3    3  502    0 -0.91124837409E+03 -0.94144593711E+03 -0.16853194872E+03  0.13210218327E+04  0.12699999809E+01 0.  1.
       -4    1    3    3    0  502  0.91124837409E+03  0.94144593711E+03 -0.21893069228E+03  0.13283923790E+04  0.12699999809E+01 0. -1.
</event>
<event>
 5   0  0.7351590E-06  0.2712615E+04  0.7818609E-02  0.8330924E-01
        1   -1    0    0  501    0  0.00000000000E+00  0.00000000000E+00  0.17402383410E+04  0.17402383410E+04  0.50400001928E-02 0. -1.
       -1   -1    0    0    0  501  0.00000000000E+00  0.00000000000E+00 -0.10570791065E+04  0.10570791065E+04  0.50400001928E-02 0.  1.
    10030    2    1    2    0    0  0.00000000000E+00  0.00000000000E+00  0.68315923452E+03  0.27973174475E+04  0.27126146727E+04 0.  0.
        3    1    3    3  502    0  0.51293064200E+03  0.12517970785E+04  0.24119623024E+03  0.13741431516E+04  0.10100000352E+00 0.  1.
       -3    1    3    3    0  502 -0.51293064200E+03 -0.12517970785E+04  0.44196300428E+03  0.14231742959E+04  0.10100000352E+00 0. -1.
</event>
<event>
 5   0  0.7600052E-06  0.2617082E+04  0.7818609E-02  0.8362422E-01
        1   -1    0    0  501    0  0.00000000000E+00  0.00000000000E+00  0.93963321690E+03  0.93963321691E+03  0.50400001928E-02 0.  1.
       -1   -1    0    0    0  501  0.00000000000E+00  0.00000000000E+00 -0.18222849694E+04  0.18222849694E+04  0.50400001928E-02 0. -1.
    10030    2    1    2    0    0  0.00000000000E+00  0.00000000000E+00 -0.88265175250E+03  0.27619181863E+04  0.26170819536E+04 0.  0.
        5    1    3    3  502    0 -0.77437762107E+03 -0.66386938916E+03 -0.13063683806E+04  0.16574087310E+04  0.46999998093E+01 0. -1.
       -5    1    3    3    0  502  0.77437762107E+03  0.66386938916E+03  0.42371662811E+03  0.11045094553E+04  0.46999998093E+01 0.  1.
</event>
<event>
 5   0  0.1881699E-05  0.2733988E+04  0.7818609E-02  0.8324061E-01
        2   -1    0    0  501    0  0.00000000000E+00  0.00000000000E+00  0.83286140766E+03  0.83286140767E+03  0.25500000920E-02 0.  1.
       -2   -1    0    0    0  501  0.00000000000E+00  0.00000000000E+00 -0.22436774419E+04  0.22436774419E+04  0.25500000920E-02 0. -1.
    10030    2    1    2    0    0  0.00000000000E+00  0.00000000000E+00 -0.14108160343E+04  0.30765388496E+04  0.27339878219E+04 0.  0.
        4    1    3    3  502    0  0.24878668265E+03 -0.92612973193E+02 -0.22143921571E+04  0.22302480164E+04  0.12699999809E+01 0. -1.
       -4    1    3    3    0  502 -0.24878668265E+03  0.92612973193E+02  0.80357612284E+03  0.84629083320E+03  0.12699999809E+01 0.  1.
</event>
<event>
 5   0  0.1878160E-05  0.2632585E+04  0.7818609E-02  0.8357216E-01
        2   -1    0    0  501    0  0.00000000000E+00  0.00000000000E+00  0.11231459234E+04  0.11231459234E+04  0.25500000920E-02 0.  1.
       -2   -1    0    0    0  501  0.00000000000E+00  0.00000000000E+00 -0.15426543404E+04  0.15426543404E+04  0.25500000920E-02 0. -1.
    10030    2    1    2    0    0  0.00000000000E+00  0.00000000000E+00 -0.41950841707E+03  0.26658002638E+04  0.26325849909E+04 0.  0.
        1    1    3    3  502    0 -0.38685778026E+03 -0.18523912150E+03  0.10503960392E+04  0.11345943387E+04  0.50400001928E-02 0.  1.
       -1    1    3    3    0  502  0.38685778026E+03  0.18523912150E+03 -0.14699044563E+04  0.15312059250E+04  0.50400001928E-02 0. -1.
</event>
<event>
 5   0  0.1826851E-05  0.2674119E+04  0.7818609E-02  0.8343452E-01
       -2   -1    0    0    0  501  0.00000000000E+00  0.00000000000E+00  0.14373770831E+04  0.14373770831E+04  0.25500000920E-02 0. -1.
        2   -1    0    0  501    0  0.00000000000E+00  0.00000000000E+00 -0.12437430710E+04  0.12437430710E+04  0.25500000920E-02 0.  1.
    10030    2    1    2    0    0  0.00000000000E+00  0.00000000000E+00  0.19363401213E+03  0.26811201541E+04  0.26741187614E+04 0.  0.
        5    1    3    3  502    0 -0.20472166771E+03 -0.28423631740E+03  0.13905459242E+04  0.14339948754E+04  0.46999998093E+01 0. -1.
       -5    1    3    3    0  502  0.20472166771E+03  0.28423631740E+03 -0.11969119121E+04  0.12471252787E+04  0.46999998093E+01 0.  1.
</event>
<event>
 5   0  0.1881699E-05  0.2561364E+04  0.7818609E-02  0.8381445E-01
       -2   -1    0    0    0  501  0.00000000000E+00  0.00000000000E+00  0.11938117705E+04  0.11938117705E+04  0.25500000920E-02 0. -1.
        2   -1    0    0  501    0  0.00000000000E+00  0.00000000000E+00 -0.13738735839E+04  0.13738735839E+04  0.25500000920E-02 0.  1.
    10030    2    1    2    0    0  0.00000000000E+00  0.00000000000E+00 -0.18006181347E+03  0.25676853544E+04  0.25613640551E+04 0.  0.
        4    1    3    3  502    0  0.60276663795E+03  0.38201332351E+03 -0.11560852394E+04  0.13586009322E+04  0.12699999809E+01 0.  1.
       -4    1    3    3    0  502 -0.60276663795E+03 -0.38201332351E+03  0.97602342597E+03  0.12090844222E+04  0.12699999809E+01 0. -1.
</event>
<event>
 5   0  0.1788003E-05  0.2688347E+04  0.7818609E-02  0.8338796E-01
        2   -1    0    0  501    0  0.00000000000E+00  0.00000000000E+00  0.13573502621E+04  0.13573502621E+04  0.25500000920E-02 0.  1.
       -2   -1    0    0    0  501  0.00000000000E+00  0.00000000000E+00 -0.13311243486E+04  0.13311243486E+04  0.25500000920E-02 0. -1.
    10030    2    1    2    0    0  0.00000000000E+00  0.00000000000E+00  0.26225913536E+02  0.26884746107E+04  0.26883466915E+04 0.  0.
        2    1    3    3  502    0 -0.94894641972E+03  0.25869907680E+03  0.92933200558E+03  0.13531749689E+04  0.25500000920E-02 0.  1.
       -2    1    3    3    0  502  0.94894641972E+03 -0.25869907680E+03 -0.90310609204E+03  0.13352996418E+04  0.25500000920E-02 0. -1.
</event>
<event>
 5   0  0.1826851E-05  0.2658614E+04  0.7818609E-02  0.8348559E-01
       -2   -1    0    0    0  501  0.00000000000E+00  0.00000000000E+00  0.18265664203E+04  0.18265664203E+04  0.25500000920E-02 0.  1.
        2   -1    0    0  501    0  0.00000000000E+00  0.00000000000E+00 -0.96742036834E+03  0.96742036834E+03  0.25500000920E-02 0. -1.
    10030    2    1    2    0    0  0.00000000000E+00  0.00000000000E+00  0.85914605196E+03  0.27939867886E+04  0.26586143452E+04 0.  0.
        5    1    3    3  502    0 -0.45451178690E+03  0.11140728132E+04  0.10234082137E+04  0.15795966762E+04  0.46999998093E+01 0.  1.
       -5    1    3    3    0  502  0.45451178690E+03 -0.11140728132E+04 -0.16426216175E+03  0.12143901125E+04  0.46999998093E+01 0. -1.
</event>
<event>
 5   0  0.1826851E-05  0.2669065E+04  0.7818609E-02  0.8345113E-01
       -2   -1    0    0    0  501  0.00000000000E+00  0.00000000000E+00  0.86248306470E+03  0.86248306470E+03  0.25500000920E-02 0.  1.
        2   -1    0    0  501    0  0.00000000000E+00  0.00000000000E+00 -0.20649416237E+04  0.20649416237E+04  0.25500000920E-02 0. -1.
    10030    2    1    2    0    0  0.00000000000E+00  0.00000000000E+00 -0.12024585590E+04  0.29274246884E+04  0.26690651397E+04 0.  0.
        5    1    3    3  502    0  0.11382104787E+04  0.59181288657E+03 -0.10045012567E+04  0.16293589080E+04  0.46999998093E+01 0. -1.
       -5    1    3    3    0  502 -0.11382104787E+04 -0.59181288657E+03 -0.19795730231E+03  0.12980657803E+04  0.46999998093E+01 0.  1.
</event>
<event>
 5   0  0.6804685E-06  0.2711188E+04  0.7818609E-02  0.8331384E-01
       -1   -1    0    0    0  501  0.00000000000E+00  0.00000000000E+00  0.90233899195E+03  0.90233899196E+03  0.50400001928E-02 0. -1.
        1   -1    0    0  501    0  0.00000000000E+00  0.00000000000E+00 -0.20365244063E+04  0.20365244063E+04  0.50400001928E-02 0.  1.
    10030    2    1    2    0    0  0.00000000000E+00  0.00000000000E+00 -0.11341854143E+04  0.29388633983E+04  0.27111882117E+04 0.  0.
        2    1    3    3  502    0 -0.80778170458E+03 -0.19665352715E+03  0.59354739907E+03  0.10215098663E+04  0.25500000920E-02 0. -1.
       -2    1    3    3    0  502  0.80778170458E+03  0.19665352715E+03 -0.17277328134E+04  0.19173535320E+04  0.25500000920E-02 0.  1.
</event>
<event>
 5   0  0.6804685E-06  0.2681219E+04  0.7818609E-02  0.8341124E-01
       -1   -1    0    0    0  501  0.00000000000E+00  0.00000000000E+00  0.84464458137E+03  0.84464458138E+03  0.50400001928E-02 0. -1.
        1   -1    0    0  501    0  0.00000000000E+00  0.00000000000E+00 -0.21277994862E+04  0.21277994862E+04  0.50400001928E-02 0.  1.
    10030    2    1    2    0    0  0.00000000000E+00  0.00000000000E+00 -0.12831549049E+04  0.29724440676E+04  0.26812193542E+04 0.  0.
        2    1    3    3  502    0 -0.65112327460E+03  0.73098035316E+03  0.37384538966E+03  0.10478807999E+04  0.25500000920E-02 0. -1.
       -2    1    3    3    0  502  0.65112327460E+03 -0.73098035316E+03 -0.16570002945E+04  0.19245632677E+04  0.25500000920E-02 0.  1.
</event>
<event>
 5   0  0.6804685E-06  0.2795316E+04  0.7818609E-02  0.8304724E-01
        1   -1    0    0  501    0  0.00000000000E+00  0.00000000000E+00  0.13469705368E+04  0.13469705368E+04  0.50400001928E-02 0.  1.
       -1   -1    0    0    0  501  0.00000000000E+00  0.00000000000E+00 -0.14502525309E+04  0.14502525309E+04  0.50400001928E-02 0. -1.
    10030    2    1    2    0    0  0.00000000000E+00  0.00000000000E+00 -0.10328199414E+03  0.27972230677E+04  0.27953156745E+04 0.  0.
        2    1    3    3  502    0 -0.90867624395E+03  0.83041722726E+03  0.61074884979E+03  0.13741540835E+04  0.25500000920E-02 0.  1.
       -2    1    3    3    0  502  0.90867624395E+03 -0.83041722726E+03 -0.71403084393E+03  0.14230689842E+04  0.25500000920E-02 0. -1.
</event>
<event>
 5   0  0.7600052E-06  0.2604107E+04  0.7818609E-02  0.8366808E-01
       -1   -1    0    0    0  501  0.00000000000E+00  0.00000000000E+00  0.13584850238E+04  0.13584850238E+04  0.50400001928E-02 0.  1.
        1   -1    0    0  501    0  0.00000000000E+00  0.00000000000E+00 -0.12479658134E+04  0.12479658134E+04  0.50400001928E-02 0. -1.
    10030    2    1    2    0    0  0.00000000000E+00  0.00000000000E+00  0.11051921042E+03  0.26064508373E+04  0.26041066551E+04 0.  0.
        5    1    3    3  502    0  0.25485148833E+03 -0.39130642403E+03  0.12717757700E+04  0.13548083620E+04  0.46999998093E+01 0.  1.
       -5    1    3    3    0  502 -0.25485148833E+03  0.39130642403E+03 -0.11612565596E+04  0.12516424752E+04  0.46999998093E+01 0. -1.
</event>
<event>
 5   0  0.1931119E-05  0.2650228E+04  0.7818609E-02  0.8351337E-01
        2   -1    0    0  501    0  0.00000000000E+00  0.00000000000E+00  0.17779311368E+04  0.17779311368E+04  0.25500000920E-02 0.  1.
       -2   -1    0    0    0  501  0.00000000000E+00  0.00000000000E+00 -0.98762406081E+03  0.98762406081E+03  0.25500000920E-02 0. -1.
    10030    2    1    2    0    0  0.00000000000E+00  0.00000000000E+00  0.79030707602E+03  0.27655551976E+04  0.26502283443E+04 0.  0.
        3    1    3    3  502    0  0.64960540048E+03 -0.65618698293E+03  0.13869652459E+04  0.16662056105E+04  0.10100000352E+00 0.  1.
       -3    1    3    3    0  502 -0.64960540048E+03  0.65618698293E+03 -0.59665816987E+03  0.10993495872E+04  0.10100000352E+00 0. -1.
</event>
<event>
 5   0  0.7351590E-06  0.2700152E+04  0.7818609E-02  0.8334956E-01
        1   -1    0    0  501    0  0.00000000000E+00  0.00000000000E+00  0.21845439148E+04  0.21845439148E+04  0.50400001928E-02 0.  1.
       -1   -1    0    0    0  501  0.00000000000E+00  0.00000000000E+00 -0.83436444978E+03  0.83436444979E+03  0.50400001928E-02 0. -1.
    10030    2    1    2    0    0  0.00000000000E+00  0.00000000000E+00  0.13501794650E+04  0.30189083646E+04  0.27001524265E+04 0.  0.
        3    1    3    3  502    0  0.11617720601E+04  0.63327256884E+03  0.97500535965E+03  0.16435887343E+04  0.10100000352E+00 0.  1.
       -3    1    3    3    0  502 -0.11617720601E+04 -0.63327256884E+03  0.37517410539E+03  0.13753196303E+04  0.10100000352E+00 0. -1.
</event>
<event>
 5   0  0.6804685E-06  0.2681131E+04  0.7818609E-02  0.8341153E-01
        1   -1    0    0  501    0  0.00000000000E+00  0.00000000000E+00  0.18829669814E+04  0.18829669814E+04  0.50400001928E-02 0.  1.
       -1   -1    0    0    0  501  0.00000000000E+00  0.00000000000E+00 -0.95440643533E+03  0.95440643534E+03  0.50400001928E-02 0. -1.
    10030    2    1    2    0    0  0.00000000000E+00  0.00000000000E+00  0.92856054610E+03  0.28373734168E+04  0.26811309588E+04 0.  0.
        2    1    3    3  502    0 -0.10341543697E+04  0.79834403358E+03  0.14629140463E+03  0.13146214784E+04  0.25500000920E-02 0. -1.
       -2    1    3    3    0  502  0.10341543697E+04 -0.79834403358E+03  0.78226914147E+03  0.15227519384E+04  0.25500000920E-02 0.  1.
</event>
<event>
 5   0  0.7600052E-06  0.2642431E+04  0.7818609E-02  0.8353930E-01
       -1   -1    0    0    0  501  0.00000000000E+00  0.00000000000E+00  0.12248149483E+04  0.12248149484E+04  0.50400001928E-02 0. -1.
        1   -1    0    0  501    0  0.00000000000E+00  0.00000000000E+00 -0.14252033182E+04  0.14252033182E+04  0.50400001928E-02 0.  1.
    10030    2    1    2    0    0  0.00000000000E+00  0.00000000000E+00 -0.20038836984E+03  0.26500182666E+04  0.26424309479E+04 0.  0.
        5    1    3    3  502    0 -0.76890254341E+03 -0.10573743764E+04  0.90974626011E+02  0.13105533815E+04  0.46999998093E+01 0.  1.
       -5    1    3    3    0  502  0.76890254341E+03  0.10573743764E+04 -0.29136299586E+03  0.13394648851E+04  0.46999998093E+01 0. -1.
</event>
<event>
 5   0  0.1788003E-05  0.2705674E+04  0.7818609E-02  0.8333166E-01
        2   -1    0    0  501    0  0.00000000000E+00  0.00000000000E+00  0.20108477264E+04  0.20108477264E+04  0.25500000920E-02 0. -1.
       -2   -1    0    0    0  501  0.00000000000E+00  0.00000000000E+00 -0.91014714631E+03  0.91014714631E+03  0.25500000920E-02 0.  1.
    10030    2    1    2    0    0  0.00000000000E+00  0.00000000000E+00  0.11007005801E+04  0.29209948727E+04  0.27056735352E+04 0.  0.
        2    1    3    3  502    0 -0.10396865539E+04 -0.84613575825E+03  0.74727691376E+03  0.15347040880E+04  0.25500000920E-02 0. -1.
       -2    1    3    3    0  502  0.10396865539E+04  0.84613575825E+03  0.35342366630E+03  0.13862907847E+04  0.25500000920E-02 0.  1.
</event>
<event>
 5   0  0.1881699E-05  0.2710449E+04  0.7818609E-02  0.8331623E-01
       -2   -1    0    0    0  501  0.00000000000E+00  0.00000000000E+00  0.10724154222E+04  0.10724154222E+04  0.25500000920E-02 0. -1.
        2   -1    0    0  501    0  0.00000000000E+00  0.00000000000E+00 -0.17126135685E+04  0.17126135685E+04  0.25500000920E-02 0.  1.
    10030    2    1    2    0    0  0.00000000000E+00  0.00000000000E+00 -0.64019814632E+03  0.27850289907E+04  0.27104488212E+04 0.  0.
        4    1    3    3  502    0  0.10176030157E+04 -0.32536566166E+03  0.53666235654E+03  0.11955696589E+04  0.12699999809E+01 0. -1.
       -4    1    3    3    0  502 -0.10176030157E+04  0.32536566166E+03 -0.11768605029E+04  0.15894593318E+04  0.12699999809E+01 0.  1.
</event>
<event>
 5   0  0.7351590E-06  0.2708809E+04  0.7818609E-02  0.8332152E-01
        1   -1    0    0  501    0  0.00000000000E+00  0.00000000000E+00  0.10410482654E+04  0.10410482654E+04  0.50400001928E-02 0. -1.
       -1   -1    0    0    0  501  0.00000000000E+00  0.00000000000E+00 -0.17620808529E+04  0.17620808529E+04  0.50400001928E-02 0.  1.
    10030    2    1    2    0    0  0.00000000000E+00  0.00000000000E+00 -0.72103258759E+03  0.28031291183E+04  0.27088087532E+04 0.  0.
        3    1    3    3  502    0  0.83332102709E+03 -0.10003335090E+04  0.25736570109E+02  0.13022109831E+04  0.10100000352E+00 0. -1.
       -3    1    3    3    0  502 -0.83332102709E+03  0.10003335090E+04 -0.74676915769E+03  0.15009181352E+04  0.10100000352E+00 0.  1.
</event>
<event>
 5   0  0.1788003E-05  0.2681491E+04  0.7818609E-02  0.8341036E-01
        2   -1    0    0  501    0  0.00000000000E+00  0.00000000000E+00  0.10399306968E+04  0.10399306968E+04  0.25500000920E-02 0. -1.
       -2   -1    0    0    0  501  0.00000000000E+00  0.00000000000E+00 -0.17285750944E+04  0.17285750944E+04  0.25500000920E-02 0.  1.
    10030    2    1    2    0    0  0.00000000000E+00  0.00000000000E+00 -0.68864439765E+03  0.27685057912E+04  0.26814908558E+04 0.  0.
        2    1    3    3  502    0 -0.41138486299E+03 -0.69423898493E+03  0.76111960556E+03  0.11092827988E+04  0.25500000920E-02 0. -1.
       -2    1    3    3    0  502  0.41138486299E+03  0.69423898493E+03 -0.14497640032E+04  0.16592229925E+04  0.25500000920E-02 0.  1.
</event>
<event>
 5   0  0.7600052E-06  0.2744664E+04  0.7818609E-02  0.8320657E-01
       -1   -1    0    0    0  501  0.00000000000E+00  0.00000000000E+00  0.61613651051E+03  0.61613651053E+03  0.50400001928E-02 0.  1.
        1   -1    0    0  501    0  0.00000000000E+00  0.00000000000E+00 -0.30566207350E+04  0.30566207350E+04  0.50400001928E-02 0. -1.
    10030    2    1    2    0    0  0.00000000000E+00  0.00000000000E+00 -0.24404842245E+04  0.36727572455E+04  0.27446643756E+04 0.  0.
        5    1    3    3  502    0 -0.33527312088E+02  0.52044497759E+03  0.47835101054E+03  0.70769261310E+03  0.46999998093E+01 0.  1.
       -5    1    3    3    0  502  0.33527312088E+02 -0.52044497759E+03 -0.29188352350E+04  0.29650646325E+04  0.46999998093E+01 0. -1.
</event>
<event>
 5   0  0.7754912E-06  0.2632740E+04  0.7818609E-02  0.8357164E-01
       -1   -1    0    0    0  501  0.00000000000E+00  0.00000000000E+00  0.10691576517E+04  0.10691576517E+04  0.50400001928E-02 0.  1.
        1   -1    0    0  501    0  0.00000000000E+00  0.00000000000E+00 -0.16207434228E+04  0.16207434228E+04  0.50400001928E-02 0. -1.
    10030    2    1    2    0    0  0.00000000000E+00  0.00000000000E+00 -0.55158577112E+03  0.26899010745E+04  0.26327401937E+04 0.  0.
        4    1    3    3  502    0 -0.30606628844E+02  0.41785202779E+03 -0.15508019321E+04  0.16064013596E+04  0.12699999809E+01 0. -1.
       -4    1    3    3    0  502  0.30606628844E+02 -0.41785202779E+03  0.99921616093E+03  0.10834997148E+04  0.12699999809E+01 0.  1.
</event>
<event>
 5   0  0.6804685E-06  0.2635981E+04  0.7818609E-02  0.8356081E-01
        1   -1    0    0  501    0  0.00000000000E+00  0.00000000000E+00  0.77656513628E+03  0.77656513629E+03  0.50400001928E-02 0. -1.
       -1   -1    0    0    0  501  0.00000000000E+00  0.00000000000E+00 -0.22369000013E+04  0.22369000013E+04  0.50400001928E-02 0.  1.
    10030    2    1    2    0    0  0.00000000000E+00  0.00000000000E+00 -0.14603348650E+04  0.30134651376E+04  0.26359806937E+04 0.  0.
        2    1    3    3  502    0  0.82583842798E+03  0.25487717246E+03  0.40737973673E+03  0.95547356430E+03  0.25500000920E-02 0. -1.
       -2    1    3    3    0  502 -0.82583842798E+03 -0.25487717246E+03 -0.18677146018E+04  0.20579915733E+04  0.25500000920E-02 0.  1.
</event>
<event>
 5   0  0.7600052E-06  0.2694127E+04  0.7818609E-02  0.8336913E-01
        1   -1    0    0  501    0  0.00000000000E+00  0.00000000000E+00  0.11267172658E+04  0.11267172658E+04  0.50400001928E-02 0.  1.
       -1   -1    0    0    0  501  0.00000000000E+00  0.00000000000E+00 -0.16105012889E+04  0.16105012889E+04  0.50400001928E-02 0. -1.
    10030    2    1    2    0    0  0.00000000000E+00  0.00000000000E+00 -0.48378402309E+03  0.27372185547E+04  0.26941266554E+04 0.  0.
        5    1    3    3  502    0  0.12978246148E+04  0.20192736155E+03 -0.54573072385E+03  0.14223106211E+04  0.46999998093E+01 0. -1.
       -5    1    3    3    0  502 -0.12978246148E+04 -0.20192736155E+03  0.61946700755E+02  0.13149079336E+04  0.46999998093E+01 0.  1.
</event>
<event>
 5   0  0.7348964E-06  0.2588207E+04  0.7818609E-02  0.8372218E-01
        1   -1    0    0  501    0  0.00000000000E+00  0.00000000000E+00  0.99197636550E+03  0.99197636551E+03  0.50400001928E-02 0. -1.
       -1   -1    0    0    0  501  0.00000000000E+00  0.00000000000E+00 -0.16882502212E+04  0.16882502212E+04  0.50400001928E-02 0.  1.
    10030    2    1    2    0    0  0.00000000000E+00  0.00000000000E+00 -0.69627385566E+03  0.26802265867E+04  0.25882073475E+04 0.  0.
        1    1    3    3  502    0  0.52231440520E+03 -0.58152492799E+03  0.71989997417E+03  0.10626568367E+04  0.50400001928E-02 0. -1.
       -1    1    3    3    0  502 -0.52231440520E+03  0.58152492799E+03 -0.14161738298E+04  0.16175697500E+04  0.50400001928E-02 0.  1.
</event>
<event>
 5   0  0.1931119E-05  0.2729156E+04  0.7818609E-02  0.8325607E-01
       -2   -1    0    0    0  501  0.00000000000E+00  0.00000000000E+00  0.15311239446E+04  0.15311239446E+04  0.25500000920E-02 0. -1.
        2   -1    0    0  501    0  0.00000000000E+00  0.00000000000E+00 -0.12161474679E+04  0.12161474679E+04  0.25500000920E-02 0.  1.
    10030    2    1    2    0    0  0.00000000000E+00  0.00000000000E+00  0.31497647677E+03  0.27472714125E+04  0.27291555531E+04 0.  0.
        3    1    3    3  502    0  0.11708045333E+04  0.68524677199E+03  0.30586442623E+03  0.13906471339E+04  0.10100000352E+00 0. -1.
       -3    1    3    3    0  502 -0.11708045333E+04 -0.68524677199E+03  0.91120505485E+01  0.13566242786E+04  0.10100000352E+00 0.  1.
</event>
<event>
 5   0  0.1931119E-05  0.2657211E+04  0.7818609E-02  0.8349024E-01
       -2   -1    0    0    0  501  0.00000000000E+00  0.00000000000E+00  0.17109653198E+04  0.17109653198E+04  0.25500000920E-02 0. -1.
        2   -1    0    0  501    0  0.00000000000E+00  0.00000000000E+00 -0.10316935793E+04  0.10316935793E+04  0.25500000920E-02 0.  1.
    10030    2    1    2    0    0  0.00000000000E+00  0.00000000000E+00  0.67927174050E+03  0.27426588992E+04  0.26572105185E+04 0.  0.
        3    1    3    3  502    0 -0.15543668568E+03 -0.49905229674E+03 -0.92110859225E+03  0.10590820587E+04  0.10100000352E+00 0.  1.
       -3    1    3    3    0  502  0.15543668568E+03  0.49905229674E+03  0.16003803328E+04  0.16835768405E+04  0.10100000352E+00 0. -1.
</event>
<event>
 5   0  0.7600052E-06  0.2227965E+04  0.7818609E-02  0.8506878E-01
        1   -1    0    0  501    0  0.00000000000E+00  0.00000000000E+00  0.14291607915E+04  0.14291607915E+04  0.50400001928E-02 0.  1.
       -1   -1    0    0    0  501  0.00000000000E+00  0.00000000000E+00 -0.86831156200E+03  0.86831156202E+03  0.50400001928E-02 0. -1.
    10030    2    1    2    0    0  0.00000000000E+00  0.00000000000E+00  0.56084922947E+03  0.22974723535E+04  0.22279648464E+04 0.  0.
        5    1    3    3  502    0 -0.56119909551E+03  0.29030252312E+03  0.12264971474E+04  0.13796874002E+04  0.46999998093E+01 0.  1.
       -5    1    3    3    0  502  0.56119909551E+03 -0.29030252312E+03 -0.66564791796E+03  0.91778495326E+03  0.46999998093E+01 0. -1.
</event>
<event>
 5   0  0.7351590E-06  0.2688595E+04  0.7818609E-02  0.8338715E-01
       -1   -1    0    0    0  501  0.00000000000E+00  0.00000000000E+00  0.10942725588E+04  0.10942725588E+04  0.50400001928E-02 0. -1.
        1   -1    0    0  501    0  0.00000000000E+00  0.00000000000E+00 -0.16514495715E+04  0.16514495716E+04  0.50400001928E-02 0.  1.
    10030    2    1    2    0    0  0.00000000000E+00  0.00000000000E+00 -0.55717701279E+03  0.27457221303E+04  0.26885951338E+04 0.  0.
        3    1    3    3  502    0 -0.12603088488E+04 -0.24564552474E+03 -0.68506033440E+03  0.14553445606E+04  0.10100000352E+00 0. -1.
       -3    1    3    3    0  502  0.12603088488E+04  0.24564552474E+03  0.12788332161E+03  0.12903775697E+04  0.10100000352E+00 0.  1.
</event>
<event>
 5   0  0.7351590E-06  0.2609262E+04  0.7818609E-02  0.8365062E-01
        1   -1    0    0  501    0  0.00000000000E+00  0.00000000000E+00  0.10774080997E+04  0.10774080997E+04  0.50400001928E-02 0.  1.
       -1   -1    0    0    0  501  0.00000000000E+00  0.00000000000E+00 -0.15797742796E+04  0.15797742796E+04  0.50400001928E-02 0. -1.
    10030    2    1    2    0    0  0.00000000000E+00  0.00000000000E+00 -0.50236617992E+03  0.26571823794E+04  0.26092616616E+04 0.  0.
        3    1    3    3  502    0 -0.62512319507E+03 -0.79410296839E+03  0.58900438357E+03  0.11697455738E+04  0.10100000352E+00 0.  1.
       -3    1    3    3    0  502  0.62512319507E+03  0.79410296839E+03 -0.10913705635E+04  0.14874368055E+04  0.10100000352E+00 0. -1.
</event>
<event>
 5   0  0.1788003E-05  0.2735578E+04  0.7818609E-02  0.8323553E-01
        2   -1    0    0  501    0  0.00000000000E+00  0.00000000000E+00  0.11855750644E+04  0.11855750644E+04  0.25500000920E-02 0.  1.
       -2   -1    0    0    0  501  0.00000000000E+00  0.00000000000E+00 -0.15780073859E+04  0.15780073859E+04  0.25500000920E-02 0. -1.
    10030    2    1    2    0    0  0.00000000000E+00  0.00000000000E+00 -0.39243232148E+03  0.27635824503E+04  0.27355776049E+04 0.  0.
        2    1    3    3  502    0 -0.35807974876E+03 -0.11049955416E+04  0.53340315353E+03  0.12781843285E+04  0.25500000920E-02 0.  1.
       -2    1    3    3    0  502  0.35807974876E+03  0.11049955416E+04 -0.92583547501E+03  0.14853981218E+04  0.25500000920E-02 0. -1.
</event>
<event>
 5   0  0.1788003E-05  0.2682582E+04  0.7818609E-02  0.8340679E-01
        2   -1    0    0  501    0  0.00000000000E+00  0.00000000000E+00  0.19255121835E+04  0.19255121835E+04  0.25500000920E-02 0.  1.
       -2   -1    0    0    0  501  0.00000000000E+00  0.00000000000E+00 -0.93432914351E+03  0.93432914351E+03  0.25500000920E-02 0. -1.
    10030    2    1    2    0    0  0.00000000000E+00  0.00000000000E+00  0.99118303995E+03  0.28598413270E+04  0.26825824492E+04 0.  0.
        2    1    3    3  502    0  0.57658850857E+03  0.89827660447E+03  0.13614848602E+04  0.17300278006E+04  0.25500000920E-02 0. -1.
       -2    1    3    3    0  502 -0.57658850857E+03 -0.89827660447E+03 -0.37030182021E+03  0.11298135264E+04  0.25500000920E-02 0.  1.
</event>
<event>
 5   0  0.7754912E-06  0.2653579E+04  0.7818609E-02  0.8350226E-01
       -1   -1    0    0    0  501  0.00000000000E+00  0.00000000000E+00  0.70444799531E+03  0.70444799533E+03  0.50400001928E-02 0.  1.
        1   -1    0    0  501    0  0.00000000000E+00  0.00000000000E+00 -0.24989362566E+04  0.24989362566E+04  0.50400001928E-02 0. -1.
    10030    2    1    2    0    0  0.00000000000E+00  0.00000000000E+00 -0.17944882613E+04  0.32033842520E+04  0.26535791953E+04 0.  0.
        4    1    3    3  502    0  0.62329137061E+03  0.10418753245E+04 -0.15432594087E+04  0.19635802861E+04  0.12699999809E+01 0. -1.
       -4    1    3    3    0  502 -0.62329137061E+03 -0.10418753245E+04 -0.25122885261E+03  0.12398039659E+04  0.12699999809E+01 0.  1.
</event>
<event>
 5   0  0.1878160E-05  0.2844366E+04  0.7818609E-02  0.8289625E-01
        2   -1    0    0  501    0  0.00000000000E+00  0.00000000000E+00  0.23571331042E+04  0.23571331042E+04  0.25500000920E-02 0. -1.
       -2   -1    0    0    0  501  0.00000000000E+00  0.00000000000E+00 -0.85807798195E+03  0.85807798195E+03  0.25500000920E-02 0.  1.
    10030    2    1    2    0    0  0.00000000000E+00  0.00000000000E+00  0.14990551223E+04  0.32152110862E+04  0.28443656708E+04 0.  0.
        1    1    3    3  502    0  0.10812755629E+04  0.93415562056E+02 -0.28938891181E+03  0.11232227083E+04  0.50400001928E-02 0.  1.
       -1    1    3    3    0  502 -0.10812755629E+04 -0.93415562056E+02  0.17884440341E+04  0.20919883779E+04  0.50400001928E-02 0. -1.
</event>
<event>
 5   0  0.6175875E-06  0.2419610E+04  0.7818609E-02  0.8432198E-01
        4   -1    0    0  501    0  0.00000000000E+00  0.00000000000E+00  0.24356922671E+04  0.24356925981E+04  0.12699999809E+01 0.  1.
       -4   -1    0    0    0  501  0.00000000000E+00  0.00000000000E+00 -0.60090746126E+03  0.60090880331E+03  0.12699999809E+01 0. -1.
    10030    2    1    2    0    0  0.00000000000E+00  0.00000000000E+00  0.18347848058E+04  0.30366014015E+04  0.24196100487E+04 0.  0.
        2    1    3    3  502    0 -0.11958948257E+04 -0.11295013328E+03  0.73680359592E+03  0.14091847664E+04  0.25500000920E-02 0.  1.
       -2    1    3    3    0  502  0.11958948257E+04  0.11295013328E+03  0.10979812099E+04  0.16274166351E+04  0.25500000920E-02 0. -1.
</event>
<event>
 5   0  0.1826851E-05  0.2710090E+04  0.7818609E-02  0.8331739E-01
       -2   -1    0    0    0  501  0.00000000000E+00  0.00000000000E+00  0.10943186515E+04  0.10943186515E+04  0.25500000920E-02 0.  1.
        2   -1    0    0  501    0  0.00000000000E+00  0.00000000000E+00 -0.16778905739E+04  0.16778905739E+04  0.25500000920E-02 0. -1.
    10030    2    1    2    0    0  0.00000000000E+00  0.00000000000E+00 -0.58357192238E+03  0.27722092253E+04  0.27100899986E+04 0.  0.
        5    1    3    3  502    0  0.92693923969E+03  0.93699574661E+03  0.29983373952E+02  0.13183696280E+04  0.46999998093E+01 0.  1.
       -5    1    3    3    0  502 -0.92693923969E+03 -0.93699574661E+03 -0.61355529633E+03  0.14538395974E+04  0.46999998093E+01 0. -1.
</event>
<event>
 5   0  0.1788003E-05  0.2760886E+04  0.7818609E-02  0.8315516E-01
       -2   -1    0    0    0  501  0.00000000000E+00  0.00000000000E+00  0.10489009157E+04  0.10489009157E+04  0.25500000920E-02 0. -1.
        2   -1    0    0  501    0  0.00000000000E+00  0.00000000000E+00 -0.18167805080E+04  0.18167805080E+04  0.25500000920E-02 0.  1.
    10030    2    1    2    0    0  0.00000000000E+00  0.00000000000E+00 -0.76787959237E+03  0.28656814237E+04  0.27608859002E+04 0.  0.
        2    1    3    3  502    0 -0.34984597212E+03  0.52723806212E+03  0.88951592352E+03  0.10916092509E+04  0.25500000920E-02 0. -1.
       -2    1    3    3    0  502  0.34984597212E+03 -0.52723806212E+03 -0.16573955159E+04  0.17740721728E+04  0.25500000920E-02 0.  1.
</event>
<event>
 5   0  0.6175875E-06  0.2702782E+04  0.7818609E-02  0.8334103E-01
        3   -1    0    0  501    0  0.00000000000E+00  0.00000000000E+00  0.16957741147E+04  0.16957741178E+04  0.10100000352E+00 0. -1.
       -3   -1    0    0    0  501  0.00000000000E+00  0.00000000000E+00 -0.10769461589E+04  0.10769461637E+04  0.10100000352E+00 0.  1.
    10030    2    1    2    0    0  0.00000000000E+00  0.00000000000E+00  0.61882795580E+03  0.27727202814E+04  0.27027818484E+04 0.  0.
        4    1    3    3  502    0  0.76323798545E+03  0.35868203630E+03 -0.77387989183E+03  0.11445858314E+04  0.12699999809E+01 0.  1.
       -4    1    3    3    0  502 -0.76323798545E+03 -0.35868203630E+03  0.13927078476E+04  0.16281344500E+04  0.12699999809E+01 0. -1.
</event>
<event>
 5   0  0.1826851E-05  0.2773296E+04  0.7818609E-02  0.8311607E-01
        2   -1    0    0  501    0  0.00000000000E+00  0.00000000000E+00  0.11375383126E+04  0.11375383126E+04  0.25500000920E-02 0. -1.
       -2   -1    0    0    0  501  0.00000000000E+00  0.00000000000E+00 -0.16903104962E+04  0.16903104962E+04  0.25500000920E-02 0.  1.
    10030    2    1    2    0    0  0.00000000000E+00  0.00000000000E+00 -0.55277218362E+03  0.28278488088E+04  0.27732961974E+04 0.  0.
        5    1    3    3  502    0  0.50989736934E+03 -0.92314978590E+03 -0.11944125422E+04  0.15933751176E+04  0.46999998093E+01 0.  1.
       -5    1    3    3    0  502 -0.50989736934E+03  0.92314978590E+03  0.64164035862E+03  0.12344736912E+04  0.46999998093E+01 0. -1.
</event>
<event>
 5   0  0.7351590E-06  0.2690913E+04  0.7818609E-02  0.8337959E-01
        1   -1    0    0  501    0  0.00000000000E+00  0.00000000000E+00  0.24486599829E+04  0.24486599829E+04  0.50400001928E-02 0. -1.
       -1   -1    0    0    0  501  0.00000000000E+00  0.00000000000E+00 -0.73928314438E+03  0.73928314440E+03  0.50400001928E-02 0.  1.
    10030    2    1    2    0    0  0.00000000000E+00  0.00000000000E+00  0.17093768385E+04  0.31879431273E+04  0.26909128947E+04 0.  0.
        3    1    3    3  502    0 -0.28989471026E+03 -0.11409175508E+04  0.16265877025E+04  0.20078643791E+04  0.10100000352E+00 0. -1.
       -3    1    3    3    0  502  0.28989471026E+03  0.11409175508E+04  0.82789136048E+02  0.11800787482E+04  0.10100000352E+00 0.  1.
</event>
<event>
 5   0  0.1881699E-05  0.2693222E+04  0.7818609E-02  0.8337207E-01
        2   -1    0    0  501    0  0.00000000000E+00  0.00000000000E+00  0.23665578693E+04  0.23665578693E+04  0.25500000920E-02 0.  1.
       -2   -1    0    0    0  501  0.00000000000E+00  0.00000000000E+00 -0.76624424941E+03  0.76624424942E+03  0.25500000920E-02 0. -1.
    10030    2    1    2    0    0  0.00000000000E+00  0.00000000000E+00  0.16003136199E+04  0.31328021187E+04  0.26932221284E+04 0.  0.
        4    1    3    3  502    0  0.48009160260E+03  0.70751407012E+03 -0.40997797278E+03  0.94823396763E+03  0.12699999809E+01 0. -1.
       -4    1    3    3    0  502 -0.48009160260E+03 -0.70751407012E+03  0.20102915927E+04  0.21845681511E+04  0.12699999809E+01 0.  1.
</event>
<event>
 5   0  0.6804685E-06  0.2690263E+04  0.7818609E-02  0.8338171E-01
        1   -1    0    0  501    0  0.00000000000E+00  0.00000000000E+00  0.22799507831E+04  0.22799507831E+04  0.50400001928E-02 0.  1.
       -1   -1    0    0    0  501  0.00000000000E+00  0.00000000000E+00 -0.79360427081E+03  0.79360427082E+03  0.50400001928E-02 0. -1.
    10030    2    1    2    0    0  0.00000000000E+00  0.00000000000E+00  0.14863465123E+04  0.30735550539E+04  0.26902629453E+04 0.  0.
        2    1    3    3  502    0 -0.11486595780E+04 -0.67472574228E+03  0.53033854906E+03  0.14338523738E+04  0.25500000920E-02 0. -1.
       -2    1    3    3    0  502  0.11486595780E+04  0.67472574228E+03  0.95600796325E+03  0.16397026801E+04  0.25500000920E-02 0.  1.
</event>
<event>
 5   0  0.7348964E-06  0.2732889E+04  0.7818609E-02  0.8324412E-01
       -1   -1    0    0    0  501  0.00000000000E+00  0.00000000000E+00  0.14155590734E+04  0.14155590734E+04  0.50400001928E-02 0.  1.
        1   -1    0    0  501    0  0.00000000000E+00  0.00000000000E+00 -0.13190337426E+04  0.13190337426E+04  0.50400001928E-02 0. -1.
    10030    2    1    2    0    0  0.00000000000E+00  0.00000000000E+00  0.96525330806E+02  0.27345928161E+04  0.27328887153E+04 0.  0.
        1    1    3    3  502    0  0.11984313878E+04  0.26906158310E+03 -0.55089134674E+03  0.13461475412E+04  0.50400001928E-02 0. -1.
       -1    1    3    3    0  502 -0.11984313878E+04 -0.26906158310E+03  0.64741667754E+03  0.13884452748E+04  0.50400001928E-02 0.  1.
</event>
<event>
 5   0  0.1826851E-05  0.2674841E+04  0.7818609E-02  0.8343215E-01
       -2   -1    0    0    0  501  0.00000000000E+00  0.00000000000E+00  0.10438394092E+04  0.10438394092E+04  0.25500000920E-02 0.  1.
        2   -1    0    0  501    0  0.00000000000E+00  0.00000000000E+00 -0.17135717670E+04  0.17135717670E+04  0.25500000920E-02 0. -1.
    10030    2    1    2    0    0  0.00000000000E+00  0.00000000000E+00 -0.66973235782E+03  0.27574111761E+04  0.26748411099E+04 0.  0.
        5    1    3    3  502    0 -0.18096612683E+03 -0.12418607825E+04 -0.81141849845E+03  0.14944527466E+04  0.46999998093E+01 0. -1.
       -5    1    3    3    0  502  0.18096612683E+03  0.12418607825E+04  0.14168614063E+03  0.12629584295E+04  0.46999998093E+01 0.  1.
</event>
<event>
 5   0  0.7600052E-06  0.2719215E+04  0.7818609E-02  0.8328797E-01
        1   -1    0    0  501    0  0.00000000000E+00  0.00000000000E+00  0.14750748972E+04  0.14750748972E+04  0.50400001928E-02 0.  1.
       -1   -1    0    0    0  501  0.00000000000E+00  0.00000000000E+00 -0.12531786506E+04  0.12531786506E+04  0.50400001928E-02 0. -1.
    10030    2    1    2    0    0  0.00000000000E+00  0.00000000000E+00  0.22189624660E+03  0.27282535479E+04  0.27192148641E+04 0.  0.
        5    1    3    3  502    0 -0.10294605229E+04 -0.54400053919E+03  0.81526780003E+03  0.14214109999E+04  0.46999998093E+01 0.  1.
       -5    1    3    3    0  502  0.10294605229E+04  0.54400053919E+03 -0.59337155343E+03  0.13068425480E+04  0.46999998093E+01 0. -1.
</event>
<event>
 5   0  0.1931119E-05  0.2718525E+04  0.7818609E-02  0.8329019E-01
        2   -1    0    0  501    0  0.00000000000E+00  0.00000000000E+00  0.19081541210E+04  0.19081541210E+04  0.25500000920E-02 0. -1.
       -2   -1    0    0    0  501  0.00000000000E+00  0.00000000000E+00 -0.96826282401E+03  0.96826282402E+03  0.25500000920E-02 0.  1.
    10030    2    1    2    0    0  0.00000000000E+00  0.00000000000E+00  0.93989129695E+03  0.28764169450E+04  0.27185251132E+04 0.  0.
        3    1    3    3  502    0  0.22908528255E+03  0.41433863171E+03 -0.87819858634E+03  0.99769200441E+03  0.10100000352E+00 0.  1.
       -3    1    3    3    0  502 -0.22908528255E+03 -0.41433863171E+03  0.18180898833E+04  0.18787249406E+04  0.10100000352E+00 0. -1.
</event>
<event>
 5   0  0.1878160E-05  0.2436985E+04  0.7818609E-02  0.8425785E-01
       -2   -1    0    0    0  501  0.00000000000E+00  0.00000000000E+00  0.81012672129E+03  0.81012672129E+03  0.25500000920E-02 0. -1.
        2   -1    0    0  501    0  0.00000000000E+00  0.00000000000E+00 -0.18327056853E+04  0.18327056853E+04  0.25500000920E-02 0.  1.
    10030    2    1    2    0    0  0.00000000000E+00  0.00000000000E+00 -0.10225789641E+04  0.26428324066E+04  0.24369848978E+04 0.  0.
        1    1    3    3  502    0 -0.53084240608E+03 -0.94033890258E+03 -0.11235031263E+04  0.15582972074E+04  0.50400001928E-02 0.  1.
       -1    1    3    3    0  502  0.53084240608E+03  0.94033890258E+03  0.10092416225E+03  0.10845351992E+04  0.50400001928E-02 0. -1.
</event>
<event>
 5   0  0.6804685E-06  0.2691069E+04  0.7818609E-02  0.8337909E-01
        1   -1    0    0  501    0  0.00000000000E+00  0.00000000000E+00  0.11506367597E+04  0.11506367597E+04  0.50400001928E-02 0.  1.
       -1   -1    0    0    0  501  0.00000000000E+00  0.00000000000E+00 -0.15734442567E+04  0.15734442567E+04  0.50400001928E-02 0. -1.
    10030    2    1    2    0    0  0.00000000000E+00  0.00000000000E+00 -0.42280749705E+03  0.27240810164E+04  0.26910687848E+04 0.  0.
        2    1    3    3  502    0 -0.89170796676E+03  0.37535964591E+03 -0.11579818738E+04  0.15089599006E+04  0.25500000920E-02 0. -1.
       -2    1    3    3    0  502  0.89170796676E+03 -0.37535964591E+03  0.73517437671E+03  0.12151211158E+04  0.25500000920E-02 0.  1.
</event>
<event>
 5   0  0.6804685E-06  0.2548573E+04  0.7818609E-02  0.8385883E-01
       -1   -1    0    0    0  501  0.00000000000E+00  0.00000000000E+00  0.12611358936E+04  0.12611358936E+04  0.50400001928E-02 0. -1.
        1   -1    0    0  501    0  0.00000000000E+00  0.00000000000E+00 -0.12875743360E+04  0.12875743360E+04  0.50400001928E-02 0.  1.
    10030    2    1    2    0    0  0.00000000000E+00  0.00000000000E+00 -0.26438442445E+02  0.25487102296E+04  0.25485730995E+04 0.  0.
        2    1    3    3  502    0  0.11349229844E+04 -0.56982678074E+03 -0.11836036298E+03  0.12754457716E+04  0.25500000920E-02 0.  1.
       -2    1    3    3    0  502 -0.11349229844E+04  0.56982678074E+03  0.91921920535E+02  0.12732644580E+04  0.25500000920E-02 0. -1.
</event>
<event>
 5   0  0.1931119E-05  0.2771685E+04  0.7818609E-02  0.8312113E-01
       -2   -1    0    0    0  501  0.00000000000E+00  0.00000000000E+00  0.18623107066E+04  0.18623107066E+04  0.25500000920E-02 0. -1.
        2   -1    0    0  501    0  0.00000000000E+00  0.00000000000E+00 -0.10312780122E+04  0.10312780122E+04  0.25500000920E-02 0.  1.
    10030    2    1    2    0    0  0.00000000000E+00  0.00000000000E+00  0.83103269435E+03  0.28935887188E+04  0.27716854682E+04 0.  0.
        3    1    3    3  502    0  0.88831809620E+03 -0.68874053791E+03  0.12617776107E+04  0.16898388437E+04  0.10100000352E+00 0. -1.
       -3    1    3    3    0  502 -0.88831809620E+03  0.68874053791E+03 -0.43074491638E+03  0.12037498751E+04  0.10100000352E+00 0.  1.
</event>
<event>
 5   0  0.1826851E-05  0.2789067E+04  0.7818609E-02  0.8306671E-01
       -2   -1    0    0    0  501  0.00000000000E+00  0.00000000000E+00  0.11632461713E+04  0.11632461713E+04  0.25500000920E-02 0. -1.
        2   -1    0    0  501    0  0.00000000000E+00  0.00000000000E+00 -0.16718075280E+04  0.16718075280E+04  0.25500000920E-02 0.  1.
    10030    2    1    2    0    0  0.00000000000E+00  0.00000000000E+00 -0.50856135663E+03  0.28350536993E+04  0.27890670168E+04 0.  0.
        5    1    3    3  502    0 -0.83208209513E+03 -0.79310506596E+03  0.54824647750E+03  0.12735668607E+04  0.46999998093E+01 0. -1.
       -5    1    3    3    0  502  0.83208209513E+03  0.79310506596E+03 -0.10568078341E+04  0.15614868386E+04  0.46999998093E+01 0.  1.
</event>
<event>
 5   0  0.7754912E-06  0.2713524E+04  0.7818609E-02  0.8330630E-01
       -1   -1    0    0    0  501  0.00000000000E+00  0.00000000000E+00  0.15539817314E+04  0.15539817314E+04  0.50400001928E-02 0.  1.
        1   -1    0    0  501    0  0.00000000000E+00  0.00000000000E+00 -0.11845722422E+04  0.11845722422E+04  0.50400001928E-02 0. -1.
    10030    2    1    2    0    0  0.00000000000E+00  0.00000000000E+00  0.36940948919E+03  0.27385539736E+04  0.27135243680E+04 0.  0.
        4    1    3    3  502    0 -0.34067916944E+03 -0.67843621174E+02 -0.11389328455E+04  0.11907286395E+04  0.12699999809E+01 0. -1.
       -4    1    3    3    0  502  0.34067916944E+03  0.67843621174E+02  0.15083423347E+04  0.15478253341E+04  0.12699999809E+01 0.  1.
</event>
<event>
 5   0  0.7754912E-06  0.2683403E+04  0.7818609E-02  0.8340410E-01
       -1   -1    0    0    0  501  0.00000000000E+00  0.00000000000E+00  0.25365914117E+04  0.25365914117E+04  0.50400001928E-02 0.  1.
        1   -1    0    0  501    0  0.00000000000E+00  0.00000000000E+00 -0.70967791549E+03  0.70967791550E+03  0.50400001928E-02 0. -1.
    10030    2    1    2    0    0  0.00000000000E+00  0.00000000000E+00  0.18269134962E+04  0.32462693272E+04  0.26834029929E+04 0.  0.
        4    1    3    3  502    0 -0.11437283976E+04 -0.30700238630E+02  0.65672298556E+02  0.11460242650E+04  0.12699999809E+01 0. -1.
       -4    1    3    3    0  502  0.11437283976E+04  0.30700238630E+02  0.17612411976E+04  0.21002450622E+04  0.12699999809E+01 0.  1.
</event>
<event>
 5   0  0.7348964E-06  0.2755046E+04  0.7818609E-02  0.8317362E-01
        1   -1    0    0  501    0  0.00000000000E+00  0.00000000000E+00  0.13512177767E+04  0.13512177767E+04  0.50400001928E-02 0.  1.
       -1   -1    0    0    0  501  0.00000000000E+00  0.00000000000E+00 -0.14043405075E+04  0.14043405076E+04  0.50400001928E-02 0. -1.
    10030    2    1    2    0    0  0.00000000000E+00  0.00000000000E+00 -0.53122730853E+02  0.27555582842E+04  0.27550461763E+04 0.  0.
        1    1    3    3  502    0 -0.93235952745E+03  0.45593547960E+03 -0.93248819911E+03  0.13952439541E+04  0.50400001928E-02 0. -1.
       -1    1    3    3    0  502  0.93235952745E+03 -0.45593547960E+03  0.87936546826E+03  0.13603143301E+04  0.50400001928E-02 0.  1.
</event>
<event>
 5   0  0.7348964E-06  0.2704116E+04  0.7818609E-02  0.8333671E-01
       -1   -1    0    0    0  501  0.00000000000E+00  0.00000000000E+00  0.16024479337E+04  0.16024479337E+04  0.50400001928E-02 0. -1.
        1   -1    0    0  501    0  0.00000000000E+00  0.00000000000E+00 -0.11407926676E+04  0.11407926676E+04  0.50400001928E-02 0.  1.
    10030    2    1    2    0    0  0.00000000000E+00  0.00000000000E+00  0.46165526604E+03  0.27432406013E+04  0.27041160131E+04 0.  0.
        1    1    3    3  502    0 -0.22491707547E+03 -0.83291296613E+03  0.12869128371E+04  0.15493470723E+04  0.50400001928E-02 0. -1.
       -1    1    3    3    0  502  0.22491707547E+03  0.83291296613E+03 -0.82525757110E+03  0.11938935290E+04  0.50400001928E-02 0.  1.
</event>
<event>
 5   0  0.6804685E-06  0.2590774E+04  0.7818609E-02  0.8371342E-01
        1   -1    0    0  501    0  0.00000000000E+00  0.00000000000E+00  0.15126620176E+04  0.15126620176E+04  0.50400001928E-02 0. -1.
       -1   -1    0    0    0  501  0.00000000000E+00  0.00000000000E+00 -0.11093207300E+04  0.11093207300E+04  0.50400001928E-02 0.  1.
    10030    2    1    2    0    0  0.00000000000E+00  0.00000000000E+00  0.40334128767E+03  0.26219827476E+04  0.25907738871E+04 0.  0.
        2    1    3    3  502    0  0.12151817898E+04 -0.41419110181E+03  0.37639531267E+03  0.13378693817E+04  0.25500000920E-02 0.  1.
       -2    1    3    3    0  502 -0.12151817898E+04  0.41419110181E+03  0.26945975001E+02  0.12841133659E+04  0.25500000920E-02 0. -1.
</event>
<event>
 5   0  0.7600052E-06  0.2079242E+04  0.7818609E-02  0.8570443E-01
        1   -1    0    0  501    0  0.00000000000E+00  0.00000000000E+00  0.85615554411E+03  0.85615554412E+03  0.50400001928E-02 0.  1.
       -1   -1    0    0    0  501  0.00000000000E+00  0.00000000000E+00 -0.12624012510E+04  0.12624012510E+04  0.50400001928E-02 0. -1.
    10030    2    1    2    0    0  0.00000000000E+00  0.00000000000E+00 -0.40624570688E+03  0.21185567951E+04  0.20792420061E+04 0.  0.
        5    1    3    3  502    0  0.47838845326E+03 -0.82329474243E+03  0.22204399467E+03  0.97775015760E+03  0.46999998093E+01 0. -1.
       -5    1    3    3    0  502 -0.47838845326E+03  0.82329474243E+03 -0.62828970155E+03  0.11408066375E+04  0.46999998093E+01 0.  1.
</event>
<event>
 5   0  0.6804685E-06  0.2835139E+04  0.7818609E-02  0.8292441E-01
        1   -1    0    0  501    0  0.00000000000E+00  0.00000000000E+00  0.13230755325E+04  0.13230755325E+04  0.50400001928E-02 0. -1.
       -1   -1    0    0    0  501  0.00000000000E+00  0.00000000000E+00 -0.15188119096E+04  0.15188119096E+04  0.50400001928E-02 0.  1.
    10030    2    1    2    0    0  0.00000000000E+00  0.00000000000E+00 -0.19573637711E+03  0.28418874422E+04  0.28351387100E+04 0.  0.
        2    1    3    3  502    0 -0.87095058697E+03  0.22761093309E+03 -0.11955279052E+04  0.14965455669E+04  0.25500000920E-02 0.  1.
       -2    1    3    3    0  502  0.87095058697E+03 -0.22761093309E+03  0.99979152805E+03  0.13453418753E+04  0.25500000920E-02 0. -1.
</event>
<event>
 5   0  0.1878160E-05  0.2727040E+04  0.7818609E-02  0.8326284E-01
        2   -1    0    0  501    0  0.00000000000E+00  0.00000000000E+00  0.15219880439E+04  0.15219880439E+04  0.25500000920E-02 0.  1.
       -2   -1    0    0    0  501  0.00000000000E+00  0.00000000000E+00 -0.12215517465E+04  0.12215517465E+04  0.25500000920E-02 0. -1.
    10030    2    1    2    0    0  0.00000000000E+00  0.00000000000E+00  0.30043629743E+03  0.27435397904E+04  0.27270402661E+04 0.  0.
        1    1    3    3  502    0  0.53801081956E+03  0.12508245935E+04  0.22255133196E+03  0.13796908716E+04  0.50400001928E-02 0.  1.
       -1    1    3    3    0  502 -0.53801081956E+03 -0.12508245935E+04  0.77884965472E+02  0.13638489189E+04  0.50400001928E-02 0. -1.
</event>
<event>
 5   0  0.1878160E-05  0.2751581E+04  0.7818609E-02  0.8318460E-01
        2   -1    0    0  501    0  0.00000000000E+00  0.00000000000E+00  0.17193802876E+04  0.17193802876E+04  0.25500000920E-02 0. -1.
       -2   -1    0    0    0  501  0.00000000000E+00  0.00000000000E+00 -0.11008611482E+04  0.11008611482E+04  0.25500000920E-02 0.  1.
    10030    2    1    2    0    0  0.00000000000E+00  0.00000000000E+00  0.61851913943E+03  0.28202414358E+04  0.27515806058E+04 0.  0.
        1    1    3    3  502    0 -0.26392497073E+02 -0.12051742971E+04  0.98887181779E+03  0.15591693694E+04  0.50400001928E-02 0. -1.
       -1    1    3    3    0  502  0.26392497073E+02  0.12051742971E+04 -0.37035267836E+03  0.12610720664E+04  0.50400001928E-02 0.  1.
</event>
<event>
 5   0  0.1788003E-05  0.3197423E+04  0.7818609E-02  0.8189498E-01
       -2   -1    0    0    0  501  0.00000000000E+00  0.00000000000E+00  0.17133646684E+04  0.17133646684E+04  0.25500000920E-02 0. -1.
        2   -1    0    0  501    0  0.00000000000E+00  0.00000000000E+00 -0.14917303623E+04  0.14917303623E+04  0.25500000920E-02 0.  1.
    10030    2    1    2    0    0  0.00000000000E+00  0.00000000000E+00  0.22163430608E+03  0.32050950308E+04  0.31974227732E+04 0.  0.
        2    1    3    3  502    0 -0.49289853962E+03  0.46528826494E+03 -0.13405645607E+04  0.15021835711E+04  0.25500000920E-02 0.  1.
       -2    1    3    3    0  502  0.49289853962E+03 -0.46528826494E+03  0.15621988668E+04  0.17029114596E+04  0.25500000920E-02 0. -1.
</event>
<event>
 5   0  0.7754912E-06  0.2731752E+04  0.7818609E-02  0.8324776E-01
       -1   -1    0    0    0  501  0.00000000000E+00  0.00000000000E+00  0.14259103156E+04  0.14259103156E+04  0.50400001928E-02 0. -1.
        1   -1    0    0  501    0  0.00000000000E+00  0.00000000000E+00 -0.13083688898E+04  0.13083688898E+04  0.50400001928E-02 0.  1.
    10030    2    1    2    0    0  0.00000000000E+00  0.00000000000E+00  0.11754142575E+03  0.27342792054E+04  0.27317515968E+04 0.  0.
        4    1    3    3  502    0 -0.95630870462E+02  0.30644222611E+03  0.13876146412E+04  0.14242640579E+04  0.12699999809E+01 0. -1.
       -4    1    3    3    0  502  0.95630870462E+02 -0.30644222611E+03 -0.12700732154E+04  0.13100151475E+04  0.12699999809E+01 0.  1.
</event>
<event>
 5   0  0.7754912E-06  0.2726804E+04  0.7818609E-02  0.8326360E-01
       -1   -1    0    0    0  501  0.00000000000E+00  0.00000000000E+00  0.13999106750E+04  0.13999106750E+04  0.50400001928E-02 0.  1.
        1   -1    0    0  501    0  0.00000000000E+00  0.00000000000E+00 -0.13278449964E+04  0.13278449964E+04  0.50400001928E-02 0. -1.
    10030    2    1    2    0    0  0.00000000000E+00  0.00000000000E+00  0.72065678632E+02  0.27277556714E+04  0.27268035391E+04 0.  0.
        4    1    3    3  502    0  0.77243132415E+03  0.93202742163E+03  0.66357756457E+03  0.13804571932E+04  0.12699999809E+01 0. -1.
       -4    1    3    3    0  502 -0.77243132415E+03 -0.93202742163E+03 -0.59151188594E+03  0.13472984782E+04  0.12699999809E+01 0.  1.
</event>
<event>
 5   0  0.7348964E-06  0.2728226E+04  0.7818609E-02  0.8325904E-01
       -1   -1    0    0    0  501  0.00000000000E+00  0.00000000000E+00  0.16899096844E+04  0.16899096844E+04  0.50400001928E-02 0. -1.
        1   -1    0    0  501    0  0.00000000000E+00  0.00000000000E+00 -0.11011264743E+04  0.11011264743E+04  0.50400001928E-02 0.  1.
    10030    2    1    2    0    0  0.00000000000E+00  0.00000000000E+00  0.58878321009E+03  0.27910361588E+04  0.27282260117E+04 0.  0.
        1    1    3    3  502    0 -0.17993120570E+03  0.11816611858E+04  0.96687290747E+03  0.15373814152E+04  0.50400001928E-02 0. -1.
       -1    1    3    3    0  502  0.17993120570E+03 -0.11816611858E+04 -0.37808969738E+03  0.12536547435E+04  0.50400001928E-02 0.  1.
</event>
<event>
 5   0  0.6804685E-06  0.2720779E+04  0.7818609E-02  0.8328294E-01
        1   -1    0    0  501    0  0.00000000000E+00  0.00000000000E+00  0.13978066610E+04  0.13978066610E+04  0.50400001928E-02 0. -1.
       -1   -1    0    0    0  501  0.00000000000E+00  0.00000000000E+00 -0.13239738463E+04  0.13239738463E+04  0.50400001928E-02 0.  1.
    10030    2    1    2    0    0  0.00000000000E+00  0.00000000000E+00  0.73832814738E+02  0.27217805073E+04  0.27207789041E+04 0.  0.
        2    1    3    3  502    0  0.12883891057E+03  0.89059996314E+03  0.10575329917E+04  0.13885761728E+04  0.25500000920E-02 0. -1.
       -2    1    3    3    0  502 -0.12883891057E+03 -0.89059996314E+03 -0.98370017696E+03  0.13332043344E+04  0.25500000920E-02 0.  1.
</event>
<event>
 5   0  0.6804685E-06  0.2632217E+04  0.7818609E-02  0.8357340E-01
        1   -1    0    0  501    0  0.00000000000E+00  0.00000000000E+00  0.15744907970E+04  0.15744907970E+04  0.50400001928E-02 0. -1.
       -1   -1    0    0    0  501  0.00000000000E+00  0.00000000000E+00 -0.11001277897E+04  0.11001277897E+04  0.50400001928E-02 0.  1.
    10030    2    1    2    0    0  0.00000000000E+00  0.00000000000E+00  0.47436300726E+03  0.26746185867E+04  0.26322166175E+04 0.  0.
        2    1    3    3  502    0  0.83137456176E+03  0.43272357814E+03 -0.70166552688E+03  0.11707979623E+04  0.25500000920E-02 0.  1.
       -2    1    3    3    0  502 -0.83137456176E+03 -0.43272357814E+03  0.11760285341E+04  0.15038206243E+04  0.25500000920E-02 0. -1.
</event>
<event>
 5   0  0.1931119E-05  0.2710628E+04  0.7818609E-02  0.8331565E-01
        2   -1    0    0  501    0  0.00000000000E+00  0.00000000000E+00  0.14441672011E+04  0.14441672011E+04  0.25500000920E-02 0. -1.
       -2   -1    0    0    0  501  0.00000000000E+00  0.00000000000E+00 -0.12719275619E+04  0.12719275619E+04  0.25500000920E-02 0.  1.
    10030    2    1    2    0    0  0.00000000000E+00  0.00000000000E+00  0.17223963919E+03  0.27160947629E+04  0.27106280210E+04 0.  0.
        3    1    3    3  502    0  0.73564100944E+03  0.17245380909E+01 -0.10544664179E+04  0.12857177394E+04  0.10100000352E+00 0.  1.
       -3    1    3    3    0  502 -0.73564100944E+03 -0.17245380909E+01  0.12267060571E+04  0.14303770235E+04  0.10100000352E+00 0. -1.
</event>
<event>
 5   0  0.1878160E-05  0.2676408E+04  0.7818609E-02  0.8342700E-01
        2   -1    0    0  501    0  0.00000000000E+00  0.00000000000E+00  0.15472849458E+04  0.15472849459E+04  0.25500000920E-02 0. -1.
       -2   -1    0    0    0  501  0.00000000000E+00  0.00000000000E+00 -0.11573760270E+04  0.11573760270E+04  0.25500000920E-02 0.  1.
    10030    2    1    2    0    0  0.00000000000E+00  0.00000000000E+00  0.38990891884E+03  0.27046609729E+04  0.26764084167E+04 0.  0.
        1    1    3    3  502    0 -0.57039142821E+03  0.11743508522E+04  0.49190014993E+03  0.13951387254E+04  0.50400001928E-02 0. -1.
       -1    1    3    3    0  502  0.57039142821E+03 -0.11743508522E+04 -0.10199123109E+03  0.13095222475E+04  0.50400001928E-02 0.  1.
</event>
<event>
 5   0  0.1931119E-05  0.2696335E+04  0.7818609E-02  0.8336195E-01
       -2   -1    0    0    0  501  0.00000000000E+00  0.00000000000E+00  0.78602614285E+03  0.78602614286E+03  0.25500000920E-02 0. -1.
        2   -1    0    0  501    0  0.00000000000E+00  0.00000000000E+00 -0.23123345695E+04  0.23123345695E+04  0.25500000920E-02 0.  1.
    10030    2    1    2    0    0  0.00000000000E+00  0.00000000000E+00 -0.15263084266E+04  0.30983607123E+04  0.26963348625E+04 0.  0.
        3    1    3    3  502    0 -0.96866049333E+03 -0.45503447419E+03  0.17896546682E+03  0.10850751921E+04  0.10100000352E+00 0. -1.
       -3    1    3    3    0  502  0.96866049333E+03  0.45503447419E+03 -0.17052738934E+04  0.20132855202E+04  0.10100000352E+00 0.  1.
</event>
<event>
 5   0  0.7348964E-06  0.2652447E+04  0.7818609E-02  0.8350601E-01
       -1   -1    0    0    0  501  0.00000000000E+00  0.00000000000E+00  0.14449799691E+04  0.14449799691E+04  0.50400001928E-02 0. -1.
        1   -1    0    0  501    0  0.00000000000E+00  0.00000000000E+00 -0.12172271585E+04  0.12172271585E+04  0.50400001928E-02 0.  1.
    10030    2    1    2    0    0  0.00000000000E+00  0.00000000000E+00  0.22775281065E+03  0.26622071276E+04  0.26524470678E+04 0.  0.
        1    1    3    3  502    0  0.70764826793E+03 -0.94643697223E+03  0.71805474392E+03  0.13827912456E+04  0.50400001928E-02 0.  1.
       -1    1    3    3    0  502 -0.70764826793E+03  0.94643697223E+03 -0.49030193328E+03  0.12794158821E+04  0.50400001928E-02 0. -1.
</event>
<event>
 5   0  0.1788003E-05  0.2700066E+04  0.7818609E-02  0.8334984E-01
        2   -1    0    0  501    0  0.00000000000E+00  0.00000000000E+00  0.13069754208E+04  0.13069754208E+04  0.25500000920E-02 0. -1.
       -2   -1    0    0    0  501  0.00000000000E+00  0.00000000000E+00 -0.13945089463E+04  0.13945089463E+04  0.25500000920E-02 0.  1.
    10030    2    1    2    0    0  0.00000000000E+00  0.00000000000E+00 -0.87533525509E+02  0.27014843672E+04  0.27000658636E+04 0.  0.
        2    1    3    3  502    0  0.10439024178E+03  0.10674455050E+04 -0.86410707053E+03  0.13773228590E+04  0.25500000920E-02 0.  1.
       -2    1    3    3    0  502 -0.10439024178E+03 -0.10674455050E+04  0.77657354503E+03  0.13241615081E+04  0.25500000920E-02 0. -1.
</event>
<event>
 5   0  0.1788003E-05  0.2695581E+04  0.7818609E-02  0.8336440E-01
       -2   -1    0    0    0  501  0.00000000000E+00  0.00000000000E+00  0.67178968612E+03  0.67178968613E+03  0.25500000920E-02 0. -1.
        2   -1    0    0  501    0  0.00000000000E+00  0.00000000000E+00 -0.27040296364E+04  0.27040296364E+04  0.25500000920E-02 0.  1.
    10030    2    1    2    0    0  0.00000000000E+00  0.00000000000E+00 -0.20322399503E+04  0.33758193226E+04  0.26955809917E+04 0.  0.
        2    1    3    3  502    0 -0.12090145420E+04  0.44618400936E+03 -0.15103520433E+04  0.19854368858E+04  0.25500000920E-02 0. -1.
       -2    1    3    3    0  502  0.12090145420E+04 -0.44618400936E+03 -0.52188790700E+03  0.13903824367E+04  0.25500000920E-02 0.  1.
</event>
<event>
 5   0  0.7348964E-06  0.2691191E+04  0.7818609E-02  0.8337869E-01
        1   -1    0    0  501    0  0.00000000000E+00  0.00000000000E+00  0.12341168066E+04  0.12341168067E+04  0.50400001928E-02 0.  1.
       -1   -1    0    0    0  501  0.00000000000E+00  0.00000000000E+00 -0.14671440847E+04  0.14671440847E+04  0.50400001928E-02 0. -1.
    10030    2    1    2    0    0  0.00000000000E+00  0.00000000000E+00 -0.23302727806E+03  0.27012608914E+04  0.26911909428E+04 0.  0.
        1    1    3    3  502    0  0.31061465952E+03 -0.97161239214E+03 -0.99735931780E+03  0.14266175788E+04  0.50400001928E-02 0. -1.
       -1    1    3    3    0  502 -0.31061465952E+03  0.97161239214E+03  0.76433203974E+03  0.12746433126E+04  0.50400001928E-02 0.  1.
</event>
<event>
 5   0  0.7754912E-06  0.2662727E+04  0.7818609E-02  0.8347201E-01
        1   -1    0    0  501    0  0.00000000000E+00  0.00000000000E+00  0.24810268110E+04  0.24810268110E+04  0.50400001928E-02 0.  1.
       -1   -1    0    0    0  501  0.00000000000E+00  0.00000000000E+00 -0.71443335245E+03  0.71443335247E+03  0.50400001928E-02 0. -1.
    10030    2    1    2    0    0  0.00000000000E+00  0.00000000000E+00  0.17665934586E+04  0.31954601635E+04  0.26627266493E+04 0.  0.
        4    1    3    3  502    0  0.72172660483E+02  0.10085637306E+04 -0.15607602032E+03  0.10231182867E+04  0.12699999809E+01 0. -1.
       -4    1    3    3    0  502 -0.72172660483E+02 -0.10085637306E+04  0.19226694789E+04  0.21723418768E+04  0.12699999809E+01 0.  1.
</event>
<event>
 5   0  0.7600052E-06  0.2710062E+04  0.7818609E-02  0.8331748E-01
        1   -1    0    0  501    0  0.00000000000E+00  0.00000000000E+00  0.16587071899E+04  0.16587071899E+04  0.50400001928E-02 0.  1.
       -1   -1    0    0    0  501  0.00000000000E+00  0.00000000000E+00 -0.11069516402E+04  0.11069516402E+04  0.50400001928E-02 0. -1.
    10030    2    1    2    0    0  0.00000000000E+00  0.00000000000E+00  0.55175554968E+03  0.27656588301E+04  0.27100617296E+04 0.  0.
        5    1    3    3  502    0  0.56825280588E+03  0.62958085215E+03  0.13543470001E+04  0.15979866043E+04  0.46999998093E+01 0.  1.
       -5    1    3    3    0  502 -0.56825280588E+03 -0.62958085215E+03 -0.80259145041E+03  0.11676722259E+04  0.46999998093E+01 0. -1.
</event>
<event>
 5   0  0.1881699E-05  0.2184316E+04  0.7818609E-02  0.8524984E-01
       -2   -1    0    0    0  501  0.00000000000E+00  0.00000000000E+00  0.48646390597E+03  0.48646390598E+03  0.25500000920E-02 0.  1.
        2   -1    0    0  501    0  0.00000000000E+00  0.00000000000E+00 -0.24519999508E+04  0.24519999508E+04  0.25500000920E-02 0. -1.
    10030    2    1    2    0    0  0.00000000000E+00  0.00000000000E+00 -0.19655360448E+04  0.29384638568E+04  0.21843163448E+04 0.  0.
        4    1    3    3  502    0 -0.58535012427E+03 -0.76160875255E+03 -0.16819454017E+04  0.19369110995E+04  0.12699999809E+01 0. -1.
       -4    1    3    3    0  502  0.58535012427E+03  0.76160875255E+03 -0.28359064311E+03  0.10015527573E+04  0.12699999809E+01 0.  1.
</event>
<event>
 5   0  0.7600052E-06  0.2714840E+04  0.7818609E-02  0.8330206E-01
        1   -1    0    0  501    0  0.00000000000E+00  0.00000000000E+00  0.81488064064E+03  0.81488064066E+03  0.50400001928E-02 0.  1.
       -1   -1    0    0    0  501  0.00000000000E+00  0.00000000000E+00 -0.22611758858E+04  0.22611758858E+04  0.50400001928E-02 0. -1.
    10030    2    1    2    0    0  0.00000000000E+00  0.00000000000E+00 -0.14462952451E+04  0.30760565264E+04  0.27148395565E+04 0.  0.
        5    1    3    3  502    0 -0.32891715784E+03 -0.49340788782E+03  0.66035043991E+03  0.88753739863E+03  0.46999998093E+01 0.  1.
       -5    1    3    3    0  502  0.32891715784E+03  0.49340788782E+03 -0.21066456850E+04  0.21885191278E+04  0.46999998093E+01 0. -1.
</event>
<event>
 5   0  0.1878160E-05  0.2757432E+04  0.7818609E-02  0.8316607E-01
       -2   -1    0    0    0  501  0.00000000000E+00  0.00000000000E+00  0.85612400637E+03  0.85612400638E+03  0.25500000920E-02 0. -1.
        2   -1    0    0  501    0  0.00000000000E+00  0.00000000000E+00 -0.22203066209E+04  0.22203066209E+04  0.25500000920E-02 0.  1.
    10030    2    1    2    0    0  0.00000000000E+00  0.00000000000E+00 -0.13641826146E+04  0.30764306273E+04  0.27574319935E+04 0.  0.
        1    1    3    3  502    0 -0.11926727974E+04  0.60188884053E+03 -0.10622757787E+04  0.17068006351E+04  0.50400001928E-02 0. -1.
       -1    1    3    3    0  502  0.11926727974E+04 -0.60188884053E+03 -0.30190683585E+03  0.13696299922E+04  0.50400001928E-02 0.  1.
</event>
<event>
 5   0  0.7600052E-06  0.2689615E+04  0.7818609E-02  0.8338382E-01
       -1   -1    0    0    0  501  0.00000000000E+00  0.00000000000E+00  0.12086528066E+04  0.12086528067E+04  0.50400001928E-02 0.  1.
        1   -1    0    0  501    0  0.00000000000E+00  0.00000000000E+00 -0.14962998776E+04  0.14962998776E+04  0.50400001928E-02 0. -1.
    10030    2    1    2    0    0  0.00000000000E+00  0.00000000000E+00 -0.28764707096E+03  0.27049526843E+04  0.26896148770E+04 0.  0.
        5    1    3    3  502    0  0.80278450933E+03  0.49653391476E+03  0.81948840787E+03  0.12500368945E+04  0.46999998093E+01 0.  1.
       -5    1    3    3    0  502 -0.80278450933E+03 -0.49653391476E+03 -0.11071354788E+04  0.14549157898E+04  0.46999998093E+01 0. -1.
</event>
<event>
 5   0  0.7351590E-06  0.2712385E+04  0.7818609E-02  0.8330998E-01
        1   -1    0    0  501    0  0.00000000000E+00  0.00000000000E+00  0.14373878455E+04  0.14373878455E+04  0.50400001928E-02 0.  1.
       -1   -1    0    0    0  501  0.00000000000E+00  0.00000000000E+00 -0.12795835785E+04  0.12795835785E+04  0.50400001928E-02 0. -1.
    10030    2    1    2    0    0  0.00000000000E+00  0.00000000000E+00  0.15780426699E+03  0.27169714241E+04  0.27123848423E+04 0.  0.
        3    1    3    3  502    0  0.22411761172E+03  0.13371070998E+04  0.11322043484E+03  0.13604789514E+04  0.10100000352E+00 0. -1.
       -3    1    3    3    0  502 -0.22411761172E+03 -0.13371070998E+04  0.44583832153E+02  0.13564924727E+04  0.10100000352E+00 0.  1.
</event>
<event>
 5   0  0.7351590E-06  0.2532174E+04  0.7818609E-02  0.8391612E-01
        1   -1    0    0  501    0  0.00000000000E+00  0.00000000000E+00  0.81709725480E+03  0.81709725482E+03  0.50400001928E-02 0. -1.
       -1   -1    0    0    0  501  0.00000000000E+00  0.00000000000E+00 -0.19617934702E+04  0.19617934702E+04  0.50400001928E-02 0.  1.
    10030    2    1    2    0    0  0.00000000000E+00  0.00000000000E+00 -0.11446962154E+04  0.27788907250E+04  0.25321738163E+04 0.  0.
        3    1    3    3  502    0  0.48117667482E+03  0.48211240441E+03  0.59888202229E+03  0.90698569432E+03  0.10100000352E+00 0. -1.
       -3    1    3    3    0  502 -0.48117667482E+03 -0.48211240441E+03 -0.17435782377E+04  0.18719050307E+04  0.10100000352E+00 0.  1.
</event>
<event>
 5   0  0.6175875E-06  0.2277828E+04  0.7818609E-02  0.8486715E-01
        3   -1    0    0  501    0  0.00000000000E+00  0.00000000000E+00  0.10420607849E+04  0.10420607898E+04  0.10100000352E+00 0. -1.
       -3   -1    0    0    0  501  0.00000000000E+00  0.00000000000E+00 -0.12447686559E+04  0.12447686600E+04  0.10100000352E+00 0.  1.
    10030    2    1    2    0    0  0.00000000000E+00  0.00000000000E+00 -0.20270787101E+03  0.22868294499E+04  0.22778275729E+04 0.  0.
        2    1    3    3  502    0 -0.33843507770E+03  0.62341093858E+03  0.79320337778E+03  0.10641198704E+04  0.25500000920E-02 0. -1.
       -2    1    3    3    0  502  0.33843507770E+03 -0.62341093858E+03 -0.99591124878E+03  0.12227095794E+04  0.25500000920E-02 0.  1.
</event>
<event>
 5   0  0.1881699E-05  0.2778950E+04  0.7818609E-02  0.8309833E-01
       -2   -1    0    0    0  501  0.00000000000E+00  0.00000000000E+00  0.10661019507E+04  0.10661019507E+04  0.25500000920E-02 0.  1.
        2   -1    0    0  501    0  0.00000000000E+00  0.00000000000E+00 -0.18109344062E+04  0.18109344062E+04  0.25500000920E-02 0. -1.
    10030    2    1    2    0    0  0.00000000000E+00  0.00000000000E+00 -0.74483245554E+03  0.28770363569E+04  0.27789499477E+04 0.  0.
        4    1    3    3  502    0 -0.49129378888E+03 -0.10407409979E+04  0.43360537819E+03  0.12298482217E+04  0.12699999809E+01 0.  1.
       -4    1    3    3    0  502  0.49129378888E+03  0.10407409979E+04 -0.11784378337E+04  0.16471881351E+04  0.12699999809E+01 0. -1.
</event>
<event>
 5   0  0.1931119E-05  0.2678383E+04  0.7818609E-02  0.8342053E-01
       -2   -1    0    0    0  501  0.00000000000E+00  0.00000000000E+00  0.90295347573E+03  0.90295347573E+03  0.25500000920E-02 0.  1.
        2   -1    0    0  501    0  0.00000000000E+00  0.00000000000E+00 -0.19861864383E+04  0.19861864383E+04  0.25500000920E-02 0. -1.
    10030    2    1    2    0    0  0.00000000000E+00  0.00000000000E+00 -0.10832329626E+04  0.28891399141E+04  0.26783830554E+04 0.  0.
        3    1    3    3  502    0 -0.11239007900E+04  0.31061483380E+03 -0.12520776525E+04  0.17109450659E+04  0.10100000352E+00 0. -1.
       -3    1    3    3    0  502  0.11239007900E+04 -0.31061483380E+03  0.16884468987E+03  0.11781948481E+04  0.10100000352E+00 0.  1.
</event>
<event>
 5   0  0.1788003E-05  0.2545183E+04  0.7818609E-02  0.8387063E-01
        2   -1    0    0  501    0  0.00000000000E+00  0.00000000000E+00  0.14248493690E+04  0.14248493690E+04  0.25500000920E-02 0. -1.
       -2   -1    0    0    0  501  0.00000000000E+00  0.00000000000E+00 -0.11366034759E+04  0.11366034759E+04  0.25500000920E-02 0.  1.
    10030    2    1    2    0    0  0.00000000000E+00  0.00000000000E+00  0.28824589304E+03  0.25614528449E+04  0.25451827010E+04 0.  0.
        2    1    3    3  502    0 -0.11169955597E+04 -0.57508250592E+03 -0.59878990608E+02  0.12577696381E+04  0.25500000920E-02 0.  1.
       -2    1    3    3    0  502  0.11169955597E+04  0.57508250592E+03  0.34812488364E+03  0.13036832068E+04  0.25500000920E-02 0. -1.
</event>
<event>
 5   0  0.1878160E-05  0.2750761E+04  0.7818609E-02  0.8318720E-01
        2   -1    0    0  501    0  0.00000000000E+00  0.00000000000E+00  0.30362082640E+04  0.30362082640E+04  0.25500000920E-02 0.  1.
       -2   -1    0    0    0  501  0.00000000000E+00  0.00000000000E+00 -0.62303760228E+03  0.62303760228E+03  0.25500000920E-02 0. -1.
    10030    2    1    2    0    0  0.00000000000E+00  0.00000000000E+00  0.24131706617E+04  0.36592458662E+04  0.27507612887E+04 0.  0.
        1    1    3    3  502    0 -0.12892758157E+04 -0.44782616583E+03  0.14326974445E+04  0.19787375701E+04  0.50400001928E-02 0.  1.
       -1    1    3    3    0  502  0.12892758157E+04  0.44782616583E+03  0.98047321717E+03  0.16805082961E+04  0.50400001928E-02 0. -1.
</event>
<event>
 5   0  0.1826851E-05  0.2741314E+04  0.7818609E-02  0.8321723E-01
        2   -1    0    0  501    0  0.00000000000E+00  0.00000000000E+00  0.16295680333E+04  0.16295680333E+04  0.25500000920E-02 0.  1.
       -2   -1    0    0    0  501  0.00000000000E+00  0.00000000000E+00 -0.11528828072E+04  0.11528828072E+04  0.25500000920E-02 0. -1.
    10030    2    1    2    0    0  0.00000000000E+00  0.00000000000E+00  0.47668522605E+03  0.27824508405E+04  0.27413142605E+04 0.  0.
        5    1    3    3  502    0 -0.98017008656E+03 -0.35689812528E+03 -0.66413954003E+03  0.12366135569E+04  0.46999998093E+01 0. -1.
       -5    1    3    3    0  502  0.98017008656E+03  0.35689812528E+03  0.11408247661E+04  0.15458372836E+04  0.46999998093E+01 0.  1.
</event>
<event>
 5   0  0.1931119E-05  0.2697704E+04  0.7818609E-02  0.8335750E-01
       -2   -1    0    0    0  501  0.00000000000E+00  0.00000000000E+00  0.89928663209E+03  0.89928663209E+03  0.25500000920E-02 0.  1.
        2   -1    0    0  501    0  0.00000000000E+00  0.00000000000E+00 -0.20231606087E+04  0.20231606087E+04  0.25500000920E-02 0. -1.
    10030    2    1    2    0    0  0.00000000000E+00  0.00000000000E+00 -0.11238739766E+04  0.29224472408E+04  0.26977036828E+04 0.  0.
        3    1    3    3  502    0  0.28189489888E+03 -0.27953369164E+03  0.83456474888E+03  0.92417647073E+03  0.10100000352E+00 0.  1.
       -3    1    3    3    0  502 -0.28189489888E+03  0.27953369164E+03 -0.19584387255E+04  0.19982707701E+04  0.10100000352E+00 0. -1.
</event>
<event>
 5   0  0.7351590E-06  0.2639938E+04  0.7818609E-02  0.8354760E-01
       -1   -1    0    0    0  501  0.00000000000E+00  0.00000000000E+00  0.11637882410E+04  0.11637882410E+04  0.50400001928E-02 0.  1.
        1   -1    0    0  501    0  0.00000000000E+00  0.00000000000E+00 -0.14971090685E+04  0.14971090685E+04  0.50400001928E-02 0. -1.
    10030    2    1    2    0    0  0.00000000000E+00  0.00000000000E+00 -0.33332082749E+03  0.26608973095E+04  0.26399378246E+04 0.  0.
        3    1    3    3  502    0 -0.83341421255E+01  0.79620556448E+03  0.89445859264E+03  0.11975261763E+04  0.10100000352E+00 0.  1.
       -3    1    3    3    0  502  0.83341421255E+01 -0.79620556448E+03 -0.12277794201E+04  0.14633711332E+04  0.10100000352E+00 0. -1.
</event>
<event>
 5   0  0.7351590E-06  0.2622276E+04  0.7818609E-02  0.8360674E-01
        1   -1    0    0  501    0  0.00000000000E+00  0.00000000000E+00  0.93551570953E+03  0.93551570955E+03  0.50400001928E-02 0. -1.
       -1   -1    0    0    0  501  0.00000000000E+00  0.00000000000E+00 -0.18375778336E+04  0.18375778337E+04  0.50400001928E-02 0.  1.
    10030    2    1    2    0    0  0.00000000000E+00  0.00000000000E+00 -0.90206212411E+03  0.27730935432E+04  0.26222760579E+04 0.  0.
        3    1    3    3  502    0  0.75695133176E+03  0.34143536230E+03 -0.15240453541E+04  0.17355885678E+04  0.10100000352E+00 0.  1.
       -3    1    3    3    0  502 -0.75695133176E+03 -0.34143536230E+03  0.62198322999E+03  0.10375049754E+04  0.10100000352E+00 0. -1.
</event>
<event>
 5   0  0.7600052E-06  0.2635965E+04  0.7818609E-02  0.8356086E-01
       -1   -1    0    0    0  501  0.00000000000E+00  0.00000000000E+00  0.24653450371E+04  0.24653450371E+04  0.50400001928E-02 0. -1.
        1   -1    0    0  501    0  0.00000000000E+00  0.00000000000E+00 -0.70459845144E+03  0.70459845145E+03  0.50400001928E-02 0.  1.
    10030    2    1    2    0    0  0.00000000000E+00  0.00000000000E+00  0.17607465857E+04  0.31699434886E+04  0.26359653226E+04 0.  0.
        5    1    3    3  502    0 -0.51609981130E+03 -0.10128131860E+04  0.78240500472E+02  0.11394267115E+04  0.46999998093E+01 0.  1.
       -5    1    3    3    0  502  0.51609981130E+03  0.10128131860E+04  0.16825060852E+04  0.20305167770E+04  0.46999998093E+01 0. -1.
</event>
<event>
 5   0  0.7351590E-06  0.2657019E+04  0.7818609E-02  0.8349087E-01
        1   -1    0    0  501    0  0.00000000000E+00  0.00000000000E+00  0.93774239265E+03  0.93774239266E+03  0.50400001928E-02 0. -1.
       -1   -1    0    0    0  501  0.00000000000E+00  0.00000000000E+00 -0.18821136574E+04  0.18821136574E+04  0.50400001928E-02 0.  1.
    10030    2    1    2    0    0  0.00000000000E+00  0.00000000000E+00 -0.94437126473E+03  0.28198560500E+04  0.26570192053E+04 0.  0.
        3    1    3    3  502    0 -0.31824442097E+03 -0.69086415039E+03  0.68377063033E+03  0.10227976686E+04  0.10100000352E+00 0. -1.
       -3    1    3    3    0  502  0.31824442097E+03  0.69086415039E+03 -0.16281418951E+04  0.17970583815E+04  0.10100000352E+00 0.  1.
</event>
<event>
 5   0  0.1788003E-05  0.2692377E+04  0.7818609E-02  0.8337482E-01
        2   -1    0    0  501    0  0.00000000000E+00  0.00000000000E+00  0.23236737320E+04  0.23236737320E+04  0.25500000920E-02 0.  1.
       -2   -1    0    0    0  501  0.00000000000E+00  0.00000000000E+00 -0.77989610068E+03  0.77989610069E+03  0.25500000920E-02 0. -1.
    10030    2    1    2    0    0  0.00000000000E+00  0.00000000000E+00  0.15437776313E+04  0.31035698327E+04  0.26923774497E+04 0.  0.
        2    1    3    3  502    0 -0.88402549735E+03  0.10102030996E+04  0.65539687694E+03  0.14938394990E+04  0.25500000920E-02 0. -1.
       -2    1    3    3    0  502  0.88402549735E+03 -0.10102030996E+04  0.88838075439E+03  0.16097303337E+04  0.25500000920E-02 0.  1.
</event>
<event>
 5   0  0.1931119E-05  0.2267230E+04  0.7818609E-02  0.8490955E-01
       -2   -1    0    0    0  501  0.00000000000E+00  0.00000000000E+00  0.71407915510E+03  0.71407915511E+03  0.25500000920E-02 0. -1.
        2   -1    0    0  501    0  0.00000000000E+00  0.00000000000E+00 -0.17996369656E+04  0.17996369656E+04  0.25500000920E-02 0.  1.
    10030    2    1    2    0    0  0.00000000000E+00  0.00000000000E+00 -0.10855578105E+04  0.25137161207E+04  0.22672302432E+04 0.  0.
        3    1    3    3  502    0 -0.35177184712E+03 -0.96633566609E+03 -0.13913836776E+02  0.10284656810E+04  0.10100000352E+00 0.  1.
       -3    1    3    3    0  502  0.35177184712E+03  0.96633566609E+03 -0.10716439737E+04  0.14852504397E+04  0.10100000352E+00 0. -1.
</event>
<event>
 5   0  0.7351590E-06  0.2737794E+04  0.7818609E-02  0.8322845E-01
        1   -1    0    0  501    0  0.00000000000E+00  0.00000000000E+00  0.15173331542E+04  0.15173331542E+04  0.50400001928E-02 0.  1.
       -1   -1    0    0    0  501  0.00000000000E+00  0.00000000000E+00 -0.12349819268E+04  0.12349819268E+04  0.50400001928E-02 0. -1.
    10030    2    1    2    0    0  0.00000000000E+00  0.00000000000E+00  0.28235122747E+03  0.27523150810E+04  0.27377940188E+04 0.  0.
        3    1    3    3  502    0  0.10841271544E+04 -0.79937144027E+03  0.38650401978E+03  0.14013249994E+04  0.10100000352E+00 0. -1.
       -3    1    3    3    0  502 -0.10841271544E+04  0.79937144027E+03 -0.10415279231E+03  0.13509900816E+04  0.10100000352E+00 0.  1.
</event>
<event>
 5   0  0.6804685E-06  0.2610932E+04  0.7818609E-02  0.8364497E-01
        1   -1    0    0  501    0  0.00000000000E+00  0.00000000000E+00  0.65730887908E+03  0.65730887910E+03  0.50400001928E-02 0. -1.
       -1   -1    0    0    0  501  0.00000000000E+00  0.00000000000E+00 -0.25927553131E+04  0.25927553131E+04  0.50400001928E-02 0.  1.
    10030    2    1    2    0    0  0.00000000000E+00  0.00000000000E+00 -0.19354464340E+04  0.32500641922E+04  0.26109317024E+04 0.  0.
        2    1    3    3  502    0 -0.31766819124E+03 -0.12119167152E+04 -0.51105984029E+03  0.13530843893E+04  0.25500000920E-02 0. -1.
       -2    1    3    3    0  502  0.31766819124E+03  0.12119167152E+04 -0.14243865937E+04  0.18969798029E+04  0.25500000920E-02 0.  1.
</event>
<event>
 5   0  0.1788003E-05  0.2608652E+04  0.7818609E-02  0.8365268E-01
        2   -1    0    0  501    0  0.00000000000E+00  0.00000000000E+00  0.18918814892E+04  0.18918814892E+04  0.25500000920E-02 0. -1.
       -2   -1    0    0    0  501  0.00000000000E+00  0.00000000000E+00 -0.89924584053E+03  0.89924584053E+03  0.25500000920E-02 0.  1.
    10030    2    1    2    0    0  0.00000000000E+00  0.00000000000E+00  0.99263564871E+03  0.27911273298E+04  0.26086521884E+04 0.  0.
        2    1    3    3  502    0  0.12208142727E+04 -0.33291183410E+03  0.15788741879E+03  0.12752043815E+04  0.25500000920E-02 0.  1.
       -2    1    3    3    0  502 -0.12208142727E+04  0.33291183410E+03  0.83474822992E+03  0.15159229482E+04  0.25500000920E-02 0. -1.
</event>
<event>
 5   0  0.7754912E-06  0.2579294E+04  0.7818609E-02  0.8375269E-01
       -1   -1    0    0    0  501  0.00000000000E+00  0.00000000000E+00  0.11039327064E+04  0.11039327064E+04  0.50400001928E-02 0. -1.
        1   -1    0    0  501    0  0.00000000000E+00  0.00000000000E+00 -0.15066043089E+04  0.15066043089E+04  0.50400001928E-02 0.  1.
    10030    2    1    2    0    0  0.00000000000E+00  0.00000000000E+00 -0.40267160252E+03  0.26105370153E+04  0.25792943005E+04 0.  0.
        4    1    3    3  502    0 -0.78502509302E+03 -0.45410613457E+03  0.72667369517E+03  0.11621243695E+04  0.12699999809E+01 0.  1.
       -4    1    3    3    0  502  0.78502509302E+03  0.45410613457E+03 -0.11293452977E+04  0.14484126458E+04  0.12699999809E+01 0. -1.
</event>
<event>
 5   0  0.1878160E-05  0.2686545E+04  0.7818609E-02  0.8339384E-01
        2   -1    0    0  501    0  0.00000000000E+00  0.00000000000E+00  0.18394875617E+04  0.18394875617E+04  0.25500000920E-02 0.  1.
       -2   -1    0    0    0  501  0.00000000000E+00  0.00000000000E+00 -0.98091474733E+03  0.98091474734E+03  0.25500000920E-02 0. -1.
    10030    2    1    2    0    0  0.00000000000E+00  0.00000000000E+00  0.85857281433E+03  0.28204023090E+04  0.26865446036E+04 0.  0.
        1    1    3    3  502    0  0.73156077425E+03 -0.72578346213E+03  0.13338664618E+04  0.16855689064E+04  0.50400001928E-02 0.  1.
       -1    1    3    3    0  502 -0.73156077425E+03  0.72578346213E+03 -0.47529364745E+03  0.11348334026E+04  0.50400001928E-02 0. -1.
</event>
<event>
 5   0  0.7754912E-06  0.2438385E+04  0.7818609E-02  0.8425271E-01
       -1   -1    0    0    0  501  0.00000000000E+00  0.00000000000E+00  0.53943344969E+03  0.53943344971E+03  0.50400001928E-02 0.  1.
        1   -1    0    0  501    0  0.00000000000E+00  0.00000000000E+00 -0.27555397987E+04  0.27555397987E+04  0.50400001928E-02 0. -1.
    10030    2    1    2    0    0  0.00000000000E+00  0.00000000000E+00 -0.22161063490E+04  0.32949732484E+04  0.24383849896E+04 0.  0.
        4    1    3    3  502    0 -0.93786524723E+03 -0.10327860569E+03 -0.64691085453E+02  0.94575062347E+03  0.12699999809E+01 0.  1.
       -4    1    3    3    0  502  0.93786524723E+03  0.10327860569E+03 -0.21514152635E+04  0.23492226249E+04  0.12699999809E+01 0. -1.
</event>
<event>
 5   0  0.7351590E-06  0.2683622E+04  0.7818609E-02  0.8340339E-01
       -1   -1    0    0    0  501  0.00000000000E+00  0.00000000000E+00  0.93657111470E+03  0.93657111471E+03  0.50400001928E-02 0. -1.
        1   -1    0    0  501    0  0.00000000000E+00  0.00000000000E+00 -0.19223918562E+04  0.19223918562E+04  0.50400001928E-02 0.  1.
    10030    2    1    2    0    0  0.00000000000E+00  0.00000000000E+00 -0.98582074149E+03  0.28589629709E+04  0.26836219433E+04 0.  0.
        3    1    3    3  502    0 -0.51249613931E+03  0.12378033838E+04 -0.57296793717E+03  0.14570867431E+04  0.10100000352E+00 0.  1.
       -3    1    3    3    0  502  0.51249613931E+03 -0.12378033838E+04 -0.41285280432E+03  0.14018762278E+04  0.10100000352E+00 0. -1.
</event>
<event>
 5   0  0.6804685E-06  0.2689519E+04  0.7818609E-02  0.8338414E-01
        1   -1    0    0  501    0  0.00000000000E+00  0.00000000000E+00  0.28178243956E+04  0.28178243956E+04  0.50400001928E-02 0.  1.
       -1   -1    0    0    0  501  0.00000000000E+00  0.00000000000E+00 -0.64176384661E+03  0.64176384663E+03  0.50400001928E-02 0. -1.
    10030    2    1    2    0    0  0.00000000000E+00  0.00000000000E+00  0.21760605490E+04  0.34595882422E+04  0.26895187847E+04 0.  0.
        2    1    3    3  502    0 -0.83498882208E+03 -0.91670459535E+03  0.17574423542E+04  0.21508503613E+04  0.25500000920E-02 0.  1.
       -2    1    3    3    0  502  0.83498882208E+03  0.91670459535E+03  0.41861819478E+03  0.13087378810E+04  0.25500000920E-02 0. -1.
</event>
<event>
 5   0  0.1878160E-05  0.2733935E+04  0.7818609E-02  0.8324077E-01
       -2   -1    0    0    0  501  0.00000000000E+00  0.00000000000E+00  0.85370851090E+03  0.85370851090E+03  0.25500000920E-02 0.  1.
        2   -1    0    0  501    0  0.00000000000E+00  0.00000000000E+00 -0.21888036831E+04  0.21888036831E+04  0.25500000920E-02 0. -1.
    10030    2    1    2    0    0  0.00000000000E+00  0.00000000000E+00 -0.13350951722E+04  0.30425121940E+04  0.27339351367E+04 0.  0.
        1    1    3    3  502    0 -0.10928273585E+04  0.34501303555E+03 -0.14968365505E+04  0.18851592212E+04  0.50400001928E-02 0. -1.
       -1    1    3    3    0  502  0.10928273585E+04 -0.34501303555E+03  0.16174137828E+03  0.11573529728E+04  0.50400001928E-02 0.  1.
</event>
<event>
 5   0  0.1826851E-05  0.2689738E+04  0.7818609E-02  0.8338342E-01
        2   -1    0    0  501    0  0.00000000000E+00  0.00000000000E+00  0.22247220791E+04  0.22247220791E+04  0.25500000920E-02 0. -1.
       -2   -1    0    0    0  501  0.00000000000E+00  0.00000000000E+00 -0.81298816228E+03  0.81298816228E+03  0.25500000920E-02 0.  1.
    10030    2    1    2    0    0  0.00000000000E+00  0.00000000000E+00  0.14117339169E+04  0.30377102414E+04  0.26897380651E+04 0.  0.
        5    1    3    3  502    0  0.11532314830E+04 -0.15447648300E+03 -0.55805000518E+02  0.11648785882E+04  0.46999998093E+01 0. -1.
       -5    1    3    3    0  502 -0.11532314830E+04  0.15447648300E+03  0.14675389174E+04  0.18728316532E+04  0.46999998093E+01 0.  1.
</event>
<event>
 5   0  0.7600052E-06  0.2718210E+04  0.7818609E-02  0.8329121E-01
       -1   -1    0    0    0  501  0.00000000000E+00  0.00000000000E+00  0.11204156053E+04  0.11204156053E+04  0.50400001928E-02 0. -1.
        1   -1    0    0  501    0  0.00000000000E+00  0.00000000000E+00 -0.16486434205E+04  0.16486434205E+04  0.50400001928E-02 0.  1.
    10030    2    1    2    0    0  0.00000000000E+00  0.00000000000E+00 -0.52822781518E+03  0.27690590258E+04  0.27182095695E+04 0.  0.
        5    1    3    3  502    0 -0.13518557109E+04  0.13712100655E+03 -0.29342174345E+03  0.13901202981E+04  0.46999998093E+01 0.  1.
       -5    1    3    3    0  502  0.13518557109E+04 -0.13712100655E+03 -0.23480607172E+03  0.13789387277E+04  0.46999998093E+01 0. -1.
</event>
<event>
 5   0  0.1881699E-05  0.2722693E+04  0.7818609E-02  0.8327679E-01
        2   -1    0    0  501    0  0.00000000000E+00  0.00000000000E+00  0.16564501752E+04  0.16564501752E+04  0.25500000920E-02 0. -1.
       -2   -1    0    0    0  501  0.00000000000E+00  0.00000000000E+00 -0.11188168164E+04  0.11188168164E+04  0.25500000920E-02 0.  1.
    10030    2    1    2    0    0  0.00000000000E+00  0.00000000000E+00  0.53763335875E+03  0.27752669916E+04  0.27226930136E+04 0.  0.
        4    1    3    3  502    0  0.12407616260E+04  0.52335225923E+03  0.47236158935E+03  0.14270648492E+04  0.12699999809E+01 0.  1.
       -4    1    3    3    0  502 -0.12407616260E+04 -0.52335225923E+03  0.65271769407E+02  0.13482021424E+04  0.12699999809E+01 0. -1.
</event>
<event>
 5   0  0.7348964E-06  0.2731955E+04  0.7818609E-02  0.8324711E-01
        1   -1    0    0  501    0  0.00000000000E+00  0.00000000000E+00  0.11263454031E+04  0.11263454031E+04  0.50400001928E-02 0.  1.
       -1   -1    0    0    0  501  0.00000000000E+00  0.00000000000E+00 -0.16565918643E+04  0.16565918643E+04  0.50400001928E-02 0. -1.
    10030    2    1    2    0    0  0.00000000000E+00  0.00000000000E+00 -0.53024646125E+03  0.27829372674E+04  0.27319550737E+04 0.  0.
        1    1    3    3  502    0 -0.11320382194E+04 -0.34516694240E+03 -0.95993985230E+03  0.15238553961E+04  0.50400001928E-02 0. -1.
       -1    1    3    3    0  502  0.11320382194E+04  0.34516694240E+03  0.42969339104E+03  0.12590818713E+04  0.50400001928E-02 0.  1.
</event>
<event>
 5   0  0.7600052E-06  0.2700494E+04  0.7818609E-02  0.8334845E-01
        1   -1    0    0  501    0  0.00000000000E+00  0.00000000000E+00  0.13541846633E+04  0.13541846633E+04  0.50400001928E-02 0.  1.
       -1   -1    0    0    0  501  0.00000000000E+00  0.00000000000E+00 -0.13463210668E+04  0.13463210668E+04  0.50400001928E-02 0. -1.
    10030    2    1    2    0    0  0.00000000000E+00  0.00000000000E+00  0.78635965790E+01  0.27005057301E+04  0.27004942811E+04 0.  0.
        5    1    3    3  502    0  0.94433150463E+03 -0.85174946949E+03  0.45770249706E+03  0.13515741989E+04  0.46999998093E+01 0.  1.
       -5    1    3    3    0  502 -0.94433150463E+03  0.85174946949E+03 -0.44983890048E+03  0.13489315312E+04  0.46999998093E+01 0. -1.
</event>
<event>
 5   0  0.6804685E-06  0.2689157E+04  0.7818609E-02  0.8338532E-01
       -1   -1    0    0    0  501  0.00000000000E+00  0.00000000000E+00  0.11475608843E+04  0.11475608843E+04  0.50400001928E-02 0.  1.
        1   -1    0    0  501    0  0.00000000000E+00  0.00000000000E+00 -0.15754202723E+04  0.15754202723E+04  0.50400001928E-02 0. -1.
    10030    2    1    2    0    0  0.00000000000E+00  0.00000000000E+00 -0.42785938803E+03  0.27229811566E+04  0.26891565078E+04 0.  0.
        2    1    3    3  502    0  0.74535092679E+03  0.11168511156E+04 -0.28543135346E+03  0.13727255647E+04  0.25500000920E-02 0. -1.
       -2    1    3    3    0  502 -0.74535092679E+03 -0.11168511156E+04 -0.14242803457E+03  0.13502555919E+04  0.25500000920E-02 0.  1.
</event>
<event>
 5   0  0.6804685E-06  0.2685284E+04  0.7818609E-02  0.8339796E-01
        1   -1    0    0  501    0  0.00000000000E+00  0.00000000000E+00  0.12691590395E+04  0.12691590395E+04  0.50400001928E-02 0. -1.
       -1   -1    0    0    0  501  0.00000000000E+00  0.00000000000E+00 -0.14203792155E+04  0.14203792155E+04  0.50400001928E-02 0.  1.
    10030    2    1    2    0    0  0.00000000000E+00  0.00000000000E+00 -0.15122017603E+03  0.26895382550E+04  0.26852836878E+04 0.  0.
        2    1    3    3  502    0  0.37241490400E+03 -0.12357267556E+04  0.29507580595E+03  0.13239271908E+04  0.25500000920E-02 0. -1.
       -2    1    3    3    0  502 -0.37241490400E+03  0.12357267556E+04 -0.44629598198E+03  0.13656110642E+04  0.25500000920E-02 0.  1.
</event>
<event>
 5   0  0.6175875E-06  0.2696313E+04  0.7818609E-02  0.8336202E-01
        3   -1    0    0  501    0  0.00000000000E+00  0.00000000000E+00  0.15031110303E+04  0.15031110337E+04  0.10100000352E+00 0. -1.
       -3   -1    0    0    0  501  0.00000000000E+00  0.00000000000E+00 -0.12091757096E+04  0.12091757138E+04  0.10100000352E+00 0.  1.
    10030    2    1    2    0    0  0.00000000000E+00  0.00000000000E+00  0.29393532066E+03  0.27122867475E+04  0.26963125612E+04 0.  0.
        4    1    3    3  502    0 -0.10102621152E+04 -0.65108454368E+03  0.76130930424E+03  0.14227206662E+04  0.12699999809E+01 0. -1.
       -4    1    3    3    0  502  0.10102621152E+04  0.65108454368E+03 -0.46737398358E+03  0.12895660813E+04  0.12699999809E+01 0.  1.
</event>
<event>
 5   0  0.6175875E-06  0.2729621E+04  0.7818609E-02  0.8325458E-01
       -3   -1    0    0    0  501  0.00000000000E+00  0.00000000000E+00  0.13761327106E+04  0.13761327143E+04  0.10100000352E+00 0. -1.
        3   -1    0    0  501    0  0.00000000000E+00  0.00000000000E+00 -0.13535814035E+04  0.13535814072E+04  0.10100000352E+00 0.  1.
    10030    2    1    2    0    0  0.00000000000E+00  0.00000000000E+00  0.22551307143E+02  0.27297141216E+04  0.27296209671E+04 0.  0.
        2    1    3    3  502    0  0.44686133077E+03  0.10291630283E+03 -0.12742373294E+04  0.13542369017E+04  0.25500000920E-02 0.  1.
       -2    1    3    3    0  502 -0.44686133077E+03 -0.10291630283E+03  0.12967886366E+04  0.13754772198E+04  0.25500000920E-02 0. -1.
</event>
<event>
 5   0  0.6804685E-06  0.2852146E+04  0.7818609E-02  0.8287259E-01
        1   -1    0    0  501    0  0.00000000000E+00  0.00000000000E+00  0.14326471166E+04  0.14326471166E+04  0.50400001928E-02 0. -1.
       -1   -1    0    0    0  501  0.00000000000E+00  0.00000000000E+00 -0.14195293931E+04  0.14195293931E+04  0.50400001928E-02 0.  1.
    10030    2    1    2    0    0  0.00000000000E+00  0.00000000000E+00  0.13117723554E+02  0.28521765097E+04  0.28521463440E+04 0.  0.
        2    1    3    3  502    0 -0.71480208529E+03 -0.89965632568E+03 -0.83805717895E+03  0.14222036987E+04  0.25500000920E-02 0.  1.
       -2    1    3    3    0  502  0.71480208529E+03  0.89965632568E+03  0.85117490250E+03  0.14299728110E+04  0.25500000920E-02 0. -1.
</event>
<event>
 5   0  0.6804685E-06  0.2679943E+04  0.7818609E-02  0.8341542E-01
        1   -1    0    0  501    0  0.00000000000E+00  0.00000000000E+00  0.22016903196E+04  0.22016903196E+04  0.50400001928E-02 0. -1.
       -1   -1    0    0    0  501  0.00000000000E+00  0.00000000000E+00 -0.81552036476E+03  0.81552036478E+03  0.50400001928E-02 0.  1.
    10030    2    1    2    0    0  0.00000000000E+00  0.00000000000E+00  0.13861699549E+04  0.30172106844E+04  0.26799427551E+04 0.  0.
        2    1    3    3  502    0 -0.20449733875E+03 -0.11870485994E+04  0.13540069698E+04  0.18122467860E+04  0.25500000920E-02 0. -1.
       -2    1    3    3    0  502  0.20449733875E+03  0.11870485994E+04  0.32162985070E+02  0.12049638985E+04  0.25500000920E-02 0.  1.
</event>
<event>
 5   0  0.6804685E-06  0.2683437E+04  0.7818609E-02  0.8340399E-01
        1   -1    0    0  501    0  0.00000000000E+00  0.00000000000E+00  0.18763548981E+04  0.18763548981E+04  0.50400001928E-02 0. -1.
       -1   -1    0    0    0  501  0.00000000000E+00  0.00000000000E+00 -0.95941778835E+03  0.95941778836E+03  0.50400001928E-02 0.  1.
    10030    2    1    2    0    0  0.00000000000E+00  0.00000000000E+00  0.91693710977E+03  0.28357726865E+04  0.26834368012E+04 0.  0.
        2    1    3    3  502    0  0.22297102547E+03  0.12483433642E+04  0.92167948961E+03  0.15676639674E+04  0.25500000920E-02 0. -1.
       -2    1    3    3    0  502 -0.22297102547E+03 -0.12483433642E+04 -0.47423798411E+01  0.12681087191E+04  0.25500000920E-02 0.  1.
</event>
<event>
 5   0  0.1878160E-05  0.2705251E+04  0.7818609E-02  0.8333303E-01
       -2   -1    0    0    0  501  0.00000000000E+00  0.00000000000E+00  0.77560544232E+03  0.77560544232E+03  0.25500000920E-02 0. -1.
        2   -1    0    0  501    0  0.00000000000E+00  0.00000000000E+00 -0.23589264893E+04  0.23589264893E+04  0.25500000920E-02 0.  1.
    10030    2    1    2    0    0  0.00000000000E+00  0.00000000000E+00 -0.15833210470E+04  0.31345319317E+04  0.27052513548E+04 0.  0.
        1    1    3    3  502    0  0.11201103378E+03 -0.11124276572E+04  0.90428059402E+02  0.11217036142E+04  0.50400001928E-02 0. -1.
       -1    1    3    3    0  502 -0.11201103378E+03  0.11124276572E+04 -0.16737491064E+04  0.20128283174E+04  0.50400001928E-02 0.  1.
</event>
<event>
 5   0  0.7600052E-06  0.2761693E+04  0.7818609E-02  0.8315261E-01
        1   -1    0    0  501    0  0.00000000000E+00  0.00000000000E+00  0.18065873370E+04  0.18065873370E+04  0.50400001928E-02 0. -1.
       -1   -1    0    0    0  501  0.00000000000E+00  0.00000000000E+00 -0.10554360446E+04  0.10554360446E+04  0.50400001928E-02 0.  1.
    10030    2    1    2    0    0  0.00000000000E+00  0.00000000000E+00  0.75115129242E+03  0.28620233817E+04  0.27616932438E+04 0.  0.
        5    1    3    3  502    0 -0.59622898918E+03  0.64524262938E+03  0.14795889041E+04  0.17207650838E+04  0.46999998093E+01 0. -1.
       -5    1    3    3    0  502  0.59622898918E+03 -0.64524262938E+03 -0.72843761173E+03  0.11412582979E+04  0.46999998093E+01 0.  1.
</event>
<event>
 5   0  0.6804685E-06  0.2702261E+04  0.7818609E-02  0.8334272E-01
        1   -1    0    0  501    0  0.00000000000E+00  0.00000000000E+00  0.10844946238E+04  0.10844946238E+04  0.50400001928E-02 0.  1.
       -1   -1    0    0    0  501  0.00000000000E+00  0.00000000000E+00 -0.16833216785E+04  0.16833216785E+04  0.50400001928E-02 0. -1.
    10030    2    1    2    0    0  0.00000000000E+00  0.00000000000E+00 -0.59882705474E+03  0.27678163023E+04  0.27022607649E+04 0.  0.
        2    1    3    3  502    0  0.19663451037E+03  0.93865181173E+03  0.67542164275E+03  0.11729990408E+04  0.25500000920E-02 0.  1.
       -2    1    3    3    0  502 -0.19663451037E+03 -0.93865181173E+03 -0.12742486975E+04  0.15948172614E+04  0.25500000920E-02 0. -1.
</event>
<event>
 5   0  0.7348964E-06  0.2629261E+04  0.7818609E-02  0.8358329E-01
        1   -1    0    0  501    0  0.00000000000E+00  0.00000000000E+00  0.25573353634E+04  0.25573353634E+04  0.50400001928E-02 0.  1.
       -1   -1    0    0    0  501  0.00000000000E+00  0.00000000000E+00 -0.67580253985E+03  0.67580253987E+03  0.50400001928E-02 0. -1.
    10030    2    1    2    0    0  0.00000000000E+00  0.00000000000E+00  0.18815328236E+04  0.32331379033E+04  0.26292612909E+04 0.  0.
        1    1    3    3  502    0 -0.56339442873E+03 -0.30376836909E+03  0.23527878517E+04  0.24382984189E+04  0.50400001928E-02 0.  1.
       -1    1    3    3    0  502  0.56339442873E+03  0.30376836909E+03 -0.47125502815E+03  0.79483948440E+03  0.50400001928E-02 0. -1.
</event>
<event>
 5   0  0.1826851E-05  0.2734940E+04  0.7818609E-02  0.8323756E-01
        2   -1    0    0  501    0  0.00000000000E+00  0.00000000000E+00  0.16161140174E+04  0.16161140174E+04  0.25500000920E-02 0.  1.
       -2   -1    0    0    0  501  0.00000000000E+00  0.00000000000E+00 -0.11570807964E+04  0.11570807964E+04  0.25500000920E-02 0. -1.
    10030    2    1    2    0    0  0.00000000000E+00  0.00000000000E+00  0.45903322104E+03  0.27731948138E+04  0.27349402145E+04 0.  0.
        5    1    3    3  502    0  0.10481341968E+04 -0.65732190190E+03  0.82015448080E+03  0.14843627722E+04  0.46999998093E+01 0.  1.
       -5    1    3    3    0  502 -0.10481341968E+04  0.65732190190E+03 -0.36112125975E+03  0.12888320416E+04  0.46999998093E+01 0. -1.
</event>
<event>
 5   0  0.1826851E-05  0.2690687E+04  0.7818609E-02  0.8338033E-01
        2   -1    0    0  501    0  0.00000000000E+00  0.00000000000E+00  0.14919896181E+04  0.14919896181E+04  0.25500000920E-02 0.  1.
       -2   -1    0    0    0  501  0.00000000000E+00  0.00000000000E+00 -0.12131107007E+04  0.12131107007E+04  0.25500000920E-02 0. -1.
    10030    2    1    2    0    0  0.00000000000E+00  0.00000000000E+00  0.27887891746E+03  0.27051003188E+04  0.26906865823E+04 0.  0.
        5    1    3    3  502    0  0.25198446435E+03 -0.13196483308E+04  0.68644957046E+02  0.13452516892E+04  0.46999998093E+01 0.  1.
       -5    1    3    3    0  502 -0.25198446435E+03  0.13196483308E+04  0.21023396042E+03  0.13598486296E+04  0.46999998093E+01 0. -1.
</event>
<event>
 5   0  0.1881699E-05  0.2675830E+04  0.7818609E-02  0.8342890E-01
        2   -1    0    0  501    0  0.00000000000E+00  0.00000000000E+00  0.17322805320E+04  0.17322805320E+04  0.25500000920E-02 0. -1.
       -2   -1    0    0    0  501  0.00000000000E+00  0.00000000000E+00 -0.10333296839E+04  0.10333296839E+04  0.25500000920E-02 0.  1.
    10030    2    1    2    0    0  0.00000000000E+00  0.00000000000E+00  0.69895084808E+03  0.27656102159E+04  0.26758302596E+04 0.  0.
        4    1    3    3  502    0 -0.72119746087E+03 -0.27448946876E+03  0.14790988081E+04  0.16682940817E+04  0.12699999809E+01 0. -1.
       -4    1    3    3    0  502  0.72119746087E+03  0.27448946876E+03 -0.78014796001E+03  0.10973161342E+04  0.12699999809E+01 0.  1.
</event>
<event>
 5   0  0.7600052E-06  0.2723382E+04  0.7818609E-02  0.8327458E-01
        1   -1    0    0  501    0  0.00000000000E+00  0.00000000000E+00  0.13177034966E+04  0.13177034966E+04  0.50400001928E-02 0.  1.
       -1   -1    0    0    0  501  0.00000000000E+00  0.00000000000E+00 -0.14071472780E+04  0.14071472780E+04  0.50400001928E-02 0. -1.
    10030    2    1    2    0    0  0.00000000000E+00  0.00000000000E+00 -0.89443781432E+02  0.27248507746E+04  0.27233823738E+04 0.  0.
        5    1    3    3  502    0  0.81540521357E+03 -0.52826505754E+03 -0.99929666080E+03  0.13937594985E+04  0.46999998093E+01 0. -1.
       -5    1    3    3    0  502 -0.81540521357E+03  0.52826505754E+03  0.90985287937E+03  0.13310912761E+04  0.46999998093E+01 0.  1.
</event>
<event>
 5   0  0.1788003E-05  0.2745225E+04  0.7818609E-02  0.8320478E-01
       -2   -1    0    0    0  501  0.00000000000E+00  0.00000000000E+00  0.97970977729E+03  0.97970977729E+03  0.25500000920E-02 0.  1.
        2   -1    0    0  501    0  0.00000000000E+00  0.00000000000E+00 -0.19230855770E+04  0.19230855770E+04  0.25500000920E-02 0. -1.
    10030    2    1    2    0    0  0.00000000000E+00  0.00000000000E+00 -0.94337579966E+03  0.29027953542E+04  0.27452254861E+04 0.  0.
        2    1    3    3  502    0  0.11282795669E+04  0.67751819438E+02  0.35176679804E+03  0.11837841738E+04  0.25500000920E-02 0.  1.
       -2    1    3    3    0  502 -0.11282795669E+04 -0.67751819438E+02 -0.12951425977E+04  0.17190111804E+04  0.25500000920E-02 0. -1.
</event>
<event>
 5   0  0.6804685E-06  0.2663976E+04  0.7818609E-02  0.8346789E-01
       -1   -1    0    0    0  501  0.00000000000E+00  0.00000000000E+00  0.14462872416E+04  0.14462872416E+04  0.50400001928E-02 0.  1.
        1   -1    0    0  501    0  0.00000000000E+00  0.00000000000E+00 -0.12267214248E+04  0.12267214249E+04  0.50400001928E-02 0. -1.
    10030    2    1    2    0    0  0.00000000000E+00  0.00000000000E+00  0.21956581671E+03  0.26730086664E+04  0.26639756348E+04 0.  0.
        2    1    3    3  502    0  0.41670987059E+03 -0.10228999428E+04 -0.63720103892E+03  0.12751457067E+04  0.25500000920E-02 0. -1.
       -2    1    3    3    0  502 -0.41670987059E+03  0.10228999428E+04  0.85676685564E+03  0.13978629597E+04  0.25500000920E-02 0.  1.
</event>
<event>
 5   0  0.1788003E-05  0.2345651E+04  0.7818609E-02  0.8460136E-01
       -2   -1    0    0    0  501  0.00000000000E+00  0.00000000000E+00  0.95115187971E+03  0.95115187972E+03  0.25500000920E-02 0.  1.
        2   -1    0    0  501    0  0.00000000000E+00  0.00000000000E+00 -0.14461619354E+04  0.14461619354E+04  0.25500000920E-02 0. -1.
    10030    2    1    2    0    0  0.00000000000E+00  0.00000000000E+00 -0.49501005571E+03  0.23973138151E+04  0.23456509913E+04 0.  0.
        2    1    3    3  502    0 -0.62765636937E+03  0.88659203296E+03  0.20441227302E+03  0.11053426294E+04  0.25500000920E-02 0.  1.
       -2    1    3    3    0  502  0.62765636937E+03 -0.88659203296E+03 -0.69942232873E+03  0.12919711858E+04  0.25500000920E-02 0. -1.
</event>
<event>
 5   0  0.7600052E-06  0.2689013E+04  0.7818609E-02  0.8338579E-01
        1   -1    0    0  501    0  0.00000000000E+00  0.00000000000E+00  0.11474816358E+04  0.11474816358E+04  0.50400001928E-02 0. -1.
       -1   -1    0    0    0  501  0.00000000000E+00  0.00000000000E+00 -0.15753613453E+04  0.15753613453E+04  0.50400001928E-02 0.  1.
    10030    2    1    2    0    0  0.00000000000E+00  0.00000000000E+00 -0.42787970951E+03  0.27228429812E+04  0.26890133607E+04 0.  0.
        5    1    3    3  502    0  0.87698286385E+02  0.35525531848E+01 -0.15724490240E+04  0.15749036902E+04  0.46999998093E+01 0.  1.
       -5    1    3    3    0  502 -0.87698286385E+02 -0.35525531848E+01  0.11445693145E+04  0.11479392910E+04  0.46999998093E+01 0. -1.
</event>
<event>
 5   0  0.1881699E-05  0.2585782E+04  0.7818609E-02  0.8373047E-01
       -2   -1    0    0    0  501  0.00000000000E+00  0.00000000000E+00  0.17114264640E+04  0.17114264640E+04  0.25500000920E-02 0. -1.
        2   -1    0    0  501    0  0.00000000000E+00  0.00000000000E+00 -0.97671011090E+03  0.97671011090E+03  0.25500000920E-02 0.  1.
    10030    2    1    2    0    0  0.00000000000E+00  0.00000000000E+00  0.73471635306E+03  0.26881365749E+04  0.25857823044E+04 0.  0.
        4    1    3    3  502    0 -0.16376333686E+03  0.12850298589E+03  0.16938905195E+04  0.17066335731E+04  0.12699999809E+01 0. -1.
       -4    1    3    3    0  502  0.16376333686E+03 -0.12850298589E+03 -0.95917416647E+03  0.98150300173E+03  0.12699999809E+01 0.  1.
</event>
<event>
 5   0  0.7348964E-06  0.2742194E+04  0.7818609E-02  0.8321443E-01
       -1   -1    0    0    0  501  0.00000000000E+00  0.00000000000E+00  0.11272899469E+04  0.11272899469E+04  0.50400001928E-02 0.  1.
        1   -1    0    0  501    0  0.00000000000E+00  0.00000000000E+00 -0.16676345204E+04  0.16676345204E+04  0.50400001928E-02 0. -1.
    10030    2    1    2    0    0  0.00000000000E+00  0.00000000000E+00 -0.54034457350E+03  0.27949244673E+04  0.27421944715E+04 0.  0.
        1    1    3    3  502    0  0.13360701184E+03  0.61783203343E+03 -0.15102606060E+04  0.16372093187E+04  0.50400001928E-02 0. -1.
       -1    1    3    3    0  502 -0.13360701184E+03 -0.61783203343E+03  0.96991603249E+03  0.11577151486E+04  0.50400001928E-02 0.  1.
</event>
<event>
 5   0  0.7600052E-06  0.2344928E+04  0.7818609E-02  0.8460414E-01
        1   -1    0    0  501    0  0.00000000000E+00  0.00000000000E+00  0.13579753751E+04  0.13579753751E+04  0.50400001928E-02 0.  1.
       -1   -1    0    0    0  501  0.00000000000E+00  0.00000000000E+00 -0.10122949118E+04  0.10122949118E+04  0.50400001928E-02 0. -1.
    10030    2    1    2    0    0  0.00000000000E+00  0.00000000000E+00  0.34568046325E+03  0.23702702869E+04  0.23449277708E+04 0.  0.
        5    1    3    3  502    0 -0.77025202549E+02  0.16758178077E+03 -0.99753021018E+03  0.10144481974E+04  0.46999998093E+01 0. -1.
       -5    1    3    3    0  502  0.77025202549E+02 -0.16758178077E+03  0.13432106734E+04  0.13558220895E+04  0.46999998093E+01 0.  1.
</event>
<event>
 5   0  0.7348964E-06  0.2663984E+04  0.7818609E-02  0.8346786E-01
        1   -1    0    0  501    0  0.00000000000E+00  0.00000000000E+00  0.69124063761E+03  0.69124063763E+03  0.50400001928E-02 0.  1.
       -1   -1    0    0    0  501  0.00000000000E+00  0.00000000000E+00 -0.25666936990E+04  0.25666936990E+04  0.50400001928E-02 0. -1.
    10030    2    1    2    0    0  0.00000000000E+00  0.00000000000E+00 -0.18754530614E+04  0.32579343366E+04  0.26639842260E+04 0.  0.
        1    1    3    3  502    0 -0.44343239102E+03  0.10331743173E+04 -0.64257510317E+02  0.11261485173E+04  0.50400001928E-02 0.  1.
       -1    1    3    3    0  502  0.44343239102E+03 -0.10331743173E+04 -0.18111955511E+04  0.21317858193E+04  0.50400001928E-02 0. -1.
</event>
<event>
 5   0  0.1788003E-05  0.2720151E+04  0.7818609E-02  0.8328496E-01
        2   -1    0    0  501    0  0.00000000000E+00  0.00000000000E+00  0.15993480261E+04  0.15993480261E+04  0.25500000920E-02 0. -1.
       -2   -1    0    0    0  501  0.00000000000E+00  0.00000000000E+00 -0.11565999598E+04  0.11565999598E+04  0.25500000920E-02 0.  1.
    10030    2    1    2    0    0  0.00000000000E+00  0.00000000000E+00  0.44274806628E+03  0.27559479859E+04  0.27201513654E+04 0.  0.
        2    1    3    3  502    0 -0.96131197055E+03 -0.65002737189E+03  0.94003904177E+03  0.14934288363E+04  0.25500000920E-02 0. -1.
       -2    1    3    3    0  502  0.96131197055E+03  0.65002737189E+03 -0.49729097550E+03  0.12625191497E+04  0.25500000920E-02 0.  1.
</event>
<event>
 5   0  0.1931119E-05  0.2711035E+04  0.7818609E-02  0.8331433E-01
        2   -1    0    0  501    0  0.00000000000E+00  0.00000000000E+00  0.13996875455E+04  0.13996875455E+04  0.25500000920E-02 0. -1.
       -2   -1    0    0    0  501  0.00000000000E+00  0.00000000000E+00 -0.13127413589E+04  0.13127413589E+04  0.25500000920E-02 0.  1.
    10030    2    1    2    0    0  0.00000000000E+00  0.00000000000E+00  0.86946186690E+02  0.27124289044E+04  0.27110350278E+04 0.  0.
        3    1    3    3  502    0  0.62171115091E+02 -0.38710652659E+02  0.13977065854E+04  0.13996240464E+04  0.10100000352E+00 0. -1.
       -3    1    3    3    0  502 -0.62171115091E+02  0.38710652659E+02 -0.13107603987E+04  0.13128048580E+04  0.10100000352E+00 0.  1.
</event>
<event>
 5   0  0.7600052E-06  0.2679830E+04  0.7818609E-02  0.8341579E-01
        1   -1    0    0  501    0  0.00000000000E+00  0.00000000000E+00  0.25810749785E+04  0.25810749785E+04  0.50400001928E-02 0. -1.
       -1   -1    0    0    0  501  0.00000000000E+00  0.00000000000E+00 -0.69559086965E+03  0.69559086966E+03  0.50400001928E-02 0.  1.
    10030    2    1    2    0    0  0.00000000000E+00  0.00000000000E+00  0.18854841089E+04  0.32766658482E+04  0.26798299864E+04 0.  0.
        5    1    3    3  502    0 -0.14172522664E+03  0.13295767567E+04  0.10485595148E+04  0.16992232160E+04  0.46999998093E+01 0. -1.
       -5    1    3    3    0  502  0.14172522664E+03 -0.13295767567E+04  0.83692459410E+03  0.15774426322E+04  0.46999998093E+01 0.  1.
</event>
<event>
 5   0  0.1826851E-05  0.2733529E+04  0.7818609E-02  0.8324207E-01
        2   -1    0    0  501    0  0.00000000000E+00  0.00000000000E+00  0.17413900241E+04  0.17413900241E+04  0.25500000920E-02 0. -1.
       -2   -1    0    0    0  501  0.00000000000E+00  0.00000000000E+00 -0.10727324480E+04  0.10727324480E+04  0.25500000920E-02 0.  1.
    10030    2    1    2    0    0  0.00000000000E+00  0.00000000000E+00  0.66865757610E+03  0.28141224721E+04  0.27335292817E+04 0.  0.
        5    1    3    3  502    0 -0.93012250770E+03  0.89340814594E+03 -0.13146827662E+03  0.12963841993E+04  0.46999998093E+01 0.  1.
       -5    1    3    3    0  502  0.93012250770E+03 -0.89340814594E+03  0.80012585272E+03  0.15177382728E+04  0.46999998093E+01 0. -1.
</event>
<event>
 5   0  0.1826851E-05  0.2690386E+04  0.7818609E-02  0.8338131E-01
        2   -1    0    0  501    0  0.00000000000E+00  0.00000000000E+00  0.24206584938E+04  0.24206584938E+04  0.25500000920E-02 0. -1.
       -2   -1    0    0    0  501  0.00000000000E+00  0.00000000000E+00 -0.74754227359E+03  0.74754227360E+03  0.25500000920E-02 0.  1.
    10030    2    1    2    0    0  0.00000000000E+00  0.00000000000E+00  0.16731162202E+04  0.31682007674E+04  0.26903862578E+04 0.  0.
        5    1    3    3  502    0 -0.67343572335E+03 -0.41458707544E+02  0.22069777328E+04  0.23078143992E+04  0.46999998093E+01 0. -1.
       -5    1    3    3    0  502  0.67343572335E+03  0.41458707544E+02 -0.53386151263E+03  0.86038636820E+03  0.46999998093E+01 0.  1.
</event>
<event>
 5   0  0.1826851E-05  0.2701047E+04  0.7818609E-02  0.8334665E-01
        2   -1    0    0  501    0  0.00000000000E+00  0.00000000000E+00  0.15807116993E+04  0.15807116993E+04  0.25500000920E-02 0. -1.
       -2   -1    0    0    0  501  0.00000000000E+00  0.00000000000E+00 -0.11538557996E+04  0.11538557996E+04  0.25500000920E-02 0.  1.
    10030    2    1    2    0    0  0.00000000000E+00  0.00000000000E+00  0.42685589964E+03  0.27345674989E+04  0.27010467317E+04 0.  0.
        5    1    3    3  502    0  0.72123901172E+03 -0.17813538072E+03 -0.92838655333E+03  0.11890507173E+04  0.46999998093E+01 0.  1.
       -5    1    3    3    0  502 -0.72123901172E+03  0.17813538072E+03  0.13552424530E+04  0.15455167816E+04  0.46999998093E+01 0. -1.
</event>
<event>
 5   0  0.7348964E-06  0.2703487E+04  0.7818609E-02  0.8333875E-01
        1   -1    0    0  501    0  0.00000000000E+00  0.00000000000E+00  0.86693213821E+03  0.86693213822E+03  0.50400001928E-02 0.  1.
       -1   -1    0    0    0  501  0.00000000000E+00  0.00000000000E+00 -0.21076738400E+04  0.21076738400E+04  0.50400001928E-02 0. -1.
    10030    2    1    2    0    0  0.00000000000E+00  0.00000000000E+00 -0.12407417018E+04  0.29746059782E+04  0.27034867773E+04 0.  0.
        1    1    3    3  502    0  0.96251193798E+03  0.13173069875E+02 -0.16645450527E+04  0.19228398251E+04  0.50400001928E-02 0. -1.
       -1    1    3    3    0  502 -0.96251193798E+03 -0.13173069875E+02  0.42380335093E+03  0.10517661531E+04  0.50400001928E-02 0.  1.
</event>
<event>
 5   0  0.1881699E-05  0.2693870E+04  0.7818609E-02  0.8336997E-01
       -2   -1    0    0    0  501  0.00000000000E+00  0.00000000000E+00  0.21353934494E+04  0.21353934494E+04  0.25500000920E-02 0.  1.
        2   -1    0    0  501    0  0.00000000000E+00  0.00000000000E+00 -0.84960143818E+03  0.84960143818E+03  0.25500000920E-02 0. -1.
    10030    2    1    2    0    0  0.00000000000E+00  0.00000000000E+00  0.12857920113E+04  0.29849948876E+04  0.26938695928E+04 0.  0.
        4    1    3    3  502    0  0.10635414514E+03 -0.44130333941E+03  0.20480802025E+04  0.20977831085E+04  0.12699999809E+01 0.  1.
       -4    1    3    3    0  502 -0.10635414514E+03  0.44130333941E+03 -0.76228819125E+03  0.88721177910E+03  0.12699999809E+01 0. -1.
</event>
<event>
 5   0  0.7348964E-06  0.2709360E+04  0.7818609E-02  0.8331974E-01
        1   -1    0    0  501    0  0.00000000000E+00  0.00000000000E+00  0.16724302432E+04  0.16724302432E+04  0.50400001928E-02 0. -1.
       -1   -1    0    0    0  501  0.00000000000E+00  0.00000000000E+00 -0.10973000106E+04  0.10973000106E+04  0.50400001928E-02 0.  1.
    10030    2    1    2    0    0  0.00000000000E+00  0.00000000000E+00  0.57513023258E+03  0.27697302538E+04  0.27093598680E+04 0.  0.
        1    1    3    3  502    0  0.67429833472E+03  0.83221874229E+03  0.11354379788E+04  0.15609246244E+04  0.50400001928E-02 0. -1.
       -1    1    3    3    0  502 -0.67429833472E+03 -0.83221874229E+03 -0.56030774621E+03  0.12088056294E+04  0.50400001928E-02 0.  1.
</event>
<event>
 5   0  0.7351590E-06  0.2724150E+04  0.7818609E-02  0.8327211E-01
       -1   -1    0    0    0  501  0.00000000000E+00  0.00000000000E+00  0.11705121720E+04  0.11705121721E+04  0.50400001928E-02 0. -1.
        1   -1    0    0  501    0  0.00000000000E+00  0.00000000000E+00 -0.15849886013E+04  0.15849886014E+04  0.50400001928E-02 0.  1.
    10030    2    1    2    0    0  0.00000000000E+00  0.00000000000E+00 -0.41447642930E+03  0.27555007734E+04  0.27241501063E+04 0.  0.
        3    1    3    3  502    0 -0.55840698104E+03 -0.46571884335E+03  0.95777011383E+03  0.12025123694E+04  0.10100000352E+00 0. -1.
       -3    1    3    3    0  502  0.55840698104E+03  0.46571884335E+03 -0.13722465431E+04  0.15529884040E+04  0.10100000352E+00 0.  1.
</event>
<event>
 5   0  0.6804685E-06  0.2691034E+04  0.7818609E-02  0.8337920E-01
       -1   -1    0    0    0  501  0.00000000000E+00  0.00000000000E+00  0.17349538310E+04  0.17349538311E+04  0.50400001928E-02 0. -1.
        1   -1    0    0  501    0  0.00000000000E+00  0.00000000000E+00 -0.10434955349E+04  0.10434955349E+04  0.50400001928E-02 0.  1.
    10030    2    1    2    0    0  0.00000000000E+00  0.00000000000E+00  0.69145829614E+03  0.27784493660E+04  0.26910344301E+04 0.  0.
        2    1    3    3  502    0  0.12406562868E+04 -0.46939352071E+03  0.57857261256E+03  0.14471712294E+04  0.25500000920E-02 0.  1.
       -2    1    3    3    0  502 -0.12406562868E+04  0.46939352071E+03  0.11288568358E+03  0.13312781365E+04  0.25500000920E-02 0. -1.
</event>
<event>
 5   0  0.1881699E-05  0.2720137E+04  0.7818609E-02  0.8328501E-01
        2   -1    0    0  501    0  0.00000000000E+00  0.00000000000E+00  0.12524160630E+04  0.12524160630E+04  0.25500000920E-02 0. -1.
       -2   -1    0    0    0  501  0.00000000000E+00  0.00000000000E+00 -0.14769739046E+04  0.14769739046E+04  0.25500000920E-02 0.  1.
    10030    2    1    2    0    0  0.00000000000E+00  0.00000000000E+00 -0.22455784164E+03  0.27293899677E+04  0.27201366457E+04 0.  0.
        4    1    3    3  502    0 -0.56844383193E+03 -0.33817815922E+03  0.10801624157E+04  0.12665880603E+04  0.12699999809E+01 0. -1.
       -4    1    3    3    0  502  0.56844383193E+03  0.33817815922E+03 -0.13047202573E+04  0.14628019073E+04  0.12699999809E+01 0.  1.
</event>
<event>
 5   0  0.7754912E-06  0.2605329E+04  0.7818609E-02  0.8366393E-01
       -1   -1    0    0    0  501  0.00000000000E+00  0.00000000000E+00  0.11638887005E+04  0.11638887006E+04  0.50400001928E-02 0. -1.
        1   -1    0    0  501    0  0.00000000000E+00  0.00000000000E+00 -0.14579867706E+04  0.14579867706E+04  0.50400001928E-02 0.  1.
    10030    2    1    2    0    0  0.00000000000E+00  0.00000000000E+00 -0.29409807009E+03  0.26218754712E+04  0.26053286379E+04 0.  0.
        4    1    3    3  502    0 -0.14399263227E+03 -0.10095841484E+04  0.66861622444E+03  0.12194438484E+04  0.12699999809E+01 0. -1.
       -4    1    3    3    0  502  0.14399263227E+03  0.10095841484E+04 -0.96271429454E+03  0.14024316228E+04  0.12699999809E+01 0.  1.
</event>
<event>
 5   0  0.7351590E-06  0.2715539E+04  0.7818609E-02  0.8329981E-01
       -1   -1    0    0    0  501  0.00000000000E+00  0.00000000000E+00  0.13264529983E+04  0.13264529983E+04  0.50400001928E-02 0. -1.
        1   -1    0    0  501    0  0.00000000000E+00  0.00000000000E+00 -0.13898254518E+04  0.13898254518E+04  0.50400001928E-02 0.  1.
    10030    2    1    2    0    0  0.00000000000E+00  0.00000000000E+00 -0.63372453514E+02  0.27162784501E+04  0.27155390902E+04 0.  0.
        3    1    3    3  502    0  0.87219649939E+03 -0.36649725951E+03  0.94248404294E+03  0.13354112311E+04  0.10100000352E+00 0. -1.
       -3    1    3    3    0  502 -0.87219649939E+03  0.36649725951E+03 -0.10058564965E+04  0.13808672190E+04  0.10100000352E+00 0.  1.
</event>
<event>
 5   0  0.1878160E-05  0.2666716E+04  0.7818609E-02  0.8345886E-01
        2   -1    0    0  501    0  0.00000000000E+00  0.00000000000E+00  0.17411002165E+04  0.17411002165E+04  0.25500000920E-02 0.  1.
       -2   -1    0    0    0  501  0.00000000000E+00  0.00000000000E+00 -0.10211036177E+04  0.10211036177E+04  0.25500000920E-02 0. -1.
    10030    2    1    2    0    0  0.00000000000E+00  0.00000000000E+00  0.71999659873E+03  0.27622038342E+04  0.26667161303E+04 0.  0.
        1    1    3    3  502    0  0.12316414924E+04  0.42292956048E+03  0.63327575322E+02  0.13037716674E+04  0.50400001928E-02 0. -1.
       -1    1    3    3    0  502 -0.12316414924E+04 -0.42292956048E+03  0.65666902341E+03  0.14584321668E+04  0.50400001928E-02 0.  1.
</event>
<event>
 5   0  0.1826851E-05  0.2704976E+04  0.7818609E-02  0.8333392E-01
       -2   -1    0    0    0  501  0.00000000000E+00  0.00000000000E+00  0.68391919606E+03  0.68391919606E+03  0.25500000920E-02 0.  1.
        2   -1    0    0  501    0  0.00000000000E+00  0.00000000000E+00 -0.26746200939E+04  0.26746200939E+04  0.25500000920E-02 0. -1.
    10030    2    1    2    0    0  0.00000000000E+00  0.00000000000E+00 -0.19907008978E+04  0.33585392900E+04  0.27049761732E+04 0.  0.
        5    1    3    3  502    0  0.31640135445E+03 -0.37019411141E+03 -0.25619757195E+04  0.26078525983E+04  0.46999998093E+01 0. -1.
       -5    1    3    3    0  502 -0.31640135445E+03  0.37019411141E+03  0.57127482164E+03  0.75068669167E+03  0.46999998093E+01 0.  1.
</event>
<event>
 5   0  0.7754912E-06  0.2695701E+04  0.7818609E-02  0.8336401E-01
        1   -1    0    0  501    0  0.00000000000E+00  0.00000000000E+00  0.11711154692E+04  0.11711154692E+04  0.50400001928E-02 0.  1.
       -1   -1    0    0    0  501  0.00000000000E+00  0.00000000000E+00 -0.15512563456E+04  0.15512563456E+04  0.50400001928E-02 0. -1.
    10030    2    1    2    0    0  0.00000000000E+00  0.00000000000E+00 -0.38014087643E+03  0.27223718149E+04  0.26957005050E+04 0.  0.
        4    1    3    3  502    0 -0.43871482331E+03 -0.12743610539E+04 -0.20544931636E+03  0.13633333511E+04  0.12699999809E+01 0. -1.
       -4    1    3    3    0  502  0.43871482331E+03  0.12743610539E+04 -0.17469156007E+03  0.13590384637E+04  0.12699999809E+01 0.  1.
</event>
<event>
 5   0  0.1881699E-05  0.2705711E+04  0.7818609E-02  0.8333154E-01
       -2   -1    0    0    0  501  0.00000000000E+00  0.00000000000E+00  0.73917282182E+03  0.73917282182E+03  0.25500000920E-02 0.  1.
        2   -1    0    0  501    0  0.00000000000E+00  0.00000000000E+00 -0.24760345913E+04  0.24760345913E+04  0.25500000920E-02 0. -1.
    10030    2    1    2    0    0  0.00000000000E+00  0.00000000000E+00 -0.17368617694E+04  0.32152074131E+04  0.27057106096E+04 0.  0.
        4    1    3    3  502    0  0.10882659011E+04  0.48650517673E+03 -0.10828211720E+03  0.11969697524E+04  0.12699999809E+01 0. -1.
       -4    1    3    3    0  502 -0.10882659011E+04 -0.48650517673E+03 -0.16285796522E+04  0.20182376607E+04  0.12699999809E+01 0.  1.
</event>
<event>
 5   0  0.1788003E-05  0.2642059E+04  0.7818609E-02  0.8354053E-01
       -2   -1    0    0    0  501  0.00000000000E+00  0.00000000000E+00  0.83006447092E+03  0.83006447093E+03  0.25500000920E-02 0.  1.
        2   -1    0    0  501    0  0.00000000000E+00  0.00000000000E+00 -0.21023902680E+04  0.21023902680E+04  0.25500000920E-02 0. -1.
    10030    2    1    2    0    0  0.00000000000E+00  0.00000000000E+00 -0.12723257971E+04  0.29324547390E+04  0.26420593979E+04 0.  0.
        2    1    3    3  502    0  0.51293438655E+03 -0.22951489485E+03  0.69079339882E+03  0.89049103966E+03  0.25500000920E-02 0.  1.
       -2    1    3    3    0  502 -0.51293438655E+03  0.22951489485E+03 -0.19631191959E+04  0.20419636993E+04  0.25500000920E-02 0. -1.
</event>
<event>
 5   0  0.7348964E-06  0.1995697E+04  0.7818609E-02  0.8608635E-01
        1   -1    0    0  501    0  0.00000000000E+00  0.00000000000E+00  0.78843393529E+03  0.78843393531E+03  0.50400001928E-02 0. -1.
       -1   -1    0    0    0  501  0.00000000000E+00  0.00000000000E+00 -0.12628851498E+04  0.12628851498E+04  0.50400001928E-02 0.  1.
    10030    2    1    2    0    0  0.00000000000E+00  0.00000000000E+00 -0.47445121449E+03  0.20513190851E+04  0.19956968793E+04 0.  0.
        1    1    3    3  502    0  0.79562071129E+03  0.46833707489E+03  0.15194214822E+03  0.93564862442E+03  0.50400001928E-02 0. -1.
       -1    1    3    3    0  502 -0.79562071129E+03 -0.46833707489E+03 -0.62639336272E+03  0.11156704607E+04  0.50400001928E-02 0.  1.
</event>
<event>
 5   0  0.1788003E-05  0.2737451E+04  0.7818609E-02  0.8322955E-01
       -2   -1    0    0    0  501  0.00000000000E+00  0.00000000000E+00  0.81889118770E+03  0.81889118770E+03  0.25500000920E-02 0. -1.
        2   -1    0    0  501    0  0.00000000000E+00  0.00000000000E+00 -0.22877396198E+04  0.22877396198E+04  0.25500000920E-02 0.  1.
    10030    2    1    2    0    0  0.00000000000E+00  0.00000000000E+00 -0.14688484321E+04  0.31066308075E+04  0.27374512338E+04 0.  0.
        2    1    3    3  502    0  0.48829993189E+02 -0.13375344175E+04 -0.40939529434E+03  0.13996382366E+04  0.25500000920E-02 0. -1.
       -2    1    3    3    0  502 -0.48829993189E+02  0.13375344175E+04 -0.10594531378E+04  0.17069925710E+04  0.25500000920E-02 0.  1.
</event>
<event>
 5   0  0.6804685E-06  0.2700499E+04  0.7818609E-02  0.8334843E-01
       -1   -1    0    0    0  501  0.00000000000E+00  0.00000000000E+00  0.89460343987E+03  0.89460343988E+03  0.50400001928E-02 0. -1.
        1   -1    0    0  501    0  0.00000000000E+00  0.00000000000E+00 -0.20379690739E+04  0.20379690739E+04  0.50400001928E-02 0.  1.
    10030    2    1    2    0    0  0.00000000000E+00  0.00000000000E+00 -0.11433656340E+04  0.29325725137E+04  0.27004993196E+04 0.  0.
        2    1    3    3  502    0  0.24504535232E+03 -0.13192164168E+04 -0.40772801122E+03  0.14023627598E+04  0.25500000920E-02 0. -1.
       -2    1    3    3    0  502 -0.24504535232E+03  0.13192164168E+04 -0.73563762277E+03  0.15302097539E+04  0.25500000920E-02 0.  1.
</event>
<event>
 5   0  0.7348964E-06  0.2117366E+04  0.7818609E-02  0.8553632E-01
        1   -1    0    0  501    0  0.00000000000E+00  0.00000000000E+00  0.14443954976E+04  0.14443954976E+04  0.50400001928E-02 0. -1.
       -1   -1    0    0    0  501  0.00000000000E+00  0.00000000000E+00 -0.77597145407E+03  0.77597145409E+03  0.50400001928E-02 0.  1.
    10030    2    1    2    0    0  0.00000000000E+00  0.00000000000E+00  0.66842404349E+03  0.22203669517E+04  0.21173659811E+04 0.  0.
        1    1    3    3  502    0 -0.13513606277E+03  0.13306662750E+03 -0.75801246036E+03  0.78137786819E+03  0.50400001928E-02 0.  1.
       -1    1    3    3    0  502  0.13513606277E+03 -0.13306662750E+03  0.14264365038E+04  0.14389890835E+04  0.50400001928E-02 0. -1.
</event>
<event>
 5   0  0.1878160E-05  0.2743217E+04  0.7818609E-02  0.8321117E-01
       -2   -1    0    0    0  501  0.00000000000E+00  0.00000000000E+00  0.15635474734E+04  0.15635474734E+04  0.25500000920E-02 0. -1.
        2   -1    0    0  501    0  0.00000000000E+00  0.00000000000E+00 -0.12032316582E+04  0.12032316582E+04  0.25500000920E-02 0.  1.
    10030    2    1    2    0    0  0.00000000000E+00  0.00000000000E+00  0.36031581527E+03  0.27667791316E+04  0.27432169576E+04 0.  0.
        1    1    3    3  502    0 -0.53739109641E+02 -0.47221575553E+03  0.14778459330E+04  0.15523866185E+04  0.50400001928E-02 0. -1.
       -1    1    3    3    0  502  0.53739109641E+02  0.47221575553E+03 -0.11175301177E+04  0.12143925131E+04  0.50400001928E-02 0.  1.
</event>
<event>
 5   0  0.1788003E-05  0.2707224E+04  0.7818609E-02  0.8332665E-01
       -2   -1    0    0    0  501  0.00000000000E+00  0.00000000000E+00  0.12011573209E+04  0.12011573209E+04  0.25500000920E-02 0.  1.
        2   -1    0    0  501    0  0.00000000000E+00  0.00000000000E+00 -0.15254165513E+04  0.15254165513E+04  0.25500000920E-02 0. -1.
    10030    2    1    2    0    0  0.00000000000E+00  0.00000000000E+00 -0.32425923040E+03  0.27265738721E+04  0.27072238606E+04 0.  0.
        2    1    3    3  502    0 -0.71225458292E+03  0.53285317374E+03 -0.11897292034E+04  0.14854947570E+04  0.25500000920E-02 0. -1.
       -2    1    3    3    0  502  0.71225458292E+03 -0.53285317374E+03  0.86546997304E+03  0.12410791151E+04  0.25500000920E-02 0.  1.
</event>
<event>
 5   0  0.7348964E-06  0.2706088E+04  0.7818609E-02  0.8333032E-01
       -1   -1    0    0    0  501  0.00000000000E+00  0.00000000000E+00  0.16905072527E+04  0.16905072527E+04  0.50400001928E-02 0.  1.
        1   -1    0    0  501    0  0.00000000000E+00  0.00000000000E+00 -0.10829463460E+04  0.10829463460E+04  0.50400001928E-02 0. -1.
    10030    2    1    2    0    0  0.00000000000E+00  0.00000000000E+00  0.60756090667E+03  0.27734535987E+04  0.27060884333E+04 0.  0.
        1    1    3    3  502    0 -0.14826950907E+03 -0.36543475828E+03  0.16302966045E+04  0.16773173309E+04  0.50400001928E-02 0.  1.
       -1    1    3    3    0  502  0.14826950907E+03  0.36543475828E+03 -0.10227356978E+04  0.10961362678E+04  0.50400001928E-02 0. -1.
</event>
<event>
 5   0  0.6804685E-06  0.2723344E+04  0.7818609E-02  0.8327470E-01
        1   -1    0    0  501    0  0.00000000000E+00  0.00000000000E+00  0.18903265908E+04  0.18903265908E+04  0.50400001928E-02 0.  1.
       -1   -1    0    0    0  501  0.00000000000E+00  0.00000000000E+00 -0.98086281904E+03  0.98086281905E+03  0.50400001928E-02 0. -1.
    10030    2    1    2    0    0  0.00000000000E+00  0.00000000000E+00  0.90946377180E+03  0.28711894099E+04  0.27233443182E+04 0.  0.
        2    1    3    3  502    0  0.34201473237E+03 -0.80063988717E+03  0.15585431746E+04  0.17852325152E+04  0.25500000920E-02 0.  1.
       -2    1    3    3    0  502 -0.34201473237E+03  0.80063988717E+03 -0.64907940279E+03  0.10859568947E+04  0.25500000920E-02 0. -1.
</event>
<event>
 5   0  0.1878160E-05  0.2571541E+04  0.7818609E-02  0.8377933E-01
       -2   -1    0    0    0  501  0.00000000000E+00  0.00000000000E+00  0.13693464294E+04  0.13693464294E+04  0.25500000920E-02 0.  1.
        2   -1    0    0  501    0  0.00000000000E+00  0.00000000000E+00 -0.12072954274E+04  0.12072954274E+04  0.25500000920E-02 0. -1.
    10030    2    1    2    0    0  0.00000000000E+00  0.00000000000E+00  0.16205100203E+03  0.25766418567E+04  0.25715409253E+04 0.  0.
        1    1    3    3  502    0  0.24431215436E+03 -0.12282984684E+04 -0.21075674777E+03  0.12699700638E+04  0.50400001928E-02 0. -1.
       -1    1    3    3    0  502 -0.24431215436E+03  0.12282984684E+04  0.37280774980E+03  0.13066717930E+04  0.50400001928E-02 0.  1.
</event>
<event>
 5   0  0.6804685E-06  0.2698555E+04  0.7818609E-02  0.8335474E-01
        1   -1    0    0  501    0  0.00000000000E+00  0.00000000000E+00  0.14681176578E+04  0.14681176578E+04  0.50400001928E-02 0.  1.
       -1   -1    0    0    0  501  0.00000000000E+00  0.00000000000E+00 -0.12400573607E+04  0.12400573607E+04  0.50400001928E-02 0. -1.
    10030    2    1    2    0    0  0.00000000000E+00  0.00000000000E+00  0.22806029710E+03  0.27081750184E+04  0.26985552489E+04 0.  0.
        2    1    3    3  502    0 -0.56057868840E+03 -0.10459889378E+04 -0.53029344540E+03  0.12998278586E+04  0.25500000920E-02 0.  1.
       -2    1    3    3    0  502  0.56057868840E+03  0.10459889378E+04  0.75835374250E+03  0.14083471598E+04  0.25500000920E-02 0. -1.
</event>
<event>
 5   0  0.7351590E-06  0.2704753E+04  0.7818609E-02  0.8333465E-01
       -1   -1    0    0    0  501  0.00000000000E+00  0.00000000000E+00  0.79433258970E+03  0.79433258972E+03  0.50400001928E-02 0. -1.
        1   -1    0    0  501    0  0.00000000000E+00  0.00000000000E+00 -0.23024636611E+04  0.23024636611E+04  0.50400001928E-02 0.  1.
    10030    2    1    2    0    0  0.00000000000E+00  0.00000000000E+00 -0.15081310714E+04  0.30967962508E+04  0.27047527966E+04 0.  0.
        3    1    3    3  502    0 -0.11418305372E+04 -0.14979442584E+03 -0.15658529861E+04  0.19437363324E+04  0.10100000352E+00 0.  1.
       -3    1    3    3    0  502  0.11418305372E+04  0.14979442584E+03  0.57721914753E+02  0.11530599184E+04  0.10100000352E+00 0. -1.
</event>
<event>
 5   0  0.1881699E-05  0.2668142E+04  0.7818609E-02  0.8345416E-01
        2   -1    0    0  501    0  0.00000000000E+00  0.00000000000E+00  0.32377294286E+04  0.32377294286E+04  0.25500000920E-02 0.  1.
       -2   -1    0    0    0  501  0.00000000000E+00  0.00000000000E+00 -0.54968955965E+03  0.54968955966E+03  0.25500000920E-02 0. -1.
    10030    2    1    2    0    0  0.00000000000E+00  0.00000000000E+00  0.26880398689E+04  0.37874189882E+04  0.26681424729E+04 0.  0.
        4    1    3    3  502    0 -0.13332119810E+04  0.46473821885E+02  0.13602325907E+04  0.19052160812E+04  0.12699999809E+01 0.  1.
       -4    1    3    3    0  502  0.13332119810E+04 -0.46473821885E+02  0.13278072782E+04  0.18822029070E+04  0.12699999809E+01 0. -1.
</event>
<event>
 5   0  0.1881699E-05  0.2690907E+04  0.7818609E-02  0.8337961E-01
       -2   -1    0    0    0  501  0.00000000000E+00  0.00000000000E+00  0.74819447004E+03  0.74819447004E+03  0.25500000920E-02 0. -1.
        2   -1    0    0  501    0  0.00000000000E+00  0.00000000000E+00 -0.24194852734E+04  0.24194852734E+04  0.25500000920E-02 0.  1.
    10030    2    1    2    0    0  0.00000000000E+00  0.00000000000E+00 -0.16712908034E+04  0.31676797434E+04  0.26909072834E+04 0.  0.
        4    1    3    3  502    0  0.43288866497E+03  0.56720771189E+03  0.50712675860E+03  0.87538354272E+03  0.12699999809E+01 0. -1.
       -4    1    3    3    0  502 -0.43288866497E+03 -0.56720771189E+03 -0.21784175620E+04  0.22922962007E+04  0.12699999809E+01 0.  1.
</event>
<event>
 5   0  0.1881699E-05  0.2715978E+04  0.7818609E-02  0.8329839E-01
       -2   -1    0    0    0  501  0.00000000000E+00  0.00000000000E+00  0.10277940998E+04  0.10277940998E+04  0.25500000920E-02 0.  1.
        2   -1    0    0  501    0  0.00000000000E+00  0.00000000000E+00 -0.17942647135E+04  0.17942647136E+04  0.25500000920E-02 0. -1.
    10030    2    1    2    0    0  0.00000000000E+00  0.00000000000E+00 -0.76647061371E+03  0.28220588134E+04  0.27159784139E+04 0.  0.
        4    1    3    3  502    0 -0.98477643879E+03  0.46400910675E+03  0.46028772992E+03  0.11819287173E+04  0.12699999809E+01 0.  1.
       -4    1    3    3    0  502  0.98477643879E+03 -0.46400910675E+03 -0.12267583436E+04  0.16401300961E+04  0.12699999809E+01 0. -1.
</event>
<event>
 5   0  0.1931119E-05  0.2763691E+04  0.7818609E-02  0.8314630E-01
       -2   -1    0    0    0  501  0.00000000000E+00  0.00000000000E+00  0.76462459458E+03  0.76462459459E+03  0.25500000920E-02 0.  1.
        2   -1    0    0  501    0  0.00000000000E+00  0.00000000000E+00 -0.24972991830E+04  0.24972991830E+04  0.25500000920E-02 0. -1.
    10030    2    1    2    0    0  0.00000000000E+00  0.00000000000E+00 -0.17326745884E+04  0.32619237776E+04  0.27636905582E+04 0.  0.
        3    1    3    3  502    0  0.84109546697E+03  0.99539796189E+03 -0.32387433815E+03  0.13428154319E+04  0.10100000352E+00 0.  1.
       -3    1    3    3    0  502 -0.84109546697E+03 -0.99539796189E+03 -0.14088002503E+04  0.19191083457E+04  0.10100000352E+00 0. -1.
</event>
<event>
 5   0  0.7348964E-06  0.2747263E+04  0.7818609E-02  0.8319831E-01
        1   -1    0    0  501    0  0.00000000000E+00  0.00000000000E+00  0.23285205129E+04  0.23285205129E+04  0.50400001928E-02 0.  1.
       -1   -1    0    0    0  501  0.00000000000E+00  0.00000000000E+00 -0.81032695690E+03  0.81032695692E+03  0.50400001928E-02 0. -1.
    10030    2    1    2    0    0  0.00000000000E+00  0.00000000000E+00  0.15181935560E+04  0.31388474699E+04  0.27472625949E+04 0.  0.
        1    1    3    3  502    0  0.39959578184E+03 -0.17965364662E+03  0.22465504636E+04  0.22888733488E+04  0.50400001928E-02 0.  1.
       -1    1    3    3    0  502 -0.39959578184E+03  0.17965364662E+03 -0.72835690755E+03  0.84997412102E+03  0.50400001928E-02 0. -1.
</event>
<event>
 5   0  0.1788003E-05  0.2617630E+04  0.7818609E-02  0.8362237E-01
       -2   -1    0    0    0  501  0.00000000000E+00  0.00000000000E+00  0.10599007545E+04  0.10599007545E+04  0.25500000920E-02 0. -1.
        2   -1    0    0  501    0  0.00000000000E+00  0.00000000000E+00 -0.16161864017E+04  0.16161864017E+04  0.25500000920E-02 0.  1.
    10030    2    1    2    0    0  0.00000000000E+00  0.00000000000E+00 -0.55628564720E+03  0.26760871562E+04  0.26176303686E+04 0.  0.
        2    1    3    3  502    0 -0.49989742322E+03  0.11044531561E+04 -0.78239501653E+03  0.14428638777E+04  0.25500000920E-02 0. -1.
       -2    1    3    3    0  502  0.49989742322E+03 -0.11044531561E+04  0.22610936933E+03  0.12332232785E+04  0.25500000920E-02 0.  1.
</event>
<event>
 5   0  0.1878160E-05  0.2601676E+04  0.7818609E-02  0.8367632E-01
        2   -1    0    0  501    0  0.00000000000E+00  0.00000000000E+00  0.12767194158E+04  0.12767194158E+04  0.25500000920E-02 0.  1.
       -2   -1    0    0    0  501  0.00000000000E+00  0.00000000000E+00 -0.13254122143E+04  0.13254122143E+04  0.25500000920E-02 0. -1.
    10030    2    1    2    0    0  0.00000000000E+00  0.00000000000E+00 -0.48692798552E+02  0.26021316301E+04  0.26016760044E+04 0.  0.
        1    1    3    3  502    0  0.11776792397E+04  0.24795671719E+03 -0.51816212542E+03  0.13103064197E+04  0.50400001928E-02 0.  1.
       -1    1    3    3    0  502 -0.11776792397E+04 -0.24795671719E+03  0.46946932687E+03  0.12918252104E+04  0.50400001928E-02 0. -1.
</event>
<event>
 5   0  0.6804685E-06  0.2717686E+04  0.7818609E-02  0.8329289E-01
       -1   -1    0    0    0  501  0.00000000000E+00  0.00000000000E+00  0.14315500490E+04  0.14315500490E+04  0.50400001928E-02 0. -1.
        1   -1    0    0  501    0  0.00000000000E+00  0.00000000000E+00 -0.12898290470E+04  0.12898290470E+04  0.50400001928E-02 0.  1.
    10030    2    1    2    0    0  0.00000000000E+00  0.00000000000E+00  0.14172100193E+03  0.27213790960E+04  0.27176863950E+04 0.  0.
        2    1    3    3  502    0 -0.59736915644E+03  0.12203079040E+04  0.92186055010E+02  0.13618001169E+04  0.25500000920E-02 0. -1.
       -2    1    3    3    0  502  0.59736915644E+03 -0.12203079040E+04  0.49534946916E+02  0.13595789791E+04  0.25500000920E-02 0.  1.
</event>
<event>
 5   0  0.6804685E-06  0.2595345E+04  0.7818609E-02  0.8369784E-01
        1   -1    0    0  501    0  0.00000000000E+00  0.00000000000E+00  0.14328159281E+04  0.14328159281E+04  0.50400001928E-02 0. -1.
       -1   -1    0    0    0  501  0.00000000000E+00  0.00000000000E+00 -0.11752754985E+04  0.11752754985E+04  0.50400001928E-02 0.  1.
    10030    2    1    2    0    0  0.00000000000E+00  0.00000000000E+00  0.25754042955E+03  0.26080914266E+04  0.25953446431E+04 0.  0.
        2    1    3    3  502    0 -0.45576511166E+03  0.11463511094E+04 -0.27583705657E+03  0.12640920792E+04  0.25500000920E-02 0.  1.
       -2    1    3    3    0  502  0.45576511166E+03 -0.11463511094E+04  0.53337748613E+03  0.13439993474E+04  0.25500000920E-02 0. -1.
</event>
<event>
 5   0  0.1878160E-05  0.2682877E+04  0.7818609E-02  0.8340582E-01
        2   -1    0    0  501    0  0.00000000000E+00  0.00000000000E+00  0.26761822418E+04  0.26761822418E+04  0.25500000920E-02 0.  1.
       -2   -1    0    0    0  501  0.00000000000E+00  0.00000000000E+00 -0.67239702831E+03  0.67239702832E+03  0.25500000920E-02 0. -1.
    10030    2    1    2    0    0  0.00000000000E+00  0.00000000000E+00  0.20037852134E+04  0.33485792701E+04  0.26828768042E+04 0.  0.
        1    1    3    3  502    0 -0.28578564934E+03  0.32729055204E+02  0.26372347186E+04  0.26528760977E+04  0.50400001928E-02 0.  1.
       -1    1    3    3    0  502  0.28578564934E+03 -0.32729055204E+02 -0.63344950520E+03  0.69570317240E+03  0.50400001928E-02 0. -1.
</event>
<event>
 5   0  0.1881699E-05  0.2626164E+04  0.7818609E-02  0.8359368E-01
        2   -1    0    0  501    0  0.00000000000E+00  0.00000000000E+00  0.21172894846E+04  0.21172894846E+04  0.25500000920E-02 0. -1.
       -2   -1    0    0    0  501  0.00000000000E+00  0.00000000000E+00 -0.81433578964E+03  0.81433578964E+03  0.25500000920E-02 0.  1.
    10030    2    1    2    0    0  0.00000000000E+00  0.00000000000E+00  0.13029536949E+04  0.29316252742E+04  0.26261642023E+04 0.  0.
        4    1    3    3  502    0  0.10642086177E+03  0.76754763804E+02 -0.80699836804E+03  0.81759688876E+03  0.12699999809E+01 0.  1.
       -4    1    3    3    0  502 -0.10642086177E+03 -0.76754763804E+02  0.21099520630E+04  0.21140283854E+04  0.12699999809E+01 0. -1.
</event>
<event>
 5   0  0.1881699E-05  0.2735668E+04  0.7818609E-02  0.8323524E-01
        2   -1    0    0  501    0  0.00000000000E+00  0.00000000000E+00  0.16429293081E+04  0.16429293081E+04  0.25500000920E-02 0.  1.
       -2   -1    0    0    0  501  0.00000000000E+00  0.00000000000E+00 -0.11388008853E+04  0.11388008854E+04  0.25500000920E-02 0. -1.
    10030    2    1    2    0    0  0.00000000000E+00  0.00000000000E+00  0.50412842279E+03  0.27817301935E+04  0.27356676338E+04 0.  0.
        4    1    3    3  502    0 -0.15389038433E+03 -0.44552166412E+03 -0.10536109012E+04  0.11542397271E+04  0.12699999809E+01 0. -1.
       -4    1    3    3    0  502  0.15389038433E+03  0.44552166412E+03  0.15577393240E+04  0.16274904664E+04  0.12699999809E+01 0.  1.
</event>
<event>
 5   0  0.7351590E-06  0.2617715E+04  0.7818609E-02  0.8362209E-01
       -1   -1    0    0    0  501  0.00000000000E+00  0.00000000000E+00  0.11200629300E+04  0.11200629300E+04  0.50400001928E-02 0.  1.
        1   -1    0    0  501    0  0.00000000000E+00  0.00000000000E+00 -0.15294750280E+04  0.15294750280E+04  0.50400001928E-02 0. -1.
    10030    2    1    2    0    0  0.00000000000E+00  0.00000000000E+00 -0.40941209797E+03  0.26495379580E+04  0.26177152490E+04 0.  0.
        3    1    3    3  502    0 -0.53326864983E+03 -0.39513661369E+03 -0.13465156247E+04  0.15012037617E+04  0.10100000352E+00 0. -1.
       -3    1    3    3    0  502  0.53326864983E+03  0.39513661369E+03  0.93710352675E+03  0.11483341963E+04  0.10100000352E+00 0.  1.
</event>
<event>
 5   0  0.7600052E-06  0.1937887E+04  0.7818609E-02  0.8636224E-01
        1   -1    0    0  501    0  0.00000000000E+00  0.00000000000E+00  0.12437526584E+04  0.12437526584E+04  0.50400001928E-02 0. -1.
       -1   -1    0    0    0  501  0.00000000000E+00  0.00000000000E+00 -0.75485369708E+03  0.75485369709E+03  0.50400001928E-02 0.  1.
    10030    2    1    2    0    0  0.00000000000E+00  0.00000000000E+00  0.48889896131E+03  0.19986063555E+04  0.19378867794E+04 0.  0.
        5    1    3    3  502    0  0.64046705196E+03 -0.40807128447E+03  0.86505911676E+03  0.11511166680E+04  0.46999998093E+01 0. -1.
       -5    1    3    3    0  502 -0.64046705196E+03  0.40807128447E+03 -0.37616015545E+03  0.84748968749E+03  0.46999998093E+01 0.  1.
</event>
<event>
 5   0  0.1788003E-05  0.2753385E+04  0.7818609E-02  0.8317888E-01
        2   -1    0    0  501    0  0.00000000000E+00  0.00000000000E+00  0.17507553770E+04  0.17507553770E+04  0.25500000920E-02 0.  1.
       -2   -1    0    0    0  501  0.00000000000E+00  0.00000000000E+00 -0.10825513177E+04  0.10825513177E+04  0.25500000920E-02 0. -1.
    10030    2    1    2    0    0  0.00000000000E+00  0.00000000000E+00  0.66820405930E+03  0.28333066947E+04  0.27533852185E+04 0.  0.
        2    1    3    3  502    0  0.67047145759E+03 -0.11982984838E+04  0.43613306118E+03  0.14407162381E+04  0.25500000920E-02 0.  1.
       -2    1    3    3    0  502 -0.67047145759E+03  0.11982984838E+04  0.23207099812E+03  0.13925904566E+04  0.25500000920E-02 0. -1.
</event>
<event>
 5   0  0.6804685E-06  0.2704729E+04  0.7818609E-02  0.8333472E-01
        1   -1    0    0  501    0  0.00000000000E+00  0.00000000000E+00  0.23740740501E+04  0.23740740501E+04  0.50400001928E-02 0. -1.
       -1   -1    0    0    0  501  0.00000000000E+00  0.00000000000E+00 -0.77035932716E+03  0.77035932717E+03  0.50400001928E-02 0.  1.
    10030    2    1    2    0    0  0.00000000000E+00  0.00000000000E+00  0.16037147229E+04  0.31444333773E+04  0.27047292566E+04 0.  0.
        2    1    3    3  502    0 -0.31071695833E+03 -0.51736880604E+03 -0.60512667721E+03  0.85463080048E+03  0.25500000920E-02 0.  1.
       -2    1    3    3    0  502  0.31071695833E+03  0.51736880604E+03  0.22088414001E+04  0.22898025768E+04  0.25500000920E-02 0. -1.
</event>
<event>
 5   0  0.6804685E-06  0.2656467E+04  0.7818609E-02  0.8349270E-01
       -1   -1    0    0    0  501  0.00000000000E+00  0.00000000000E+00  0.81393894588E+03  0.81393894590E+03  0.50400001928E-02 0.  1.
        1   -1    0    0  501    0  0.00000000000E+00  0.00000000000E+00 -0.21674896868E+04  0.21674896868E+04  0.50400001928E-02 0. -1.
    10030    2    1    2    0    0  0.00000000000E+00  0.00000000000E+00 -0.13535507409E+04  0.29814286327E+04  0.26564670304E+04 0.  0.
        2    1    3    3  502    0 -0.87990845615E+03 -0.77258075614E+02  0.43653634684E+03  0.98527746527E+03  0.25500000920E-02 0.  1.
       -2    1    3    3    0  502  0.87990845615E+03  0.77258075614E+02 -0.17900870877E+04  0.19961511674E+04  0.25500000920E-02 0. -1.
</event>
<event>
 5   0  0.7348964E-06  0.2689391E+04  0.7818609E-02  0.8338456E-01
        1   -1    0    0  501    0  0.00000000000E+00  0.00000000000E+00  0.26409150653E+04  0.26409150653E+04  0.50400001928E-02 0.  1.
       -1   -1    0    0    0  501  0.00000000000E+00  0.00000000000E+00 -0.68468900668E+03  0.68468900670E+03  0.50400001928E-02 0. -1.
    10030    2    1    2    0    0  0.00000000000E+00  0.00000000000E+00  0.19562260587E+04  0.33256040720E+04  0.26893906469E+04 0.  0.
        1    1    3    3  502    0  0.89106890791E+02  0.72031657306E+02 -0.67864156676E+03  0.68824630315E+03  0.50400001928E-02 0. -1.
       -1    1    3    3    0  502 -0.89106890791E+02 -0.72031657306E+02  0.26348676254E+04  0.26373577689E+04  0.50400001928E-02 0.  1.
</event>
<event>
 5   0  0.1788003E-05  0.2748719E+04  0.7818609E-02  0.8319368E-01
       -2   -1    0    0    0  501  0.00000000000E+00  0.00000000000E+00  0.13636720325E+04  0.13636720325E+04  0.25500000920E-02 0.  1.
        2   -1    0    0  501    0  0.00000000000E+00  0.00000000000E+00 -0.13851311296E+04  0.13851311296E+04  0.25500000920E-02 0. -1.
    10030    2    1    2    0    0  0.00000000000E+00  0.00000000000E+00 -0.21459097074E+02  0.27488031622E+04  0.27487193985E+04 0.  0.
        2    1    3    3  502    0 -0.45992099352E+03 -0.23204234290E+03 -0.12849322651E+04  0.13843489066E+04  0.25500000920E-02 0. -1.
       -2    1    3    3    0  502  0.45992099352E+03  0.23204234290E+03  0.12634731680E+04  0.13644542556E+04  0.25500000920E-02 0.  1.
</event>
<event>
 5   0  0.1881699E-05  0.2694947E+04  0.7818609E-02  0.8336646E-01
        2   -1    0    0  501    0  0.00000000000E+00  0.00000000000E+00  0.19247674864E+04  0.19247674864E+04  0.25500000920E-02 0. -1.
       -2   -1    0    0    0  501  0.00000000000E+00  0.00000000000E+00 -0.94332715218E+03  0.94332715218E+03  0.25500000920E-02 0.  1.
    10030    2    1    2    0    0  0.00000000000E+00  0.00000000000E+00  0.98144033421E+03  0.28680946386E+04  0.26949474441E+04 0.  0.
        4    1    3    3  502    0  0.12958793663E+04  0.32785467124E+03  0.30982353287E+03  0.13721458566E+04  0.12699999809E+01 0.  1.
       -4    1    3    3    0  502 -0.12958793663E+04 -0.32785467124E+03  0.67161680134E+03  0.14959487819E+04  0.12699999809E+01 0. -1.
</event>
<event>
 5   0  0.7351590E-06  0.2721440E+04  0.7818609E-02  0.8328082E-01
        1   -1    0    0  501    0  0.00000000000E+00  0.00000000000E+00  0.23728180768E+04  0.23728180768E+04  0.50400001928E-02 0. -1.
       -1   -1    0    0    0  501  0.00000000000E+00  0.00000000000E+00 -0.78032038683E+03  0.78032038685E+03  0.50400001928E-02 0.  1.
    10030    2    1    2    0    0  0.00000000000E+00  0.00000000000E+00  0.15924976900E+04  0.31531384637E+04  0.27214395599E+04 0.  0.
        3    1    3    3  502    0  0.73303514247E+03  0.96719027164E+03  0.15093101060E+04  0.19367019770E+04  0.10100000352E+00 0. -1.
       -3    1    3    3    0  502 -0.73303514247E+03 -0.96719027164E+03  0.83187584008E+02  0.12164364866E+04  0.10100000352E+00 0.  1.
</event>
<event>
 5   0  0.1878160E-05  0.2674664E+04  0.7818609E-02  0.8343273E-01
       -2   -1    0    0    0  501  0.00000000000E+00  0.00000000000E+00  0.15304086740E+04  0.15304086740E+04  0.25500000920E-02 0. -1.
        2   -1    0    0  501    0  0.00000000000E+00  0.00000000000E+00 -0.11686141882E+04  0.11686141882E+04  0.25500000920E-02 0.  1.
    10030    2    1    2    0    0  0.00000000000E+00  0.00000000000E+00  0.36179448581E+03  0.26990228622E+04  0.26746643081E+04 0.  0.
        1    1    3    3  502    0  0.10725599699E+04  0.37114891941E+03 -0.53287818849E+03  0.12538323545E+04  0.50400001928E-02 0.  1.
       -1    1    3    3    0  502 -0.10725599699E+04 -0.37114891941E+03  0.89467267431E+03  0.14451905077E+04  0.50400001928E-02 0. -1.
</event>
<event>
 5   0  0.6804685E-06  0.2714106E+04  0.7818609E-02  0.8330442E-01
       -1   -1    0    0    0  501  0.00000000000E+00  0.00000000000E+00  0.10660330881E+04  0.10660330881E+04  0.50400001928E-02 0.  1.
        1   -1    0    0  501    0  0.00000000000E+00  0.00000000000E+00 -0.17275197629E+04  0.17275197629E+04  0.50400001928E-02 0. -1.
    10030    2    1    2    0    0  0.00000000000E+00  0.00000000000E+00 -0.66148667473E+03  0.27935528510E+04  0.27141062821E+04 0.  0.
        2    1    3    3  502    0  0.33181101843E+02  0.43870140653E+03  0.99059195703E+03  0.10838968286E+04  0.25500000920E-02 0.  1.
       -2    1    3    3    0  502 -0.33181101843E+02 -0.43870140653E+03 -0.16520786318E+04  0.17096560225E+04  0.25500000920E-02 0. -1.
</event>
<event>
 5   0  0.7348964E-06  0.2719095E+04  0.7818609E-02  0.8328836E-01
        1   -1    0    0  501    0  0.00000000000E+00  0.00000000000E+00  0.21105172898E+04  0.21105172898E+04  0.50400001928E-02 0.  1.
       -1   -1    0    0    0  501  0.00000000000E+00  0.00000000000E+00 -0.87579002384E+03  0.87579002386E+03  0.50400001928E-02 0. -1.
    10030    2    1    2    0    0  0.00000000000E+00  0.00000000000E+00  0.12347272659E+04  0.29863073136E+04  0.27190954287E+04 0.  0.
        1    1    3    3  502    0  0.41716614187E+03  0.12902985564E+04  0.51047496960E+03  0.14489591607E+04  0.50400001928E-02 0. -1.
       -1    1    3    3    0  502 -0.41716614187E+03 -0.12902985564E+04  0.72425229632E+03  0.15373481530E+04  0.50400001928E-02 0.  1.
</event>
<event>
 5   0  0.7351590E-06  0.2672395E+04  0.7818609E-02  0.8344018E-01
        1   -1    0    0  501    0  0.00000000000E+00  0.00000000000E+00  0.81445105314E+03  0.81445105316E+03  0.50400001928E-02 0. -1.
       -1   -1    0    0    0  501  0.00000000000E+00  0.00000000000E+00 -0.21921813188E+04  0.21921813188E+04  0.50400001928E-02 0.  1.
    10030    2    1    2    0    0  0.00000000000E+00  0.00000000000E+00 -0.13777302657E+04  0.30066323720E+04  0.26723954676E+04 0.  0.
        3    1    3    3  502    0 -0.11257901326E+04 -0.56096703541E+03 -0.18153840843E+03  0.12708436731E+04  0.10100000352E+00 0. -1.
       -3    1    3    3    0  502  0.11257901326E+04  0.56096703541E+03 -0.11961918572E+04  0.17357886989E+04  0.10100000352E+00 0.  1.
</event>
<event>
 5   0  0.7348964E-06  0.2725229E+04  0.7818609E-02  0.8326865E-01
        1   -1    0    0  501    0  0.00000000000E+00  0.00000000000E+00  0.23732435375E+04  0.23732435375E+04  0.50400001928E-02 0.  1.
       -1   -1    0    0    0  501  0.00000000000E+00  0.00000000000E+00 -0.78235446192E+03  0.78235446193E+03  0.50400001928E-02 0. -1.
    10030    2    1    2    0    0  0.00000000000E+00  0.00000000000E+00  0.15908890756E+04  0.31555979994E+04  0.27252285562E+04 0.  0.
        1    1    3    3  502    0  0.17532099828E+02 -0.10503350924E+04  0.18003744370E+04  0.20844326072E+04  0.50400001928E-02 0.  1.
       -1    1    3    3    0  502 -0.17532099828E+02  0.10503350924E+04 -0.20948536139E+03  0.10711653922E+04  0.50400001928E-02 0. -1.
</event>
<event>
 5   0  0.7348964E-06  0.2721745E+04  0.7818609E-02  0.8327984E-01
        1   -1    0    0  501    0  0.00000000000E+00  0.00000000000E+00  0.10472118782E+04  0.10472118782E+04  0.50400001928E-02 0.  1.
       -1   -1    0    0    0  501  0.00000000000E+00  0.00000000000E+00 -0.17684802779E+04  0.17684802779E+04  0.50400001928E-02 0. -1.
    10030    2    1    2    0    0  0.00000000000E+00  0.00000000000E+00 -0.72126839976E+03  0.28156921561E+04  0.27217447003E+04 0.  0.
        1    1    3    3  502    0  0.72064385204E+03 -0.98584952360E+03  0.26071962172E+03  0.12486799293E+04  0.50400001928E-02 0.  1.
       -1    1    3    3    0  502 -0.72064385204E+03  0.98584952360E+03 -0.98198802149E+03  0.15670122268E+04  0.50400001928E-02 0. -1.
</event>
<event>
 5   0  0.6804685E-06  0.2677817E+04  0.7818609E-02  0.8342239E-01
        1   -1    0    0  501    0  0.00000000000E+00  0.00000000000E+00  0.14438085375E+04  0.14438085375E+04  0.50400001928E-02 0. -1.
       -1   -1    0    0    0  501  0.00000000000E+00  0.00000000000E+00 -0.12416302376E+04  0.12416302376E+04  0.50400001928E-02 0.  1.
    10030    2    1    2    0    0  0.00000000000E+00  0.00000000000E+00  0.20217829991E+03  0.26854387751E+04  0.26778172734E+04 0.  0.
        2    1    3    3  502    0 -0.88998957044E+03 -0.10001875735E+04  0.11595428750E+03  0.13438385373E+04  0.25500000920E-02 0.  1.
       -2    1    3    3    0  502  0.88998957044E+03  0.10001875735E+04  0.86224012408E+02  0.13416002378E+04  0.25500000920E-02 0. -1.
</event>
<event>
 5   0  0.7348964E-06  0.2295206E+04  0.7818609E-02  0.8479814E-01
       -1   -1    0    0    0  501  0.00000000000E+00  0.00000000000E+00  0.74465471395E+03  0.74465471397E+03  0.50400001928E-02 0.  1.
        1   -1    0    0  501    0  0.00000000000E+00  0.00000000000E+00 -0.17685942972E+04  0.17685942972E+04  0.50400001928E-02 0. -1.
    10030    2    1    2    0    0  0.00000000000E+00  0.00000000000E+00 -0.10239395832E+04  0.25132490112E+04  0.22952055076E+04 0.  0.
        1    1    3    3  502    0 -0.38426765132E+03 -0.73816440071E+03 -0.13772576535E+04  0.16091572187E+04  0.50400001928E-02 0. -1.
       -1    1    3    3    0  502  0.38426765132E+03  0.73816440071E+03  0.35331807030E+03  0.90409179244E+03  0.50400001928E-02 0.  1.
</event>
<event>
 5   0  0.1788003E-05  0.2734508E+04  0.7818609E-02  0.8323894E-01
       -2   -1    0    0    0  501  0.00000000000E+00  0.00000000000E+00  0.18756965688E+04  0.18756965688E+04  0.25500000920E-02 0. -1.
        2   -1    0    0  501    0  0.00000000000E+00  0.00000000000E+00 -0.99663427789E+03  0.99663427789E+03  0.25500000920E-02 0.  1.
    10030    2    1    2    0    0  0.00000000000E+00  0.00000000000E+00  0.87906229087E+03  0.28723308467E+04  0.27345079962E+04 0.  0.
        2    1    3    3  502    0  0.12429661838E+04  0.54588200016E+03  0.61030263817E+03  0.14884291727E+04  0.25500000920E-02 0.  1.
       -2    1    3    3    0  502 -0.12429661838E+04 -0.54588200016E+03  0.26875965270E+03  0.13839016739E+04  0.25500000920E-02 0. -1.
</event>
<event>
 5   0  0.6804685E-06  0.2684674E+04  0.7818609E-02  0.8339995E-01
       -1   -1    0    0    0  501  0.00000000000E+00  0.00000000000E+00  0.70738025952E+03  0.70738025954E+03  0.50400001928E-02 0. -1.
        1   -1    0    0  501    0  0.00000000000E+00  0.00000000000E+00 -0.25472415632E+04  0.25472415632E+04  0.50400001928E-02 0.  1.
    10030    2    1    2    0    0  0.00000000000E+00  0.00000000000E+00 -0.18398613036E+04  0.32546218227E+04  0.26846738335E+04 0.  0.
        2    1    3    3  502    0 -0.69932137927E+02 -0.13106193056E+04 -0.12612195373E+04  0.18202439917E+04  0.25500000920E-02 0.  1.
       -2    1    3    3    0  502  0.69932137927E+02  0.13106193056E+04 -0.57864176634E+03  0.14343778310E+04  0.25500000920E-02 0. -1.
</event>
<event>
 5   0  0.7600052E-06  0.2654366E+04  0.7818609E-02  0.8349965E-01
        1   -1    0    0  501    0  0.00000000000E+00  0.00000000000E+00  0.10794990617E+04  0.10794990617E+04  0.50400001928E-02 0.  1.
       -1   -1    0    0    0  501  0.00000000000E+00  0.00000000000E+00 -0.16316966957E+04  0.16316966957E+04  0.50400001928E-02 0. -1.
    10030    2    1    2    0    0  0.00000000000E+00  0.00000000000E+00 -0.55219763407E+03  0.27111957574E+04  0.26543662535E+04 0.  0.
        5    1    3    3  502    0 -0.96769780863E+03 -0.39715500990E+01 -0.12038055755E+04  0.15445467865E+04  0.46999998093E+01 0. -1.
       -5    1    3    3    0  502  0.96769780863E+03  0.39715500990E+01  0.65160794143E+03  0.11666489709E+04  0.46999998093E+01 0.  1.
</event>
<event>
 5   0  0.1878160E-05  0.2667742E+04  0.7818609E-02  0.8345548E-01
       -2   -1    0    0    0  501  0.00000000000E+00  0.00000000000E+00  0.16488649035E+04  0.16488649035E+04  0.25500000920E-02 0.  1.
        2   -1    0    0  501    0  0.00000000000E+00  0.00000000000E+00 -0.10790523607E+04  0.10790523607E+04  0.25500000920E-02 0. -1.
    10030    2    1    2    0    0  0.00000000000E+00  0.00000000000E+00  0.56981254281E+03  0.27279172643E+04  0.26677417916E+04 0.  0.
        1    1    3    3  502    0  0.81994476547E+03  0.80324639892E+03 -0.40990379644E+03  0.12188253846E+04  0.50400001928E-02 0. -1.
       -1    1    3    3    0  502 -0.81994476547E+03 -0.80324639892E+03  0.97971633925E+03  0.15090918796E+04  0.50400001928E-02 0.  1.
</event>
<event>
 5   0  0.1878160E-05  0.2695582E+04  0.7818609E-02  0.8336440E-01
       -2   -1    0    0    0  501  0.00000000000E+00  0.00000000000E+00  0.17529908211E+04  0.17529908211E+04  0.25500000920E-02 0.  1.
        2   -1    0    0  501    0  0.00000000000E+00  0.00000000000E+00 -0.10362525723E+04  0.10362525723E+04  0.25500000920E-02 0. -1.
    10030    2    1    2    0    0  0.00000000000E+00  0.00000000000E+00  0.71673824876E+03  0.27892433934E+04  0.26955824955E+04 0.  0.
        1    1    3    3  502    0  0.83716170228E+03  0.89899475371E+03  0.93217287437E+03  0.15420692432E+04  0.50400001928E-02 0.  1.
       -1    1    3    3    0  502 -0.83716170228E+03 -0.89899475371E+03 -0.21543462561E+03  0.12471741502E+04  0.50400001928E-02 0. -1.
</event>
<event>
 5   0  0.1788003E-05  0.2664426E+04  0.7818609E-02  0.8346641E-01
        2   -1    0    0  501    0  0.00000000000E+00  0.00000000000E+00  0.97539517097E+03  0.97539517097E+03  0.25500000920E-02 0.  1.
       -2   -1    0    0    0  501  0.00000000000E+00  0.00000000000E+00 -0.18195608697E+04  0.18195608697E+04  0.25500000920E-02 0. -1.
    10030    2    1    2    0    0  0.00000000000E+00  0.00000000000E+00 -0.84416569877E+03  0.27949560407E+04  0.26644255558E+04 0.  0.
        2    1    3    3  502    0 -0.47778007746E+03 -0.12406740384E+04 -0.33279528117E+03  0.13705103324E+04  0.25500000920E-02 0.  1.
       -2    1    3    3    0  502  0.47778007746E+03  0.12406740384E+04 -0.51137041760E+03  0.14244457083E+04  0.25500000920E-02 0. -1.
</event>
<event>
 5   0  0.1826851E-05  0.2708395E+04  0.7818609E-02  0.8332286E-01
       -2   -1    0    0    0  501  0.00000000000E+00  0.00000000000E+00  0.19649135329E+04  0.19649135330E+04  0.25500000920E-02 0. -1.
        2   -1    0    0  501    0  0.00000000000E+00  0.00000000000E+00 -0.93329877485E+03  0.93329877485E+03  0.25500000920E-02 0.  1.
    10030    2    1    2    0    0  0.00000000000E+00  0.00000000000E+00  0.10316147581E+04  0.28982123078E+04  0.27083953869E+04 0.  0.
        5    1    3    3  502    0  0.47249159374E+03 -0.87262335504E+03  0.15018597350E+04  0.18000901587E+04  0.46999998093E+01 0. -1.
       -5    1    3    3    0  502 -0.47249159374E+03  0.87262335504E+03 -0.47024497693E+03  0.10981221491E+04  0.46999998093E+01 0.  1.
</event>
<event>
 5   0  0.7754912E-06  0.2758893E+04  0.7818609E-02  0.8316145E-01
        1   -1    0    0  501    0  0.00000000000E+00  0.00000000000E+00  0.14324119247E+04  0.14324119247E+04  0.50400001928E-02 0.  1.
       -1   -1    0    0    0  501  0.00000000000E+00  0.00000000000E+00 -0.13284391109E+04  0.13284391109E+04  0.50400001928E-02 0. -1.
    10030    2    1    2    0    0  0.00000000000E+00  0.00000000000E+00  0.10397281383E+03  0.27608510356E+04  0.27588925486E+04 0.  0.
        4    1    3    3  502    0  0.22839559252E+03  0.70281692779E+03  0.12176112108E+04  0.14243225949E+04  0.12699999809E+01 0.  1.
       -4    1    3    3    0  502 -0.22839559252E+03 -0.70281692779E+03 -0.11136383970E+04  0.13365284407E+04  0.12699999809E+01 0. -1.
</event>
<event>
 5   0  0.1878160E-05  0.2747121E+04  0.7818609E-02  0.8319876E-01
       -2   -1    0    0    0  501  0.00000000000E+00  0.00000000000E+00  0.10958305145E+04  0.10958305145E+04  0.25500000920E-02 0.  1.
        2   -1    0    0  501    0  0.00000000000E+00  0.00000000000E+00 -0.17216795320E+04  0.17216795320E+04  0.25500000920E-02 0. -1.
    10030    2    1    2    0    0  0.00000000000E+00  0.00000000000E+00 -0.62584901751E+03  0.28175100466E+04  0.27471213788E+04 0.  0.
        1    1    3    3  502    0 -0.74992106109E+03  0.57648952792E+03  0.70856027381E+03  0.11818542361E+04  0.50400001928E-02 0.  1.
       -1    1    3    3    0  502  0.74992106109E+03 -0.57648952792E+03 -0.13344092913E+04  0.16356558105E+04  0.50400001928E-02 0. -1.
</event>
<event>
 5   0  0.7348964E-06  0.2703391E+04  0.7818609E-02  0.8333906E-01
       -1   -1    0    0    0  501  0.00000000000E+00  0.00000000000E+00  0.80777106986E+03  0.80777106987E+03  0.50400001928E-02 0. -1.
        1   -1    0    0  501    0  0.00000000000E+00  0.00000000000E+00 -0.22618789933E+04  0.22618789934E+04  0.50400001928E-02 0.  1.
    10030    2    1    2    0    0  0.00000000000E+00  0.00000000000E+00 -0.14541079235E+04  0.30696500632E+04  0.27033907704E+04 0.  0.
        1    1    3    3  502    0 -0.13473187512E+04 -0.45119149268E+02 -0.61477982447E+03  0.14816402355E+04  0.50400001928E-02 0.  1.
       -1    1    3    3    0  502  0.13473187512E+04  0.45119149268E+02 -0.83932809902E+03  0.15880098277E+04  0.50400001928E-02 0. -1.
</event>
<event>
 5   0  0.6804685E-06  0.2766242E+04  0.7818609E-02  0.8313826E-01
        1   -1    0    0  501    0  0.00000000000E+00  0.00000000000E+00  0.17942370137E+04  0.17942370137E+04  0.50400001928E-02 0.  1.
       -1   -1    0    0    0  501  0.00000000000E+00  0.00000000000E+00 -0.10662041975E+04  0.10662041975E+04  0.50400001928E-02 0. -1.
    10030    2    1    2    0    0  0.00000000000E+00  0.00000000000E+00  0.72803281621E+03  0.28604412112E+04  0.27662415189E+04 0.  0.
        2    1    3    3  502    0 -0.62940460077E+02 -0.65538193733E+03 -0.89376655185E+03  0.11100926243E+04  0.25500000920E-02 0. -1.
       -2    1    3    3    0  502  0.62940460077E+02  0.65538193733E+03  0.16217993681E+04  0.17503485869E+04  0.25500000920E-02 0.  1.
</event>
<event>
 5   0  0.7351590E-06  0.2729827E+04  0.7818609E-02  0.8325392E-01
        1   -1    0    0  501    0  0.00000000000E+00  0.00000000000E+00  0.11122370261E+04  0.11122370262E+04  0.50400001928E-02 0. -1.
       -1   -1    0    0    0  501  0.00000000000E+00  0.00000000000E+00 -0.16749927596E+04  0.16749927596E+04  0.50400001928E-02 0.  1.
    10030    2    1    2    0    0  0.00000000000E+00  0.00000000000E+00 -0.56275573347E+03  0.27872297858E+04  0.27298270757E+04 0.  0.
        3    1    3    3  502    0 -0.34026735544E+03  0.25411359289E+03  0.10430624289E+04  0.11262037258E+04  0.10100000352E+00 0. -1.
       -3    1    3    3    0  502  0.34026735544E+03 -0.25411359289E+03 -0.16058181623E+04  0.16610260600E+04  0.10100000352E+00 0.  1.
</event>
<event>
 5   0  0.7600052E-06  0.2673410E+04  0.7818609E-02  0.8343684E-01
        1   -1    0    0  501    0  0.00000000000E+00  0.00000000000E+00  0.14244409020E+04  0.14244409021E+04  0.50400001928E-02 0. -1.
       -1   -1    0    0    0  501  0.00000000000E+00  0.00000000000E+00 -0.12543730898E+04  0.12543730898E+04  0.50400001928E-02 0.  1.
    10030    2    1    2    0    0  0.00000000000E+00  0.00000000000E+00  0.17006781224E+03  0.26788139919E+04  0.26734100588E+04 0.  0.
        5    1    3    3  502    0  0.14499728840E+03  0.38259292793E+03  0.13601456332E+04  0.14203590376E+04  0.46999998093E+01 0. -1.
       -5    1    3    3    0  502 -0.14499728840E+03 -0.38259292793E+03 -0.11900778209E+04  0.12584549543E+04  0.46999998093E+01 0.  1.
</event>
<event>
 5   0  0.6804685E-06  0.2688290E+04  0.7818609E-02  0.8338815E-01
       -1   -1    0    0    0  501  0.00000000000E+00  0.00000000000E+00  0.92103321237E+03  0.92103321238E+03  0.50400001928E-02 0.  1.
        1   -1    0    0  501    0  0.00000000000E+00  0.00000000000E+00 -0.19616288910E+04  0.19616288910E+04  0.50400001928E-02 0. -1.
    10030    2    1    2    0    0  0.00000000000E+00  0.00000000000E+00 -0.10405956786E+04  0.28826621034E+04  0.26882896860E+04 0.  0.
        2    1    3    3  502    0  0.73172350653E+03  0.50701991931E+03 -0.16002073602E+04  0.18311614031E+04  0.25500000920E-02 0. -1.
       -2    1    3    3    0  502 -0.73172350653E+03 -0.50701991931E+03  0.55961168155E+03  0.10515007003E+04  0.25500000920E-02 0.  1.
</event>
<event>
 5   0  0.1878160E-05  0.2687320E+04  0.7818609E-02  0.8339131E-01
       -2   -1    0    0    0  501  0.00000000000E+00  0.00000000000E+00  0.83355637582E+03  0.83355637582E+03  0.25500000920E-02 0.  1.
        2   -1    0    0  501    0  0.00000000000E+00  0.00000000000E+00 -0.21659265986E+04  0.21659265986E+04  0.25500000920E-02 0. -1.
    10030    2    1    2    0    0  0.00000000000E+00  0.00000000000E+00 -0.13323702228E+04  0.29994829744E+04  0.26873197992E+04 0.  0.
        1    1    3    3  502    0 -0.87719442169E+03 -0.48787627816E+03 -0.16632170434E+04  0.19426230333E+04  0.50400001928E-02 0. -1.
       -1    1    3    3    0  502  0.87719442169E+03  0.48787627816E+03  0.33084682064E+03  0.10568599410E+04  0.50400001928E-02 0.  1.
</event>
<event>
 5   0  0.1931119E-05  0.2763884E+04  0.7818609E-02  0.8314569E-01
        2   -1    0    0  501    0  0.00000000000E+00  0.00000000000E+00  0.15257616737E+04  0.15257616737E+04  0.25500000920E-02 0.  1.
       -2   -1    0    0    0  501  0.00000000000E+00  0.00000000000E+00 -0.12516792786E+04  0.12516792786E+04  0.25500000920E-02 0. -1.
    10030    2    1    2    0    0  0.00000000000E+00  0.00000000000E+00  0.27408239504E+03  0.27774409523E+04  0.27638844195E+04 0.  0.
        3    1    3    3  502    0  0.42475860301E+03 -0.10046917585E+04 -0.71561266785E+03  0.13045792045E+04  0.10100000352E+00 0. -1.
       -3    1    3    3    0  502 -0.42475860301E+03  0.10046917585E+04  0.98969506289E+03  0.14728617478E+04  0.10100000352E+00 0.  1.
</event>
<event>
 5   0  0.7348964E-06  0.2698459E+04  0.7818609E-02  0.8335505E-01
       -1   -1    0    0    0  501  0.00000000000E+00  0.00000000000E+00  0.93276892312E+03  0.93276892314E+03  0.50400001928E-02 0.  1.
        1   -1    0    0  501    0  0.00000000000E+00  0.00000000000E+00 -0.19516297773E+04  0.19516297773E+04  0.50400001928E-02 0. -1.
    10030    2    1    2    0    0  0.00000000000E+00  0.00000000000E+00 -0.10188608542E+04  0.28843987004E+04  0.26984585272E+04 0.  0.
        1    1    3    3  502    0  0.10619670986E+04 -0.82130556504E+03 -0.36561327231E+03  0.13913985822E+04  0.50400001928E-02 0. -1.
       -1    1    3    3    0  502 -0.10619670986E+04  0.82130556504E+03 -0.65324758185E+03  0.14930001182E+04  0.50400001928E-02 0.  1.
</event>
<event>
 5   0  0.6804685E-06  0.2508831E+04  0.7818609E-02  0.8399846E-01
        1   -1    0    0  501    0  0.00000000000E+00  0.00000000000E+00  0.20859953946E+04  0.20859953946E+04  0.50400001928E-02 0.  1.
       -1   -1    0    0    0  501  0.00000000000E+00  0.00000000000E+00 -0.75434403823E+03  0.75434403824E+03  0.50400001928E-02 0. -1.
    10030    2    1    2    0    0  0.00000000000E+00  0.00000000000E+00  0.13316513564E+04  0.28403394329E+04  0.25088309546E+04 0.  0.
        2    1    3    3  502    0 -0.88924926610E+03  0.45801793695E+03  0.15228265652E+04  0.18219619742E+04  0.25500000920E-02 0.  1.
       -2    1    3    3    0  502  0.88924926610E+03 -0.45801793695E+03 -0.19117520880E+03  0.10183774587E+04  0.25500000920E-02 0. -1.
</event>
<event>
 5   0  0.7348964E-06  0.2617377E+04  0.7818609E-02  0.8362322E-01
       -1   -1    0    0    0  501  0.00000000000E+00  0.00000000000E+00  0.59735315235E+03  0.59735315237E+03  0.50400001928E-02 0. -1.
        1   -1    0    0  501    0  0.00000000000E+00  0.00000000000E+00 -0.28670911065E+04  0.28670911065E+04  0.50400001928E-02 0.  1.
    10030    2    1    2    0    0  0.00000000000E+00  0.00000000000E+00 -0.22697379542E+04  0.34644442589E+04  0.26173772450E+04 0.  0.
        1    1    3    3  502    0 -0.20587700783E+03 -0.12502220850E+04 -0.70144203512E+03  0.14482615554E+04  0.50400001928E-02 0. -1.
       -1    1    3    3    0  502  0.20587700783E+03  0.12502220850E+04 -0.15682959191E+04  0.20161827035E+04  0.50400001928E-02 0.  1.
</event>
<event>
 5   0  0.7754912E-06  0.2733532E+04  0.7818609E-02  0.8324206E-01
        1   -1    0    0  501    0  0.00000000000E+00  0.00000000000E+00  0.20034423905E+04  0.20034423905E+04  0.50400001928E-02 0. -1.
       -1   -1    0    0    0  501  0.00000000000E+00  0.00000000000E+00 -0.93241978124E+03  0.93241978125E+03  0.50400001928E-02 0.  1.
    10030    2    1    2    0    0  0.00000000000E+00  0.00000000000E+00  0.10710226093E+04  0.29358621718E+04  0.27335320123E+04 0.  0.
        4    1    3    3  502    0  0.10572429002E+04  0.75116117472E+03  0.72259576632E+02  0.12989336856E+04  0.12699999809E+01 0.  1.
       -4    1    3    3    0  502 -0.10572429002E+04 -0.75116117472E+03  0.99876303264E+03  0.16369284861E+04  0.12699999809E+01 0. -1.
</event>
<event>
 5   0  0.7351590E-06  0.2759337E+04  0.7818609E-02  0.8316005E-01
       -1   -1    0    0    0  501  0.00000000000E+00  0.00000000000E+00  0.80900485221E+03  0.80900485223E+03  0.50400001928E-02 0.  1.
        1   -1    0    0  501    0  0.00000000000E+00  0.00000000000E+00 -0.23528727964E+04  0.23528727964E+04  0.50400001928E-02 0. -1.
    10030    2    1    2    0    0  0.00000000000E+00  0.00000000000E+00 -0.15438679442E+04  0.31618776486E+04  0.27593372458E+04 0.  0.
        3    1    3    3  502    0  0.78514192176E+03 -0.11275597994E+04 -0.91526813525E+03  0.16509254096E+04  0.10100000352E+00 0.  1.
       -3    1    3    3    0  502 -0.78514192176E+03  0.11275597994E+04 -0.62859980892E+03  0.15109522390E+04  0.10100000352E+00 0. -1.
</event>
<event>
 5   0  0.1878160E-05  0.2509509E+04  0.7818609E-02  0.8399606E-01
        2   -1    0    0  501    0  0.00000000000E+00  0.00000000000E+00  0.18194857142E+04  0.18194857142E+04  0.25500000920E-02 0. -1.
       -2   -1    0    0    0  501  0.00000000000E+00  0.00000000000E+00 -0.86530425692E+03  0.86530425692E+03  0.25500000920E-02 0.  1.
    10030    2    1    2    0    0  0.00000000000E+00  0.00000000000E+00  0.95418145732E+03  0.26847899712E+04  0.25095089033E+04 0.  0.
        1    1    3    3  502    0 -0.30860095242E+03  0.20332719584E+03  0.17599401552E+04  0.17983230651E+04  0.50400001928E-02 0. -1.
       -1    1    3    3    0  502  0.30860095242E+03 -0.20332719584E+03 -0.80575869787E+03  0.88646690611E+03  0.50400001928E-02 0.  1.
</event>
<event>
 5   0  0.7600052E-06  0.2711099E+04  0.7818609E-02  0.8331413E-01
        1   -1    0    0  501    0  0.00000000000E+00  0.00000000000E+00  0.12150242826E+04  0.12150242826E+04  0.50400001928E-02 0.  1.
       -1   -1    0    0    0  501  0.00000000000E+00  0.00000000000E+00 -0.15123268022E+04  0.15123268022E+04  0.50400001928E-02 0. -1.
    10030    2    1    2    0    0  0.00000000000E+00  0.00000000000E+00 -0.29730251960E+03  0.27273510848E+04  0.27110985138E+04 0.  0.
        5    1    3    3  502    0  0.12004424668E+04  0.61885506261E+03 -0.31990583429E+02  0.13509586197E+04  0.46999998093E+01 0. -1.
       -5    1    3    3    0  502 -0.12004424668E+04 -0.61885506261E+03 -0.26531193617E+03  0.13763924651E+04  0.46999998093E+01 0.  1.
</event>
<event>
 5   0  0.1788003E-05  0.2660356E+04  0.7818609E-02  0.8347984E-01
       -2   -1    0    0    0  501  0.00000000000E+00  0.00000000000E+00  0.11354503066E+04  0.11354503066E+04  0.25500000920E-02 0. -1.
        2   -1    0    0  501    0  0.00000000000E+00  0.00000000000E+00 -0.15583013511E+04  0.15583013511E+04  0.25500000920E-02 0.  1.
    10030    2    1    2    0    0  0.00000000000E+00  0.00000000000E+00 -0.42285104449E+03  0.26937516578E+04  0.26603561769E+04 0.  0.
        2    1    3    3  502    0  0.60730961232E+03  0.38619834925E+03  0.92127676731E+03  0.11690701485E+04  0.25500000920E-02 0. -1.
       -2    1    3    3    0  502 -0.60730961232E+03 -0.38619834925E+03 -0.13441278118E+04  0.15246815092E+04  0.25500000920E-02 0.  1.
</event>
<event>
 5   0  0.7754912E-06  0.2708325E+04  0.7818609E-02  0.8332309E-01
       -1   -1    0    0    0  501  0.00000000000E+00  0.00000000000E+00  0.16283486114E+04  0.16283486114E+04  0.50400001928E-02 0.  1.
        1   -1    0    0  501    0  0.00000000000E+00  0.00000000000E+00 -0.11261445030E+04  0.11261445031E+04  0.50400001928E-02 0. -1.
    10030    2    1    2    0    0  0.00000000000E+00  0.00000000000E+00  0.50220410834E+03  0.27544931145E+04  0.27083248238E+04 0.  0.
        4    1    3    3  502    0 -0.12798071501E+04  0.39938435695E+03  0.44498227941E+03  0.14125951465E+04  0.12699999809E+01 0.  1.
       -4    1    3    3    0  502  0.12798071501E+04 -0.39938435695E+03  0.57221828932E+02  0.13418979680E+04  0.12699999809E+01 0. -1.
</event>
<event>
 5   0  0.1931119E-05  0.2645472E+04  0.7818609E-02  0.8352918E-01
       -2   -1    0    0    0  501  0.00000000000E+00  0.00000000000E+00  0.14363950239E+04  0.14363950239E+04  0.25500000920E-02 0.  1.
        2   -1    0    0  501    0  0.00000000000E+00  0.00000000000E+00 -0.12180702401E+04  0.12180702401E+04  0.25500000920E-02 0. -1.
    10030    2    1    2    0    0  0.00000000000E+00  0.00000000000E+00  0.21832478380E+03  0.26544652640E+04  0.26454716265E+04 0.  0.
        3    1    3    3  502    0 -0.26458709841E+03  0.72981779974E+03  0.11837793546E+04  0.14156178594E+04  0.10100000352E+00 0.  1.
       -3    1    3    3    0  502  0.26458709841E+03 -0.72981779974E+03 -0.96545457075E+03  0.12388474046E+04  0.10100000352E+00 0. -1.
</event>
<event>
 5   0  0.7348964E-06  0.2709218E+04  0.7818609E-02  0.8332020E-01
       -1   -1    0    0    0  501  0.00000000000E+00  0.00000000000E+00  0.91687744348E+03  0.91687744349E+03  0.50400001928E-02 0. -1.
        1   -1    0    0  501    0  0.00000000000E+00  0.00000000000E+00 -0.20013206620E+04  0.20013206620E+04  0.50400001928E-02 0.  1.
    10030    2    1    2    0    0  0.00000000000E+00  0.00000000000E+00 -0.10844432185E+04  0.29181981055E+04  0.27092181693E+04 0.  0.
        1    1    3    3  502    0 -0.91189210966E+03 -0.58042730792E+03  0.33716178770E+03  0.11323078868E+04  0.50400001928E-02 0. -1.
       -1    1    3    3    0  502  0.91189210966E+03  0.58042730792E+03 -0.14216050062E+04  0.17858902187E+04  0.50400001928E-02 0.  1.
</event>
<event>
 5   0  0.1931119E-05  0.2680421E+04  0.7818609E-02  0.8341386E-01
        2   -1    0    0  501    0  0.00000000000E+00  0.00000000000E+00  0.24592895081E+04  0.24592895081E+04  0.25500000920E-02 0. -1.
       -2   -1    0    0    0  501  0.00000000000E+00  0.00000000000E+00 -0.73035908110E+03  0.73035908111E+03  0.25500000920E-02 0.  1.
    10030    2    1    2    0    0  0.00000000000E+00  0.00000000000E+00  0.17289304270E+04  0.31896485892E+04  0.26804211798E+04 0.  0.
        3    1    3    3  502    0  0.11075472173E+04  0.23250472199E+03  0.10124666853E+02  0.11317339808E+04  0.10100000352E+00 0.  1.
       -3    1    3    3    0  502 -0.11075472173E+04 -0.23250472199E+03  0.17188057601E+04  0.20579146084E+04  0.10100000352E+00 0. -1.
</event>
<event>
 5   0  0.7600052E-06  0.2739316E+04  0.7818609E-02  0.8322360E-01
        1   -1    0    0  501    0  0.00000000000E+00  0.00000000000E+00  0.29632426994E+04  0.29632426994E+04  0.50400001928E-02 0. -1.
       -1   -1    0    0    0  501  0.00000000000E+00  0.00000000000E+00 -0.63307765799E+03  0.63307765801E+03  0.50400001928E-02 0.  1.
    10030    2    1    2    0    0  0.00000000000E+00  0.00000000000E+00  0.23301650414E+04  0.35963203574E+04  0.27393157892E+04 0.  0.
        5    1    3    3  502    0 -0.11833561823E+04  0.67959444391E+03  0.13190853073E+04  0.18979432553E+04  0.46999998093E+01 0. -1.
       -5    1    3    3    0  502  0.11833561823E+04 -0.67959444391E+03  0.10110797340E+04  0.16983771021E+04  0.46999998093E+01 0.  1.
</event>
<event>
 5   0  0.7600052E-06  0.2608846E+04  0.7818609E-02  0.8365203E-01
       -1   -1    0    0    0  501  0.00000000000E+00  0.00000000000E+00  0.11069313682E+04  0.11069313682E+04  0.50400001928E-02 0.  1.
        1   -1    0    0  501    0  0.00000000000E+00  0.00000000000E+00 -0.15371492843E+04  0.15371492843E+04  0.50400001928E-02 0. -1.
    10030    2    1    2    0    0  0.00000000000E+00  0.00000000000E+00 -0.43021791607E+03  0.26440806525E+04  0.26088455381E+04 0.  0.
        5    1    3    3  502    0  0.95137606215E+03 -0.48884009241E+02 -0.11182051595E+04  0.14689829565E+04  0.46999998093E+01 0. -1.
       -5    1    3    3    0  502 -0.95137606215E+03  0.48884009241E+02  0.68798724338E+03  0.11750976960E+04  0.46999998093E+01 0.  1.
</event>
<event>
 5   0  0.7351590E-06  0.2857214E+04  0.7818609E-02  0.8285723E-01
       -1   -1    0    0    0  501  0.00000000000E+00  0.00000000000E+00  0.80329782152E+03  0.80329782154E+03  0.50400001928E-02 0.  1.
        1   -1    0    0  501    0  0.00000000000E+00  0.00000000000E+00 -0.25406741930E+04  0.25406741930E+04  0.50400001928E-02 0. -1.
    10030    2    1    2    0    0  0.00000000000E+00  0.00000000000E+00 -0.17373763714E+04  0.33439720145E+04  0.28572140588E+04 0.  0.
        3    1    3    3  502    0  0.11738917038E+04  0.62219868783E+03 -0.14832838651E+04  0.19913020801E+04  0.10100000352E+00 0.  1.
       -3    1    3    3    0  502 -0.11738917038E+04 -0.62219868783E+03 -0.25409250632E+03  0.13526699344E+04  0.10100000352E+00 0. -1.
</event>
<event>
 5   0  0.1826851E-05  0.2627441E+04  0.7818609E-02  0.8358939E-01
        2   -1    0    0  501    0  0.00000000000E+00  0.00000000000E+00  0.12584632872E+04  0.12584632872E+04  0.25500000920E-02 0. -1.
       -2   -1    0    0    0  501  0.00000000000E+00  0.00000000000E+00 -0.13714039592E+04  0.13714039592E+04  0.25500000920E-02 0.  1.
    10030    2    1    2    0    0  0.00000000000E+00  0.00000000000E+00 -0.11294067205E+03  0.26298672464E+04  0.26274409866E+04 0.  0.
        5    1    3    3  502    0  0.40773242814E+03  0.99120951450E+03  0.70390044262E+03  0.12822792043E+04  0.46999998093E+01 0. -1.
       -5    1    3    3    0  502 -0.40773242814E+03 -0.99120951450E+03 -0.81684111467E+03  0.13475880421E+04  0.46999998093E+01 0.  1.
</event>
<event>
 5   0  0.1878160E-05  0.2692110E+04  0.7818609E-02  0.8337570E-01
        2   -1    0    0  501    0  0.00000000000E+00  0.00000000000E+00  0.19433926587E+04  0.19433926587E+04  0.25500000920E-02 0. -1.
       -2   -1    0    0    0  501  0.00000000000E+00  0.00000000000E+00 -0.93231986345E+03  0.93231986345E+03  0.25500000920E-02 0.  1.
    10030    2    1    2    0    0  0.00000000000E+00  0.00000000000E+00  0.10110727952E+04  0.28757125221E+04  0.26921096398E+04 0.  0.
        1    1    3    3  502    0 -0.87367309875E+03 -0.37060045563E+03  0.15252141977E+04  0.17963651439E+04  0.50400001928E-02 0. -1.
       -1    1    3    3    0  502  0.87367309875E+03  0.37060045563E+03 -0.51414140247E+03  0.10793473783E+04  0.50400001928E-02 0.  1.
</event>
<event>
 5   0  0.1878160E-05  0.2709505E+04  0.7818609E-02  0.8331927E-01
        2   -1    0    0  501    0  0.00000000000E+00  0.00000000000E+00  0.16745403137E+04  0.16745403137E+04  0.25500000920E-02 0. -1.
       -2   -1    0    0    0  501  0.00000000000E+00  0.00000000000E+00 -0.10960348159E+04  0.10960348159E+04  0.25500000920E-02 0.  1.
    10030    2    1    2    0    0  0.00000000000E+00  0.00000000000E+00  0.57850549775E+03  0.27705751296E+04  0.27095051094E+04 0.  0.
        1    1    3    3  502    0  0.88746686074E+02  0.35845993908E+03 -0.10435771518E+04  0.11069881544E+04  0.50400001928E-02 0.  1.
       -1    1    3    3    0  502 -0.88746686074E+02 -0.35845993908E+03  0.16220826495E+04  0.16635869752E+04  0.50400001928E-02 0. -1.
</event>
<event>
 5   0  0.6804685E-06  0.2175629E+04  0.7818609E-02  0.8528641E-01
        1   -1    0    0  501    0  0.00000000000E+00  0.00000000000E+00  0.19268753154E+04  0.19268753154E+04  0.50400001928E-02 0.  1.
       -1   -1    0    0    0  501  0.00000000000E+00  0.00000000000E+00 -0.61412386587E+03  0.61412386589E+03  0.50400001928E-02 0. -1.
    10030    2    1    2    0    0  0.00000000000E+00  0.00000000000E+00  0.13127514495E+04  0.25409991813E+04  0.21756287531E+04 0.  0.
        2    1    3    3  502    0 -0.94547192456E+03 -0.48099459966E+02  0.12821870825E+04  0.15938112914E+04  0.25500000920E-02 0.  1.
       -2    1    3    3    0  502  0.94547192456E+03  0.48099459966E+02  0.30564367038E+02  0.94718788987E+03  0.25500000920E-02 0. -1.
</event>
<event>
 5   0  0.6804685E-06  0.2870452E+04  0.7818609E-02  0.8281724E-01
       -1   -1    0    0    0  501  0.00000000000E+00  0.00000000000E+00  0.18523474337E+04  0.18523474337E+04  0.50400001928E-02 0. -1.
        1   -1    0    0  501    0  0.00000000000E+00  0.00000000000E+00 -0.11120341784E+04  0.11120341784E+04  0.50400001928E-02 0.  1.
    10030    2    1    2    0    0  0.00000000000E+00  0.00000000000E+00  0.74031325525E+03  0.29643816121E+04  0.28704519899E+04 0.  0.
        2    1    3    3  502    0  0.65436273755E+02 -0.79333699923E+03 -0.86316197213E+03  0.11741865654E+04  0.25500000920E-02 0.  1.
       -2    1    3    3    0  502 -0.65436273755E+02  0.79333699923E+03  0.16034752274E+04  0.17901950467E+04  0.25500000920E-02 0. -1.
</event>
<event>
 5   0  0.1788003E-05  0.2708673E+04  0.7818609E-02  0.8332196E-01
       -2   -1    0    0    0  501  0.00000000000E+00  0.00000000000E+00  0.11779733725E+04  0.11779733725E+04  0.25500000920E-02 0. -1.
        2   -1    0    0  501    0  0.00000000000E+00  0.00000000000E+00 -0.15571038519E+04  0.15571038519E+04  0.25500000920E-02 0.  1.
    10030    2    1    2    0    0  0.00000000000E+00  0.00000000000E+00 -0.37913047942E+03  0.27350772244E+04  0.27086726459E+04 0.  0.
        2    1    3    3  502    0  0.43809817379E+03  0.88672095143E+03 -0.11237993980E+04  0.14970401272E+04  0.25500000920E-02 0.  1.
       -2    1    3    3    0  502 -0.43809817379E+03 -0.88672095143E+03  0.74466891858E+03  0.12380370971E+04  0.25500000920E-02 0. -1.
</event>
<event>
 5   0  0.7600052E-06  0.2655663E+04  0.7818609E-02  0.8349536E-01
       -1   -1    0    0    0  501  0.00000000000E+00  0.00000000000E+00  0.74526231045E+03  0.74526231047E+03  0.50400001928E-02 0.  1.
        1   -1    0    0  501    0  0.00000000000E+00  0.00000000000E+00 -0.23657928603E+04  0.23657928603E+04  0.50400001928E-02 0. -1.
    10030    2    1    2    0    0  0.00000000000E+00  0.00000000000E+00 -0.16205305499E+04  0.31110551708E+04  0.26556628198E+04 0.  0.
        5    1    3    3  502    0 -0.11318892183E+04  0.69368363646E+03 -0.77831214443E+03  0.15388833855E+04  0.46999998093E+01 0. -1.
       -5    1    3    3    0  502  0.11318892183E+04 -0.69368363646E+03 -0.84221840545E+03  0.15721717853E+04  0.46999998093E+01 0.  1.
</event>
<event>
 5   0  0.7754912E-06  0.2845222E+04  0.7818609E-02  0.8289365E-01
       -1   -1    0    0    0  501  0.00000000000E+00  0.00000000000E+00  0.10259437341E+04  0.10259437341E+04  0.50400001928E-02 0. -1.
        1   -1    0    0  501    0  0.00000000000E+00  0.00000000000E+00 -0.19726436201E+04  0.19726436201E+04  0.50400001928E-02 0.  1.
    10030    2    1    2    0    0  0.00000000000E+00  0.00000000000E+00 -0.94669988603E+03  0.29985873542E+04  0.28452215110E+04 0.  0.
        4    1    3    3  502    0  0.63936519285E+03 -0.17718161863E+03 -0.17996098998E+04  0.19180142284E+04  0.12699999809E+01 0.  1.
       -4    1    3    3    0  502 -0.63936519285E+03  0.17718161863E+03  0.85291001378E+03  0.10805731259E+04  0.12699999809E+01 0. -1.
</event>
<event>
 5   0  0.7351590E-06  0.2549253E+04  0.7818609E-02  0.8385646E-01
        1   -1    0    0  501    0  0.00000000000E+00  0.00000000000E+00  0.20216353099E+04  0.20216353099E+04  0.50400001928E-02 0.  1.
       -1   -1    0    0    0  501  0.00000000000E+00  0.00000000000E+00 -0.80364251696E+03  0.80364251698E+03  0.50400001928E-02 0. -1.
    10030    2    1    2    0    0  0.00000000000E+00  0.00000000000E+00  0.12179927930E+04  0.28252778269E+04  0.25492525092E+04 0.  0.
        3    1    3    3  502    0  0.30093947440E+03  0.67081361981E+03  0.17629445661E+04  0.19101123091E+04  0.10100000352E+00 0.  1.
       -3    1    3    3    0  502 -0.30093947440E+03 -0.67081361981E+03 -0.54495177317E+03  0.91516551785E+03  0.10100000352E+00 0. -1.
</event>
<event>
 5   0  0.7600052E-06  0.2454191E+04  0.7818609E-02  0.8419489E-01
        1   -1    0    0  501    0  0.00000000000E+00  0.00000000000E+00  0.19129790620E+04  0.19129790621E+04  0.50400001928E-02 0.  1.
       -1   -1    0    0    0  501  0.00000000000E+00  0.00000000000E+00 -0.78713017709E+03  0.78713017711E+03  0.50400001928E-02 0. -1.
    10030    2    1    2    0    0  0.00000000000E+00  0.00000000000E+00  0.11258488850E+04  0.27001092392E+04  0.24541911482E+04 0.  0.
        5    1    3    3  502    0 -0.90412616138E+03  0.44903008202E+03  0.13304448601E+04  0.16700831554E+04  0.46999998093E+01 0.  1.
       -5    1    3    3    0  502  0.90412616138E+03 -0.44903008202E+03 -0.20459597509E+03  0.10300260838E+04  0.46999998093E+01 0. -1.
</event>
<event>
 5   0  0.1788003E-05  0.2588890E+04  0.7818609E-02  0.8371985E-01
       -2   -1    0    0    0  501  0.00000000000E+00  0.00000000000E+00  0.13372211608E+04  0.13372211608E+04  0.25500000920E-02 0. -1.
        2   -1    0    0  501    0  0.00000000000E+00  0.00000000000E+00 -0.12530369345E+04  0.12530369345E+04  0.25500000920E-02 0.  1.
    10030    2    1    2    0    0  0.00000000000E+00  0.00000000000E+00  0.84184226354E+02  0.25902580953E+04  0.25888897266E+04 0.  0.
        2    1    3    3  502    0 -0.35766149708E+03 -0.89374529091E+03  0.90793099810E+03  0.13232690916E+04  0.25500000920E-02 0. -1.
       -2    1    3    3    0  502  0.35766149708E+03  0.89374529091E+03 -0.82374677174E+03  0.12669890037E+04  0.25500000920E-02 0.  1.
</event>
<event>
 5   0  0.1788003E-05  0.2652184E+04  0.7818609E-02  0.8350688E-01
        2   -1    0    0  501    0  0.00000000000E+00  0.00000000000E+00  0.19595002642E+04  0.19595002642E+04  0.25500000920E-02 0.  1.
       -2   -1    0    0    0  501  0.00000000000E+00  0.00000000000E+00 -0.89743288862E+03  0.89743288862E+03  0.25500000920E-02 0. -1.
    10030    2    1    2    0    0  0.00000000000E+00  0.00000000000E+00  0.10620673756E+04  0.28569331528E+04  0.26521839924E+04 0.  0.
        2    1    3    3  502    0  0.43949854030E+03  0.12216753210E+04  0.24024863265E+03  0.13203669802E+04  0.25500000920E-02 0.  1.
       -2    1    3    3    0  502 -0.43949854030E+03 -0.12216753210E+04  0.82181874295E+03  0.15365661727E+04  0.25500000920E-02 0. -1.
</event>
<event>
 5   0  0.7754912E-06  0.2659638E+04  0.7818609E-02  0.8348221E-01
       -1   -1    0    0    0  501  0.00000000000E+00  0.00000000000E+00  0.95158524123E+03  0.95158524125E+03  0.50400001928E-02 0. -1.
        1   -1    0    0  501    0  0.00000000000E+00  0.00000000000E+00 -0.18583919540E+04  0.18583919541E+04  0.50400001928E-02 0.  1.
    10030    2    1    2    0    0  0.00000000000E+00  0.00000000000E+00 -0.90680671281E+03  0.28099771953E+04  0.26596378369E+04 0.  0.
        4    1    3    3  502    0  0.77845338043E+03 -0.94111530447E+03  0.10238273905E+03  0.12256310701E+04  0.12699999809E+01 0. -1.
       -4    1    3    3    0  502 -0.77845338043E+03  0.94111530447E+03 -0.10091894519E+04  0.15843461252E+04  0.12699999809E+01 0.  1.
</event>
<event>
 5   0  0.7348964E-06  0.2679757E+04  0.7818609E-02  0.8341603E-01
       -1   -1    0    0    0  501  0.00000000000E+00  0.00000000000E+00  0.10621872152E+04  0.10621872152E+04  0.50400001928E-02 0. -1.
        1   -1    0    0  501    0  0.00000000000E+00  0.00000000000E+00 -0.16901670874E+04  0.16901670874E+04  0.50400001928E-02 0.  1.
    10030    2    1    2    0    0  0.00000000000E+00  0.00000000000E+00 -0.62797987218E+03  0.27523543026E+04  0.26797566097E+04 0.  0.
        1    1    3    3  502    0  0.85434303785E+03  0.10141374135E+04 -0.51128008940E+03  0.14211910672E+04  0.50400001928E-02 0.  1.
       -1    1    3    3    0  502 -0.85434303785E+03 -0.10141374135E+04 -0.11669978278E+03  0.13311632353E+04  0.50400001928E-02 0. -1.
</event>
<event>
 5   0  0.7348964E-06  0.2579165E+04  0.7818609E-02  0.8375313E-01
       -1   -1    0    0    0  501  0.00000000000E+00  0.00000000000E+00  0.14721094162E+04  0.14721094162E+04  0.50400001928E-02 0.  1.
        1   -1    0    0  501    0  0.00000000000E+00  0.00000000000E+00 -0.11296873330E+04  0.11296873330E+04  0.50400001928E-02 0. -1.
    10030    2    1    2    0    0  0.00000000000E+00  0.00000000000E+00  0.34242208320E+03  0.26017967492E+04  0.25791652605E+04 0.  0.
        1    1    3    3  502    0  0.48594981611E+03  0.99274617666E+03  0.84136794329E+03  0.13890976247E+04  0.50400001928E-02 0.  1.
       -1    1    3    3    0  502 -0.48594981611E+03 -0.99274617666E+03 -0.49894586009E+03  0.12126991244E+04  0.50400001928E-02 0. -1.
</event>
<event>
 5   0  0.7600052E-06  0.2511931E+04  0.7818609E-02  0.8398747E-01
       -1   -1    0    0    0  501  0.00000000000E+00  0.00000000000E+00  0.13273967085E+04  0.13273967085E+04  0.50400001928E-02 0.  1.
        1   -1    0    0  501    0  0.00000000000E+00  0.00000000000E+00 -0.11883784220E+04  0.11883784220E+04  0.50400001928E-02 0. -1.
    10030    2    1    2    0    0  0.00000000000E+00  0.00000000000E+00  0.13901828647E+03  0.25157751305E+04  0.25119312139E+04 0.  0.
        5    1    3    3  502    0  0.23821580501E+03  0.84945805241E+03  0.96480200427E+03  0.13073602220E+04  0.46999998093E+01 0. -1.
       -5    1    3    3    0  502 -0.23821580501E+03 -0.84945805241E+03 -0.82578371779E+03  0.12084149085E+04  0.46999998093E+01 0.  1.
</event>
<event>
 5   0  0.1878160E-05  0.2651365E+04  0.7818609E-02  0.8350960E-01
        2   -1    0    0  501    0  0.00000000000E+00  0.00000000000E+00  0.20531230693E+04  0.20531230693E+04  0.25500000920E-02 0.  1.
       -2   -1    0    0    0  501  0.00000000000E+00  0.00000000000E+00 -0.85598072483E+03  0.85598072484E+03  0.25500000920E-02 0. -1.
    10030    2    1    2    0    0  0.00000000000E+00  0.00000000000E+00  0.11971423444E+04  0.29091037941E+04  0.26513647603E+04 0.  0.
        1    1    3    3  502    0 -0.12382429162E+04  0.47010036129E+03  0.66057959131E+03  0.14800693449E+04  0.50400001928E-02 0. -1.
       -1    1    3    3    0  502  0.12382429162E+04 -0.47010036129E+03  0.53656275314E+03  0.14290344493E+04  0.50400001928E-02 0.  1.
</event>
<event>
 5   0  0.1931119E-05  0.2500337E+04  0.7818609E-02  0.8402866E-01
       -2   -1    0    0    0  501  0.00000000000E+00  0.00000000000E+00  0.66870976393E+03  0.66870976394E+03  0.25500000920E-02 0.  1.
        2   -1    0    0  501    0  0.00000000000E+00  0.00000000000E+00 -0.23372185997E+04  0.23372185998E+04  0.25500000920E-02 0. -1.
    10030    2    1    2    0    0  0.00000000000E+00  0.00000000000E+00 -0.16685088358E+04  0.30059283637E+04  0.25003366958E+04 0.  0.
        3    1    3    3  502    0  0.45486170405E+02  0.40003442331E+03  0.58863770052E+03  0.71315558205E+03  0.10100000352E+00 0.  1.
       -3    1    3    3    0  502 -0.45486170405E+02 -0.40003442331E+03 -0.22571465363E+04  0.22927727816E+04  0.10100000352E+00 0. -1.
</event>
<event>
 5   0  0.1878160E-05  0.2526298E+04  0.7818609E-02  0.8393676E-01
        2   -1    0    0  501    0  0.00000000000E+00  0.00000000000E+00  0.14968257112E+04  0.14968257112E+04  0.25500000920E-02 0.  1.
       -2   -1    0    0    0  501  0.00000000000E+00  0.00000000000E+00 -0.10659524410E+04  0.10659524410E+04  0.25500000920E-02 0. -1.
    10030    2    1    2    0    0  0.00000000000E+00  0.00000000000E+00  0.43087327016E+03  0.25627781522E+04  0.25262977027E+04 0.  0.
        1    1    3    3  502    0 -0.47902425079E+03  0.60030617954E+03 -0.80189740886E+03  0.11103473314E+04  0.50400001928E-02 0. -1.
       -1    1    3    3    0  502  0.47902425079E+03 -0.60030617954E+03  0.12327706790E+04  0.14524308208E+04  0.50400001928E-02 0.  1.
</event>
<event>
 5   0  0.1931119E-05  0.2676957E+04  0.7818609E-02  0.8342521E-01
        2   -1    0    0  501    0  0.00000000000E+00  0.00000000000E+00  0.27657037270E+04  0.27657037270E+04  0.25500000920E-02 0. -1.
       -2   -1    0    0    0  501  0.00000000000E+00  0.00000000000E+00 -0.64776432997E+03  0.64776432997E+03  0.25500000920E-02 0.  1.
    10030    2    1    2    0    0  0.00000000000E+00  0.00000000000E+00  0.21179393970E+04  0.34134680570E+04  0.26769566464E+04 0.  0.
        3    1    3    3  502    0 -0.90921167838E+03 -0.31612793258E+03 -0.12691603131E+03  0.97093276547E+03  0.10100000352E+00 0.  1.
       -3    1    3    3    0  502  0.90921167838E+03  0.31612793258E+03  0.22448554283E+04  0.24425352915E+04  0.10100000352E+00 0. -1.
</event>
<event>
 5   0  0.1826851E-05  0.2766351E+04  0.7818609E-02  0.8313792E-01
        2   -1    0    0  501    0  0.00000000000E+00  0.00000000000E+00  0.24399780522E+04  0.24399780522E+04  0.25500000920E-02 0. -1.
       -2   -1    0    0    0  501  0.00000000000E+00  0.00000000000E+00 -0.78409509696E+03  0.78409509697E+03  0.25500000920E-02 0.  1.
    10030    2    1    2    0    0  0.00000000000E+00  0.00000000000E+00  0.16558829553E+04  0.32240731492E+04  0.27663512629E+04 0.  0.
        5    1    3    3  502    0  0.10271593199E+03  0.25560841538E+03 -0.75179134500E+03  0.80068629382E+03  0.46999998093E+01 0.  1.
       -5    1    3    3    0  502 -0.10271593199E+03 -0.25560841538E+03  0.24076743003E+04  0.24233868554E+04  0.46999998093E+01 0. -1.
</event>
<event>
 5   0  0.6804685E-06  0.2696519E+04  0.7818609E-02  0.8336135E-01
       -1   -1    0    0    0  501  0.00000000000E+00  0.00000000000E+00  0.11591515465E+04  0.11591515465E+04  0.50400001928E-02 0. -1.
        1   -1    0    0  501    0  0.00000000000E+00  0.00000000000E+00 -0.15682190207E+04  0.15682190207E+04  0.50400001928E-02 0.  1.
    10030    2    1    2    0    0  0.00000000000E+00  0.00000000000E+00 -0.40906747427E+03  0.27273705672E+04  0.26965188693E+04 0.  0.
        2    1    3    3  502    0  0.12269394293E+04  0.18643567157E+03 -0.73750177135E+03  0.14436230413E+04  0.25500000920E-02 0.  1.
       -2    1    3    3    0  502 -0.12269394293E+04 -0.18643567157E+03  0.32843429708E+03  0.12837475259E+04  0.25500000920E-02 0. -1.
</event>
<event>
 5   0  0.7351590E-06  0.2755625E+04  0.7818609E-02  0.8317179E-01
       -1   -1    0    0    0  501  0.00000000000E+00  0.00000000000E+00  0.15205650461E+04  0.15205650461E+04  0.50400001928E-02 0. -1.
        1   -1    0    0  501    0  0.00000000000E+00  0.00000000000E+00 -0.12484621494E+04  0.12484621494E+04  0.50400001928E-02 0.  1.
    10030    2    1    2    0    0  0.00000000000E+00  0.00000000000E+00  0.27210289668E+03  0.27690271955E+04  0.27556254504E+04 0.  0.
        3    1    3    3  502    0  0.91241274784E+03 -0.47118884663E+03 -0.78703029489E+03  0.12938054904E+04  0.10100000352E+00 0.  1.
       -3    1    3    3    0  502 -0.91241274784E+03  0.47118884663E+03  0.10591331916E+04  0.14752217051E+04  0.10100000352E+00 0. -1.
</event>
<event>
 5   0  0.1878160E-05  0.2670779E+04  0.7818609E-02  0.8344549E-01
        2   -1    0    0  501    0  0.00000000000E+00  0.00000000000E+00  0.12906101222E+04  0.12906101223E+04  0.25500000920E-02 0. -1.
       -2   -1    0    0    0  501  0.00000000000E+00  0.00000000000E+00 -0.13817224649E+04  0.13817224649E+04  0.25500000920E-02 0.  1.
    10030    2    1    2    0    0  0.00000000000E+00  0.00000000000E+00 -0.91112342693E+02  0.26723325872E+04  0.26707789122E+04 0.  0.
        1    1    3    3  502    0  0.73902795094E+02  0.10879711393E+04  0.72568543537E+03  0.13098710525E+04  0.50400001928E-02 0. -1.
       -1    1    3    3    0  502 -0.73902795094E+02 -0.10879711393E+04 -0.81679777807E+03  0.13624615347E+04  0.50400001928E-02 0.  1.
</event>
<event>
 5   0  0.7351590E-06  0.2709882E+04  0.7818609E-02  0.8331806E-01
       -1   -1    0    0    0  501  0.00000000000E+00  0.00000000000E+00  0.11718683784E+04  0.11718683784E+04  0.50400001928E-02 0.  1.
        1   -1    0    0  501    0  0.00000000000E+00  0.00000000000E+00 -0.15666139797E+04  0.15666139797E+04  0.50400001928E-02 0. -1.
    10030    2    1    2    0    0  0.00000000000E+00  0.00000000000E+00 -0.39474560132E+03  0.27384823580E+04  0.27098821996E+04 0.  0.
        3    1    3    3  502    0  0.12586647956E+04 -0.26244077285E+03 -0.62938097746E+03  0.14315141117E+04  0.10100000352E+00 0. -1.
       -3    1    3    3    0  502 -0.12586647956E+04  0.26244077285E+03  0.23463537614E+03  0.13069682463E+04  0.10100000352E+00 0.  1.
</event>
<event>
 5   0  0.6804685E-06  0.2706342E+04  0.7818609E-02  0.8332950E-01
       -1   -1    0    0    0  501  0.00000000000E+00  0.00000000000E+00  0.72734046691E+03  0.72734046693E+03  0.50400001928E-02 0.  1.
        1   -1    0    0  501    0  0.00000000000E+00  0.00000000000E+00 -0.25174896652E+04  0.25174896652E+04  0.50400001928E-02 0. -1.
    10030    2    1    2    0    0  0.00000000000E+00  0.00000000000E+00 -0.17901491982E+04  0.32448301321E+04  0.27063422611E+04 0.  0.
        2    1    3    3  502    0 -0.40225480548E+03  0.14910136042E+03 -0.24337969449E+04  0.24713169997E+04  0.25500000920E-02 0. -1.
       -2    1    3    3    0  502  0.40225480548E+03 -0.14910136042E+03  0.64364774663E+03  0.77351313238E+03  0.25500000920E-02 0.  1.
</event>
<event>
 5   0  0.7754912E-06  0.2337191E+04  0.7818609E-02  0.8463400E-01
       -1   -1    0    0    0  501  0.00000000000E+00  0.00000000000E+00  0.11965944194E+04  0.11965944194E+04  0.50400001928E-02 0. -1.
        1   -1    0    0  501    0  0.00000000000E+00  0.00000000000E+00 -0.11412515685E+04  0.11412515685E+04  0.50400001928E-02 0.  1.
    10030    2    1    2    0    0  0.00000000000E+00  0.00000000000E+00  0.55342850941E+02  0.23378459879E+04  0.23371908420E+04 0.  0.
        4    1    3    3  502    0 -0.68666784379E+03  0.77767238318E+03  0.56571306770E+03  0.11816598289E+04  0.12699999809E+01 0. -1.
       -4    1    3    3    0  502  0.68666784379E+03 -0.77767238318E+03 -0.51037021676E+03  0.11561861590E+04  0.12699999809E+01 0.  1.
</event>
<event>
 5   0  0.1881699E-05  0.2770468E+04  0.7818609E-02  0.8312496E-01
       -2   -1    0    0    0  501  0.00000000000E+00  0.00000000000E+00  0.95941806248E+03  0.95941806248E+03  0.25500000920E-02 0.  1.
        2   -1    0    0  501    0  0.00000000000E+00  0.00000000000E+00 -0.20000386821E+04  0.20000386821E+04  0.25500000920E-02 0. -1.
    10030    2    1    2    0    0  0.00000000000E+00  0.00000000000E+00 -0.10406206196E+04  0.29594567446E+04  0.27704680018E+04 0.  0.
        4    1    3    3  502    0 -0.94355037919E+03  0.91541424805E+03 -0.53950072285E+02  0.13157441951E+04  0.12699999809E+01 0.  1.
       -4    1    3    3    0  502  0.94355037919E+03 -0.91541424805E+03 -0.98667054734E+03  0.16437125495E+04  0.12699999809E+01 0. -1.
</event>
<event>
 5   0  0.6175875E-06  0.2564651E+04  0.7818609E-02  0.8380309E-01
        3   -1    0    0  501    0  0.00000000000E+00  0.00000000000E+00  0.13269211479E+04  0.13269211518E+04  0.10100000352E+00 0. -1.
       -3   -1    0    0    0  501  0.00000000000E+00  0.00000000000E+00 -0.12392286050E+04  0.12392286091E+04  0.10100000352E+00 0.  1.
    10030    2    1    2    0    0  0.00000000000E+00  0.00000000000E+00  0.87692542937E+02  0.25661497609E+04  0.25646509730E+04 0.  0.
        4    1    3    3  502    0 -0.11094903768E+04  0.64290669808E+03  0.51539828440E+02  0.12833377909E+04  0.12699999809E+01 0. -1.
       -4    1    3    3    0  502  0.11094903768E+04 -0.64290669808E+03  0.36152714497E+02  0.12828119700E+04  0.12699999809E+01 0.  1.
</event>
<event>
 5   0  0.7600052E-06  0.2670055E+04  0.7818609E-02  0.8344787E-01
       -1   -1    0    0    0  501  0.00000000000E+00  0.00000000000E+00  0.13587875145E+04  0.13587875145E+04  0.50400001928E-02 0.  1.
        1   -1    0    0  501    0  0.00000000000E+00  0.00000000000E+00 -0.13116826527E+04  0.13116826527E+04  0.50400001928E-02 0. -1.
    10030    2    1    2    0    0  0.00000000000E+00  0.00000000000E+00  0.47104861806E+02  0.26704701672E+04  0.26700546897E+04 0.  0.
        5    1    3    3  502    0 -0.11004277614E+04  0.92986300632E+02 -0.72668975706E+03  0.13220014384E+04  0.46999998093E+01 0. -1.
       -5    1    3    3    0  502  0.11004277614E+04 -0.92986300632E+02  0.77379461887E+03  0.13484687287E+04  0.46999998093E+01 0.  1.
</event>
<event>
 5   0  0.7600052E-06  0.2346977E+04  0.7818609E-02  0.8459626E-01
        1   -1    0    0  501    0  0.00000000000E+00  0.00000000000E+00  0.11799632537E+04  0.11799632537E+04  0.50400001928E-02 0.  1.
       -1   -1    0    0    0  501  0.00000000000E+00  0.00000000000E+00 -0.11670489719E+04  0.11670489719E+04  0.50400001928E-02 0. -1.
    10030    2    1    2    0    0  0.00000000000E+00  0.00000000000E+00  0.12914281798E+02  0.23470122257E+04  0.23469766954E+04 0.  0.
        5    1    3    3  502    0  0.86785733554E+03 -0.16862880589E+03 -0.76520263630E+03  0.11692601052E+04  0.46999998093E+01 0. -1.
       -5    1    3    3    0  502 -0.86785733554E+03  0.16862880589E+03  0.77811691809E+03  0.11777521205E+04  0.46999998093E+01 0.  1.
</event>
<event>
 5   0  0.1826851E-05  0.2699374E+04  0.7818609E-02  0.8335208E-01
        2   -1    0    0  501    0  0.00000000000E+00  0.00000000000E+00  0.16586547949E+04  0.16586547949E+04  0.25500000920E-02 0. -1.
       -2   -1    0    0    0  501  0.00000000000E+00  0.00000000000E+00 -0.10982724951E+04  0.10982724951E+04  0.25500000920E-02 0.  1.
    10030    2    1    2    0    0  0.00000000000E+00  0.00000000000E+00  0.56038229978E+03  0.27569272900E+04  0.26993739571E+04 0.  0.
        5    1    3    3  502    0  0.67053877467E+02 -0.71911034853E+03 -0.88430153178E+03  0.11417649517E+04  0.46999998093E+01 0.  1.
       -5    1    3    3    0  502 -0.67053877467E+02  0.71911034853E+03  0.14446838316E+04  0.16151623383E+04  0.46999998093E+01 0. -1.
</event>
<event>
 5   0  0.1878160E-05  0.2701200E+04  0.7818609E-02  0.8334616E-01
        2   -1    0    0  501    0  0.00000000000E+00  0.00000000000E+00  0.13712669225E+04  0.13712669225E+04  0.25500000920E-02 0.  1.
       -2   -1    0    0    0  501  0.00000000000E+00  0.00000000000E+00 -0.13302445485E+04  0.13302445485E+04  0.25500000920E-02 0. -1.
    10030    2    1    2    0    0  0.00000000000E+00  0.00000000000E+00  0.41022374047E+02  0.27015114710E+04  0.27011999912E+04 0.  0.
        1    1    3    3  502    0  0.37557450756E+03  0.10305995470E+04 -0.76756997632E+03  0.13387887457E+04  0.50400001928E-02 0. -1.
       -1    1    3    3    0  502 -0.37557450756E+03 -0.10305995470E+04  0.80859235037E+03  0.13627227253E+04  0.50400001928E-02 0.  1.
</event>
<event>
 5   0  0.6804685E-06  0.2574874E+04  0.7818609E-02  0.8376786E-01
        1   -1    0    0  501    0  0.00000000000E+00  0.00000000000E+00  0.10445631824E+04  0.10445631824E+04  0.50400001928E-02 0. -1.
       -1   -1    0    0    0  501  0.00000000000E+00  0.00000000000E+00 -0.15867821069E+04  0.15867821069E+04  0.50400001928E-02 0.  1.
    10030    2    1    2    0    0  0.00000000000E+00  0.00000000000E+00 -0.54221892456E+03  0.26313452893E+04  0.25748741075E+04 0.  0.
        2    1    3    3  502    0  0.17334745223E+03 -0.11111595125E+04  0.36934852229E+03  0.11836989196E+04  0.25500000920E-02 0. -1.
       -2    1    3    3    0  502 -0.17334745223E+03  0.11111595125E+04 -0.91156744686E+03  0.14476463697E+04  0.25500000920E-02 0.  1.
</event>
<event>
 5   0  0.6804685E-06  0.2675304E+04  0.7818609E-02  0.8343063E-01
       -1   -1    0    0    0  501  0.00000000000E+00  0.00000000000E+00  0.94444331122E+03  0.94444331123E+03  0.50400001928E-02 0. -1.
        1   -1    0    0  501    0  0.00000000000E+00  0.00000000000E+00 -0.18945683482E+04  0.18945683482E+04  0.50400001928E-02 0.  1.
    10030    2    1    2    0    0  0.00000000000E+00  0.00000000000E+00 -0.95012503696E+03  0.28390116594E+04  0.26753036494E+04 0.  0.
        2    1    3    3  502    0 -0.41274090531E+03 -0.10116223621E+04  0.34389854073E+03  0.11454261499E+04  0.25500000920E-02 0. -1.
       -2    1    3    3    0  502  0.41274090531E+03  0.10116223621E+04 -0.12940235777E+04  0.16935855095E+04  0.25500000920E-02 0.  1.
</event>
<event>
 5   0  0.1878160E-05  0.2717659E+04  0.7818609E-02  0.8329298E-01
       -2   -1    0    0    0  501  0.00000000000E+00  0.00000000000E+00  0.15270512985E+04  0.15270512985E+04  0.25500000920E-02 0. -1.
        2   -1    0    0  501    0  0.00000000000E+00  0.00000000000E+00 -0.12091390859E+04  0.12091390859E+04  0.25500000920E-02 0.  1.
    10030    2    1    2    0    0  0.00000000000E+00  0.00000000000E+00  0.31791221264E+03  0.27361903844E+04  0.27176588536E+04 0.  0.
        1    1    3    3  502    0  0.21667420261E+03  0.17024980488E+03 -0.11807127550E+04  0.12124418815E+04  0.50400001928E-02 0.  1.
       -1    1    3    3    0  502 -0.21667420261E+03 -0.17024980488E+03  0.14986249677E+04  0.15237485029E+04  0.50400001928E-02 0. -1.
</event>
<event>
 5   0  0.1878160E-05  0.2847838E+04  0.7818609E-02  0.8288569E-01
       -2   -1    0    0    0  501  0.00000000000E+00  0.00000000000E+00  0.13911928002E+04  0.13911928002E+04  0.25500000920E-02 0. -1.
        2   -1    0    0  501    0  0.00000000000E+00  0.00000000000E+00 -0.14574147433E+04  0.14574147433E+04  0.25500000920E-02 0.  1.
    10030    2    1    2    0    0  0.00000000000E+00  0.00000000000E+00 -0.66221943099E+02  0.28486075436E+04  0.28478377046E+04 0.  0.
        1    1    3    3  502    0 -0.42685110595E+03 -0.13555693838E+04  0.55086991853E+02  0.14222534225E+04  0.50400001928E-02 0.  1.
       -1    1    3    3    0  502  0.42685110595E+03  0.13555693838E+04 -0.12130893495E+03  0.14263541211E+04  0.50400001928E-02 0. -1.
</event>
<event>
 5   0  0.1931119E-05  0.2725650E+04  0.7818609E-02  0.8326730E-01
       -2   -1    0    0    0  501  0.00000000000E+00  0.00000000000E+00  0.20141190792E+04  0.20141190792E+04  0.25500000920E-02 0. -1.
        2   -1    0    0  501    0  0.00000000000E+00  0.00000000000E+00 -0.92213622519E+03  0.92213622519E+03  0.25500000920E-02 0.  1.
    10030    2    1    2    0    0  0.00000000000E+00  0.00000000000E+00  0.10919828540E+04  0.29362553044E+04  0.27256501351E+04 0.  0.
        3    1    3    3  502    0 -0.10378376780E+04 -0.29976619086E+03 -0.34906540715E+03  0.11352592144E+04  0.10100000352E+00 0.  1.
       -3    1    3    3    0  502  0.10378376780E+04  0.29976619086E+03  0.14410482611E+04  0.18009960900E+04  0.10100000352E+00 0. -1.
</event>
<event>
 5   0  0.7754912E-06  0.2714113E+04  0.7818609E-02  0.8330440E-01
        1   -1    0    0  501    0  0.00000000000E+00  0.00000000000E+00  0.18951026359E+04  0.18951026359E+04  0.50400001928E-02 0. -1.
       -1   -1    0    0    0  501  0.00000000000E+00  0.00000000000E+00 -0.97176901563E+03  0.97176901564E+03  0.50400001928E-02 0.  1.
    10030    2    1    2    0    0  0.00000000000E+00  0.00000000000E+00  0.92333362030E+03  0.28668716516E+04  0.27141127634E+04 0.  0.
        4    1    3    3  502    0 -0.14079032221E+03 -0.11191143612E+04 -0.33536274740E+03  0.11767364418E+04  0.12699999809E+01 0.  1.
       -4    1    3    3    0  502  0.14079032221E+03  0.11191143612E+04  0.12586963677E+04  0.16901352098E+04  0.12699999809E+01 0. -1.
</event>
<event>
 5   0  0.7754912E-06  0.1972911E+04  0.7818609E-02  0.8619391E-01
       -1   -1    0    0    0  501  0.00000000000E+00  0.00000000000E+00  0.11625599561E+04  0.11625599561E+04  0.50400001928E-02 0. -1.
        1   -1    0    0  501    0  0.00000000000E+00  0.00000000000E+00 -0.83702729961E+03  0.83702729962E+03  0.50400001928E-02 0.  1.
    10030    2    1    2    0    0  0.00000000000E+00  0.00000000000E+00  0.32553265648E+03  0.19995872557E+04  0.19729109668E+04 0.  0.
        4    1    3    3  502    0 -0.44877765971E+03  0.53488847490E+03 -0.54349566404E+03  0.88481422806E+03  0.12699999809E+01 0.  1.
       -4    1    3    3    0  502  0.44877765971E+03 -0.53488847490E+03  0.86902832052E+03  0.11147730277E+04  0.12699999809E+01 0. -1.
</event>
<event>
 5   0  0.7348964E-06  0.2743645E+04  0.7818609E-02  0.8320981E-01
        1   -1    0    0  501    0  0.00000000000E+00  0.00000000000E+00  0.31604830673E+04  0.31604830673E+04  0.50400001928E-02 0.  1.
       -1   -1    0    0    0  501  0.00000000000E+00  0.00000000000E+00 -0.59544598194E+03  0.59544598197E+03  0.50400001928E-02 0. -1.
    10030    2    1    2    0    0  0.00000000000E+00  0.00000000000E+00  0.25650370854E+04  0.37559290493E+04  0.27436449796E+04 0.  0.
        1    1    3    3  502    0 -0.85218878777E+03 -0.69846174527E+03  0.24012348219E+04  0.26419695702E+04  0.50400001928E-02 0.  1.
       -1    1    3    3    0  502  0.85218878777E+03  0.69846174527E+03  0.16380226345E+03  0.11139594791E+04  0.50400001928E-02 0. -1.
</event>
<event>
 5   0  0.1826851E-05  0.2625008E+04  0.7818609E-02  0.8359756E-01
       -2   -1    0    0    0  501  0.00000000000E+00  0.00000000000E+00  0.10294911839E+04  0.10294911839E+04  0.25500000920E-02 0. -1.
        2   -1    0    0  501    0  0.00000000000E+00  0.00000000000E+00 -0.16733186381E+04  0.16733186381E+04  0.25500000920E-02 0.  1.
    10030    2    1    2    0    0  0.00000000000E+00  0.00000000000E+00 -0.64382745425E+03  0.27028098220E+04  0.26250080273E+04 0.  0.
        5    1    3    3  502    0 -0.81248889043E+03  0.10185213124E+04 -0.48510686268E+03  0.13902786121E+04  0.46999998093E+01 0.  1.
       -5    1    3    3    0  502  0.81248889043E+03 -0.10185213124E+04 -0.15872059157E+03  0.13125312100E+04  0.46999998093E+01 0. -1.
</event>
<event>
 5   0  0.7351590E-06  0.2725043E+04  0.7818609E-02  0.8326925E-01
       -1   -1    0    0    0  501  0.00000000000E+00  0.00000000000E+00  0.11939948166E+04  0.11939948166E+04  0.50400001928E-02 0.  1.
        1   -1    0    0  501    0  0.00000000000E+00  0.00000000000E+00 -0.15548346202E+04  0.15548346203E+04  0.50400001928E-02 0. -1.
    10030    2    1    2    0    0  0.00000000000E+00  0.00000000000E+00 -0.36083980364E+03  0.27488294369E+04  0.27250427353E+04 0.  0.
        3    1    3    3  502    0  0.14888546178E+03 -0.71607600772E+03  0.97919406783E+03  0.12221917862E+04  0.10100000352E+00 0.  1.
       -3    1    3    3    0  502 -0.14888546178E+03  0.71607600772E+03 -0.13400338715E+04  0.15266376507E+04  0.10100000352E+00 0. -1.
</event>
<event>
 5   0  0.1826851E-05  0.2835050E+04  0.7818609E-02  0.8292469E-01
        2   -1    0    0  501    0  0.00000000000E+00  0.00000000000E+00  0.74993538699E+03  0.74993538700E+03  0.25500000920E-02 0.  1.
       -2   -1    0    0    0  501  0.00000000000E+00  0.00000000000E+00 -0.26793997810E+04  0.26793997810E+04  0.25500000920E-02 0. -1.
    10030    2    1    2    0    0  0.00000000000E+00  0.00000000000E+00 -0.19294643940E+04  0.34293351680E+04  0.28350497080E+04 0.  0.
        5    1    3    3  502    0 -0.11927216572E+04 -0.44017223083E+03 -0.20640694401E+03  0.12880071664E+04  0.46999998093E+01 0. -1.
       -5    1    3    3    0  502  0.11927216572E+04  0.44017223083E+03 -0.17230574500E+04  0.21413280015E+04  0.46999998093E+01 0.  1.
</event>
<event>
 5   0  0.1878160E-05  0.2681980E+04  0.7818609E-02  0.8340876E-01
        2   -1    0    0  501    0  0.00000000000E+00  0.00000000000E+00  0.19105617817E+04  0.19105617817E+04  0.25500000920E-02 0. -1.
       -2   -1    0    0    0  501  0.00000000000E+00  0.00000000000E+00 -0.94121749707E+03  0.94121749707E+03  0.25500000920E-02 0.  1.
    10030    2    1    2    0    0  0.00000000000E+00  0.00000000000E+00  0.96934428464E+03  0.28517792788E+04  0.26819799986E+04 0.  0.
        1    1    3    3  502    0 -0.47094315351E+03  0.12090427777E+04  0.84476005626E+03  0.15482866159E+04  0.50400001928E-02 0. -1.
       -1    1    3    3    0  502  0.47094315351E+03 -0.12090427777E+04  0.12458422839E+03  0.13034926629E+04  0.50400001928E-02 0.  1.
</event>
<event>
 5   0  0.1881699E-05  0.2720857E+04  0.7818609E-02  0.8328269E-01
       -2   -1    0    0    0  501  0.00000000000E+00  0.00000000000E+00  0.85078679810E+03  0.85078679810E+03  0.25500000920E-02 0. -1.
        2   -1    0    0  501    0  0.00000000000E+00  0.00000000000E+00 -0.21753576961E+04  0.21753576961E+04  0.25500000920E-02 0.  1.
    10030    2    1    2    0    0  0.00000000000E+00  0.00000000000E+00 -0.13245708980E+04  0.30261444942E+04  0.27208569305E+04 0.  0.
        4    1    3    3  502    0  0.46363297689E+03 -0.97829575366E+03 -0.15785851765E+04  0.19141449504E+04  0.12699999809E+01 0.  1.
       -4    1    3    3    0  502 -0.46363297689E+03  0.97829575366E+03  0.25401427845E+03  0.11119995438E+04  0.12699999809E+01 0. -1.
</event>
<event>
 5   0  0.1826851E-05  0.2678446E+04  0.7818609E-02  0.8342032E-01
        2   -1    0    0  501    0  0.00000000000E+00  0.00000000000E+00  0.20423986640E+04  0.20423986640E+04  0.25500000920E-02 0.  1.
       -2   -1    0    0    0  501  0.00000000000E+00  0.00000000000E+00 -0.87814323283E+03  0.87814323284E+03  0.25500000920E-02 0. -1.
    10030    2    1    2    0    0  0.00000000000E+00  0.00000000000E+00  0.11642554311E+04  0.29205418968E+04  0.26784462403E+04 0.  0.
        5    1    3    3  502    0  0.10240156900E+03  0.43531955578E+03 -0.79431306938E+03  0.91156159373E+03  0.46999998093E+01 0. -1.
       -5    1    3    3    0  502 -0.10240156900E+03 -0.43531955578E+03  0.19585685005E+04  0.20089803031E+04  0.46999998093E+01 0.  1.
</event>
<event>
 5   0  0.7754912E-06  0.2687316E+04  0.7818609E-02  0.8339132E-01
       -1   -1    0    0    0  501  0.00000000000E+00  0.00000000000E+00  0.66899564319E+03  0.66899564321E+03  0.50400001928E-02 0.  1.
        1   -1    0    0  501    0  0.00000000000E+00  0.00000000000E+00 -0.26986980937E+04  0.26986980937E+04  0.50400001928E-02 0. -1.
    10030    2    1    2    0    0  0.00000000000E+00  0.00000000000E+00 -0.20297024505E+04  0.33676937369E+04  0.26873163320E+04 0.  0.
        4    1    3    3  502    0 -0.73855176004E+03 -0.95679198444E+02  0.38669736235E+03  0.83913626678E+03  0.12699999809E+01 0.  1.
       -4    1    3    3    0  502  0.73855176004E+03  0.95679198444E+02 -0.24163998129E+04  0.25285574701E+04  0.12699999809E+01 0. -1.
</event>
<event>
 5   0  0.1878160E-05  0.2711787E+04  0.7818609E-02  0.8331191E-01
       -2   -1    0    0    0  501  0.00000000000E+00  0.00000000000E+00  0.90885025787E+03  0.90885025787E+03  0.25500000920E-02 0.  1.
        2   -1    0    0  501    0  0.00000000000E+00  0.00000000000E+00 -0.20228267355E+04  0.20228267355E+04  0.25500000920E-02 0. -1.
    10030    2    1    2    0    0  0.00000000000E+00  0.00000000000E+00 -0.11139764776E+04  0.29316769934E+04  0.27117865699E+04 0.  0.
        1    1    3    3  502    0 -0.74837448979E+03 -0.11122138624E+04 -0.77685736611E+03  0.15493842067E+04  0.50400001928E-02 0.  1.
       -1    1    3    3    0  502  0.74837448979E+03  0.11122138624E+04 -0.33711911151E+03  0.13822927867E+04  0.50400001928E-02 0. -1.
</event>
<event>
 5   0  0.7348964E-06  0.2704682E+04  0.7818609E-02  0.8333487E-01
       -1   -1    0    0    0  501  0.00000000000E+00  0.00000000000E+00  0.10550808877E+04  0.10550808877E+04  0.50400001928E-02 0. -1.
        1   -1    0    0  501    0  0.00000000000E+00  0.00000000000E+00 -0.17333514912E+04  0.17333514912E+04  0.50400001928E-02 0.  1.
    10030    2    1    2    0    0  0.00000000000E+00  0.00000000000E+00 -0.67827060355E+03  0.27884323789E+04  0.27046818889E+04 0.  0.
        1    1    3    3  502    0  0.13218824229E+04  0.13660390207E+03 -0.59747847827E+03  0.14570567244E+04  0.50400001928E-02 0.  1.
       -1    1    3    3    0  502 -0.13218824229E+04 -0.13660390207E+03 -0.80792125278E+02  0.13313756545E+04  0.50400001928E-02 0. -1.
</event>
<event>
 5   0  0.6804685E-06  0.2671988E+04  0.7818609E-02  0.8344151E-01
       -1   -1    0    0    0  501  0.00000000000E+00  0.00000000000E+00  0.12981067734E+04  0.12981067734E+04  0.50400001928E-02 0. -1.
        1   -1    0    0  501    0  0.00000000000E+00  0.00000000000E+00 -0.13749870366E+04  0.13749870366E+04  0.50400001928E-02 0.  1.
    10030    2    1    2    0    0  0.00000000000E+00  0.00000000000E+00 -0.76880263126E+02  0.26730938100E+04  0.26719880131E+04 0.  0.
        2    1    3    3  502    0  0.41179140851E+03  0.36538756162E+03  0.11793556168E+04  0.13015221493E+04  0.25500000920E-02 0. -1.
       -2    1    3    3    0  502 -0.41179140851E+03 -0.36538756162E+03 -0.12562358799E+04  0.13715716607E+04  0.25500000920E-02 0.  1.
</event>
<event>
 5   0  0.6804685E-06  0.2620649E+04  0.7818609E-02  0.8361221E-01
        1   -1    0    0  501    0  0.00000000000E+00  0.00000000000E+00  0.12138555955E+04  0.12138555956E+04  0.50400001928E-02 0.  1.
       -1   -1    0    0    0  501  0.00000000000E+00  0.00000000000E+00 -0.14144605735E+04  0.14144605735E+04  0.50400001928E-02 0. -1.
    10030    2    1    2    0    0  0.00000000000E+00  0.00000000000E+00 -0.20060497797E+03  0.26283161691E+04  0.26206494476E+04 0.  0.
        2    1    3    3  502    0 -0.92858847542E+03 -0.69525191155E+03 -0.71142829990E+03  0.13608019706E+04  0.25500000920E-02 0. -1.
       -2    1    3    3    0  502  0.92858847542E+03  0.69525191155E+03  0.51082332193E+03  0.12675141985E+04  0.25500000920E-02 0.  1.
</event>
<event>
 5   0  0.7348964E-06  0.2698214E+04  0.7818609E-02  0.8335585E-01
        1   -1    0    0  501    0  0.00000000000E+00  0.00000000000E+00  0.15787423253E+04  0.15787423253E+04  0.50400001928E-02 0. -1.
       -1   -1    0    0    0  501  0.00000000000E+00  0.00000000000E+00 -0.11528731878E+04  0.11528731878E+04  0.50400001928E-02 0.  1.
    10030    2    1    2    0    0  0.00000000000E+00  0.00000000000E+00  0.42586913745E+03  0.27316155131E+04  0.26982139999E+04 0.  0.
        1    1    3    3  502    0  0.98888862881E+03  0.39241845768E+03  0.10527802279E+04  0.14967428551E+04  0.50400001928E-02 0. -1.
       -1    1    3    3    0  502 -0.98888862881E+03 -0.39241845768E+03 -0.62691109040E+03  0.12348726580E+04  0.50400001928E-02 0.  1.
</event>
<event>
 5   0  0.7754912E-06  0.2346992E+04  0.7818609E-02  0.8459620E-01
       -1   -1    0    0    0  501  0.00000000000E+00  0.00000000000E+00  0.10187864740E+04  0.10187864740E+04  0.50400001928E-02 0.  1.
        1   -1    0    0  501    0  0.00000000000E+00  0.00000000000E+00 -0.13516992288E+04  0.13516992288E+04  0.50400001928E-02 0. -1.
    10030    2    1    2    0    0  0.00000000000E+00  0.00000000000E+00 -0.33291275487E+03  0.23704857028E+04  0.23469920249E+04 0.  0.
        4    1    3    3  502    0 -0.49420332249E+03 -0.22155424030E+03 -0.12179191547E+04  0.13329110569E+04  0.12699999809E+01 0. -1.
       -4    1    3    3    0  502  0.49420332249E+03  0.22155424030E+03  0.88500639979E+03  0.10375746460E+04  0.12699999809E+01 0.  1.
</event>
<event>
 5   0  0.1881699E-05  0.2713002E+04  0.7818609E-02  0.8330799E-01
       -2   -1    0    0    0  501  0.00000000000E+00  0.00000000000E+00  0.81619856587E+03  0.81619856587E+03  0.25500000920E-02 0.  1.
        2   -1    0    0  501    0  0.00000000000E+00  0.00000000000E+00 -0.22544697154E+04  0.22544697154E+04  0.25500000920E-02 0. -1.
    10030    2    1    2    0    0  0.00000000000E+00  0.00000000000E+00 -0.14382711495E+04  0.30706682813E+04  0.27130019893E+04 0.  0.
        4    1    3    3  502    0  0.77209514350E+03  0.52579030321E+02 -0.19801013570E+04  0.21259582455E+04  0.12699999809E+01 0. -1.
       -4    1    3    3    0  502 -0.77209514350E+03 -0.52579030321E+02  0.54183020742E+03  0.94471003574E+03  0.12699999809E+01 0.  1.
</event>
<event>
 5   0  0.1788003E-05  0.2693926E+04  0.7818609E-02  0.8336979E-01
        2   -1    0    0  501    0  0.00000000000E+00  0.00000000000E+00  0.27134499873E+04  0.27134499873E+04  0.25500000920E-02 0.  1.
       -2   -1    0    0    0  501  0.00000000000E+00  0.00000000000E+00 -0.66863545543E+03  0.66863545543E+03  0.25500000920E-02 0. -1.
    10030    2    1    2    0    0  0.00000000000E+00  0.00000000000E+00  0.20448145319E+04  0.33820854427E+04  0.26939256620E+04 0.  0.
        2    1    3    3  502    0  0.33810306574E+02  0.27156876304E+03 -0.63336542482E+03  0.68995977510E+03  0.25500000920E-02 0. -1.
       -2    1    3    3    0  502 -0.33810306574E+02 -0.27156876304E+03  0.26781799567E+04  0.26921256676E+04  0.25500000920E-02 0.  1.
</event>
<event>
 5   0  0.7600052E-06  0.2682548E+04  0.7818609E-02  0.8340690E-01
       -1   -1    0    0    0  501  0.00000000000E+00  0.00000000000E+00  0.18643016867E+04  0.18643016867E+04  0.50400001928E-02 0.  1.
        1   -1    0    0  501    0  0.00000000000E+00  0.00000000000E+00 -0.96498143156E+03  0.96498143157E+03  0.50400001928E-02 0. -1.
    10030    2    1    2    0    0  0.00000000000E+00  0.00000000000E+00  0.89932025510E+03  0.28292831182E+04  0.26825484230E+04 0.  0.
        5    1    3    3  502    0 -0.71938491387E+03 -0.11304682771E+04  0.38707420041E+03  0.13947479007E+04  0.46999998093E+01 0.  1.
       -5    1    3    3    0  502  0.71938491387E+03  0.11304682771E+04  0.51224605469E+03  0.14345352176E+04  0.46999998093E+01 0. -1.
</event>
<event>
 5   0  0.1788003E-05  0.2626501E+04  0.7818609E-02  0.8359255E-01
        2   -1    0    0  501    0  0.00000000000E+00  0.00000000000E+00  0.87824290056E+03  0.87824290056E+03  0.25500000920E-02 0. -1.
       -2   -1    0    0    0  501  0.00000000000E+00  0.00000000000E+00 -0.19637238889E+04  0.19637238889E+04  0.25500000920E-02 0.  1.
    10030    2    1    2    0    0  0.00000000000E+00  0.00000000000E+00 -0.10854809883E+04  0.28419667894E+04  0.26265007627E+04 0.  0.
        2    1    3    3  502    0  0.12436349609E+04 -0.40827713429E+03 -0.65780532847E+03  0.14649320751E+04  0.25500000920E-02 0. -1.
       -2    1    3    3    0  502 -0.12436349609E+04  0.40827713429E+03 -0.42767565984E+03  0.13770347143E+04  0.25500000920E-02 0.  1.
</event>
<event>
 5   0  0.6175875E-06  0.2681384E+04  0.7818609E-02  0.8341071E-01
        3   -1    0    0  501    0  0.00000000000E+00  0.00000000000E+00  0.17506701284E+04  0.17506701313E+04  0.10100000352E+00 0. -1.
       -3   -1    0    0    0  501  0.00000000000E+00  0.00000000000E+00 -0.10267238043E+04  0.10267238093E+04  0.10100000352E+00 0.  1.
    10030    2    1    2    0    0  0.00000000000E+00  0.00000000000E+00  0.72394632410E+03  0.27773939406E+04  0.26813837511E+04 0.  0.
        2    1    3    3  502    0 -0.13105184983E+04  0.12325550898E+03  0.98291707631E+02  0.13199666339E+04  0.25500000920E-02 0. -1.
       -2    1    3    3    0  502  0.13105184983E+04 -0.12325550898E+03  0.62565461647E+03  0.14574273066E+04  0.25500000920E-02 0.  1.
</event>
<event>
 5   0  0.1878160E-05  0.2829664E+04  0.7818609E-02  0.8294118E-01
       -2   -1    0    0    0  501  0.00000000000E+00  0.00000000000E+00  0.10192390639E+04  0.10192390639E+04  0.25500000920E-02 0. -1.
        2   -1    0    0  501    0  0.00000000000E+00  0.00000000000E+00 -0.19639645537E+04  0.19639645537E+04  0.25500000920E-02 0.  1.
    10030    2    1    2    0    0  0.00000000000E+00  0.00000000000E+00 -0.94472548979E+03  0.29832036177E+04  0.28296638623E+04 0.  0.
        1    1    3    3  502    0 -0.34118430803E+03  0.60833589331E+03 -0.17701188352E+04  0.19025771948E+04  0.50400001928E-02 0.  1.
       -1    1    3    3    0  502  0.34118430803E+03 -0.60833589331E+03  0.82539334546E+03  0.10806264229E+04  0.50400001928E-02 0. -1.
</event>
<event>
 5   0  0.1881699E-05  0.3170421E+04  0.7818609E-02  0.8196673E-01
        2   -1    0    0  501    0  0.00000000000E+00  0.00000000000E+00  0.25295011939E+04  0.25295011939E+04  0.25500000920E-02 0.  1.
       -2   -1    0    0    0  501  0.00000000000E+00  0.00000000000E+00 -0.99343364975E+03  0.99343364975E+03  0.25500000920E-02 0. -1.
    10030    2    1    2    0    0  0.00000000000E+00  0.00000000000E+00  0.15360675442E+04  0.35229348437E+04  0.31704205419E+04 0.  0.
        4    1    3    3  502    0  0.13322437963E+03  0.12748958960E+04 -0.26828382592E+03  0.13096129600E+04  0.12699999809E+01 0. -1.
       -4    1    3    3    0  502 -0.13322437963E+03 -0.12748958960E+04  0.18043513701E+04  0.22133218837E+04  0.12699999809E+01 0.  1.
</event>
<event>
 5   0  0.7600052E-06  0.2701451E+04  0.7818609E-02  0.8334534E-01
        1   -1    0    0  501    0  0.00000000000E+00  0.00000000000E+00  0.11830465459E+04  0.11830465459E+04  0.50400001928E-02 0.  1.
       -1   -1    0    0    0  501  0.00000000000E+00  0.00000000000E+00 -0.15421701620E+04  0.15421701620E+04  0.50400001928E-02 0. -1.
    10030    2    1    2    0    0  0.00000000000E+00  0.00000000000E+00 -0.35912361618E+03  0.27252167079E+04  0.27014507831E+04 0.  0.
        5    1    3    3  502    0  0.67794250370E+01  0.11895140550E+04 -0.82507186561E+03  0.14476723804E+04  0.46999998093E+01 0. -1.
       -5    1    3    3    0  502 -0.67794250370E+01 -0.11895140550E+04  0.46594824944E+03  0.12775443275E+04  0.46999998093E+01 0.  1.
</event>
<event>
 5   0  0.1881699E-05  0.2697962E+04  0.7818609E-02  0.8335667E-01
        2   -1    0    0  501    0  0.00000000000E+00  0.00000000000E+00  0.29018726464E+04  0.29018726464E+04  0.25500000920E-02 0.  1.
       -2   -1    0    0    0  501  0.00000000000E+00  0.00000000000E+00 -0.62709489676E+03  0.62709489677E+03  0.25500000920E-02 0. -1.
    10030    2    1    2    0    0  0.00000000000E+00  0.00000000000E+00  0.22747777497E+04  0.35289675432E+04  0.26979618438E+04 0.  0.
        4    1    3    3  502    0 -0.21376721876E+03  0.36932429500E+03  0.28112620344E+04  0.28434649106E+04  0.12699999809E+01 0.  1.
       -4    1    3    3    0  502  0.21376721876E+03 -0.36932429500E+03 -0.53648428473E+03  0.68550263263E+03  0.12699999809E+01 0. -1.
</event>
<event>
 5   0  0.1826851E-05  0.2705993E+04  0.7818609E-02  0.8333063E-01
        2   -1    0    0  501    0  0.00000000000E+00  0.00000000000E+00  0.22837841522E+04  0.22837841522E+04  0.25500000920E-02 0. -1.
       -2   -1    0    0    0  501  0.00000000000E+00  0.00000000000E+00 -0.80156435815E+03  0.80156435815E+03  0.25500000920E-02 0.  1.
    10030    2    1    2    0    0  0.00000000000E+00  0.00000000000E+00  0.14822197940E+04  0.30853485103E+04  0.27059933319E+04 0.  0.
        5    1    3    3  502    0  0.71633820112E+02 -0.39035108496E+03  0.22159158697E+04  0.22511798252E+04  0.46999998093E+01 0. -1.
       -5    1    3    3    0  502 -0.71633820112E+02  0.39035108496E+03 -0.73369607571E+03  0.83416868511E+03  0.46999998093E+01 0.  1.
</event>
<event>
 5   0  0.1878160E-05  0.2891260E+04  0.7818609E-02  0.8275483E-01
       -2   -1    0    0    0  501  0.00000000000E+00  0.00000000000E+00  0.11615011858E+04  0.11615011858E+04  0.25500000920E-02 0.  1.
        2   -1    0    0  501    0  0.00000000000E+00  0.00000000000E+00 -0.17992633614E+04  0.17992633614E+04  0.25500000920E-02 0. -1.
    10030    2    1    2    0    0  0.00000000000E+00  0.00000000000E+00 -0.63776217559E+03  0.29607645472E+04  0.28912602981E+04 0.  0.
        1    1    3    3  502    0  0.61617736166E+03 -0.92626700469E+03  0.62645841614E+03  0.12767518366E+04  0.50400001928E-02 0. -1.
       -1    1    3    3    0  502 -0.61617736166E+03  0.92626700469E+03 -0.12642205917E+04  0.16840127106E+04  0.50400001928E-02 0.  1.
</event>
<event>
 5   0  0.7754912E-06  0.2536942E+04  0.7818609E-02  0.8389942E-01
        1   -1    0    0  501    0  0.00000000000E+00  0.00000000000E+00  0.11257360635E+04  0.11257360635E+04  0.50400001928E-02 0.  1.
       -1   -1    0    0    0  501  0.00000000000E+00  0.00000000000E+00 -0.14293037512E+04  0.14293037512E+04  0.50400001928E-02 0. -1.
    10030    2    1    2    0    0  0.00000000000E+00  0.00000000000E+00 -0.30356768776E+03  0.25550398147E+04  0.25369420793E+04 0.  0.
        4    1    3    3  502    0 -0.49065357646E+03  0.67256402703E+03 -0.11156554299E+04  0.13920387759E+04  0.12699999809E+01 0. -1.
       -4    1    3    3    0  502  0.49065357646E+03 -0.67256402703E+03  0.81208774210E+03  0.11630010388E+04  0.12699999809E+01 0.  1.
</event>
<event>
 5   0  0.1878160E-05  0.2687915E+04  0.7818609E-02  0.8338937E-01
        2   -1    0    0  501    0  0.00000000000E+00  0.00000000000E+00  0.11151983370E+04  0.11151983370E+04  0.25500000920E-02 0.  1.
       -2   -1    0    0    0  501  0.00000000000E+00  0.00000000000E+00 -0.16196414162E+04  0.16196414162E+04  0.25500000920E-02 0. -1.
    10030    2    1    2    0    0  0.00000000000E+00  0.00000000000E+00 -0.50444307914E+03  0.27348397532E+04  0.26879147412E+04 0.  0.
        1    1    3    3  502    0 -0.96170322397E+03 -0.37686527677E+03 -0.11270701024E+04  0.15287862976E+04  0.50400001928E-02 0. -1.
       -1    1    3    3    0  502  0.96170322397E+03  0.37686527677E+03  0.62262702327E+03  0.12060534557E+04  0.50400001928E-02 0.  1.
</event>
<event>
 5   0  0.6804685E-06  0.2708980E+04  0.7818609E-02  0.8332097E-01
        1   -1    0    0  501    0  0.00000000000E+00  0.00000000000E+00  0.22160319706E+04  0.22160319707E+04  0.50400001928E-02 0. -1.
       -1   -1    0    0    0  501  0.00000000000E+00  0.00000000000E+00 -0.82789559838E+03  0.82789559840E+03  0.50400001928E-02 0.  1.
    10030    2    1    2    0    0  0.00000000000E+00  0.00000000000E+00  0.13881363723E+04  0.30439275690E+04  0.27089799663E+04 0.  0.
        2    1    3    3  502    0 -0.64385880668E+03  0.45235757300E+03  0.19328623143E+04  0.20868968022E+04  0.25500000920E-02 0. -1.
       -2    1    3    3    0  502  0.64385880668E+03 -0.45235757300E+03 -0.54472594206E+03  0.95703076688E+03  0.25500000920E-02 0.  1.
</event>
<event>
 5   0  0.1931119E-05  0.2292512E+04  0.7818609E-02  0.8480879E-01
        2   -1    0    0  501    0  0.00000000000E+00  0.00000000000E+00  0.11837258385E+04  0.11837258385E+04  0.25500000920E-02 0.  1.
       -2   -1    0    0    0  501  0.00000000000E+00  0.00000000000E+00 -0.11099719866E+04  0.11099719866E+04  0.25500000920E-02 0. -1.
    10030    2    1    2    0    0  0.00000000000E+00  0.00000000000E+00  0.73753851927E+02  0.22936978252E+04  0.22925117410E+04 0.  0.
        3    1    3    3  502    0  0.73585090004E+03 -0.68996492057E+03  0.58156135146E+03  0.11643632399E+04  0.10100000352E+00 0.  1.
       -3    1    3    3    0  502 -0.73585090004E+03  0.68996492057E+03 -0.50780749953E+03  0.11293345853E+04  0.10100000352E+00 0. -1.
</event>
<event>
 5   0  0.7754912E-06  0.2721616E+04  0.7818609E-02  0.8328025E-01
        1   -1    0    0  501    0  0.00000000000E+00  0.00000000000E+00  0.14360265954E+04  0.14360265954E+04  0.50400001928E-02 0.  1.
       -1   -1    0    0    0  501  0.00000000000E+00  0.00000000000E+00 -0.12895295661E+04  0.12895295661E+04  0.50400001928E-02 0. -1.
    10030    2    1    2    0    0  0.00000000000E+00  0.00000000000E+00  0.14649702933E+03  0.27255561615E+04  0.27216162496E+04 0.  0.
        4    1    3    3  502    0 -0.10172831795E+03 -0.12764089995E+03  0.14261877008E+04  0.14354977607E+04  0.12699999809E+01 0.  1.
       -4    1    3    3    0  502  0.10172831795E+03  0.12764089995E+03 -0.12796906715E+04  0.12900584009E+04  0.12699999809E+01 0. -1.
</event>
<event>
 5   0  0.7348964E-06  0.2600641E+04  0.7818609E-02  0.8367983E-01
        1   -1    0    0  501    0  0.00000000000E+00  0.00000000000E+00  0.10590910331E+04  0.10590910331E+04  0.50400001928E-02 0. -1.
       -1   -1    0    0    0  501  0.00000000000E+00  0.00000000000E+00 -0.15964951344E+04  0.15964951344E+04  0.50400001928E-02 0.  1.
    10030    2    1    2    0    0  0.00000000000E+00  0.00000000000E+00 -0.53740410124E+03  0.26555861675E+04  0.26006412142E+04 0.  0.
        1    1    3    3  502    0  0.92169951653E+02  0.10728728119E+04  0.47558872240E+03  0.11771728859E+04  0.50400001928E-02 0. -1.
       -1    1    3    3    0  502 -0.92169951653E+02 -0.10728728119E+04 -0.10129928236E+04  0.14784132816E+04  0.50400001928E-02 0.  1.
</event>
<event>
 5   0  0.1878160E-05  0.2717542E+04  0.7818609E-02  0.8329336E-01
        2   -1    0    0  501    0  0.00000000000E+00  0.00000000000E+00  0.19669858215E+04  0.19669858215E+04  0.25500000920E-02 0. -1.
       -2   -1    0    0    0  501  0.00000000000E+00  0.00000000000E+00 -0.93862305477E+03  0.93862305477E+03  0.25500000920E-02 0.  1.
    10030    2    1    2    0    0  0.00000000000E+00  0.00000000000E+00  0.10283627667E+04  0.29056088762E+04  0.27175417130E+04 0.  0.
        1    1    3    3  502    0  0.85000754026E+03 -0.78305397788E+02  0.16445153811E+04  0.18528560097E+04  0.50400001928E-02 0. -1.
       -1    1    3    3    0  502 -0.85000754026E+03  0.78305397788E+02 -0.61615261441E+03  0.10527528666E+04  0.50400001928E-02 0.  1.
</event>
<event>
 5   0  0.1881699E-05  0.2363696E+04  0.7818609E-02  0.8453222E-01
        2   -1    0    0  501    0  0.00000000000E+00  0.00000000000E+00  0.11208993620E+04  0.11208993620E+04  0.25500000920E-02 0. -1.
       -2   -1    0    0    0  501  0.00000000000E+00  0.00000000000E+00 -0.12461108030E+04  0.12461108030E+04  0.25500000920E-02 0.  1.
    10030    2    1    2    0    0  0.00000000000E+00  0.00000000000E+00 -0.12521144098E+03  0.23670101650E+04  0.23636960922E+04 0.  0.
        4    1    3    3  502    0 -0.11677574293E+04 -0.10609240873E+03 -0.21063103028E+03  0.11913354090E+04  0.12699999809E+01 0.  1.
       -4    1    3    3    0  502  0.11677574293E+04  0.10609240873E+03  0.85419589299E+02  0.11756747561E+04  0.12699999809E+01 0. -1.
</event>
<event>
 5   0  0.6175875E-06  0.2667771E+04  0.7818609E-02  0.8345538E-01
       -3   -1    0    0    0  501  0.00000000000E+00  0.00000000000E+00  0.10880533602E+04  0.10880533649E+04  0.10100000352E+00 0. -1.
        3   -1    0    0  501    0  0.00000000000E+00  0.00000000000E+00 -0.16352608088E+04  0.16352608119E+04  0.10100000352E+00 0.  1.
    10030    2    1    2    0    0  0.00000000000E+00  0.00000000000E+00 -0.54720744856E+03  0.27233141768E+04  0.26677713759E+04 0.  0.
        4    1    3    3  502    0 -0.83240101978E+03 -0.51537962017E+03  0.65120606028E+03  0.11758310068E+04  0.12699999809E+01 0. -1.
       -4    1    3    3    0  502  0.83240101978E+03  0.51537962017E+03 -0.11984135088E+04  0.15474831701E+04  0.12699999809E+01 0.  1.
</event>
<event>
 5   0  0.1878160E-05  0.2643439E+04  0.7818609E-02  0.8353594E-01
        2   -1    0    0  501    0  0.00000000000E+00  0.00000000000E+00  0.17077737066E+04  0.17077737066E+04  0.25500000920E-02 0. -1.
       -2   -1    0    0    0  501  0.00000000000E+00  0.00000000000E+00 -0.10229357115E+04  0.10229357116E+04  0.25500000920E-02 0.  1.
    10030    2    1    2    0    0  0.00000000000E+00  0.00000000000E+00  0.68483799502E+03  0.27307094181E+04  0.26434392081E+04 0.  0.
        1    1    3    3  502    0 -0.72208961308E+03  0.41549388771E+02  0.14851970972E+04  0.16519534432E+04  0.50400001928E-02 0. -1.
       -1    1    3    3    0  502  0.72208961308E+03 -0.41549388771E+02 -0.80035910215E+03  0.10787559749E+04  0.50400001928E-02 0.  1.
</event>
<event>
 5   0  0.1931119E-05  0.2673680E+04  0.7818609E-02  0.8343596E-01
       -2   -1    0    0    0  501  0.00000000000E+00  0.00000000000E+00  0.11481363186E+04  0.11481363186E+04  0.25500000920E-02 0. -1.
        2   -1    0    0  501    0  0.00000000000E+00  0.00000000000E+00 -0.15565581841E+04  0.15565581841E+04  0.25500000920E-02 0.  1.
    10030    2    1    2    0    0  0.00000000000E+00  0.00000000000E+00 -0.40842186559E+03  0.27046945027E+04  0.26736798486E+04 0.  0.
        3    1    3    3  502    0 -0.38033611004E+03 -0.42112410041E+03  0.10202596744E+04  0.11674463062E+04  0.10100000352E+00 0. -1.
       -3    1    3    3    0  502  0.38033611004E+03  0.42112410041E+03 -0.14286815400E+04  0.15372481964E+04  0.10100000352E+00 0.  1.
</event>
<event>
 5   0  0.7348964E-06  0.2692387E+04  0.7818609E-02  0.8337479E-01
       -1   -1    0    0    0  501  0.00000000000E+00  0.00000000000E+00  0.72253943135E+03  0.72253943137E+03  0.50400001928E-02 0.  1.
        1   -1    0    0  501    0  0.00000000000E+00  0.00000000000E+00 -0.25081504394E+04  0.25081504394E+04  0.50400001928E-02 0. -1.
    10030    2    1    2    0    0  0.00000000000E+00  0.00000000000E+00 -0.17856110080E+04  0.32306898707E+04  0.26923874849E+04 0.  0.
        1    1    3    3  502    0 -0.54880103689E+03 -0.48340144870E+03  0.46337479773E+03  0.86578042361E+03  0.50400001928E-02 0.  1.
       -1    1    3    3    0  502  0.54880103689E+03  0.48340144870E+03 -0.22489858057E+04  0.23649094471E+04  0.50400001928E-02 0. -1.
</event>
<event>
 5   0  0.7348964E-06  0.2732172E+04  0.7818609E-02  0.8324641E-01
        1   -1    0    0  501    0  0.00000000000E+00  0.00000000000E+00  0.15283246392E+04  0.15283246392E+04  0.50400001928E-02 0.  1.
       -1   -1    0    0    0  501  0.00000000000E+00  0.00000000000E+00 -0.12210695084E+04  0.12210695084E+04  0.50400001928E-02 0. -1.
    10030    2    1    2    0    0  0.00000000000E+00  0.00000000000E+00  0.30725513078E+03  0.27493941476E+04  0.27321717485E+04 0.  0.
        1    1    3    3  502    0 -0.96007679782E+03 -0.23540631085E+03 -0.79519824399E+03  0.12686622230E+04  0.50400001928E-02 0. -1.
       -1    1    3    3    0  502  0.96007679782E+03  0.23540631085E+03  0.11024533748E+04  0.14807319246E+04  0.50400001928E-02 0.  1.
</event>
<event>
 5   0  0.7351590E-06  0.2707461E+04  0.7818609E-02  0.8332588E-01
        1   -1    0    0  501    0  0.00000000000E+00  0.00000000000E+00  0.18438329271E+04  0.18438329271E+04  0.50400001928E-02 0. -1.
       -1   -1    0    0    0  501  0.00000000000E+00  0.00000000000E+00 -0.99390066872E+03  0.99390066873E+03  0.50400001928E-02 0.  1.
    10030    2    1    2    0    0  0.00000000000E+00  0.00000000000E+00  0.84993225842E+03  0.28377335959E+04  0.27074613787E+04 0.  0.
        3    1    3    3  502    0  0.60364466294E+03  0.46367969887E+03 -0.74836264870E+03  0.10674419921E+04  0.10100000352E+00 0.  1.
       -3    1    3    3    0  502 -0.60364466294E+03 -0.46367969887E+03  0.15982949071E+04  0.17702916038E+04  0.10100000352E+00 0. -1.
</event>
<event>
 5   0  0.7600052E-06  0.2837164E+04  0.7818609E-02  0.8291822E-01
        1   -1    0    0  501    0  0.00000000000E+00  0.00000000000E+00  0.18781368421E+04  0.18781368422E+04  0.50400001928E-02 0.  1.
       -1   -1    0    0    0  501  0.00000000000E+00  0.00000000000E+00 -0.10714743484E+04  0.10714743484E+04  0.50400001928E-02 0. -1.
    10030    2    1    2    0    0  0.00000000000E+00  0.00000000000E+00  0.80666249372E+03  0.29496111906E+04  0.28371643937E+04 0.  0.
        5    1    3    3  502    0  0.49246795711E+03 -0.93225994035E+03 -0.58334617956E+03  0.12049681076E+04  0.46999998093E+01 0. -1.
       -5    1    3    3    0  502 -0.49246795711E+03  0.93225994035E+03  0.13900086733E+04  0.17446430830E+04  0.46999998093E+01 0.  1.
</event>
<event>
 5   0  0.7600052E-06  0.2673628E+04  0.7818609E-02  0.8343613E-01
        1   -1    0    0  501    0  0.00000000000E+00  0.00000000000E+00  0.14132832007E+04  0.14132832007E+04  0.50400001928E-02 0.  1.
       -1   -1    0    0    0  501  0.00000000000E+00  0.00000000000E+00 -0.12644823988E+04  0.12644823989E+04  0.50400001928E-02 0. -1.
    10030    2    1    2    0    0  0.00000000000E+00  0.00000000000E+00  0.14880080182E+03  0.26777655995E+04  0.26736280458E+04 0.  0.
        5    1    3    3  502    0 -0.68268081212E+03  0.88690941926E+03  0.80655031025E+03  0.13795676504E+04  0.46999998093E+01 0.  1.
       -5    1    3    3    0  502  0.68268081212E+03 -0.88690941926E+03 -0.65774950842E+03  0.12981979491E+04  0.46999998093E+01 0. -1.
</event>
<event>
 5   0  0.1881699E-05  0.2709353E+04  0.7818609E-02  0.8331977E-01
       -2   -1    0    0    0  501  0.00000000000E+00  0.00000000000E+00  0.98152221773E+03  0.98152221773E+03  0.25500000920E-02 0.  1.
        2   -1    0    0  501    0  0.00000000000E+00  0.00000000000E+00 -0.18696967245E+04  0.18696967245E+04  0.25500000920E-02 0. -1.
    10030    2    1    2    0    0  0.00000000000E+00  0.00000000000E+00 -0.88817450673E+03  0.28512189422E+04  0.27093533365E+04 0.  0.
        4    1    3    3  502    0 -0.40127008126E+03 -0.34995424562E+03  0.86679422922E+03  0.10172607831E+04  0.12699999809E+01 0.  1.
       -4    1    3    3    0  502  0.40127008126E+03  0.34995424562E+03 -0.17549687360E+04  0.18339581591E+04  0.12699999809E+01 0. -1.
</event>
<event>
 5   0  0.1878160E-05  0.2673774E+04  0.7818609E-02  0.8343565E-01
       -2   -1    0    0    0  501  0.00000000000E+00  0.00000000000E+00  0.11385805478E+04  0.11385805478E+04  0.25500000920E-02 0. -1.
        2   -1    0    0  501    0  0.00000000000E+00  0.00000000000E+00 -0.15697329672E+04  0.15697329672E+04  0.25500000920E-02 0.  1.
    10030    2    1    2    0    0  0.00000000000E+00  0.00000000000E+00 -0.43115241942E+03  0.27083135151E+04  0.26737744271E+04 0.  0.
        1    1    3    3  502    0  0.16440321354E+03 -0.51827507473E+02 -0.15584289085E+04  0.15679334074E+04  0.50400001928E-02 0.  1.
       -1    1    3    3    0  502 -0.16440321354E+03  0.51827507473E+02  0.11272764891E+04  0.11403801077E+04  0.50400001928E-02 0. -1.
</event>
<event>
 5   0  0.6804685E-06  0.2691461E+04  0.7818609E-02  0.8337781E-01
       -1   -1    0    0    0  501  0.00000000000E+00  0.00000000000E+00  0.12058574450E+04  0.12058574450E+04  0.50400001928E-02 0.  1.
        1   -1    0    0  501    0  0.00000000000E+00  0.00000000000E+00 -0.15018279528E+04  0.15018279528E+04  0.50400001928E-02 0. -1.
    10030    2    1    2    0    0  0.00000000000E+00  0.00000000000E+00 -0.29597050786E+03  0.27076853978E+04  0.26914608806E+04 0.  0.
        2    1    3    3  502    0 -0.77554920607E+03  0.10921300813E+04 -0.27824835053E+03  0.13680814413E+04  0.25500000920E-02 0. -1.
       -2    1    3    3    0  502  0.77554920607E+03 -0.10921300813E+04 -0.17722157332E+02  0.13396039565E+04  0.25500000920E-02 0.  1.
</event>
<event>
 5   0  0.1826851E-05  0.2705080E+04  0.7818609E-02  0.8333358E-01
       -2   -1    0    0    0  501  0.00000000000E+00  0.00000000000E+00  0.12921139985E+04  0.12921139985E+04  0.25500000920E-02 0. -1.
        2   -1    0    0  501    0  0.00000000000E+00  0.00000000000E+00 -0.14157921793E+04  0.14157921793E+04  0.25500000920E-02 0.  1.
    10030    2    1    2    0    0  0.00000000000E+00  0.00000000000E+00 -0.12367818084E+03  0.27079061778E+04  0.27050803270E+04 0.  0.
        5    1    3    3  502    0  0.11471411520E+04 -0.71202660563E+03 -0.14209824096E+03  0.13576187645E+04  0.46999998093E+01 0. -1.
       -5    1    3    3    0  502 -0.11471411520E+04  0.71202660563E+03  0.18420060120E+02  0.13502874133E+04  0.46999998093E+01 0.  1.
</event>
<event>
 5   0  0.6804685E-06  0.2684342E+04  0.7818609E-02  0.8340103E-01
       -1   -1    0    0    0  501  0.00000000000E+00  0.00000000000E+00  0.11308123179E+04  0.11308123179E+04  0.50400001928E-02 0.  1.
        1   -1    0    0  501    0  0.00000000000E+00  0.00000000000E+00 -0.15930343770E+04  0.15930343770E+04  0.50400001928E-02 0. -1.
    10030    2    1    2    0    0  0.00000000000E+00  0.00000000000E+00 -0.46222205911E+03  0.27238466949E+04  0.26843419278E+04 0.  0.
        2    1    3    3  502    0  0.38109503689E+02  0.15014772642E+03 -0.15839329052E+04  0.15914899064E+04  0.25500000920E-02 0. -1.
       -2    1    3    3    0  502 -0.38109503689E+02 -0.15014772642E+03  0.11217108461E+04  0.11323567884E+04  0.25500000920E-02 0.  1.
</event>
<event>
 5   0  0.1788003E-05  0.2698019E+04  0.7818609E-02  0.8335648E-01
       -2   -1    0    0    0  501  0.00000000000E+00  0.00000000000E+00  0.96756003906E+03  0.96756003906E+03  0.25500000920E-02 0.  1.
        2   -1    0    0  501    0  0.00000000000E+00  0.00000000000E+00 -0.18808406901E+04  0.18808406901E+04  0.25500000920E-02 0. -1.
    10030    2    1    2    0    0  0.00000000000E+00  0.00000000000E+00 -0.91328065105E+03  0.28484007292E+04  0.26980187483E+04 0.  0.
        2    1    3    3  502    0  0.11534029666E+04 -0.59269179713E+03 -0.84911978884E+03  0.15500407690E+04  0.25500000920E-02 0. -1.
       -2    1    3    3    0  502 -0.11534029666E+04  0.59269179713E+03 -0.64160862207E+02  0.12983599601E+04  0.25500000920E-02 0.  1.
</event>
<event>
 5   0  0.1931119E-05  0.2660364E+04  0.7818609E-02  0.8347981E-01
       -2   -1    0    0    0  501  0.00000000000E+00  0.00000000000E+00  0.21609974704E+04  0.21609974704E+04  0.25500000920E-02 0. -1.
        2   -1    0    0  501    0  0.00000000000E+00  0.00000000000E+00 -0.81878098612E+03  0.81878098612E+03  0.25500000920E-02 0.  1.
    10030    2    1    2    0    0  0.00000000000E+00  0.00000000000E+00  0.13422164842E+04  0.29797784565E+04  0.26603636141E+04 0.  0.
        3    1    3    3  502    0  0.48370143219E+03 -0.51455616317E+03 -0.59146241596E+03  0.92117475012E+03  0.10100000352E+00 0.  1.
       -3    1    3    3    0  502 -0.48370143219E+03  0.51455616317E+03  0.19336789002E+04  0.20586037064E+04  0.10100000352E+00 0. -1.
</event>
<event>
 5   0  0.1878160E-05  0.2624650E+04  0.7818609E-02  0.8359876E-01
        2   -1    0    0  501    0  0.00000000000E+00  0.00000000000E+00  0.12826873108E+04  0.12826873108E+04  0.25500000920E-02 0. -1.
       -2   -1    0    0    0  501  0.00000000000E+00  0.00000000000E+00 -0.13426474646E+04  0.13426474646E+04  0.25500000920E-02 0.  1.
    10030    2    1    2    0    0  0.00000000000E+00  0.00000000000E+00 -0.59960153721E+02  0.26253347754E+04  0.26246499696E+04 0.  0.
        1    1    3    3  502    0  0.60825073795E+03  0.13657018042E+03 -0.11850872050E+04  0.13390489378E+04  0.50400001928E-02 0.  1.
       -1    1    3    3    0  502 -0.60825073795E+03 -0.13657018042E+03  0.11251270513E+04  0.12862858376E+04  0.50400001928E-02 0. -1.
</event>
<event>
 5   0  0.1881699E-05  0.2658643E+04  0.7818609E-02  0.8348550E-01
        2   -1    0    0  501    0  0.00000000000E+00  0.00000000000E+00  0.17144402527E+04  0.17144402527E+04  0.25500000920E-02 0.  1.
       -2   -1    0    0    0  501  0.00000000000E+00  0.00000000000E+00 -0.10307125001E+04  0.10307125001E+04  0.25500000920E-02 0. -1.
    10030    2    1    2    0    0  0.00000000000E+00  0.00000000000E+00  0.68372775260E+03  0.27451527528E+04  0.26586425101E+04 0.  0.
        4    1    3    3  502    0  0.12266045910E+04  0.41960057163E+03  0.38237770668E+02  0.12969530456E+04  0.12699999809E+01 0. -1.
       -4    1    3    3    0  502 -0.12266045910E+04 -0.41960057163E+03  0.64548998194E+03  0.14481997072E+04  0.12699999809E+01 0.  1.
</event>
<event>
 5   0  0.7600052E-06  0.2674643E+04  0.7818609E-02  0.8343280E-01
        1   -1    0    0  501    0  0.00000000000E+00  0.00000000000E+00  0.18899117106E+04  0.18899117106E+04  0.50400001928E-02 0. -1.
       -1   -1    0    0    0  501  0.00000000000E+00  0.00000000000E+00 -0.94630273698E+03  0.94630273699E+03  0.50400001928E-02 0.  1.
    10030    2    1    2    0    0  0.00000000000E+00  0.00000000000E+00  0.94360897362E+03  0.28362144476E+04  0.26746428729E+04 0.  0.
        5    1    3    3  502    0  0.57994297914E+03 -0.22847021418E+03 -0.78283150658E+03  0.10006896400E+04  0.46999998093E+01 0.  1.
       -5    1    3    3    0  502 -0.57994297914E+03  0.22847021418E+03  0.17264404802E+04  0.18355248077E+04  0.46999998093E+01 0. -1.
</event>
<event>
 5   0  0.7754912E-06  0.2726831E+04  0.7818609E-02  0.8326351E-01
       -1   -1    0    0    0  501  0.00000000000E+00  0.00000000000E+00  0.98393989963E+03  0.98393989964E+03  0.50400001928E-02 0.  1.
        1   -1    0    0  501    0  0.00000000000E+00  0.00000000000E+00 -0.18892429345E+04  0.18892429345E+04  0.50400001928E-02 0. -1.
    10030    2    1    2    0    0  0.00000000000E+00  0.00000000000E+00 -0.90530303486E+03  0.28731828341E+04  0.27268307636E+04 0.  0.
        4    1    3    3  502    0 -0.12621199991E+04 -0.35827081367E+03 -0.61804826337E+02  0.13134406411E+04  0.12699999809E+01 0.  1.
       -4    1    3    3    0  502  0.12621199991E+04  0.35827081367E+03 -0.84349820852E+03  0.15597421931E+04  0.12699999809E+01 0. -1.
</event>
<event>
 5   0  0.6175875E-06  0.2672966E+04  0.7818609E-02  0.8343830E-01
        3   -1    0    0  501    0  0.00000000000E+00  0.00000000000E+00  0.19871721440E+04  0.19871721466E+04  0.10100000352E+00 0. -1.
       -3   -1    0    0    0  501  0.00000000000E+00  0.00000000000E+00 -0.89885828014E+03  0.89885828582E+03  0.10100000352E+00 0.  1.
    10030    2    1    2    0    0  0.00000000000E+00  0.00000000000E+00  0.10883138639E+04  0.28860304324E+04  0.26729655049E+04 0.  0.
        1    1    3    3  502    0  0.25332346677E+03 -0.12889039784E+04  0.81025676367E+03  0.15433607056E+04  0.50400001928E-02 0.  1.
       -1    1    3    3    0  502 -0.25332346677E+03  0.12889039784E+04  0.27805710020E+03  0.13426697268E+04  0.50400001928E-02 0. -1.
</event>
<event>
 5   0  0.1931119E-05  0.2716710E+04  0.7818609E-02  0.8329603E-01
        2   -1    0    0  501    0  0.00000000000E+00  0.00000000000E+00  0.10854828955E+04  0.10854828955E+04  0.25500000920E-02 0. -1.
       -2   -1    0    0    0  501  0.00000000000E+00  0.00000000000E+00 -0.16998230226E+04  0.16998230226E+04  0.25500000920E-02 0.  1.
    10030    2    1    2    0    0  0.00000000000E+00  0.00000000000E+00 -0.61434012709E+03  0.27853059181E+04  0.27167103757E+04 0.  0.
        3    1    3    3  502    0 -0.17221898129E+03  0.38366282955E+03  0.10170587244E+04  0.11005748513E+04  0.10100000352E+00 0. -1.
       -3    1    3    3    0  502  0.17221898129E+03 -0.38366282955E+03 -0.16313988515E+04  0.16847310667E+04  0.10100000352E+00 0.  1.
</event>
<event>
 5   0  0.1788003E-05  0.2705707E+04  0.7818609E-02  0.8333156E-01
       -2   -1    0    0    0  501  0.00000000000E+00  0.00000000000E+00  0.75265081645E+03  0.75265081646E+03  0.25500000920E-02 0.  1.
        2   -1    0    0  501    0  0.00000000000E+00  0.00000000000E+00 -0.24316887830E+04  0.24316887830E+04  0.25500000920E-02 0. -1.
    10030    2    1    2    0    0  0.00000000000E+00  0.00000000000E+00 -0.16790379665E+04  0.31843395994E+04  0.27057069670E+04 0.  0.
        2    1    3    3  502    0  0.11340669267E+04 -0.13939142030E+03  0.12960066159E+02  0.11426748118E+04  0.25500000920E-02 0.  1.
       -2    1    3    3    0  502 -0.11340669267E+04  0.13939142030E+03 -0.16919980327E+04  0.20416647876E+04  0.25500000920E-02 0. -1.
</event>
<event>
 5   0  0.1826851E-05  0.2705511E+04  0.7818609E-02  0.8333219E-01
       -2   -1    0    0    0  501  0.00000000000E+00  0.00000000000E+00  0.92389539181E+03  0.92389539182E+03  0.25500000920E-02 0. -1.
        2   -1    0    0  501    0  0.00000000000E+00  0.00000000000E+00 -0.19806869497E+04  0.19806869497E+04  0.25500000920E-02 0.  1.
    10030    2    1    2    0    0  0.00000000000E+00  0.00000000000E+00 -0.10567915579E+04  0.29045823416E+04  0.27055110759E+04 0.  0.
        5    1    3    3  502    0 -0.51754974180E+03 -0.12074297248E+04 -0.87491634294E+03  0.15783678192E+04  0.46999998093E+01 0.  1.
       -5    1    3    3    0  502  0.51754974180E+03  0.12074297248E+04 -0.18187521499E+03  0.13262145224E+04  0.46999998093E+01 0. -1.
</event>
<event>
 5   0  0.7754912E-06  0.2683367E+04  0.7818609E-02  0.8340422E-01
       -1   -1    0    0    0  501  0.00000000000E+00  0.00000000000E+00  0.11681350966E+04  0.11681350966E+04  0.50400001928E-02 0.  1.
        1   -1    0    0  501    0  0.00000000000E+00  0.00000000000E+00 -0.15410162658E+04  0.15410162658E+04  0.50400001928E-02 0. -1.
    10030    2    1    2    0    0  0.00000000000E+00  0.00000000000E+00 -0.37288116914E+03  0.27091513624E+04  0.26833674251E+04 0.  0.
        4    1    3    3  502    0  0.14237286491E+02  0.44268916917E+03 -0.14650762166E+04  0.15305640575E+04  0.12699999809E+01 0. -1.
       -4    1    3    3    0  502 -0.14237286491E+02 -0.44268916917E+03  0.10921950474E+04  0.11785873049E+04  0.12699999809E+01 0.  1.
</event>
<event>
 5   0  0.7348964E-06  0.2679819E+04  0.7818609E-02  0.8341583E-01
        1   -1    0    0  501    0  0.00000000000E+00  0.00000000000E+00  0.20208858836E+04  0.20208858836E+04  0.50400001928E-02 0. -1.
       -1   -1    0    0    0  501  0.00000000000E+00  0.00000000000E+00 -0.88840151771E+03  0.88840151773E+03  0.50400001928E-02 0.  1.
    10030    2    1    2    0    0  0.00000000000E+00  0.00000000000E+00  0.11324843659E+04  0.29092874013E+04  0.26798194612E+04 0.  0.
        1    1    3    3  502    0  0.46518835966E+03 -0.20219350179E+03  0.19126292765E+04  0.19787453529E+04  0.50400001928E-02 0. -1.
       -1    1    3    3    0  502 -0.46518835966E+03  0.20219350179E+03 -0.78014491069E+03  0.93054204840E+03  0.50400001928E-02 0.  1.
</event>
<event>
 5   0  0.1788003E-05  0.2758162E+04  0.7818609E-02  0.8316376E-01
        2   -1    0    0  501    0  0.00000000000E+00  0.00000000000E+00  0.21758573816E+04  0.21758573816E+04  0.25500000920E-02 0.  1.
       -2   -1    0    0    0  501  0.00000000000E+00  0.00000000000E+00 -0.87407602318E+03  0.87407602318E+03  0.25500000920E-02 0. -1.
    10030    2    1    2    0    0  0.00000000000E+00  0.00000000000E+00  0.13017813584E+04  0.30499334047E+04  0.27581622629E+04 0.  0.
        2    1    3    3  502    0 -0.33960083082E+03  0.21576949182E+03 -0.80773084813E+03  0.90239366184E+03  0.25500000920E-02 0. -1.
       -2    1    3    3    0  502  0.33960083082E+03 -0.21576949182E+03  0.21095122065E+04  0.21475397429E+04  0.25500000920E-02 0.  1.
</event>
<event>
 5   0  0.7754912E-06  0.2751396E+04  0.7818609E-02  0.8318519E-01
       -1   -1    0    0    0  501  0.00000000000E+00  0.00000000000E+00  0.87803629668E+03  0.87803629670E+03  0.50400001928E-02 0. -1.
        1   -1    0    0  501    0  0.00000000000E+00  0.00000000000E+00 -0.21554298575E+04  0.21554298575E+04  0.50400001928E-02 0.  1.
    10030    2    1    2    0    0  0.00000000000E+00  0.00000000000E+00 -0.12773935608E+04  0.30334661542E+04  0.27513964817E+04 0.  0.
        4    1    3    3  502    0 -0.10190023215E+03  0.52976129145E+03  0.75655073626E+03  0.92919390477E+03  0.12699999809E+01 0. -1.
       -4    1    3    3    0  502  0.10190023215E+03 -0.52976129145E+03 -0.20339442971E+04  0.21042722494E+04  0.12699999809E+01 0.  1.
</event>
<event>
 5   0  0.1881699E-05  0.2706515E+04  0.7818609E-02  0.8332894E-01
       -2   -1    0    0    0  501  0.00000000000E+00  0.00000000000E+00  0.96526734251E+03  0.96526734252E+03  0.25500000920E-02 0. -1.
        2   -1    0    0  501    0  0.00000000000E+00  0.00000000000E+00 -0.18972001561E+04  0.18972001561E+04  0.25500000920E-02 0.  1.
    10030    2    1    2    0    0  0.00000000000E+00  0.00000000000E+00 -0.93193281356E+03  0.28624674986E+04  0.27065146243E+04 0.  0.
        4    1    3    3  502    0 -0.74335364558E+03  0.55064623514E+03 -0.15105610395E+04  0.17713221575E+04  0.12699999809E+01 0.  1.
       -4    1    3    3    0  502  0.74335364558E+03 -0.55064623514E+03  0.57862822593E+03  0.10911453411E+04  0.12699999809E+01 0. -1.
</event>
<event>
 5   0  0.7600052E-06  0.2677018E+04  0.7818609E-02  0.8342500E-01
        1   -1    0    0  501    0  0.00000000000E+00  0.00000000000E+00  0.13401571358E+04  0.13401571358E+04  0.50400001928E-02 0.  1.
       -1   -1    0    0    0  501  0.00000000000E+00  0.00000000000E+00 -0.13368630384E+04  0.13368630384E+04  0.50400001928E-02 0. -1.
    10030    2    1    2    0    0  0.00000000000E+00  0.00000000000E+00  0.32940974053E+01  0.26770201742E+04  0.26770181475E+04 0.  0.
        5    1    3    3  502    0  0.10746337754E+04  0.93946918069E+02 -0.79076801093E+03  0.13375350133E+04  0.46999998093E+01 0. -1.
       -5    1    3    3    0  502 -0.10746337754E+04 -0.93946918069E+02  0.79406210834E+03  0.13394851610E+04  0.46999998093E+01 0.  1.
</event>
<event>
 5   0  0.1826851E-05  0.2688164E+04  0.7818609E-02  0.8338856E-01
        2   -1    0    0  501    0  0.00000000000E+00  0.00000000000E+00  0.14987853984E+04  0.14987853984E+04  0.25500000920E-02 0.  1.
       -2   -1    0    0    0  501  0.00000000000E+00  0.00000000000E+00 -0.12053471085E+04  0.12053471085E+04  0.25500000920E-02 0. -1.
    10030    2    1    2    0    0  0.00000000000E+00  0.00000000000E+00  0.29343828992E+03  0.27041325068E+04  0.26881641662E+04 0.  0.
        5    1    3    3  502    0 -0.26409525085E+03  0.65997424480E+03  0.12942065356E+04  0.14765855722E+04  0.46999998093E+01 0.  1.
       -5    1    3    3    0  502  0.26409525085E+03 -0.65997424480E+03 -0.10007682456E+04  0.12275469347E+04  0.46999998093E+01 0. -1.
</event>
<event>
 5   0  0.1878160E-05  0.2714253E+04  0.7818609E-02  0.8330395E-01
        2   -1    0    0  501    0  0.00000000000E+00  0.00000000000E+00  0.22813629633E+04  0.22813629633E+04  0.25500000920E-02 0.  1.
       -2   -1    0    0    0  501  0.00000000000E+00  0.00000000000E+00 -0.80732085498E+03  0.80732085498E+03  0.25500000920E-02 0. -1.
    10030    2    1    2    0    0  0.00000000000E+00  0.00000000000E+00  0.14740421084E+04  0.30886838183E+04  0.27142526766E+04 0.  0.
        1    1    3    3  502    0 -0.68990022698E+03  0.68024891430E+03 -0.34438533868E+03  0.10282519974E+04  0.50400001928E-02 0. -1.
       -1    1    3    3    0  502  0.68990022698E+03 -0.68024891430E+03  0.18184274470E+04  0.20604318209E+04  0.50400001928E-02 0.  1.
</event>
<event>
 5   0  0.7351590E-06  0.2708094E+04  0.7818609E-02  0.8332383E-01
        1   -1    0    0  501    0  0.00000000000E+00  0.00000000000E+00  0.14127653519E+04  0.14127653519E+04  0.50400001928E-02 0. -1.
       -1   -1    0    0    0  501  0.00000000000E+00  0.00000000000E+00 -0.12977694989E+04  0.12977694989E+04  0.50400001928E-02 0.  1.
    10030    2    1    2    0    0  0.00000000000E+00  0.00000000000E+00  0.11499585300E+03  0.27105348508E+04  0.27080943726E+04 0.  0.
        3    1    3    3  502    0 -0.80513860192E+03 -0.23752772017E+03 -0.10058983130E+04  0.13101522860E+04  0.10100000352E+00 0.  1.
       -3    1    3    3    0  502  0.80513860192E+03  0.23752772017E+03  0.11208941660E+04  0.14003825648E+04  0.10100000352E+00 0. -1.
</event>
<event>
 5   0  0.7754912E-06  0.2674031E+04  0.7818609E-02  0.8343481E-01
        1   -1    0    0  501    0  0.00000000000E+00  0.00000000000E+00  0.87315968892E+03  0.87315968893E+03  0.50400001928E-02 0.  1.
       -1   -1    0    0    0  501  0.00000000000E+00  0.00000000000E+00 -0.20472888545E+04  0.20472888545E+04  0.50400001928E-02 0. -1.
    10030    2    1    2    0    0  0.00000000000E+00  0.00000000000E+00 -0.11741291656E+04  0.29204485435E+04  0.26740307398E+04 0.  0.
        4    1    3    3  502    0  0.99814567633E+03 -0.34768607581E+03 -0.14813152312E+04  0.18197463629E+04  0.12699999809E+01 0. -1.
       -4    1    3    3    0  502 -0.99814567633E+03  0.34768607581E+03  0.30718606553E+03  0.11007021805E+04  0.12699999809E+01 0.  1.
</event>
<event>
 5   0  0.7754912E-06  0.2663049E+04  0.7818609E-02  0.8347095E-01
        1   -1    0    0  501    0  0.00000000000E+00  0.00000000000E+00  0.12271380102E+04  0.12271380102E+04  0.50400001928E-02 0. -1.
       -1   -1    0    0    0  501  0.00000000000E+00  0.00000000000E+00 -0.14447905209E+04  0.14447905209E+04  0.50400001928E-02 0.  1.
    10030    2    1    2    0    0  0.00000000000E+00  0.00000000000E+00 -0.21765251079E+03  0.26719285311E+04  0.26630489030E+04 0.  0.
        4    1    3    3  502    0  0.12496546355E+03  0.39231928775E+03 -0.13793126418E+04  0.14394567612E+04  0.12699999809E+01 0.  1.
       -4    1    3    3    0  502 -0.12496546355E+03 -0.39231928775E+03  0.11616601310E+04  0.12324717699E+04  0.12699999809E+01 0. -1.
</event>
<event>
 5   0  0.7754912E-06  0.2720386E+04  0.7818609E-02  0.8328420E-01
        1   -1    0    0  501    0  0.00000000000E+00  0.00000000000E+00  0.19446807715E+04  0.19446807715E+04  0.50400001928E-02 0. -1.
       -1   -1    0    0    0  501  0.00000000000E+00  0.00000000000E+00 -0.95137754508E+03  0.95137754509E+03  0.50400001928E-02 0.  1.
    10030    2    1    2    0    0  0.00000000000E+00  0.00000000000E+00  0.99330322646E+03  0.28960583166E+04  0.27203864567E+04 0.  0.
        4    1    3    3  502    0  0.91905414137E+03 -0.87562925619E+03 -0.23507810051E+02  0.12696225184E+04  0.12699999809E+01 0.  1.
       -4    1    3    3    0  502 -0.91905414137E+03  0.87562925619E+03  0.10168110365E+04  0.16264357983E+04  0.12699999809E+01 0. -1.
</event>
<event>
 5   0  0.7351590E-06  0.2718501E+04  0.7818609E-02  0.8329027E-01
       -1   -1    0    0    0  501  0.00000000000E+00  0.00000000000E+00  0.10600997540E+04  0.10600997540E+04  0.50400001928E-02 0.  1.
        1   -1    0    0  501    0  0.00000000000E+00  0.00000000000E+00 -0.17428191923E+04  0.17428191923E+04  0.50400001928E-02 0. -1.
    10030    2    1    2    0    0  0.00000000000E+00  0.00000000000E+00 -0.68271943827E+03  0.28029189463E+04  0.27185012025E+04 0.  0.
        3    1    3    3  502    0 -0.56583238561E+03 -0.12347799499E+04 -0.28764221513E+03  0.13883752617E+04  0.10100000352E+00 0. -1.
       -3    1    3    3    0  502  0.56583238561E+03  0.12347799499E+04 -0.39507722315E+03  0.14145436846E+04  0.10100000352E+00 0.  1.
</event>
<event>
 5   0  0.1826851E-05  0.2707109E+04  0.7818609E-02  0.8332702E-01
       -2   -1    0    0    0  501  0.00000000000E+00  0.00000000000E+00  0.11874572895E+04  0.11874572896E+04  0.25500000920E-02 0. -1.
        2   -1    0    0  501    0  0.00000000000E+00  0.00000000000E+00 -0.15428842940E+04  0.15428842940E+04  0.25500000920E-02 0.  1.
    10030    2    1    2    0    0  0.00000000000E+00  0.00000000000E+00 -0.35542700443E+03  0.27303415835E+04  0.27071085695E+04 0.  0.
        5    1    3    3  502    0  0.85172158557E+03  0.70483968322E+03  0.60992301117E+03  0.12626388272E+04  0.46999998093E+01 0. -1.
       -5    1    3    3    0  502 -0.85172158557E+03 -0.70483968322E+03 -0.96535001560E+03  0.14677027563E+04  0.46999998093E+01 0.  1.
</event>
<event>
 5   0  0.1788003E-05  0.1939285E+04  0.7818609E-02  0.8635545E-01
       -2   -1    0    0    0  501  0.00000000000E+00  0.00000000000E+00  0.72026861219E+03  0.72026861219E+03  0.25500000920E-02 0. -1.
        2   -1    0    0  501    0  0.00000000000E+00  0.00000000000E+00 -0.13053549991E+04  0.13053549991E+04  0.25500000920E-02 0.  1.
    10030    2    1    2    0    0  0.00000000000E+00  0.00000000000E+00 -0.58508638689E+03  0.20256236113E+04  0.19392846450E+04 0.  0.
        2    1    3    3  502    0  0.76228001477E+03  0.34453664687E+03  0.21962362699E+03  0.86487621050E+03  0.25500000920E-02 0. -1.
       -2    1    3    3    0  502 -0.76228001477E+03 -0.34453664687E+03 -0.80471001388E+03  0.11607474008E+04  0.25500000920E-02 0.  1.
</event>
<event>
 5   0  0.6804685E-06  0.2656188E+04  0.7818609E-02  0.8349362E-01
        1   -1    0    0  501    0  0.00000000000E+00  0.00000000000E+00  0.12469083008E+04  0.12469083008E+04  0.50400001928E-02 0.  1.
       -1   -1    0    0    0  501  0.00000000000E+00  0.00000000000E+00 -0.14145653035E+04  0.14145653035E+04  0.50400001928E-02 0. -1.
    10030    2    1    2    0    0  0.00000000000E+00  0.00000000000E+00 -0.16765700276E+03  0.26614736043E+04  0.26561876583E+04 0.  0.
        2    1    3    3  502    0  0.80893398546E+03  0.53939788620E+03 -0.99034377174E+03  0.13878418709E+04  0.25500000920E-02 0. -1.
       -2    1    3    3    0  502 -0.80893398546E+03 -0.53939788620E+03  0.82268676898E+03  0.12736317334E+04  0.25500000920E-02 0.  1.
</event>
<event>
 5   0  0.7348964E-06  0.2739828E+04  0.7818609E-02  0.8322197E-01
       -1   -1    0    0    0  501  0.00000000000E+00  0.00000000000E+00  0.82873290435E+03  0.82873290436E+03  0.50400001928E-02 0.  1.
        1   -1    0    0  501    0  0.00000000000E+00  0.00000000000E+00 -0.22644981568E+04  0.22644981568E+04  0.50400001928E-02 0. -1.
    10030    2    1    2    0    0  0.00000000000E+00  0.00000000000E+00 -0.14357652525E+04  0.30932310612E+04  0.27398278299E+04 0.  0.
        1    1    3    3  502    0  0.68789812878E+03  0.78338909790E+03  0.28543203171E+03  0.10809133911E+04  0.50400001928E-02 0.  1.
       -1    1    3    3    0  502 -0.68789812878E+03 -0.78338909790E+03 -0.17211972842E+04  0.20123176701E+04  0.50400001928E-02 0. -1.
</event>
<event>
 5   0  0.7351590E-06  0.2203874E+04  0.7818609E-02  0.8516818E-01
       -1   -1    0    0    0  501  0.00000000000E+00  0.00000000000E+00  0.55424142015E+03  0.55424142017E+03  0.50400001928E-02 0. -1.
        1   -1    0    0  501    0  0.00000000000E+00  0.00000000000E+00 -0.21908586656E+04  0.21908586656E+04  0.50400001928E-02 0.  1.
    10030    2    1    2    0    0  0.00000000000E+00  0.00000000000E+00 -0.16366172454E+04  0.27451000857E+04  0.22038735156E+04 0.  0.
        3    1    3    3  502    0  0.71140510020E+03  0.65389987468E+03 -0.15852476187E+03  0.97918965120E+03  0.10100000352E+00 0. -1.
       -3    1    3    3    0  502 -0.71140510020E+03 -0.65389987468E+03 -0.14780924835E+04  0.17659104345E+04  0.10100000352E+00 0.  1.
</event>
<event>
 5   0  0.7348964E-06  0.2344200E+04  0.7818609E-02  0.8460695E-01
       -1   -1    0    0    0  501  0.00000000000E+00  0.00000000000E+00  0.10513374853E+04  0.10513374853E+04  0.50400001928E-02 0.  1.
        1   -1    0    0  501    0  0.00000000000E+00  0.00000000000E+00 -0.13067343162E+04  0.13067343162E+04  0.50400001928E-02 0. -1.
    10030    2    1    2    0    0  0.00000000000E+00  0.00000000000E+00 -0.25539683089E+03  0.23580718015E+04  0.23442003071E+04 0.  0.
        1    1    3    3  502    0  0.40983190829E+03  0.43060861440E+03  0.88844383851E+03  0.10689800868E+04  0.50400001928E-02 0.  1.
       -1    1    3    3    0  502 -0.40983190829E+03 -0.43060861440E+03 -0.11438406694E+04  0.12890917147E+04  0.50400001928E-02 0. -1.
</event>
<event>
 5   0  0.7754912E-06  0.2724527E+04  0.7818609E-02  0.8327090E-01
       -1   -1    0    0    0  501  0.00000000000E+00  0.00000000000E+00  0.13396216306E+04  0.13396216306E+04  0.50400001928E-02 0.  1.
        1   -1    0    0  501    0  0.00000000000E+00  0.00000000000E+00 -0.13852882990E+04  0.13852882991E+04  0.50400001928E-02 0. -1.
    10030    2    1    2    0    0  0.00000000000E+00  0.00000000000E+00 -0.45666668477E+02  0.27249099296E+04  0.27245272397E+04 0.  0.
        4    1    3    3  502    0 -0.68805303041E+03 -0.52872389132E+03 -0.10731211292E+04  0.13800567006E+04  0.12699999809E+01 0. -1.
       -4    1    3    3    0  502  0.68805303041E+03  0.52872389132E+03  0.10274544607E+04  0.13448532291E+04  0.12699999809E+01 0.  1.
</event>
<event>
 5   0  0.7754912E-06  0.2353471E+04  0.7818609E-02  0.8457131E-01
        1   -1    0    0  501    0  0.00000000000E+00  0.00000000000E+00  0.97913942054E+03  0.97913942055E+03  0.50400001928E-02 0.  1.
       -1   -1    0    0    0  501  0.00000000000E+00  0.00000000000E+00 -0.14142080832E+04  0.14142080832E+04  0.50400001928E-02 0. -1.
    10030    2    1    2    0    0  0.00000000000E+00  0.00000000000E+00 -0.43506866269E+03  0.23933475038E+04  0.23534713792E+04 0.  0.
        4    1    3    3  502    0  0.79643122997E+03 -0.83966528920E+03 -0.93546049380E+00  0.11572998704E+04  0.12699999809E+01 0. -1.
       -4    1    3    3    0  502 -0.79643122997E+03  0.83966528920E+03 -0.43413320219E+03  0.12360476334E+04  0.12699999809E+01 0.  1.
</event>
<event>
 5   0  0.7351590E-06  0.2719150E+04  0.7818609E-02  0.8328818E-01
       -1   -1    0    0    0  501  0.00000000000E+00  0.00000000000E+00  0.10120212256E+04  0.10120212256E+04  0.50400001928E-02 0.  1.
        1   -1    0    0  501    0  0.00000000000E+00  0.00000000000E+00 -0.18264879104E+04  0.18264879105E+04  0.50400001928E-02 0. -1.
    10030    2    1    2    0    0  0.00000000000E+00  0.00000000000E+00 -0.81446668483E+03  0.28385091361E+04  0.27191502597E+04 0.  0.
        3    1    3    3  502    0  0.20059462577E+03  0.12186290516E+04 -0.10006488204E+04  0.15895260429E+04  0.10100000352E+00 0. -1.
       -3    1    3    3    0  502 -0.20059462577E+03 -0.12186290516E+04  0.18618213558E+03  0.12489830932E+04  0.10100000352E+00 0.  1.
</event>
<event>
 5   0  0.1788003E-05  0.2257680E+04  0.7818609E-02  0.8494797E-01
       -2   -1    0    0    0  501  0.00000000000E+00  0.00000000000E+00  0.91243894960E+03  0.91243894960E+03  0.25500000920E-02 0.  1.
        2   -1    0    0  501    0  0.00000000000E+00  0.00000000000E+00 -0.13965640437E+04  0.13965640437E+04  0.25500000920E-02 0. -1.
    10030    2    1    2    0    0  0.00000000000E+00  0.00000000000E+00 -0.48412509408E+03  0.23090029933E+04  0.22576797196E+04 0.  0.
        2    1    3    3  502    0 -0.36910167765E+02  0.92777685265E+03  0.41451848248E+03  0.10168371655E+04  0.25500000920E-02 0.  1.
       -2    1    3    3    0  502  0.36910167765E+02 -0.92777685265E+03 -0.89864357655E+03  0.12921658278E+04  0.25500000920E-02 0. -1.
</event>
<event>
 5   0  0.6175875E-06  0.2649063E+04  0.7818609E-02  0.8351724E-01
        3   -1    0    0  501    0  0.00000000000E+00  0.00000000000E+00  0.12535150534E+04  0.12535150575E+04  0.10100000352E+00 0.  1.
       -3   -1    0    0    0  501  0.00000000000E+00  0.00000000000E+00 -0.13995711625E+04  0.13995711661E+04  0.10100000352E+00 0. -1.
    10030    2    1    2    0    0  0.00000000000E+00  0.00000000000E+00 -0.14605610905E+03  0.26530862237E+04  0.26490628764E+04 0.  0.
        4    1    3    3  502    0 -0.29702257770E+03  0.10899407730E+04 -0.76559014455E+03  0.13646696240E+04  0.12699999809E+01 0. -1.
       -4    1    3    3    0  502  0.29702257770E+03 -0.10899407730E+04  0.61953403550E+03  0.12884165997E+04  0.12699999809E+01 0.  1.
</event>
<event>
 5   0  0.1878160E-05  0.2701155E+04  0.7818609E-02  0.8334630E-01
       -2   -1    0    0    0  501  0.00000000000E+00  0.00000000000E+00  0.92746187046E+03  0.92746187046E+03  0.25500000920E-02 0.  1.
        2   -1    0    0  501    0  0.00000000000E+00  0.00000000000E+00 -0.19667215560E+04  0.19667215560E+04  0.25500000920E-02 0. -1.
    10030    2    1    2    0    0  0.00000000000E+00  0.00000000000E+00 -0.10392596855E+04  0.28941834264E+04  0.27011547553E+04 0.  0.
        1    1    3    3  502    0  0.85377323729E+02  0.94231043687E+03 -0.15522547591E+04  0.18178924842E+04  0.50400001928E-02 0. -1.
       -1    1    3    3    0  502 -0.85377323729E+02 -0.94231043687E+03  0.51299507359E+03  0.10762909423E+04  0.50400001928E-02 0.  1.
</event>
<event>
 5   0  0.7351590E-06  0.2683379E+04  0.7818609E-02  0.8340418E-01
        1   -1    0    0  501    0  0.00000000000E+00  0.00000000000E+00  0.20360761665E+04  0.20360761665E+04  0.50400001928E-02 0. -1.
       -1   -1    0    0    0  501  0.00000000000E+00  0.00000000000E+00 -0.88411768500E+03  0.88411768501E+03  0.50400001928E-02 0.  1.
    10030    2    1    2    0    0  0.00000000000E+00  0.00000000000E+00  0.11519584815E+04  0.29201938515E+04  0.26833791732E+04 0.  0.
        3    1    3    3  502    0 -0.41872027860E+03  0.28517445424E+03 -0.77603140708E+03  0.92675557513E+03  0.10100000352E+00 0.  1.
       -3    1    3    3    0  502  0.41872027860E+03 -0.28517445424E+03  0.19279898886E+04  0.19934382764E+04  0.10100000352E+00 0. -1.
</event>
<event>
 5   0  0.1878160E-05  0.2706094E+04  0.7818609E-02  0.8333031E-01
        2   -1    0    0  501    0  0.00000000000E+00  0.00000000000E+00  0.27650478034E+04  0.27650478034E+04  0.25500000920E-02 0.  1.
       -2   -1    0    0    0  501  0.00000000000E+00  0.00000000000E+00 -0.66209910020E+03  0.66209910020E+03  0.25500000920E-02 0. -1.
    10030    2    1    2    0    0  0.00000000000E+00  0.00000000000E+00  0.21029487032E+04  0.34271469036E+04  0.27060936145E+04 0.  0.
        1    1    3    3  502    0 -0.90233808506E+03  0.10030914967E+04  0.92276177631E+03  0.16345934866E+04  0.50400001928E-02 0.  1.
       -1    1    3    3    0  502  0.90233808506E+03 -0.10030914967E+04  0.11801869268E+04  0.17925534170E+04  0.50400001928E-02 0. -1.
</event>
<event>
 5   0  0.7348964E-06  0.2656437E+04  0.7818609E-02  0.8349280E-01
       -1   -1    0    0    0  501  0.00000000000E+00  0.00000000000E+00  0.86491095252E+03  0.86491095254E+03  0.50400001928E-02 0. -1.
        1   -1    0    0  501    0  0.00000000000E+00  0.00000000000E+00 -0.20397058644E+04  0.20397058644E+04  0.50400001928E-02 0.  1.
    10030    2    1    2    0    0  0.00000000000E+00  0.00000000000E+00 -0.11747949119E+04  0.29046168169E+04  0.26564366675E+04 0.  0.
        1    1    3    3  502    0  0.28955289962E+03 -0.93653339779E+03 -0.15673586311E+04  0.18486613441E+04  0.50400001928E-02 0.  1.
       -1    1    3    3    0  502 -0.28955289962E+03  0.93653339779E+03  0.39256371922E+03  0.10559554728E+04  0.50400001928E-02 0. -1.
</event>
<event>
 5   0  0.1826851E-05  0.2694612E+04  0.7818609E-02  0.8336755E-01
       -2   -1    0    0    0  501  0.00000000000E+00  0.00000000000E+00  0.12949974353E+04  0.12949974353E+04  0.25500000920E-02 0.  1.
        2   -1    0    0  501    0  0.00000000000E+00  0.00000000000E+00 -0.14017273727E+04  0.14017273727E+04  0.25500000920E-02 0. -1.
    10030    2    1    2    0    0  0.00000000000E+00  0.00000000000E+00 -0.10672993733E+03  0.26967248080E+04  0.26946119221E+04 0.  0.
        5    1    3    3  502    0 -0.55108676274E+03 -0.50480926335E+03 -0.11752623748E+04  0.13927644281E+04  0.46999998093E+01 0. -1.
       -5    1    3    3    0  502  0.55108676274E+03  0.50480926335E+03  0.10685324375E+04  0.13039603799E+04  0.46999998093E+01 0.  1.
</event>
<event>
 5   0  0.6804685E-06  0.2184718E+04  0.7818609E-02  0.8524816E-01
       -1   -1    0    0    0  501  0.00000000000E+00  0.00000000000E+00  0.80576297666E+03  0.80576297668E+03  0.50400001928E-02 0.  1.
        1   -1    0    0  501    0  0.00000000000E+00  0.00000000000E+00 -0.14808918671E+04  0.14808918671E+04  0.50400001928E-02 0. -1.
    10030    2    1    2    0    0  0.00000000000E+00  0.00000000000E+00 -0.67512889041E+03  0.22866548438E+04  0.21847176833E+04 0.  0.
        2    1    3    3  502    0 -0.52909159332E+02  0.35545126508E+03  0.74212062596E+03  0.82455321506E+03  0.25500000920E-02 0.  1.
       -2    1    3    3    0  502  0.52909159332E+02 -0.35545126508E+03 -0.14172495164E+04  0.14621016287E+04  0.25500000920E-02 0. -1.
</event>
<event>
 5   0  0.1931119E-05  0.2704664E+04  0.7818609E-02  0.8333493E-01
       -2   -1    0    0    0  501  0.00000000000E+00  0.00000000000E+00  0.11290424052E+04  0.11290424052E+04  0.25500000920E-02 0. -1.
        2   -1    0    0  501    0  0.00000000000E+00  0.00000000000E+00 -0.16197815660E+04  0.16197815660E+04  0.25500000920E-02 0.  1.
    10030    2    1    2    0    0  0.00000000000E+00  0.00000000000E+00 -0.49073916078E+03  0.27488239712E+04  0.27046641752E+04 0.  0.
        3    1    3    3  502    0 -0.55832720378E+03  0.80684566022E+03  0.70045544409E+03  0.12055567283E+04  0.10100000352E+00 0. -1.
       -3    1    3    3    0  502  0.55832720378E+03 -0.80684566022E+03 -0.11911946049E+04  0.15432672428E+04  0.10100000352E+00 0.  1.
</event>
<event>
 5   0  0.1788003E-05  0.2691396E+04  0.7818609E-02  0.8337802E-01
        2   -1    0    0  501    0  0.00000000000E+00  0.00000000000E+00  0.31637542515E+04  0.31637542515E+04  0.25500000920E-02 0. -1.
       -2   -1    0    0    0  501  0.00000000000E+00  0.00000000000E+00 -0.57239056420E+03  0.57239056421E+03  0.25500000920E-02 0.  1.
    10030    2    1    2    0    0  0.00000000000E+00  0.00000000000E+00  0.25913636873E+04  0.37361448157E+04  0.26913959806E+04 0.  0.
        2    1    3    3  502    0  0.19583505428E+03 -0.58395365733E+03 -0.36524054071E+03  0.71606835915E+03  0.25500000920E-02 0.  1.
       -2    1    3    3    0  502 -0.19583505428E+03  0.58395365733E+03  0.29566042280E+04  0.30200764566E+04  0.25500000920E-02 0. -1.
</event>
<event>
 5   0  0.6804685E-06  0.2738651E+04  0.7818609E-02  0.8322572E-01
        1   -1    0    0  501    0  0.00000000000E+00  0.00000000000E+00  0.21513811612E+04  0.21513811612E+04  0.50400001928E-02 0.  1.
       -1   -1    0    0    0  501  0.00000000000E+00  0.00000000000E+00 -0.87155745084E+03  0.87155745085E+03  0.50400001928E-02 0. -1.
    10030    2    1    2    0    0  0.00000000000E+00  0.00000000000E+00  0.12798237104E+04  0.30229386121E+04  0.27386509677E+04 0.  0.
        2    1    3    3  502    0  0.29212060925E+03 -0.41178108961E+03 -0.76507031305E+03  0.91664098753E+03  0.25500000920E-02 0. -1.
       -2    1    3    3    0  502 -0.29212060925E+03  0.41178108961E+03  0.20448940234E+04  0.21062976245E+04  0.25500000920E-02 0.  1.
</event>
<event>
 5   0  0.1826851E-05  0.2662206E+04  0.7818609E-02  0.8347373E-01
        2   -1    0    0  501    0  0.00000000000E+00  0.00000000000E+00  0.23935862185E+04  0.23935862185E+04  0.25500000920E-02 0. -1.
       -2   -1    0    0    0  501  0.00000000000E+00  0.00000000000E+00 -0.74024286891E+03  0.74024286892E+03  0.25500000920E-02 0.  1.
    10030    2    1    2    0    0  0.00000000000E+00  0.00000000000E+00  0.16533433496E+04  0.31338290874E+04  0.26622059495E+04 0.  0.
        5    1    3    3  502    0 -0.24305108914E+03  0.12814223441E+04  0.51368126675E+03  0.14017872840E+04  0.46999998093E+01 0.  1.
       -5    1    3    3    0  502  0.24305108914E+03 -0.12814223441E+04  0.11396620828E+04  0.17320418034E+04  0.46999998093E+01 0. -1.
</event>
<event>
 5   0  0.1826851E-05  0.2696565E+04  0.7818609E-02  0.8336120E-01
        2   -1    0    0  501    0  0.00000000000E+00  0.00000000000E+00  0.30833533331E+04  0.30833533331E+04  0.25500000920E-02 0. -1.
       -2   -1    0    0    0  501  0.00000000000E+00  0.00000000000E+00 -0.58957418804E+03  0.58957418804E+03  0.25500000920E-02 0.  1.
    10030    2    1    2    0    0  0.00000000000E+00  0.00000000000E+00  0.24937791450E+04  0.36729275211E+04  0.26965648798E+04 0.  0.
        5    1    3    3  502    0  0.60879884299E+03  0.60734500588E+03 -0.16753317860E+03  0.87612410269E+03  0.46999998093E+01 0.  1.
       -5    1    3    3    0  502 -0.60879884299E+03 -0.60734500588E+03  0.26613123236E+04  0.27968034184E+04  0.46999998093E+01 0. -1.
</event>
<event>
 5   0  0.1931119E-05  0.2714420E+04  0.7818609E-02  0.8330341E-01
        2   -1    0    0  501    0  0.00000000000E+00  0.00000000000E+00  0.25277876267E+04  0.25277876267E+04  0.25500000920E-02 0. -1.
       -2   -1    0    0    0  501  0.00000000000E+00  0.00000000000E+00 -0.72870812001E+03  0.72870812002E+03  0.25500000920E-02 0.  1.
    10030    2    1    2    0    0  0.00000000000E+00  0.00000000000E+00  0.17990795066E+04  0.32564957467E+04  0.27144202838E+04 0.  0.
        3    1    3    3  502    0  0.11619815774E+04 -0.11709513633E+03  0.17290770745E+04  0.20865330088E+04  0.10100000352E+00 0. -1.
       -3    1    3    3    0  502 -0.11619815774E+04  0.11709513633E+03  0.70002432175E+02  0.11699627379E+04  0.10100000352E+00 0.  1.
</event>
<event>
 5   0  0.1878160E-05  0.2690819E+04  0.7818609E-02  0.8337990E-01
        2   -1    0    0  501    0  0.00000000000E+00  0.00000000000E+00  0.16163922852E+04  0.16163922852E+04  0.25500000920E-02 0. -1.
       -2   -1    0    0    0  501  0.00000000000E+00  0.00000000000E+00 -0.11198561047E+04  0.11198561047E+04  0.25500000920E-02 0.  1.
    10030    2    1    2    0    0  0.00000000000E+00  0.00000000000E+00  0.49653618046E+03  0.27362483899E+04  0.26908190338E+04 0.  0.
        1    1    3    3  502    0 -0.58436964592E+03 -0.19186743762E+02 -0.98391175883E+03  0.11445253878E+04  0.50400001928E-02 0.  1.
       -1    1    3    3    0  502  0.58436964592E+03  0.19186743762E+02  0.14804479393E+04  0.15917230020E+04  0.50400001928E-02 0. -1.
</event>
<event>
 5   0  0.7600052E-06  0.2691620E+04  0.7818609E-02  0.8337729E-01
        1   -1    0    0  501    0  0.00000000000E+00  0.00000000000E+00  0.12993993005E+04  0.12993993005E+04  0.50400001928E-02 0.  1.
       -1   -1    0    0    0  501  0.00000000000E+00  0.00000000000E+00 -0.13938788160E+04  0.13938788160E+04  0.50400001928E-02 0. -1.
    10030    2    1    2    0    0  0.00000000000E+00  0.00000000000E+00 -0.94479515510E+02  0.26932781166E+04  0.26916204477E+04 0.  0.
        5    1    3    3  502    0  0.69923818039E+03 -0.71967435797E+03 -0.94462978340E+03  0.13781192735E+04  0.46999998093E+01 0. -1.
       -5    1    3    3    0  502 -0.69923818039E+03  0.71967435797E+03  0.85015026789E+03  0.13151588430E+04  0.46999998093E+01 0.  1.
</event>
<event>
 5   0  0.7348964E-06  0.2721697E+04  0.7818609E-02  0.8327999E-01
       -1   -1    0    0    0  501  0.00000000000E+00  0.00000000000E+00  0.15858435791E+04  0.15858435791E+04  0.50400001928E-02 0.  1.
        1   -1    0    0  501    0  0.00000000000E+00  0.00000000000E+00 -0.11677748996E+04  0.11677748996E+04  0.50400001928E-02 0. -1.
    10030    2    1    2    0    0  0.00000000000E+00  0.00000000000E+00  0.41806867950E+03  0.27536184788E+04  0.27216967696E+04 0.  0.
        1    1    3    3  502    0 -0.14803769651E+03 -0.79940066843E+03  0.13131412065E+04  0.15444404865E+04  0.50400001928E-02 0.  1.
       -1    1    3    3    0  502  0.14803769651E+03  0.79940066843E+03 -0.89507252699E+03  0.12091779922E+04  0.50400001928E-02 0. -1.
</event>
<event>
 5   0  0.1788003E-05  0.2502707E+04  0.7818609E-02  0.8402022E-01
        2   -1    0    0  501    0  0.00000000000E+00  0.00000000000E+00  0.12073036462E+04  0.12073036462E+04  0.25500000920E-02 0. -1.
       -2   -1    0    0    0  501  0.00000000000E+00  0.00000000000E+00 -0.12970106658E+04  0.12970106658E+04  0.25500000920E-02 0.  1.
    10030    2    1    2    0    0  0.00000000000E+00  0.00000000000E+00 -0.89707019623E+02  0.25043143120E+04  0.25027070991E+04 0.  0.
        2    1    3    3  502    0  0.86646980041E+03  0.82847265701E+03 -0.40389983417E+03  0.12650185510E+04  0.25500000920E-02 0.  1.
       -2    1    3    3    0  502 -0.86646980041E+03 -0.82847265701E+03  0.31419281455E+03  0.12392957610E+04  0.25500000920E-02 0. -1.
</event>
<event>
 5   0  0.6804685E-06  0.2656107E+04  0.7818609E-02  0.8349389E-01
       -1   -1    0    0    0  501  0.00000000000E+00  0.00000000000E+00  0.60691423078E+03  0.60691423080E+03  0.50400001928E-02 0.  1.
        1   -1    0    0  501    0  0.00000000000E+00  0.00000000000E+00 -0.29060543011E+04  0.29060543011E+04  0.50400001928E-02 0. -1.
    10030    2    1    2    0    0  0.00000000000E+00  0.00000000000E+00 -0.22991400704E+04  0.35129685319E+04  0.26561067078E+04 0.  0.
        2    1    3    3  502    0  0.66103963072E+03  0.31353233866E+01  0.37385840668E+03  0.75944277723E+03  0.25500000920E-02 0.  1.
       -2    1    3    3    0  502 -0.66103963072E+03 -0.31353233866E+01 -0.26729984770E+04  0.27535257547E+04  0.25500000920E-02 0. -1.
</event>
<event>
 5   0  0.1931119E-05  0.2765383E+04  0.7818609E-02  0.8314097E-01
       -2   -1    0    0    0  501  0.00000000000E+00  0.00000000000E+00  0.14673163628E+04  0.14673163628E+04  0.25500000920E-02 0. -1.
        2   -1    0    0  501    0  0.00000000000E+00  0.00000000000E+00 -0.13029469693E+04  0.13029469693E+04  0.25500000920E-02 0.  1.
    10030    2    1    2    0    0  0.00000000000E+00  0.00000000000E+00  0.16436939347E+03  0.27702633322E+04  0.27653827280E+04 0.  0.
        3    1    3    3  502    0  0.59447215285E+03 -0.42120846724E+03  0.12594275335E+04  0.14549815929E+04  0.10100000352E+00 0. -1.
       -3    1    3    3    0  502 -0.59447215285E+03  0.42120846724E+03 -0.10950581400E+04  0.13152817393E+04  0.10100000352E+00 0.  1.
</event>
<event>
 5   0  0.1826851E-05  0.2518625E+04  0.7818609E-02  0.8396380E-01
       -2   -1    0    0    0  501  0.00000000000E+00  0.00000000000E+00  0.30000682829E+04  0.30000682829E+04  0.25500000920E-02 0. -1.
        2   -1    0    0  501    0  0.00000000000E+00  0.00000000000E+00 -0.52861070368E+03  0.52861070369E+03  0.25500000920E-02 0.  1.
    10030    2    1    2    0    0  0.00000000000E+00  0.00000000000E+00  0.24714575792E+04  0.35286789866E+04  0.25186251854E+04 0.  0.
        5    1    3    3  502    0  0.11843491207E+04 -0.39578839564E+03  0.10075932381E+04  0.16045552397E+04  0.46999998093E+01 0. -1.
       -5    1    3    3    0  502 -0.11843491207E+04  0.39578839564E+03  0.14638643412E+04  0.19241237469E+04  0.46999998093E+01 0.  1.
</event>
<event>
 5   0  0.7600052E-06  0.2259925E+04  0.7818609E-02  0.8493892E-01
        1   -1    0    0  501    0  0.00000000000E+00  0.00000000000E+00  0.54909775728E+03  0.54909775730E+03  0.50400001928E-02 0. -1.
       -1   -1    0    0    0  501  0.00000000000E+00  0.00000000000E+00 -0.23252960864E+04  0.23252960864E+04  0.50400001928E-02 0.  1.
    10030    2    1    2    0    0  0.00000000000E+00  0.00000000000E+00 -0.17761983291E+04  0.28743938437E+04  0.22599246590E+04 0.  0.
        5    1    3    3  502    0  0.18743754211E+03 -0.40619056416E+02 -0.23044306612E+04  0.23124025390E+04  0.46999998093E+01 0.  1.
       -5    1    3    3    0  502 -0.18743754211E+03  0.40619056416E+02  0.52823233209E+03  0.56199130474E+03  0.46999998093E+01 0. -1.
</event>
<event>
 5   0  0.7600052E-06  0.2681231E+04  0.7818609E-02  0.8341121E-01
       -1   -1    0    0    0  501  0.00000000000E+00  0.00000000000E+00  0.12358576805E+04  0.12358576805E+04  0.50400001928E-02 0.  1.
        1   -1    0    0  501    0  0.00000000000E+00  0.00000000000E+00 -0.14542526186E+04  0.14542526186E+04  0.50400001928E-02 0. -1.
    10030    2    1    2    0    0  0.00000000000E+00  0.00000000000E+00 -0.21839493811E+03  0.26901102991E+04  0.26812305146E+04 0.  0.
        5    1    3    3  502    0 -0.14283847694E+03 -0.13102526886E+04  0.13669016864E+03  0.13250929140E+04  0.46999998093E+01 0.  1.
       -5    1    3    3    0  502  0.14283847694E+03  0.13102526886E+04 -0.35508510675E+03  0.13650173851E+04  0.46999998093E+01 0. -1.
</event>
<event>
 5   0  0.1878160E-05  0.2678166E+04  0.7818609E-02  0.8342124E-01
        2   -1    0    0  501    0  0.00000000000E+00  0.00000000000E+00  0.15182100737E+04  0.15182100737E+04  0.25500000920E-02 0. -1.
       -2   -1    0    0    0  501  0.00000000000E+00  0.00000000000E+00 -0.11810901115E+04  0.11810901115E+04  0.25500000920E-02 0.  1.
    10030    2    1    2    0    0  0.00000000000E+00  0.00000000000E+00  0.33711996216E+03  0.26993001852E+04  0.26781657195E+04 0.  0.
        1    1    3    3  502    0 -0.36588020096E+03 -0.11222630465E+04  0.80584727834E+03  0.14292419330E+04  0.50400001928E-02 0. -1.
       -1    1    3    3    0  502  0.36588020096E+03  0.11222630465E+04 -0.46872731618E+03  0.12700582522E+04  0.50400001928E-02 0.  1.
</event>
<event>
 5   0  0.1881699E-05  0.2698401E+04  0.7818609E-02  0.8335524E-01
        2   -1    0    0  501    0  0.00000000000E+00  0.00000000000E+00  0.17713827010E+04  0.17713827010E+04  0.25500000920E-02 0. -1.
       -2   -1    0    0    0  501  0.00000000000E+00  0.00000000000E+00 -0.10276390248E+04  0.10276390248E+04  0.25500000920E-02 0.  1.
    10030    2    1    2    0    0  0.00000000000E+00  0.00000000000E+00  0.74374367616E+03  0.27990217258E+04  0.26984010016E+04 0.  0.
        4    1    3    3  502    0  0.29291953663E+03  0.55695721197E+03 -0.86608694867E+03  0.10705659281E+04  0.12699999809E+01 0.  1.
       -4    1    3    3    0  502 -0.29291953663E+03 -0.55695721197E+03  0.16098306248E+04  0.17284557977E+04  0.12699999809E+01 0. -1.
</event>
<event>
 5   0  0.6804685E-06  0.2672096E+04  0.7818609E-02  0.8344116E-01
        1   -1    0    0  501    0  0.00000000000E+00  0.00000000000E+00  0.14176120492E+04  0.14176120492E+04  0.50400001928E-02 0. -1.
       -1   -1    0    0    0  501  0.00000000000E+00  0.00000000000E+00 -0.12591767059E+04  0.12591767059E+04  0.50400001928E-02 0.  1.
    10030    2    1    2    0    0  0.00000000000E+00  0.00000000000E+00  0.15843534332E+03  0.26767887551E+04  0.26720958593E+04 0.  0.
        2    1    3    3  502    0  0.10181850279E+04  0.85711018636E+03  0.19640794527E+03  0.13453307042E+04  0.25500000920E-02 0. -1.
       -2    1    3    3    0  502 -0.10181850279E+04 -0.85711018636E+03 -0.37972601952E+02  0.13314580509E+04  0.25500000920E-02 0.  1.
</event>
<event>
 5   0  0.7754912E-06  0.2483271E+04  0.7818609E-02  0.8408970E-01
        1   -1    0    0  501    0  0.00000000000E+00  0.00000000000E+00  0.12985793622E+04  0.12985793622E+04  0.50400001928E-02 0.  1.
       -1   -1    0    0    0  501  0.00000000000E+00  0.00000000000E+00 -0.11871890118E+04  0.11871890118E+04  0.50400001928E-02 0. -1.
    10030    2    1    2    0    0  0.00000000000E+00  0.00000000000E+00  0.11139035043E+03  0.24857683740E+04  0.24832713502E+04 0.  0.
        4    1    3    3  502    0 -0.10317791281E+04  0.63987033193E+03 -0.20467274613E+03  0.12312167789E+04  0.12699999809E+01 0. -1.
       -4    1    3    3    0  502  0.10317791281E+04 -0.63987033193E+03  0.31606309656E+03  0.12545515951E+04  0.12699999809E+01 0.  1.
</event>
<event>
 5   0  0.1826851E-05  0.2682869E+04  0.7818609E-02  0.8340585E-01
        2   -1    0    0  501    0  0.00000000000E+00  0.00000000000E+00  0.18159413000E+04  0.18159413000E+04  0.25500000920E-02 0. -1.
       -2   -1    0    0    0  501  0.00000000000E+00  0.00000000000E+00 -0.99091635575E+03  0.99091635575E+03  0.25500000920E-02 0.  1.
    10030    2    1    2    0    0  0.00000000000E+00  0.00000000000E+00  0.82502494422E+03  0.28068576557E+04  0.26828685657E+04 0.  0.
        5    1    3    3  502    0 -0.94188316312E+03  0.47237363553E+02 -0.58553978431E+03  0.11100694530E+04  0.46999998093E+01 0.  1.
       -5    1    3    3    0  502  0.94188316312E+03 -0.47237363553E+02  0.14105647285E+04  0.16967882027E+04  0.46999998093E+01 0. -1.
</event>
<event>
 5   0  0.7348964E-06  0.2698228E+04  0.7818609E-02  0.8335580E-01
        1   -1    0    0  501    0  0.00000000000E+00  0.00000000000E+00  0.16318890255E+04  0.16318890255E+04  0.50400001928E-02 0.  1.
       -1   -1    0    0    0  501  0.00000000000E+00  0.00000000000E+00 -0.11153385484E+04  0.11153385484E+04  0.50400001928E-02 0. -1.
    10030    2    1    2    0    0  0.00000000000E+00  0.00000000000E+00  0.51655047717E+03  0.27472275739E+04  0.26982281126E+04 0.  0.
        1    1    3    3  502    0 -0.26192804971E+03  0.40637308753E+03  0.15406569257E+04  0.16147350099E+04  0.50400001928E-02 0.  1.
       -1    1    3    3    0  502  0.26192804971E+03 -0.40637308753E+03 -0.10241064485E+04  0.11324925640E+04  0.50400001928E-02 0. -1.
</event>
<event>
 5   0  0.1826851E-05  0.3009582E+04  0.7818609E-02  0.8241000E-01
       -2   -1    0    0    0  501  0.00000000000E+00  0.00000000000E+00  0.87919610781E+03  0.87919610782E+03  0.25500000920E-02 0. -1.
        2   -1    0    0  501    0  0.00000000000E+00  0.00000000000E+00 -0.25755304291E+04  0.25755304291E+04  0.25500000920E-02 0.  1.
    10030    2    1    2    0    0  0.00000000000E+00  0.00000000000E+00 -0.16963343213E+04  0.34547265369E+04  0.30095822493E+04 0.  0.
        5    1    3    3  502    0 -0.65634632757E+03 -0.19468940150E+03  0.69006506222E+03  0.97206293257E+03  0.46999998093E+01 0. -1.
       -5    1    3    3    0  502  0.65634632757E+03  0.19468940150E+03 -0.23863993835E+04  0.24826636044E+04  0.46999998093E+01 0.  1.
</event>
<event>
 5   0  0.6804685E-06  0.2645897E+04  0.7818609E-02  0.8352776E-01
        1   -1    0    0  501    0  0.00000000000E+00  0.00000000000E+00  0.13906527615E+04  0.13906527615E+04  0.50400001928E-02 0.  1.
       -1   -1    0    0    0  501  0.00000000000E+00  0.00000000000E+00 -0.12585404648E+04  0.12585404648E+04  0.50400001928E-02 0. -1.
    10030    2    1    2    0    0  0.00000000000E+00  0.00000000000E+00  0.13211229674E+03  0.26491932263E+04  0.26458970296E+04 0.  0.
        2    1    3    3  502    0  0.77109280165E+03  0.46417041290E+03 -0.90476741747E+03  0.12761827301E+04  0.25500000920E-02 0. -1.
       -2    1    3    3    0  502 -0.77109280165E+03 -0.46417041290E+03  0.10368797142E+04  0.13730104962E+04  0.25500000920E-02 0.  1.
</event>
<event>
 5   0  0.1878160E-05  0.2682925E+04  0.7818609E-02  0.8340566E-01
       -2   -1    0    0    0  501  0.00000000000E+00  0.00000000000E+00  0.17220820493E+04  0.17220820493E+04  0.25500000920E-02 0.  1.
        2   -1    0    0  501    0  0.00000000000E+00  0.00000000000E+00 -0.10449688997E+04  0.10449688997E+04  0.25500000920E-02 0. -1.
    10030    2    1    2    0    0  0.00000000000E+00  0.00000000000E+00  0.67711314951E+03  0.27670509490E+04  0.26829254066E+04 0.  0.
        1    1    3    3  502    0  0.79186353605E+03 -0.15077443709E+02 -0.77809612876E+03  0.11102741890E+04  0.50400001928E-02 0. -1.
       -1    1    3    3    0  502 -0.79186353605E+03  0.15077443709E+02  0.14552092783E+04  0.16567767601E+04  0.50400001928E-02 0.  1.
</event>
<event>
 5   0  0.1788003E-05  0.2722602E+04  0.7818609E-02  0.8327709E-01
        2   -1    0    0  501    0  0.00000000000E+00  0.00000000000E+00  0.10728662668E+04  0.10728662668E+04  0.25500000920E-02 0. -1.
       -2   -1    0    0    0  501  0.00000000000E+00  0.00000000000E+00 -0.17272794181E+04  0.17272794182E+04  0.25500000920E-02 0.  1.
    10030    2    1    2    0    0  0.00000000000E+00  0.00000000000E+00 -0.65441315131E+03  0.28001456850E+04  0.27226015655E+04 0.  0.
        2    1    3    3  502    0  0.11539742243E+04 -0.64024150553E+03  0.16334192994E+02  0.13197850210E+04  0.25500000920E-02 0.  1.
       -2    1    3    3    0  502 -0.11539742243E+04  0.64024150553E+03 -0.67074734431E+03  0.14803606640E+04  0.25500000920E-02 0. -1.
</event>
<event>
 5   0  0.7754912E-06  0.2643549E+04  0.7818609E-02  0.8353557E-01
        1   -1    0    0  501    0  0.00000000000E+00  0.00000000000E+00  0.16126267055E+04  0.16126267056E+04  0.50400001928E-02 0. -1.
       -1   -1    0    0    0  501  0.00000000000E+00  0.00000000000E+00 -0.10833805032E+04  0.10833805032E+04  0.50400001928E-02 0.  1.
    10030    2    1    2    0    0  0.00000000000E+00  0.00000000000E+00  0.52924620236E+03  0.26960072087E+04  0.26435493805E+04 0.  0.
        4    1    3    3  502    0  0.83957023814E+03  0.41040353960E+03 -0.68868666623E+03  0.11608618295E+04  0.12699999809E+01 0.  1.
       -4    1    3    3    0  502 -0.83957023814E+03 -0.41040353960E+03  0.12179328686E+04  0.15351453792E+04  0.12699999809E+01 0. -1.
</event>
<event>
 5   0  0.1881699E-05  0.2735241E+04  0.7818609E-02  0.8323660E-01
       -2   -1    0    0    0  501  0.00000000000E+00  0.00000000000E+00  0.10552310914E+04  0.10552310914E+04  0.25500000920E-02 0.  1.
        2   -1    0    0  501    0  0.00000000000E+00  0.00000000000E+00 -0.17724895026E+04  0.17724895026E+04  0.25500000920E-02 0. -1.
    10030    2    1    2    0    0  0.00000000000E+00  0.00000000000E+00 -0.71725841121E+03  0.28277205939E+04  0.27352411464E+04 0.  0.
        4    1    3    3  502    0 -0.96153235814E+03 -0.88682443878E+03  0.54096005329E+02  0.13091715135E+04  0.12699999809E+01 0.  1.
       -4    1    3    3    0  502  0.96153235814E+03  0.88682443878E+03 -0.77135441654E+03  0.15185490805E+04  0.12699999809E+01 0. -1.
</event>
<event>
 5   0  0.1826851E-05  0.2670219E+04  0.7818609E-02  0.8344733E-01
        2   -1    0    0  501    0  0.00000000000E+00  0.00000000000E+00  0.15215262059E+04  0.15215262059E+04  0.25500000920E-02 0. -1.
       -2   -1    0    0    0  501  0.00000000000E+00  0.00000000000E+00 -0.11715321850E+04  0.11715321850E+04  0.25500000920E-02 0.  1.
    10030    2    1    2    0    0  0.00000000000E+00  0.00000000000E+00  0.34999402095E+03  0.26930583909E+04  0.26702186581E+04 0.  0.
        5    1    3    3  502    0  0.50873986929E+03 -0.29980189229E+03 -0.10326578626E+04  0.11895805060E+04  0.46999998093E+01 0.  1.
       -5    1    3    3    0  502 -0.50873986929E+03  0.29980189229E+03  0.13826518835E+04  0.15034778848E+04  0.46999998093E+01 0. -1.
</event>
<event>
 5   0  0.7348964E-06  0.2691208E+04  0.7818609E-02  0.8337863E-01
        1   -1    0    0  501    0  0.00000000000E+00  0.00000000000E+00  0.70876891220E+03  0.70876891222E+03  0.50400001928E-02 0. -1.
       -1   -1    0    0    0  501  0.00000000000E+00  0.00000000000E+00 -0.25546407520E+04  0.25546407520E+04  0.50400001928E-02 0.  1.
    10030    2    1    2    0    0  0.00000000000E+00  0.00000000000E+00 -0.18458718398E+04  0.32634096643E+04  0.26912078678E+04 0.  0.
        1    1    3    3  502    0  0.13879009561E+03 -0.61265628955E+03  0.52004982147E+03  0.81551348034E+03  0.50400001928E-02 0. -1.
       -1    1    3    3    0  502 -0.13879009561E+03  0.61265628955E+03 -0.23659216613E+04  0.24478961839E+04  0.50400001928E-02 0.  1.
</event>
<event>
 5   0  0.1881699E-05  0.2821414E+04  0.7818609E-02  0.8296651E-01
       -2   -1    0    0    0  501  0.00000000000E+00  0.00000000000E+00  0.13239451718E+04  0.13239451718E+04  0.25500000920E-02 0.  1.
        2   -1    0    0  501    0  0.00000000000E+00  0.00000000000E+00 -0.15031547533E+04  0.15031547533E+04  0.25500000920E-02 0. -1.
    10030    2    1    2    0    0  0.00000000000E+00  0.00000000000E+00 -0.17920958149E+03  0.28270999251E+04  0.28214141689E+04 0.  0.
        4    1    3    3  502    0 -0.12181144759E+04  0.58380903188E+03 -0.49718857105E+03  0.14393866576E+04  0.12699999809E+01 0. -1.
       -4    1    3    3    0  502  0.12181144759E+04 -0.58380903188E+03  0.31797898956E+03  0.13877132675E+04  0.12699999809E+01 0.  1.
</event>
<event>
 5   0  0.7351590E-06  0.2703586E+04  0.7818609E-02  0.8333842E-01
       -1   -1    0    0    0  501  0.00000000000E+00  0.00000000000E+00  0.13116771001E+04  0.13116771001E+04  0.50400001928E-02 0.  1.
        1   -1    0    0  501    0  0.00000000000E+00  0.00000000000E+00 -0.13931361916E+04  0.13931361916E+04  0.50400001928E-02 0. -1.
    10030    2    1    2    0    0  0.00000000000E+00  0.00000000000E+00 -0.81459091483E+02  0.27048132917E+04  0.27035863883E+04 0.  0.
        3    1    3    3  502    0 -0.44600336468E+03  0.97451375619E+03 -0.86496552372E+03  0.13772296213E+04  0.10100000352E+00 0.  1.
       -3    1    3    3    0  502  0.44600336468E+03 -0.97451375619E+03  0.78350643224E+03  0.13275836704E+04  0.10100000352E+00 0. -1.
</event>
<event>
 5   0  0.6804685E-06  0.2691515E+04  0.7818609E-02  0.8337763E-01
       -1   -1    0    0    0  501  0.00000000000E+00  0.00000000000E+00  0.12082488437E+04  0.12082488437E+04  0.50400001928E-02 0. -1.
        1   -1    0    0  501    0  0.00000000000E+00  0.00000000000E+00 -0.14989162546E+04  0.14989162546E+04  0.50400001928E-02 0.  1.
    10030    2    1    2    0    0  0.00000000000E+00  0.00000000000E+00 -0.29066741093E+03  0.27071650984E+04  0.26915154330E+04 0.  0.
        2    1    3    3  502    0  0.44020556211E+03  0.98986452179E+03  0.65771394034E+03  0.12673595921E+04  0.25500000920E-02 0. -1.
       -2    1    3    3    0  502 -0.44020556211E+03 -0.98986452179E+03 -0.94838135127E+03  0.14398055063E+04  0.25500000920E-02 0.  1.
</event>
<event>
 5   0  0.6804685E-06  0.2760933E+04  0.7818609E-02  0.8315501E-01
       -1   -1    0    0    0  501  0.00000000000E+00  0.00000000000E+00  0.13140197343E+04  0.13140197343E+04  0.50400001928E-02 0. -1.
        1   -1    0    0  501    0  0.00000000000E+00  0.00000000000E+00 -0.14502730243E+04  0.14502730243E+04  0.50400001928E-02 0.  1.
    10030    2    1    2    0    0  0.00000000000E+00  0.00000000000E+00 -0.13625329002E+03  0.27642927586E+04  0.27609327221E+04 0.  0.
        2    1    3    3  502    0  0.16704431315E+03 -0.10340429374E+04  0.83215550243E+03  0.13377710489E+04  0.25500000920E-02 0. -1.
       -2    1    3    3    0  502 -0.16704431315E+03  0.10340429374E+04 -0.96840879245E+03  0.14265217097E+04  0.25500000920E-02 0.  1.
</event>
<event>
 5   0  0.7348964E-06  0.2549106E+04  0.7818609E-02  0.8385697E-01
       -1   -1    0    0    0  501  0.00000000000E+00  0.00000000000E+00  0.65972650690E+03  0.65972650692E+03  0.50400001928E-02 0. -1.
        1   -1    0    0  501    0  0.00000000000E+00  0.00000000000E+00 -0.24623609617E+04  0.24623609617E+04  0.50400001928E-02 0.  1.
    10030    2    1    2    0    0  0.00000000000E+00  0.00000000000E+00 -0.18026344548E+04  0.31220874686E+04  0.25491055655E+04 0.  0.
        1    1    3    3  502    0 -0.97507889793E+03  0.31985969158E+03  0.24501017596E+02  0.10264937308E+04  0.50400001928E-02 0. -1.
       -1    1    3    3    0  502  0.97507889793E+03 -0.31985969158E+03 -0.18271354724E+04  0.20955937378E+04  0.50400001928E-02 0.  1.
</event>
<event>
 5   0  0.7600052E-06  0.2645869E+04  0.7818609E-02  0.8352785E-01
        1   -1    0    0  501    0  0.00000000000E+00  0.00000000000E+00  0.13297300831E+04  0.13297300831E+04  0.50400001928E-02 0. -1.
       -1   -1    0    0    0  501  0.00000000000E+00  0.00000000000E+00 -0.13161738422E+04  0.13161738423E+04  0.50400001928E-02 0.  1.
    10030    2    1    2    0    0  0.00000000000E+00  0.00000000000E+00  0.13556240853E+02  0.26459039254E+04  0.26458691975E+04 0.  0.
        5    1    3    3  502    0  0.40273434004E+02 -0.11367043972E+04  0.68237193912E+03  0.13264133554E+04  0.46999998093E+01 0. -1.
       -5    1    3    3    0  502 -0.40273434004E+02  0.11367043972E+04 -0.66881569827E+03  0.13194905700E+04  0.46999998093E+01 0.  1.
</event>
<event>
 5   0  0.6804685E-06  0.2606538E+04  0.7818609E-02  0.8365984E-01
        1   -1    0    0  501    0  0.00000000000E+00  0.00000000000E+00  0.12739450672E+04  0.12739450672E+04  0.50400001928E-02 0.  1.
       -1   -1    0    0    0  501  0.00000000000E+00  0.00000000000E+00 -0.13332678941E+04  0.13332678941E+04  0.50400001928E-02 0. -1.
    10030    2    1    2    0    0  0.00000000000E+00  0.00000000000E+00 -0.59322826894E+02  0.26072129614E+04  0.26065379775E+04 0.  0.
        2    1    3    3  502    0  0.31601977112E+03  0.12631161144E+04  0.26737962043E+02  0.13023232060E+04  0.25500000920E-02 0. -1.
       -2    1    3    3    0  502 -0.31601977112E+03 -0.12631161144E+04 -0.86060788937E+02  0.13048897554E+04  0.25500000920E-02 0.  1.
</event>
<event>
 5   0  0.1881699E-05  0.2778864E+04  0.7818609E-02  0.8309861E-01
        2   -1    0    0  501    0  0.00000000000E+00  0.00000000000E+00  0.22576363874E+04  0.22576363874E+04  0.25500000920E-02 0. -1.
       -2   -1    0    0    0  501  0.00000000000E+00  0.00000000000E+00 -0.85510710651E+03  0.85510710652E+03  0.25500000920E-02 0.  1.
    10030    2    1    2    0    0  0.00000000000E+00  0.00000000000E+00  0.14025292809E+04  0.31127434939E+04  0.27788637382E+04 0.  0.
        4    1    3    3  502    0  0.83537351153E+03 -0.31002982017E+03 -0.49291791028E+03  0.10183010716E+04  0.12699999809E+01 0. -1.
       -4    1    3    3    0  502 -0.83537351153E+03  0.31002982017E+03  0.18954471912E+04  0.20944424224E+04  0.12699999809E+01 0.  1.
</event>
<event>
 5   0  0.1881699E-05  0.2600424E+04  0.7818609E-02  0.8368057E-01
       -2   -1    0    0    0  501  0.00000000000E+00  0.00000000000E+00  0.73233136496E+03  0.73233136496E+03  0.25500000920E-02 0. -1.
        2   -1    0    0  501    0  0.00000000000E+00  0.00000000000E+00 -0.23084517443E+04  0.23084517443E+04  0.25500000920E-02 0.  1.
    10030    2    1    2    0    0  0.00000000000E+00  0.00000000000E+00 -0.15761203793E+04  0.30407831093E+04  0.26004242860E+04 0.  0.
        4    1    3    3  502    0 -0.52761240778E+03  0.26662864187E+03  0.56609760201E+03  0.81849483408E+03  0.12699999809E+01 0. -1.
       -4    1    3    3    0  502  0.52761240778E+03 -0.26662864187E+03 -0.21422179814E+04  0.22222882752E+04  0.12699999809E+01 0.  1.
</event>
<event>
 5   0  0.1878160E-05  0.2655716E+04  0.7818609E-02  0.8349518E-01
        2   -1    0    0  501    0  0.00000000000E+00  0.00000000000E+00  0.75039735096E+03  0.75039735097E+03  0.25500000920E-02 0.  1.
       -2   -1    0    0    0  501  0.00000000000E+00  0.00000000000E+00 -0.23496983641E+04  0.23496983641E+04  0.25500000920E-02 0. -1.
    10030    2    1    2    0    0  0.00000000000E+00  0.00000000000E+00 -0.15993010131E+04  0.31000957150E+04  0.26557164216E+04 0.  0.
        1    1    3    3  502    0 -0.69792619735E+03 -0.11146558785E+04 -0.10137805973E+04  0.16605149213E+04  0.50400001928E-02 0.  1.
       -1    1    3    3    0  502  0.69792619735E+03  0.11146558785E+04 -0.58552041579E+03  0.14395807937E+04  0.50400001928E-02 0. -1.
</event>
<event>
 5   0  0.7754912E-06  0.2729298E+04  0.7818609E-02  0.8325561E-01
        1   -1    0    0  501    0  0.00000000000E+00  0.00000000000E+00  0.17072757360E+04  0.17072757360E+04  0.50400001928E-02 0.  1.
       -1   -1    0    0    0  501  0.00000000000E+00  0.00000000000E+00 -0.10907823656E+04  0.10907823656E+04  0.50400001928E-02 0. -1.
    10030    2    1    2    0    0  0.00000000000E+00  0.00000000000E+00  0.61649337039E+03  0.27980581017E+04  0.27292975405E+04 0.  0.
        4    1    3    3  502    0  0.18174145399E+03 -0.23116899958E+03  0.16744090941E+04  0.17000342614E+04  0.12699999809E+01 0.  1.
       -4    1    3    3    0  502 -0.18174145399E+03  0.23116899958E+03 -0.10579157237E+04  0.10980238403E+04  0.12699999809E+01 0. -1.
</event>
<event>
 5   0  0.7754912E-06  0.2735471E+04  0.7818609E-02  0.8323587E-01
        1   -1    0    0  501    0  0.00000000000E+00  0.00000000000E+00  0.11792004324E+04  0.11792004324E+04  0.50400001928E-02 0.  1.
       -1   -1    0    0    0  501  0.00000000000E+00  0.00000000000E+00 -0.15864136982E+04  0.15864136982E+04  0.50400001928E-02 0. -1.
    10030    2    1    2    0    0  0.00000000000E+00  0.00000000000E+00 -0.40721326582E+03  0.27656141306E+04  0.27354705035E+04 0.  0.
        4    1    3    3  502    0  0.92995194058E+03 -0.89929166504E+03 -0.65252890444E+03  0.14489070690E+04  0.12699999809E+01 0. -1.
       -4    1    3    3    0  502 -0.92995194058E+03  0.89929166504E+03  0.24531563862E+03  0.13167070616E+04  0.12699999809E+01 0.  1.
</event>
<event>
 5   0  0.1826851E-05  0.2685746E+04  0.7818609E-02  0.8339645E-01
       -2   -1    0    0    0  501  0.00000000000E+00  0.00000000000E+00  0.87160128860E+03  0.87160128860E+03  0.25500000920E-02 0.  1.
        2   -1    0    0  501    0  0.00000000000E+00  0.00000000000E+00 -0.20689598440E+04  0.20689598440E+04  0.25500000920E-02 0. -1.
    10030    2    1    2    0    0  0.00000000000E+00  0.00000000000E+00 -0.11973585554E+04  0.29405611326E+04  0.26857461281E+04 0.  0.
        5    1    3    3  502    0  0.25702175529E+03  0.80680736324E+03  0.54245744019E+03  0.10056244172E+04  0.46999998093E+01 0.  1.
       -5    1    3    3    0  502 -0.25702175529E+03 -0.80680736324E+03 -0.17398159956E+04  0.19349367154E+04  0.46999998093E+01 0. -1.
</event>
<event>
 5   0  0.7600052E-06  0.2703158E+04  0.7818609E-02  0.8333981E-01
        1   -1    0    0  501    0  0.00000000000E+00  0.00000000000E+00  0.20260077377E+04  0.20260077377E+04  0.50400001928E-02 0.  1.
       -1   -1    0    0    0  501  0.00000000000E+00  0.00000000000E+00 -0.90165815024E+03  0.90165815025E+03  0.50400001928E-02 0. -1.
    10030    2    1    2    0    0  0.00000000000E+00  0.00000000000E+00  0.11243495875E+04  0.29276658880E+04  0.27031584409E+04 0.  0.
        5    1    3    3  502    0 -0.97080898565E+03 -0.56600587953E+03 -0.25113407531E+03  0.11514873669E+04  0.46999998093E+01 0.  1.
       -5    1    3    3    0  502  0.97080898565E+03  0.56600587953E+03  0.13754836628E+04  0.17761785211E+04  0.46999998093E+01 0. -1.
</event>
<event>
 5   0  0.6175875E-06  0.2671046E+04  0.7818609E-02  0.8344461E-01
       -3   -1    0    0    0  501  0.00000000000E+00  0.00000000000E+00  0.12821013646E+04  0.12821013686E+04  0.10100000352E+00 0.  1.
        3   -1    0    0  501    0  0.00000000000E+00  0.00000000000E+00 -0.13911705218E+04  0.13911705255E+04  0.10100000352E+00 0. -1.
    10030    2    1    2    0    0  0.00000000000E+00  0.00000000000E+00 -0.10906915722E+03  0.26732718941E+04  0.26710459634E+04 0.  0.
        1    1    3    3  502    0 -0.83486938383E+03  0.70116576005E+03  0.71745855514E+03  0.13051387242E+04  0.50400001928E-02 0.  1.
       -1    1    3    3    0  502  0.83486938383E+03 -0.70116576005E+03 -0.82652771235E+03  0.13681331698E+04  0.50400001928E-02 0. -1.
</event>
<event>
 5   0  0.1788003E-05  0.2689858E+04  0.7818609E-02  0.8338303E-01
        2   -1    0    0  501    0  0.00000000000E+00  0.00000000000E+00  0.15037253069E+04  0.15037253069E+04  0.25500000920E-02 0.  1.
       -2   -1    0    0    0  501  0.00000000000E+00  0.00000000000E+00 -0.12029015181E+04  0.12029015181E+04  0.25500000920E-02 0. -1.
    10030    2    1    2    0    0  0.00000000000E+00  0.00000000000E+00  0.30082378885E+03  0.27066268250E+04  0.26898575832E+04 0.  0.
        2    1    3    3  502    0 -0.35807943947E+03 -0.12935986492E+04  0.64940576691E+02  0.13438138371E+04  0.25500000920E-02 0. -1.
       -2    1    3    3    0  502  0.35807943947E+03  0.12935986492E+04  0.23588321216E+03  0.13628129879E+04  0.25500000920E-02 0.  1.
</event>
<event>
 5   0  0.7351590E-06  0.2702567E+04  0.7818609E-02  0.8334173E-01
        1   -1    0    0  501    0  0.00000000000E+00  0.00000000000E+00  0.18633508315E+04  0.18633508315E+04  0.50400001928E-02 0. -1.
       -1   -1    0    0    0  501  0.00000000000E+00  0.00000000000E+00 -0.97993735184E+03  0.97993735185E+03  0.50400001928E-02 0.  1.
    10030    2    1    2    0    0  0.00000000000E+00  0.00000000000E+00  0.88341347962E+03  0.28432881833E+04  0.27025669867E+04 0.  0.
        3    1    3    3  502    0  0.43029504220E+03  0.53229605692E+03  0.16674801534E+04  0.18024935472E+04  0.10100000352E+00 0. -1.
       -3    1    3    3    0  502 -0.43029504220E+03 -0.53229605692E+03 -0.78406667374E+03  0.10407946361E+04  0.10100000352E+00 0.  1.
</event>
<event>
 5   0  0.1931119E-05  0.2680864E+04  0.7818609E-02  0.8341241E-01
       -2   -1    0    0    0  501  0.00000000000E+00  0.00000000000E+00  0.15350479247E+04  0.15350479247E+04  0.25500000920E-02 0. -1.
        2   -1    0    0  501    0  0.00000000000E+00  0.00000000000E+00 -0.11704896136E+04  0.11704896136E+04  0.25500000920E-02 0.  1.
    10030    2    1    2    0    0  0.00000000000E+00  0.00000000000E+00  0.36455831112E+03  0.27055375383E+04  0.26808637804E+04 0.  0.
        3    1    3    3  502    0 -0.16501090850E+03 -0.73002065678E+03 -0.93998021836E+03  0.12015496579E+04  0.10100000352E+00 0.  1.
       -3    1    3    3    0  502  0.16501090850E+03  0.73002065678E+03  0.13045385295E+04  0.15039878804E+04  0.10100000352E+00 0. -1.
</event>
<event>
 5   0  0.1881699E-05  0.2712179E+04  0.7818609E-02  0.8331064E-01
        2   -1    0    0  501    0  0.00000000000E+00  0.00000000000E+00  0.11034115465E+04  0.11034115465E+04  0.25500000920E-02 0. -1.
       -2   -1    0    0    0  501  0.00000000000E+00  0.00000000000E+00 -0.16666298997E+04  0.16666298997E+04  0.25500000920E-02 0.  1.
    10030    2    1    2    0    0  0.00000000000E+00  0.00000000000E+00 -0.56321835314E+03  0.27700414462E+04  0.27121789580E+04 0.  0.
        4    1    3    3  502    0 -0.99241501254E+03 -0.29930607130E+03  0.61140468081E+03  0.12034487850E+04  0.12699999809E+01 0. -1.
       -4    1    3    3    0  502  0.99241501254E+03  0.29930607130E+03 -0.11746230339E+04  0.15665926612E+04  0.12699999809E+01 0.  1.
</event>
<event>
 5   0  0.1881699E-05  0.2671644E+04  0.7818609E-02  0.8344265E-01
       -2   -1    0    0    0  501  0.00000000000E+00  0.00000000000E+00  0.10765192262E+04  0.10765192262E+04  0.25500000920E-02 0. -1.
        2   -1    0    0  501    0  0.00000000000E+00  0.00000000000E+00 -0.16575833754E+04  0.16575833754E+04  0.25500000920E-02 0.  1.
    10030    2    1    2    0    0  0.00000000000E+00  0.00000000000E+00 -0.58106414914E+03  0.27341026016E+04  0.26716439678E+04 0.  0.
        4    1    3    3  502    0 -0.22020582686E+03 -0.52433229023E+03  0.94644570773E+03  0.11041630529E+04  0.12699999809E+01 0. -1.
       -4    1    3    3    0  502  0.22020582686E+03  0.52433229023E+03 -0.15275098569E+04  0.16299395487E+04  0.12699999809E+01 0.  1.
</event>
<event>
 5   0  0.6804685E-06  0.2740827E+04  0.7818609E-02  0.8321878E-01
        1   -1    0    0  501    0  0.00000000000E+00  0.00000000000E+00  0.19738738628E+04  0.19738738628E+04  0.50400001928E-02 0. -1.
       -1   -1    0    0    0  501  0.00000000000E+00  0.00000000000E+00 -0.95144504178E+03  0.95144504179E+03  0.50400001928E-02 0.  1.
    10030    2    1    2    0    0  0.00000000000E+00  0.00000000000E+00  0.10224288211E+04  0.29253189046E+04  0.27408265176E+04 0.  0.
        2    1    3    3  502    0  0.47233906176E+03 -0.11775094979E+04  0.10641603557E+04  0.16559197050E+04  0.25500000920E-02 0.  1.
       -2    1    3    3    0  502 -0.47233906176E+03  0.11775094979E+04 -0.41731534597E+02  0.12693991996E+04  0.25500000920E-02 0. -1.
</event>
<event>
 5   0  0.1878160E-05  0.2602646E+04  0.7818609E-02  0.8367303E-01
       -2   -1    0    0    0  501  0.00000000000E+00  0.00000000000E+00  0.16015631819E+04  0.16015631819E+04  0.25500000920E-02 0.  1.
        2   -1    0    0  501    0  0.00000000000E+00  0.00000000000E+00 -0.10573680237E+04  0.10573680237E+04  0.25500000920E-02 0. -1.
    10030    2    1    2    0    0  0.00000000000E+00  0.00000000000E+00  0.54419515816E+03  0.26589312056E+04  0.26026461123E+04 0.  0.
        1    1    3    3  502    0  0.51336205161E+03 -0.17370659786E+03  0.14807840729E+04  0.15768436983E+04  0.50400001928E-02 0.  1.
       -1    1    3    3    0  502 -0.51336205161E+03  0.17370659786E+03 -0.93658891475E+03  0.10820875073E+04  0.50400001928E-02 0. -1.
</event>
<event>
 5   0  0.7348964E-06  0.2658917E+04  0.7818609E-02  0.8348459E-01
       -1   -1    0    0    0  501  0.00000000000E+00  0.00000000000E+00  0.10233506781E+04  0.10233506781E+04  0.50400001928E-02 0.  1.
        1   -1    0    0  501    0  0.00000000000E+00  0.00000000000E+00 -0.17271307143E+04  0.17271307143E+04  0.50400001928E-02 0. -1.
    10030    2    1    2    0    0  0.00000000000E+00  0.00000000000E+00 -0.70378003619E+03  0.27504813924E+04  0.26589173643E+04 0.  0.
        1    1    3    3  502    0 -0.17319788313E+03  0.27042147061E+03 -0.16864074723E+04  0.17167106457E+04  0.50400001928E-02 0. -1.
       -1    1    3    3    0  502  0.17319788313E+03 -0.27042147061E+03  0.98262743609E+03  0.10337707467E+04  0.50400001928E-02 0.  1.
</event>
<event>
 5   0  0.7600052E-06  0.2705545E+04  0.7818609E-02  0.8333208E-01
        1   -1    0    0  501    0  0.00000000000E+00  0.00000000000E+00  0.19044630135E+04  0.19044630135E+04  0.50400001928E-02 0.  1.
       -1   -1    0    0    0  501  0.00000000000E+00  0.00000000000E+00 -0.96089742578E+03  0.96089742580E+03  0.50400001928E-02 0. -1.
    10030    2    1    2    0    0  0.00000000000E+00  0.00000000000E+00  0.94356558773E+03  0.28653604393E+04  0.27055451260E+04 0.  0.
        5    1    3    3  502    0 -0.13109960137E+04 -0.69046021957E+01  0.11859731947E+03  0.13163759477E+04  0.46999998093E+01 0.  1.
       -5    1    3    3    0  502  0.13109960137E+04  0.69046021957E+01  0.82496826826E+03  0.15489844916E+04  0.46999998093E+01 0. -1.
</event>
<event>
 5   0  0.1878160E-05  0.2792500E+04  0.7818609E-02  0.8305601E-01
       -2   -1    0    0    0  501  0.00000000000E+00  0.00000000000E+00  0.80871605174E+03  0.80871605175E+03  0.25500000920E-02 0. -1.
        2   -1    0    0  501    0  0.00000000000E+00  0.00000000000E+00 -0.24106287349E+04  0.24106287349E+04  0.25500000920E-02 0.  1.
    10030    2    1    2    0    0  0.00000000000E+00  0.00000000000E+00 -0.16019126832E+04  0.32193447867E+04  0.27925000646E+04 0.  0.
        1    1    3    3  502    0  0.99561031892E+03 -0.93845569656E+03 -0.11220528734E+04  0.17694467080E+04  0.50400001928E-02 0.  1.
       -1    1    3    3    0  502 -0.99561031892E+03  0.93845569656E+03 -0.47985980973E+03  0.14498980787E+04  0.50400001928E-02 0. -1.
</event>
<event>
 5   0  0.7600052E-06  0.2663783E+04  0.7818609E-02  0.8346853E-01
       -1   -1    0    0    0  501  0.00000000000E+00  0.00000000000E+00  0.19443404252E+04  0.19443404252E+04  0.50400001928E-02 0.  1.
        1   -1    0    0  501    0  0.00000000000E+00  0.00000000000E+00 -0.91235836683E+03  0.91235836685E+03  0.50400001928E-02 0. -1.
    10030    2    1    2    0    0  0.00000000000E+00  0.00000000000E+00  0.10319820584E+04  0.28566987921E+04  0.26637832156E+04 0.  0.
        5    1    3    3  502    0  0.71316641996E+03 -0.80550628410E+03  0.13580069351E+04  0.17325275300E+04  0.46999998093E+01 0.  1.
       -5    1    3    3    0  502 -0.71316641996E+03  0.80550628410E+03 -0.32602487673E+03  0.11241712621E+04  0.46999998093E+01 0. -1.
</event>
<event>
 5   0  0.7600052E-06  0.2744404E+04  0.7818609E-02  0.8320740E-01
        1   -1    0    0  501    0  0.00000000000E+00  0.00000000000E+00  0.23023972093E+04  0.23023972093E+04  0.50400001928E-02 0.  1.
       -1   -1    0    0    0  501  0.00000000000E+00  0.00000000000E+00 -0.81781629789E+03  0.81781629791E+03  0.50400001928E-02 0. -1.
    10030    2    1    2    0    0  0.00000000000E+00  0.00000000000E+00  0.14845809114E+04  0.31202135073E+04  0.27444037327E+04 0.  0.
        5    1    3    3  502    0 -0.81268606081E+03  0.65590043783E+03  0.17542611674E+04  0.20415970100E+04  0.46999998093E+01 0.  1.
       -5    1    3    3    0  502  0.81268606081E+03 -0.65590043783E+03 -0.26968025593E+03  0.10786164973E+04  0.46999998093E+01 0. -1.
</event>
<event>
 5   0  0.7754912E-06  0.2693424E+04  0.7818609E-02  0.8337142E-01
       -1   -1    0    0    0  501  0.00000000000E+00  0.00000000000E+00  0.16570515682E+04  0.16570515682E+04  0.50400001928E-02 0.  1.
        1   -1    0    0  501    0  0.00000000000E+00  0.00000000000E+00 -0.10944942819E+04  0.10944942819E+04  0.50400001928E-02 0. -1.
    10030    2    1    2    0    0  0.00000000000E+00  0.00000000000E+00  0.56255728627E+03  0.27515458501E+04  0.26934241896E+04 0.  0.
        4    1    3    3  502    0 -0.46273417130E+03  0.12066651630E+04 -0.10566677471E+03  0.12966614088E+04  0.12699999809E+01 0. -1.
       -4    1    3    3    0  502  0.46273417130E+03 -0.12066651630E+04  0.66822406097E+03  0.14548844413E+04  0.12699999809E+01 0.  1.
</event>
<event>
 5   0  0.1826851E-05  0.2644770E+04  0.7818609E-02  0.8353151E-01
       -2   -1    0    0    0  501  0.00000000000E+00  0.00000000000E+00  0.19107053443E+04  0.19107053443E+04  0.25500000920E-02 0.  1.
        2   -1    0    0  501    0  0.00000000000E+00  0.00000000000E+00 -0.91521265232E+03  0.91521265232E+03  0.25500000920E-02 0. -1.
    10030    2    1    2    0    0  0.00000000000E+00  0.00000000000E+00  0.99549269199E+03  0.28259179966E+04  0.26447697109E+04 0.  0.
        5    1    3    3  502    0  0.71946644549E+02  0.34051842503E+03 -0.86538884223E+03  0.93276420155E+03  0.46999998093E+01 0. -1.
       -5    1    3    3    0  502 -0.71946644549E+02 -0.34051842503E+03  0.18608815342E+04  0.18931537951E+04  0.46999998093E+01 0.  1.
</event>
<event>
 5   0  0.1878160E-05  0.2721837E+04  0.7818609E-02  0.8327954E-01
       -2   -1    0    0    0  501  0.00000000000E+00  0.00000000000E+00  0.67160002411E+03  0.67160002411E+03  0.25500000920E-02 0. -1.
        2   -1    0    0  501    0  0.00000000000E+00  0.00000000000E+00 -0.27577421828E+04  0.27577421828E+04  0.25500000920E-02 0.  1.
    10030    2    1    2    0    0  0.00000000000E+00  0.00000000000E+00 -0.20861421587E+04  0.34293422069E+04  0.27218374062E+04 0.  0.
        1    1    3    3  502    0  0.23581215097E+03 -0.62034062552E+03  0.45390622693E+03  0.80402781363E+03  0.50400001928E-02 0. -1.
       -1    1    3    3    0  502 -0.23581215097E+03  0.62034062552E+03 -0.25400483856E+04  0.26253143932E+04  0.50400001928E-02 0.  1.
</event>
<event>
 5   0  0.6804685E-06  0.2672834E+04  0.7818609E-02  0.8343874E-01
        1   -1    0    0  501    0  0.00000000000E+00  0.00000000000E+00  0.15886792267E+04  0.15886792267E+04  0.50400001928E-02 0.  1.
       -1   -1    0    0    0  501  0.00000000000E+00  0.00000000000E+00 -0.11242108230E+04  0.11242108230E+04  0.50400001928E-02 0. -1.
    10030    2    1    2    0    0  0.00000000000E+00  0.00000000000E+00  0.46446840376E+03  0.27128900497E+04  0.26728339873E+04 0.  0.
        2    1    3    3  502    0 -0.11967543915E+04 -0.38535981272E+03 -0.22764213238E+03  0.12777105303E+04  0.25500000920E-02 0. -1.
       -2    1    3    3    0  502  0.11967543915E+04  0.38535981272E+03  0.69211053614E+03  0.14351795194E+04  0.25500000920E-02 0.  1.
</event>
<event>
 5   0  0.7600052E-06  0.2113958E+04  0.7818609E-02  0.8555119E-01
       -1   -1    0    0    0  501  0.00000000000E+00  0.00000000000E+00  0.70318731170E+03  0.70318731172E+03  0.50400001928E-02 0. -1.
        1   -1    0    0  501    0  0.00000000000E+00  0.00000000000E+00 -0.15887729379E+04  0.15887729379E+04  0.50400001928E-02 0.  1.
    10030    2    1    2    0    0  0.00000000000E+00  0.00000000000E+00 -0.88558562617E+03  0.22919602496E+04  0.21139583450E+04 0.  0.
        5    1    3    3  502    0  0.40579560744E+03  0.94934846729E+03 -0.19734518739E+03  0.10511421409E+04  0.46999998093E+01 0. -1.
       -5    1    3    3    0  502 -0.40579560744E+03 -0.94934846729E+03 -0.68824043878E+03  0.12408181087E+04  0.46999998093E+01 0.  1.
</event>
<event>
 5   0  0.1931119E-05  0.2711373E+04  0.7818609E-02  0.8331324E-01
       -2   -1    0    0    0  501  0.00000000000E+00  0.00000000000E+00  0.78038005589E+03  0.78038005589E+03  0.25500000920E-02 0.  1.
        2   -1    0    0  501    0  0.00000000000E+00  0.00000000000E+00 -0.23551157112E+04  0.23551157112E+04  0.25500000920E-02 0. -1.
    10030    2    1    2    0    0  0.00000000000E+00  0.00000000000E+00 -0.15747356553E+04  0.31354957671E+04  0.27113725899E+04 0.  0.
        3    1    3    3  502    0  0.10324271276E+04 -0.35460132844E+03 -0.17170041343E+04  0.20346378261E+04  0.10100000352E+00 0. -1.
       -3    1    3    3    0  502 -0.10324271276E+04  0.35460132844E+03  0.14226847904E+03  0.11008579410E+04  0.10100000352E+00 0.  1.
</event>
<event>
 5   0  0.1878160E-05  0.2711353E+04  0.7818609E-02  0.8331331E-01
        2   -1    0    0  501    0  0.00000000000E+00  0.00000000000E+00  0.15542980628E+04  0.15542980628E+04  0.25500000920E-02 0.  1.
       -2   -1    0    0    0  501  0.00000000000E+00  0.00000000000E+00 -0.11824364510E+04  0.11824364510E+04  0.25500000920E-02 0. -1.
    10030    2    1    2    0    0  0.00000000000E+00  0.00000000000E+00  0.37186161182E+03  0.27367345138E+04  0.27113529354E+04 0.  0.
        1    1    3    3  502    0 -0.13038130759E+04 -0.27364949667E+03  0.43937114080E+03  0.14028041856E+04  0.50400001928E-02 0.  1.
       -1    1    3    3    0  502  0.13038130759E+04  0.27364949667E+03 -0.67509528979E+02  0.13339303281E+04  0.50400001928E-02 0. -1.
</event>
<event>
 5   0  0.6175875E-06  0.2686685E+04  0.7818609E-02  0.8339338E-01
        3   -1    0    0  501    0  0.00000000000E+00  0.00000000000E+00  0.18067832897E+04  0.18067832926E+04  0.10100000352E+00 0.  1.
       -3   -1    0    0    0  501  0.00000000000E+00  0.00000000000E+00 -0.99877426610E+03  0.99877427120E+03  0.10100000352E+00 0. -1.
    10030    2    1    2    0    0  0.00000000000E+00  0.00000000000E+00  0.80800902365E+03  0.28055575638E+04  0.26866846970E+04 0.  0.
        5    1    3    3  502    0  0.73306931792E+03 -0.64153728779E+03  0.13699092160E+04  0.16809622443E+04  0.46999998093E+01 0.  1.
       -5    1    3    3    0  502 -0.73306931792E+03  0.64153728779E+03 -0.56190019237E+03  0.11245953195E+04  0.46999998093E+01 0. -1.
</event>
<event>
 5   0  0.6804685E-06  0.2738325E+04  0.7818609E-02  0.8322676E-01
       -1   -1    0    0    0  501  0.00000000000E+00  0.00000000000E+00  0.15797142600E+04  0.15797142600E+04  0.50400001928E-02 0.  1.
        1   -1    0    0  501    0  0.00000000000E+00  0.00000000000E+00 -0.11866736649E+04  0.11866736649E+04  0.50400001928E-02 0. -1.
    10030    2    1    2    0    0  0.00000000000E+00  0.00000000000E+00  0.39304059514E+03  0.27663879250E+04  0.27383245319E+04 0.  0.
        2    1    3    3  502    0 -0.56112710787E+03 -0.12237690135E+04 -0.55295294560E+02  0.13474167133E+04  0.25500000920E-02 0.  1.
       -2    1    3    3    0  502  0.56112710787E+03  0.12237690135E+04  0.44833588970E+03  0.14189712117E+04  0.25500000920E-02 0. -1.
</event>
<event>
 5   0  0.7600052E-06  0.2672375E+04  0.7818609E-02  0.8344024E-01
       -1   -1    0    0    0  501  0.00000000000E+00  0.00000000000E+00  0.62400704360E+03  0.62400704362E+03  0.50400001928E-02 0. -1.
        1   -1    0    0  501    0  0.00000000000E+00  0.00000000000E+00 -0.28611808036E+04  0.28611808036E+04  0.50400001928E-02 0.  1.
    10030    2    1    2    0    0  0.00000000000E+00  0.00000000000E+00 -0.22371737600E+04  0.34851878472E+04  0.26723749546E+04 0.  0.
        5    1    3    3  502    0  0.43762018467E+03 -0.11076787615E+04 -0.32861925290E+03  0.12355065229E+04  0.46999998093E+01 0.  1.
       -5    1    3    3    0  502 -0.43762018467E+03  0.11076787615E+04 -0.19085545071E+04  0.22496813244E+04  0.46999998093E+01 0. -1.
</event>
<event>
 5   0  0.6804685E-06  0.2106615E+04  0.7818609E-02  0.8558335E-01
        1   -1    0    0  501    0  0.00000000000E+00  0.00000000000E+00  0.22814066567E+04  0.22814066567E+04  0.50400001928E-02 0. -1.
       -1   -1    0    0    0  501  0.00000000000E+00  0.00000000000E+00 -0.48630363151E+03  0.48630363153E+03  0.50400001928E-02 0.  1.
    10030    2    1    2    0    0  0.00000000000E+00  0.00000000000E+00  0.17951030252E+04  0.27677102883E+04  0.21066146702E+04 0.  0.
        2    1    3    3  502    0  0.35026718959E+03  0.82091687677E+03  0.16267592575E+03  0.90722383097E+03  0.25500000920E-02 0.  1.
       -2    1    3    3    0  502 -0.35026718959E+03 -0.82091687677E+03  0.16324270995E+04  0.18604864573E+04  0.25500000920E-02 0. -1.
</event>
<event>
 5   0  0.7600052E-06  0.2580741E+04  0.7818609E-02  0.8374772E-01
       -1   -1    0    0    0  501  0.00000000000E+00  0.00000000000E+00  0.13673499874E+04  0.13673499874E+04  0.50400001928E-02 0. -1.
        1   -1    0    0  501    0  0.00000000000E+00  0.00000000000E+00 -0.12177251003E+04  0.12177251003E+04  0.50400001928E-02 0.  1.
    10030    2    1    2    0    0  0.00000000000E+00  0.00000000000E+00  0.14962488711E+03  0.25850750876E+04  0.25807412892E+04 0.  0.
        5    1    3    3  502    0 -0.34279063632E+03  0.10844616673E+04 -0.53569590477E+03  0.12572011456E+04  0.46999998093E+01 0.  1.
       -5    1    3    3    0  502  0.34279063632E+03 -0.10844616673E+04  0.68532079188E+03  0.13278739420E+04  0.46999998093E+01 0. -1.
</event>
<event>
 5   0  0.6804685E-06  0.2733138E+04  0.7818609E-02  0.8324332E-01
       -1   -1    0    0    0  501  0.00000000000E+00  0.00000000000E+00  0.14776124163E+04  0.14776124163E+04  0.50400001928E-02 0.  1.
        1   -1    0    0  501    0  0.00000000000E+00  0.00000000000E+00 -0.12638706364E+04  0.12638706364E+04  0.50400001928E-02 0. -1.
    10030    2    1    2    0    0  0.00000000000E+00  0.00000000000E+00  0.21374177987E+03  0.27414830527E+04  0.27331380828E+04 0.  0.
        2    1    3    3  502    0  0.20404874757E+03 -0.63053738901E+03  0.13056339550E+04  0.14642039867E+04  0.25500000920E-02 0.  1.
       -2    1    3    3    0  502 -0.20404874757E+03  0.63053738901E+03 -0.10918921751E+04  0.12772790660E+04  0.25500000920E-02 0. -1.
</event>
<event>
 5   0  0.1931119E-05  0.2051399E+04  0.7818609E-02  0.8582960E-01
        2   -1    0    0  501    0  0.00000000000E+00  0.00000000000E+00  0.93330094812E+03  0.93330094813E+03  0.25500000920E-02 0.  1.
       -2   -1    0    0    0  501  0.00000000000E+00  0.00000000000E+00 -0.11272453892E+04  0.11272453892E+04  0.25500000920E-02 0. -1.
    10030    2    1    2    0    0  0.00000000000E+00  0.00000000000E+00 -0.19394444103E+03  0.20605463373E+04  0.20513987330E+04 0.  0.
        3    1    3    3  502    0  0.66552994026E+03  0.74152648843E+03 -0.34150707782E+03  0.10532894801E+04  0.10100000352E+00 0. -1.
       -3    1    3    3    0  502 -0.66552994026E+03 -0.74152648843E+03  0.14756263679E+03  0.10072568572E+04  0.10100000352E+00 0.  1.
</event>
<event>
 5   0  0.1788003E-05  0.2798848E+04  0.7818609E-02  0.8303626E-01
        2   -1    0    0  501    0  0.00000000000E+00  0.00000000000E+00  0.14251145349E+04  0.14251145349E+04  0.25500000920E-02 0. -1.
       -2   -1    0    0    0  501  0.00000000000E+00  0.00000000000E+00 -0.13741966034E+04  0.13741966034E+04  0.25500000920E-02 0.  1.
    10030    2    1    2    0    0  0.00000000000E+00  0.00000000000E+00  0.50917931543E+02  0.27993111383E+04  0.27988480154E+04 0.  0.
        2    1    3    3  502    0  0.38852096211E+03  0.86326506384E+03  0.10562664166E+04  0.14184053903E+04  0.25500000920E-02 0. -1.
       -2    1    3    3    0  502 -0.38852096211E+03 -0.86326506384E+03 -0.10053484851E+04  0.13809057480E+04  0.25500000920E-02 0.  1.
</event>
<event>
 5   0  0.1878160E-05  0.2342515E+04  0.7818609E-02  0.8461344E-01
        2   -1    0    0  501    0  0.00000000000E+00  0.00000000000E+00  0.26300289708E+04  0.26300289708E+04  0.25500000920E-02 0. -1.
       -2   -1    0    0    0  501  0.00000000000E+00  0.00000000000E+00 -0.52160815921E+03  0.52160815922E+03  0.25500000920E-02 0.  1.
    10030    2    1    2    0    0  0.00000000000E+00  0.00000000000E+00  0.21084208116E+04  0.31516371300E+04  0.23425153747E+04 0.  0.
        1    1    3    3  502    0 -0.62844293817E+03  0.77187625746E+03  0.18847867348E+04  0.21314676913E+04  0.50400001928E-02 0. -1.
       -1    1    3    3    0  502  0.62844293817E+03 -0.77187625746E+03  0.22363407679E+03  0.10201694387E+04  0.50400001928E-02 0.  1.
</event>
<event>
 5   0  0.6804685E-06  0.2716726E+04  0.7818609E-02  0.8329598E-01
        1   -1    0    0  501    0  0.00000000000E+00  0.00000000000E+00  0.11663559057E+04  0.11663559057E+04  0.50400001928E-02 0.  1.
       -1   -1    0    0    0  501  0.00000000000E+00  0.00000000000E+00 -0.15819785660E+04  0.15819785660E+04  0.50400001928E-02 0. -1.
    10030    2    1    2    0    0  0.00000000000E+00  0.00000000000E+00 -0.41562266031E+03  0.27483344717E+04  0.27167260024E+04 0.  0.
        2    1    3    3  502    0 -0.35173255145E+03 -0.50748572213E+03 -0.14318026504E+04  0.15592678973E+04  0.25500000920E-02 0. -1.
       -2    1    3    3    0  502  0.35173255145E+03  0.50748572213E+03  0.10161799901E+04  0.11890665743E+04  0.25500000920E-02 0.  1.
</event>
<event>
 5   0  0.1881699E-05  0.2621563E+04  0.7818609E-02  0.8360913E-01
       -2   -1    0    0    0  501  0.00000000000E+00  0.00000000000E+00  0.10766171925E+04  0.10766171925E+04  0.25500000920E-02 0.  1.
        2   -1    0    0  501    0  0.00000000000E+00  0.00000000000E+00 -0.15958769540E+04  0.15958769540E+04  0.25500000920E-02 0. -1.
    10030    2    1    2    0    0  0.00000000000E+00  0.00000000000E+00 -0.51925976152E+03  0.26724941466E+04  0.26215633243E+04 0.  0.
        4    1    3    3  502    0  0.27612149898E+03  0.10073437065E+04 -0.10669512739E+04  0.14931078524E+04  0.12699999809E+01 0. -1.
       -4    1    3    3    0  502 -0.27612149898E+03 -0.10073437065E+04  0.54769151240E+03  0.11793862941E+04  0.12699999809E+01 0.  1.
</event>
<event>
 5   0  0.7348964E-06  0.2752510E+04  0.7818609E-02  0.8318166E-01
       -1   -1    0    0    0  501  0.00000000000E+00  0.00000000000E+00  0.11910033646E+04  0.11910033646E+04  0.50400001928E-02 0.  1.
        1   -1    0    0  501    0  0.00000000000E+00  0.00000000000E+00 -0.15903208898E+04  0.15903208898E+04  0.50400001928E-02 0. -1.
    10030    2    1    2    0    0  0.00000000000E+00  0.00000000000E+00 -0.39931752526E+03  0.27813242544E+04  0.27525097860E+04 0.  0.
        1    1    3    3  502    0 -0.58326942593E+02  0.13365493152E+04  0.12669505200E+03  0.13438071813E+04  0.50400001928E-02 0.  1.
       -1    1    3    3    0  502  0.58326942593E+02 -0.13365493152E+04 -0.52601257726E+03  0.14375170732E+04  0.50400001928E-02 0. -1.
</event>
<event>
 5   0  0.7754912E-06  0.2623158E+04  0.7818609E-02  0.8360377E-01
       -1   -1    0    0    0  501  0.00000000000E+00  0.00000000000E+00  0.81216590532E+03  0.81216590534E+03  0.50400001928E-02 0. -1.
        1   -1    0    0  501    0  0.00000000000E+00  0.00000000000E+00 -0.21180886428E+04  0.21180886428E+04  0.50400001928E-02 0.  1.
    10030    2    1    2    0    0  0.00000000000E+00  0.00000000000E+00 -0.13059227375E+04  0.29302545482E+04  0.26231579291E+04 0.  0.
        4    1    3    3  502    0 -0.10074919247E+03 -0.86292467604E+03  0.44464201535E+03  0.97595979990E+03  0.12699999809E+01 0. -1.
       -4    1    3    3    0  502  0.10074919247E+03  0.86292467604E+03 -0.17505647529E+04  0.19542947483E+04  0.12699999809E+01 0.  1.
</event>
<event>
 5   0  0.1931119E-05  0.3112364E+04  0.7818609E-02  0.8212353E-01
       -2   -1    0    0    0  501  0.00000000000E+00  0.00000000000E+00  0.12911201366E+04  0.12911201366E+04  0.25500000920E-02 0.  1.
        2   -1    0    0  501    0  0.00000000000E+00  0.00000000000E+00 -0.18756595923E+04  0.18756595923E+04  0.25500000920E-02 0. -1.
    10030    2    1    2    0    0  0.00000000000E+00  0.00000000000E+00 -0.58453945566E+03  0.31667797289E+04  0.31123636478E+04 0.  0.
        3    1    3    3  502    0 -0.66963639608E+03 -0.13728637438E+04 -0.59501878758E+03  0.16392727442E+04  0.10100000352E+00 0.  1.
       -3    1    3    3    0  502  0.66963639608E+03  0.13728637438E+04  0.10479331918E+02  0.15275069848E+04  0.10100000352E+00 0. -1.
</event>
<event>
 5   0  0.7600052E-06  0.2772568E+04  0.7818609E-02  0.8311836E-01
       -1   -1    0    0    0  501  0.00000000000E+00  0.00000000000E+00  0.10273822455E+04  0.10273822455E+04  0.50400001928E-02 0.  1.
        1   -1    0    0  501    0  0.00000000000E+00  0.00000000000E+00 -0.18705630288E+04  0.18705630288E+04  0.50400001928E-02 0. -1.
    10030    2    1    2    0    0  0.00000000000E+00  0.00000000000E+00 -0.84318078334E+03  0.28979452743E+04  0.27725679396E+04 0.  0.
        5    1    3    3  502    0  0.10010312912E+04  0.38200809727E+03 -0.13410087586E+04  0.17164849003E+04  0.46999998093E+01 0. -1.
       -5    1    3    3    0  502 -0.10010312912E+04 -0.38200809727E+03  0.49782797524E+03  0.11814603740E+04  0.46999998093E+01 0.  1.
</event>
<event>
 5   0  0.1931119E-05  0.2711343E+04  0.7818609E-02  0.8331334E-01
        2   -1    0    0  501    0  0.00000000000E+00  0.00000000000E+00  0.18858929688E+04  0.18858929688E+04  0.25500000920E-02 0.  1.
       -2   -1    0    0    0  501  0.00000000000E+00  0.00000000000E+00 -0.97452227613E+03  0.97452227613E+03  0.25500000920E-02 0. -1.
    10030    2    1    2    0    0  0.00000000000E+00  0.00000000000E+00  0.91137069264E+03  0.28604152449E+04  0.27113426257E+04 0.  0.
        3    1    3    3  502    0  0.10150010943E+04 -0.35025671530E+02 -0.49167986305E+03  0.11283630254E+04  0.10100000352E+00 0. -1.
       -3    1    3    3    0  502 -0.10150010943E+04  0.35025671530E+02  0.14030505557E+04  0.17320522195E+04  0.10100000352E+00 0.  1.
</event>
<event>
 5   0  0.7754912E-06  0.2618578E+04  0.7818609E-02  0.8361918E-01
        1   -1    0    0  501    0  0.00000000000E+00  0.00000000000E+00  0.16208699568E+04  0.16208699568E+04  0.50400001928E-02 0. -1.
       -1   -1    0    0    0  501  0.00000000000E+00  0.00000000000E+00 -0.10576035163E+04  0.10576035163E+04  0.50400001928E-02 0.  1.
    10030    2    1    2    0    0  0.00000000000E+00  0.00000000000E+00  0.56326644052E+03  0.26784734730E+04  0.26185780612E+04 0.  0.
        4    1    3    3  502    0  0.99047575299E+03 -0.85495950262E+03  0.23324164509E+03  0.13290602869E+04  0.12699999809E+01 0.  1.
       -4    1    3    3    0  502 -0.99047575299E+03  0.85495950262E+03  0.33002479543E+03  0.13494131861E+04  0.12699999809E+01 0. -1.
</event>
<event>
 5   0  0.7600052E-06  0.2682273E+04  0.7818609E-02  0.8340780E-01
        1   -1    0    0  501    0  0.00000000000E+00  0.00000000000E+00  0.19343690711E+04  0.19343690711E+04  0.50400001928E-02 0. -1.
       -1   -1    0    0    0  501  0.00000000000E+00  0.00000000000E+00 -0.92983677232E+03  0.92983677234E+03  0.50400001928E-02 0.  1.
    10030    2    1    2    0    0  0.00000000000E+00  0.00000000000E+00  0.10045322987E+04  0.28642058434E+04  0.26822732848E+04 0.  0.
        5    1    3    3  502    0  0.65617103274E+03 -0.95650240628E+00  0.17512430892E+04  0.18701432530E+04  0.46999998093E+01 0. -1.
       -5    1    3    3    0  502 -0.65617103274E+03  0.95650240628E+00 -0.74671079047E+03  0.99406259044E+03  0.46999998093E+01 0.  1.
</event>
<event>
 5   0  0.1826851E-05  0.2695552E+04  0.7818609E-02  0.8336450E-01
       -2   -1    0    0    0  501  0.00000000000E+00  0.00000000000E+00  0.93117295467E+03  0.93117295468E+03  0.25500000920E-02 0. -1.
        2   -1    0    0  501    0  0.00000000000E+00  0.00000000000E+00 -0.19507648868E+04  0.19507648868E+04  0.25500000920E-02 0.  1.
    10030    2    1    2    0    0  0.00000000000E+00  0.00000000000E+00 -0.10195919321E+04  0.28819378415E+04  0.26955515232E+04 0.  0.
        5    1    3    3  502    0 -0.11977784840E+04  0.56430395914E+03 -0.24066588947E+03  0.13457542180E+04  0.46999998093E+01 0. -1.
       -5    1    3    3    0  502  0.11977784840E+04 -0.56430395914E+03 -0.77892604265E+03  0.15361836234E+04  0.46999998093E+01 0.  1.
</event>
<event>
 5   0  0.7348964E-06  0.2676691E+04  0.7818609E-02  0.8342608E-01
       -1   -1    0    0    0  501  0.00000000000E+00  0.00000000000E+00  0.21625220308E+04  0.21625220308E+04  0.50400001928E-02 0.  1.
        1   -1    0    0  501    0  0.00000000000E+00  0.00000000000E+00 -0.82827788175E+03  0.82827788177E+03  0.50400001928E-02 0. -1.
    10030    2    1    2    0    0  0.00000000000E+00  0.00000000000E+00  0.13342441490E+04  0.29907999126E+04  0.26766913658E+04 0.  0.
        1    1    3    3  502    0  0.73920044201E+03  0.80342970994E+03 -0.19783392535E+03  0.11095291138E+04  0.50400001928E-02 0. -1.
       -1    1    3    3    0  502 -0.73920044201E+03 -0.80342970994E+03  0.15320780744E+04  0.18812707988E+04  0.50400001928E-02 0.  1.
</event>
<event>
 5   0  0.1826851E-05  0.2681487E+04  0.7818609E-02  0.8341037E-01
        2   -1    0    0  501    0  0.00000000000E+00  0.00000000000E+00  0.15570891835E+04  0.15570891835E+04  0.25500000920E-02 0. -1.
       -2   -1    0    0    0  501  0.00000000000E+00  0.00000000000E+00 -0.11544572955E+04  0.11544572955E+04  0.25500000920E-02 0.  1.
    10030    2    1    2    0    0  0.00000000000E+00  0.00000000000E+00  0.40263188801E+03  0.27115464790E+04  0.26814868768E+04 0.  0.
        5    1    3    3  502    0 -0.35555677352E+03  0.48985931367E+03  0.14110495273E+04  0.15354040592E+04  0.46999998093E+01 0. -1.
       -5    1    3    3    0  502  0.35555677352E+03 -0.48985931367E+03 -0.10084176393E+04  0.11761424198E+04  0.46999998093E+01 0.  1.
</event>
<event>
 5   0  0.6804685E-06  0.2518209E+04  0.7818609E-02  0.8396527E-01
       -1   -1    0    0    0  501  0.00000000000E+00  0.00000000000E+00  0.96885151060E+03  0.96885151061E+03  0.50400001928E-02 0.  1.
        1   -1    0    0  501    0  0.00000000000E+00  0.00000000000E+00 -0.16363123499E+04  0.16363123499E+04  0.50400001928E-02 0. -1.
    10030    2    1    2    0    0  0.00000000000E+00  0.00000000000E+00 -0.66746083926E+03  0.26051638605E+04  0.25182086427E+04 0.  0.
        2    1    3    3  502    0 -0.96241086519E+03 -0.22698047631E+03  0.47266535577E+03  0.10959778048E+04  0.25500000920E-02 0.  1.
       -2    1    3    3    0  502  0.96241086519E+03  0.22698047631E+03 -0.11401261950E+04  0.15091860557E+04  0.25500000920E-02 0. -1.
</event>
<event>
 5   0  0.7351590E-06  0.2684494E+04  0.7818609E-02  0.8340054E-01
        1   -1    0    0  501    0  0.00000000000E+00  0.00000000000E+00  0.21256844166E+04  0.21256844166E+04  0.50400001928E-02 0.  1.
       -1   -1    0    0    0  501  0.00000000000E+00  0.00000000000E+00 -0.84755150300E+03  0.84755150301E+03  0.50400001928E-02 0. -1.
    10030    2    1    2    0    0  0.00000000000E+00  0.00000000000E+00  0.12781329136E+04  0.29732359197E+04  0.26844940099E+04 0.  0.
        3    1    3    3  502    0 -0.51782362828E+03 -0.11815912470E+04  0.22862973915E+03  0.13101796643E+04  0.10100000352E+00 0. -1.
       -3    1    3    3    0  502  0.51782362828E+03  0.11815912470E+04  0.10495031745E+04  0.16630562553E+04  0.10100000352E+00 0.  1.
</event>
<event>
 5   0  0.7600052E-06  0.2704199E+04  0.7818609E-02  0.8333644E-01
        1   -1    0    0  501    0  0.00000000000E+00  0.00000000000E+00  0.21315860732E+04  0.21315860732E+04  0.50400001928E-02 0. -1.
       -1   -1    0    0    0  501  0.00000000000E+00  0.00000000000E+00 -0.85765869619E+03  0.85765869620E+03  0.50400001928E-02 0.  1.
    10030    2    1    2    0    0  0.00000000000E+00  0.00000000000E+00  0.12739273771E+04  0.29892447695E+04  0.27041992030E+04 0.  0.
        5    1    3    3  502    0 -0.71368086290E+03 -0.11272875646E+04  0.87923134281E+03  0.15978696666E+04  0.46999998093E+01 0. -1.
       -5    1    3    3    0  502  0.71368086290E+03  0.11272875646E+04  0.39469603425E+03  0.13913751028E+04  0.46999998093E+01 0.  1.
</event>
<event>
 5   0  0.1788003E-05  0.2692152E+04  0.7818609E-02  0.8337556E-01
        2   -1    0    0  501    0  0.00000000000E+00  0.00000000000E+00  0.18633926670E+04  0.18633926670E+04  0.25500000920E-02 0. -1.
       -2   -1    0    0    0  501  0.00000000000E+00  0.00000000000E+00 -0.97237709774E+03  0.97237709774E+03  0.25500000920E-02 0.  1.
    10030    2    1    2    0    0  0.00000000000E+00  0.00000000000E+00  0.89101556930E+03  0.28357697648E+04  0.26921518185E+04 0.  0.
        2    1    3    3  502    0 -0.52762938076E+03  0.68736780162E+02 -0.85690053397E+03  0.10086605145E+04  0.25500000920E-02 0.  1.
       -2    1    3    3    0  502  0.52762938076E+03 -0.68736780162E+02  0.17479161033E+04  0.18271092503E+04  0.25500000920E-02 0. -1.
</event>
<event>
 5   0  0.1878160E-05  0.2699290E+04  0.7818609E-02  0.8335235E-01
       -2   -1    0    0    0  501  0.00000000000E+00  0.00000000000E+00  0.27649351468E+04  0.27649351468E+04  0.25500000920E-02 0. -1.
        2   -1    0    0  501    0  0.00000000000E+00  0.00000000000E+00 -0.65880090761E+03  0.65880090761E+03  0.25500000920E-02 0.  1.
    10030    2    1    2    0    0  0.00000000000E+00  0.00000000000E+00  0.21061342392E+04  0.34237360544E+04  0.26992901172E+04 0.  0.
        1    1    3    3  502    0  0.98515153760E+03 -0.71627300840E+03  0.31568845985E+03  0.12582645899E+04  0.50400001928E-02 0.  1.
       -1    1    3    3    0  502 -0.98515153760E+03  0.71627300840E+03  0.17904457793E+04  0.21654714644E+04  0.50400001928E-02 0. -1.
</event>
<event>
 5   0  0.7348964E-06  0.2720316E+04  0.7818609E-02  0.8328443E-01
        1   -1    0    0  501    0  0.00000000000E+00  0.00000000000E+00  0.12204386909E+04  0.12204386909E+04  0.50400001928E-02 0. -1.
       -1   -1    0    0    0  501  0.00000000000E+00  0.00000000000E+00 -0.15158728804E+04  0.15158728804E+04  0.50400001928E-02 0.  1.
    10030    2    1    2    0    0  0.00000000000E+00  0.00000000000E+00 -0.29543418947E+03  0.27363115713E+04  0.27203160946E+04 0.  0.
        1    1    3    3  502    0 -0.26821528252E+03  0.87632035713E+03  0.86325641975E+03  0.12590029596E+04  0.50400001928E-02 0. -1.
       -1    1    3    3    0  502  0.26821528252E+03 -0.87632035713E+03 -0.11586906092E+04  0.14773086116E+04  0.50400001928E-02 0.  1.
</event>
<event>
 5   0  0.7351590E-06  0.2675376E+04  0.7818609E-02  0.8343039E-01
       -1   -1    0    0    0  501  0.00000000000E+00  0.00000000000E+00  0.88927201046E+03  0.88927201048E+03  0.50400001928E-02 0. -1.
        1   -1    0    0  501    0  0.00000000000E+00  0.00000000000E+00 -0.20122180327E+04  0.20122180327E+04  0.50400001928E-02 0.  1.
    10030    2    1    2    0    0  0.00000000000E+00  0.00000000000E+00 -0.11229460223E+04  0.29014900432E+04  0.26753759926E+04 0.  0.
        3    1    3    3  502    0  0.80730690444E+03  0.78245348586E+03  0.22465671116E+03  0.11464940225E+04  0.10100000352E+00 0. -1.
       -3    1    3    3    0  502 -0.80730690444E+03 -0.78245348586E+03 -0.13476027334E+04  0.17549960207E+04  0.10100000352E+00 0.  1.
</event>
<event>
 5   0  0.7351590E-06  0.2713277E+04  0.7818609E-02  0.8330710E-01
        1   -1    0    0  501    0  0.00000000000E+00  0.00000000000E+00  0.13488837096E+04  0.13488837096E+04  0.50400001928E-02 0.  1.
       -1   -1    0    0    0  501  0.00000000000E+00  0.00000000000E+00 -0.13644376207E+04  0.13644376207E+04  0.50400001928E-02 0. -1.
    10030    2    1    2    0    0  0.00000000000E+00  0.00000000000E+00 -0.15553911148E+02  0.27133213303E+04  0.27132767491E+04 0.  0.
        3    1    3    3  502    0 -0.10380856489E+04 -0.86901739453E+03  0.79715182616E+02  0.13561591230E+04  0.10100000352E+00 0.  1.
       -3    1    3    3    0  502  0.10380856489E+04  0.86901739453E+03 -0.95269093764E+02  0.13571622073E+04  0.10100000352E+00 0. -1.
</event>
<event>
 5   0  0.7754912E-06  0.2704415E+04  0.7818609E-02  0.8333574E-01
        1   -1    0    0  501    0  0.00000000000E+00  0.00000000000E+00  0.96993533795E+03  0.96993533796E+03  0.50400001928E-02 0. -1.
       -1   -1    0    0    0  501  0.00000000000E+00  0.00000000000E+00 -0.18851407532E+04  0.18851407532E+04  0.50400001928E-02 0.  1.
    10030    2    1    2    0    0  0.00000000000E+00  0.00000000000E+00 -0.91520541529E+03  0.28550760912E+04  0.27044146380E+04 0.  0.
        4    1    3    3  502    0 -0.94091301039E+03 -0.53592470481E+03 -0.13126168567E+04  0.17016160577E+04  0.12699999809E+01 0.  1.
       -4    1    3    3    0  502  0.94091301039E+03  0.53592470481E+03  0.39741144140E+03  0.11534600335E+04  0.12699999809E+01 0. -1.
</event>
<event>
 5   0  0.1878160E-05  0.2757813E+04  0.7818609E-02  0.8316487E-01
       -2   -1    0    0    0  501  0.00000000000E+00  0.00000000000E+00  0.94181517435E+03  0.94181517435E+03  0.25500000920E-02 0.  1.
        2   -1    0    0  501    0  0.00000000000E+00  0.00000000000E+00 -0.20188489405E+04  0.20188489405E+04  0.25500000920E-02 0. -1.
    10030    2    1    2    0    0  0.00000000000E+00  0.00000000000E+00 -0.10770337661E+04  0.29606641148E+04  0.27578125874E+04 0.  0.
        1    1    3    3  502    0  0.50582478443E+03 -0.38058760910E+03 -0.18536447876E+04  0.19587507855E+04  0.50400001928E-02 0. -1.
       -1    1    3    3    0  502 -0.50582478443E+03  0.38058760910E+03  0.77661102154E+03  0.10019133294E+04  0.50400001928E-02 0.  1.
</event>
<event>
 5   0  0.1931119E-05  0.2690018E+04  0.7818609E-02  0.8338251E-01
        2   -1    0    0  501    0  0.00000000000E+00  0.00000000000E+00  0.15106307212E+04  0.15106307212E+04  0.25500000920E-02 0. -1.
       -2   -1    0    0    0  501  0.00000000000E+00  0.00000000000E+00 -0.11975452788E+04  0.11975452788E+04  0.25500000920E-02 0.  1.
    10030    2    1    2    0    0  0.00000000000E+00  0.00000000000E+00  0.31308544245E+03  0.27081760000E+04  0.26900176120E+04 0.  0.
        3    1    3    3  502    0 -0.81957259299E+03  0.35948448633E+03 -0.85428688088E+03  0.12372285222E+04  0.10100000352E+00 0.  1.
       -3    1    3    3    0  502  0.81957259299E+03 -0.35948448633E+03  0.11673723233E+04  0.14709474778E+04  0.10100000352E+00 0. -1.
</event>
<event>
 5   0  0.7351590E-06  0.2741577E+04  0.7818609E-02  0.8321639E-01
        1   -1    0    0  501    0  0.00000000000E+00  0.00000000000E+00  0.16377571959E+04  0.16377571959E+04  0.50400001928E-02 0. -1.
       -1   -1    0    0    0  501  0.00000000000E+00  0.00000000000E+00 -0.11473381516E+04  0.11473381516E+04  0.50400001928E-02 0.  1.
    10030    2    1    2    0    0  0.00000000000E+00  0.00000000000E+00  0.49041904430E+03  0.27850953475E+04  0.27415771475E+04 0.  0.
        3    1    3    3  502    0  0.13195672357E+03 -0.12039941758E+04  0.89730748546E+03  0.15073736384E+04  0.10100000352E+00 0. -1.
       -3    1    3    3    0  502 -0.13195672357E+03  0.12039941758E+04 -0.40688844117E+03  0.12777217091E+04  0.10100000352E+00 0.  1.
</event>
<event>
 5   0  0.1881699E-05  0.2683173E+04  0.7818609E-02  0.8340485E-01
       -2   -1    0    0    0  501  0.00000000000E+00  0.00000000000E+00  0.76141121340E+03  0.76141121341E+03  0.25500000920E-02 0. -1.
        2   -1    0    0  501    0  0.00000000000E+00  0.00000000000E+00 -0.23638408813E+04  0.23638408813E+04  0.25500000920E-02 0.  1.
    10030    2    1    2    0    0  0.00000000000E+00  0.00000000000E+00 -0.16024296679E+04  0.31252520947E+04  0.26831734597E+04 0.  0.
        4    1    3    3  502    0  0.10663045472E+04 -0.66228004506E+03 -0.24966321798E+03  0.12798256056E+04  0.12699999809E+01 0. -1.
       -4    1    3    3    0  502 -0.10663045472E+04  0.66228004506E+03 -0.13527664499E+04  0.18454264890E+04  0.12699999809E+01 0.  1.
</event>
<event>
 5   0  0.7351590E-06  0.2568000E+04  0.7818609E-02  0.8379153E-01
        1   -1    0    0  501    0  0.00000000000E+00  0.00000000000E+00  0.20484111618E+04  0.20484111618E+04  0.50400001928E-02 0.  1.
       -1   -1    0    0    0  501  0.00000000000E+00  0.00000000000E+00 -0.80484631444E+03  0.80484631446E+03  0.50400001928E-02 0. -1.
    10030    2    1    2    0    0  0.00000000000E+00  0.00000000000E+00  0.12435648473E+04  0.28532574762E+04  0.25680001356E+04 0.  0.
        3    1    3    3  502    0  0.67826463058E+03 -0.29228331797E+03  0.17887797016E+04  0.19352532853E+04  0.10100000352E+00 0.  1.
       -3    1    3    3    0  502 -0.67826463058E+03  0.29228331797E+03 -0.54521485429E+03  0.91800419095E+03  0.10100000352E+00 0. -1.
</event>
<event>
 5   0  0.7351590E-06  0.1941800E+04  0.7818609E-02  0.8634325E-01
       -1   -1    0    0    0  501  0.00000000000E+00  0.00000000000E+00  0.55671244733E+03  0.55671244735E+03  0.50400001928E-02 0.  1.
        1   -1    0    0  501    0  0.00000000000E+00  0.00000000000E+00 -0.16932381633E+04  0.16932381633E+04  0.50400001928E-02 0. -1.
    10030    2    1    2    0    0  0.00000000000E+00  0.00000000000E+00 -0.11365257159E+04  0.22499506106E+04  0.19417999504E+04 0.  0.
        3    1    3    3  502    0 -0.11805449549E+03 -0.30507594166E+03 -0.16274622787E+04  0.16600125520E+04  0.10100000352E+00 0. -1.
       -3    1    3    3    0  502  0.11805449549E+03  0.30507594166E+03  0.49093656278E+03  0.58993805858E+03  0.10100000352E+00 0.  1.
</event>
<event>
 5   0  0.1826851E-05  0.2266768E+04  0.7818609E-02  0.8491140E-01
       -2   -1    0    0    0  501  0.00000000000E+00  0.00000000000E+00  0.12331314131E+04  0.12331314131E+04  0.25500000920E-02 0. -1.
        2   -1    0    0  501    0  0.00000000000E+00  0.00000000000E+00 -0.10417055282E+04  0.10417055282E+04  0.25500000920E-02 0.  1.
    10030    2    1    2    0    0  0.00000000000E+00  0.00000000000E+00  0.19142588493E+03  0.22748369413E+04  0.22667684575E+04 0.  0.
        5    1    3    3  502    0  0.30465132349E+03 -0.98021398808E+03 -0.38652409132E+03  0.10968385727E+04  0.46999998093E+01 0.  1.
       -5    1    3    3    0  502 -0.30465132349E+03  0.98021398808E+03  0.57794997625E+03  0.11779983686E+04  0.46999998093E+01 0. -1.
</event>
<event>
 5   0  0.7754912E-06  0.2722279E+04  0.7818609E-02  0.8327812E-01
        1   -1    0    0  501    0  0.00000000000E+00  0.00000000000E+00  0.20980225472E+04  0.20980225472E+04  0.50400001928E-02 0.  1.
       -1   -1    0    0    0  501  0.00000000000E+00  0.00000000000E+00 -0.88307014198E+03  0.88307014200E+03  0.50400001928E-02 0. -1.
    10030    2    1    2    0    0  0.00000000000E+00  0.00000000000E+00  0.12149524052E+04  0.29810926892E+04  0.27222792426E+04 0.  0.
        4    1    3    3  502    0  0.89916189331E+02  0.20528802013E+03 -0.86272574804E+03  0.89136155489E+03  0.12699999809E+01 0. -1.
       -4    1    3    3    0  502 -0.89916189331E+02 -0.20528802013E+03  0.20776781532E+04  0.20897311343E+04  0.12699999809E+01 0.  1.
</event>
<event>
 5   0  0.7351590E-06  0.2705551E+04  0.7818609E-02  0.8333206E-01
       -1   -1    0    0    0  501  0.00000000000E+00  0.00000000000E+00  0.11266922420E+04  0.11266922420E+04  0.50400001928E-02 0.  1.
        1   -1    0    0  501    0  0.00000000000E+00  0.00000000000E+00 -0.16242250999E+04  0.16242251000E+04  0.50400001928E-02 0. -1.
    10030    2    1    2    0    0  0.00000000000E+00  0.00000000000E+00 -0.49753285795E+03  0.27509173420E+04  0.27055511966E+04 0.  0.
        3    1    3    3  502    0 -0.42664848755E+03 -0.20166451067E+03  0.10402867622E+04  0.11423195983E+04  0.10100000352E+00 0.  1.
       -3    1    3    3    0  502  0.42664848755E+03  0.20166451067E+03 -0.15378196201E+04  0.16085977437E+04  0.10100000352E+00 0. -1.
</event>
<event>
 5   0  0.1788003E-05  0.2605845E+04  0.7818609E-02  0.8366219E-01
        2   -1    0    0  501    0  0.00000000000E+00  0.00000000000E+00  0.14459783405E+04  0.14459783405E+04  0.25500000920E-02 0. -1.
       -2   -1    0    0    0  501  0.00000000000E+00  0.00000000000E+00 -0.11740193966E+04  0.11740193966E+04  0.25500000920E-02 0.  1.
    10030    2    1    2    0    0  0.00000000000E+00  0.00000000000E+00  0.27195894393E+03  0.26199977371E+04  0.26058446759E+04 0.  0.
        2    1    3    3  502    0  0.40413203726E+03 -0.57870505487E+03  0.12370916959E+04  0.14242956534E+04  0.25500000920E-02 0. -1.
       -2    1    3    3    0  502 -0.40413203726E+03  0.57870505487E+03 -0.96513275197E+03  0.11957020837E+04  0.25500000920E-02 0.  1.
</event>
<event>
 5   0  0.7348964E-06  0.2663239E+04  0.7818609E-02  0.8347032E-01
       -1   -1    0    0    0  501  0.00000000000E+00  0.00000000000E+00  0.94921641647E+03  0.94921641649E+03  0.50400001928E-02 0. -1.
        1   -1    0    0  501    0  0.00000000000E+00  0.00000000000E+00 -0.18680781234E+04  0.18680781234E+04  0.50400001928E-02 0.  1.
    10030    2    1    2    0    0  0.00000000000E+00  0.00000000000E+00 -0.91886170695E+03  0.28172945399E+04  0.26632389469E+04 0.  0.
        1    1    3    3  502    0  0.39268054403E+02 -0.41285535559E+03  0.87915883064E+03  0.97206572528E+03  0.50400001928E-02 0. -1.
       -1    1    3    3    0  502 -0.39268054403E+02  0.41285535559E+03 -0.17980205376E+04  0.18452288146E+04  0.50400001928E-02 0.  1.
</event>
<event>
 5   0  0.1878160E-05  0.2665334E+04  0.7818609E-02  0.8346341E-01
       -2   -1    0    0    0  501  0.00000000000E+00  0.00000000000E+00  0.99763141401E+03  0.99763141401E+03  0.25500000920E-02 0.  1.
        2   -1    0    0  501    0  0.00000000000E+00  0.00000000000E+00 -0.17802179627E+04  0.17802179627E+04  0.25500000920E-02 0. -1.
    10030    2    1    2    0    0  0.00000000000E+00  0.00000000000E+00 -0.78258654870E+03  0.27778493767E+04  0.26653340229E+04 0.  0.
        1    1    3    3  502    0  0.59154303276E+03  0.11249958688E+04  0.26194561245E+02  0.12713083888E+04  0.50400001928E-02 0.  1.
       -1    1    3    3    0  502 -0.59154303276E+03 -0.11249958688E+04 -0.80878110994E+03  0.15065409879E+04  0.50400001928E-02 0. -1.
</event>
<event>
 5   0  0.6804685E-06  0.2644931E+04  0.7818609E-02  0.8353097E-01
        1   -1    0    0  501    0  0.00000000000E+00  0.00000000000E+00  0.13178761863E+04  0.13178761863E+04  0.50400001928E-02 0.  1.
       -1   -1    0    0    0  501  0.00000000000E+00  0.00000000000E+00 -0.13270712031E+04  0.13270712031E+04  0.50400001928E-02 0. -1.
    10030    2    1    2    0    0  0.00000000000E+00  0.00000000000E+00 -0.91950168155E+01  0.26449473894E+04  0.26449314064E+04 0.  0.
        2    1    3    3  502    0  0.13857069616E+03 -0.63133093633E+03  0.11491576801E+04  0.13184627271E+04  0.25500000920E-02 0.  1.
       -2    1    3    3    0  502 -0.13857069616E+03  0.63133093633E+03 -0.11583526969E+04  0.13264846623E+04  0.25500000920E-02 0. -1.
</event>
<event>
 5   0  0.7754912E-06  0.2691007E+04  0.7818609E-02  0.8337929E-01
       -1   -1    0    0    0  501  0.00000000000E+00  0.00000000000E+00  0.16201830614E+04  0.16201830614E+04  0.50400001928E-02 0.  1.
        1   -1    0    0  501    0  0.00000000000E+00  0.00000000000E+00 -0.11173919089E+04  0.11173919089E+04  0.50400001928E-02 0. -1.
    10030    2    1    2    0    0  0.00000000000E+00  0.00000000000E+00  0.50279115257E+03  0.27375749703E+04  0.26910068330E+04 0.  0.
        4    1    3    3  502    0  0.49618958394E+03  0.11497963426E+04  0.75199041960E+03  0.14607282214E+04  0.12699999809E+01 0.  1.
       -4    1    3    3    0  502 -0.49618958394E+03 -0.11497963426E+04 -0.24919926703E+03  0.12768467489E+04  0.12699999809E+01 0. -1.
</event>
<event>
 5   0  0.1931119E-05  0.2418821E+04  0.7818609E-02  0.8432491E-01
        2   -1    0    0  501    0  0.00000000000E+00  0.00000000000E+00  0.13720937842E+04  0.13720937842E+04  0.25500000920E-02 0.  1.
       -2   -1    0    0    0  501  0.00000000000E+00  0.00000000000E+00 -0.10660160962E+04  0.10660160963E+04  0.25500000920E-02 0. -1.
    10030    2    1    2    0    0  0.00000000000E+00  0.00000000000E+00  0.30607768796E+03  0.24381098805E+04  0.24188212497E+04 0.  0.
        3    1    3    3  502    0  0.77394738798E+03 -0.81440720281E+03 -0.29821452705E+03  0.11624050781E+04  0.10100000352E+00 0. -1.
       -3    1    3    3    0  502 -0.77394738798E+03  0.81440720281E+03  0.60429221501E+03  0.12757048023E+04  0.10100000352E+00 0.  1.
</event>
<event>
 5   0  0.7351590E-06  0.2738456E+04  0.7818609E-02  0.8322634E-01
       -1   -1    0    0    0  501  0.00000000000E+00  0.00000000000E+00  0.15031858429E+04  0.15031858430E+04  0.50400001928E-02 0. -1.
        1   -1    0    0  501    0  0.00000000000E+00  0.00000000000E+00 -0.12472082934E+04  0.12472082934E+04  0.50400001928E-02 0.  1.
    10030    2    1    2    0    0  0.00000000000E+00  0.00000000000E+00  0.25597754954E+03  0.27503941364E+04  0.27384563899E+04 0.  0.
        3    1    3    3  502    0  0.86331233063E+03  0.94769747625E+03  0.61107113995E+03  0.14201572571E+04  0.10100000352E+00 0. -1.
       -3    1    3    3    0  502 -0.86331233063E+03 -0.94769747625E+03 -0.35509359041E+03  0.13302368792E+04  0.10100000352E+00 0.  1.
</event>
<event>
 5   0  0.1788003E-05  0.2547732E+04  0.7818609E-02  0.8386175E-01
       -2   -1    0    0    0  501  0.00000000000E+00  0.00000000000E+00  0.73138091997E+03  0.73138091997E+03  0.25500000920E-02 0.  1.
        2   -1    0    0  501    0  0.00000000000E+00  0.00000000000E+00 -0.22187272696E+04  0.22187272696E+04  0.25500000920E-02 0. -1.
    10030    2    1    2    0    0  0.00000000000E+00  0.00000000000E+00 -0.14873463496E+04  0.29501081896E+04  0.25477321614E+04 0.  0.
        2    1    3    3  502    0 -0.72709779088E+03  0.14703915292E+03  0.45547071726E+03  0.87048566002E+03  0.25500000920E-02 0.  1.
       -2    1    3    3    0  502  0.72709779088E+03 -0.14703915292E+03 -0.19428170669E+04  0.20796225296E+04  0.25500000920E-02 0. -1.
</event>
<event>
 5   0  0.1931119E-05  0.2762446E+04  0.7818609E-02  0.8315023E-01
        2   -1    0    0  501    0  0.00000000000E+00  0.00000000000E+00  0.26725834417E+04  0.26725834417E+04  0.25500000920E-02 0.  1.
       -2   -1    0    0    0  501  0.00000000000E+00  0.00000000000E+00 -0.71383253784E+03  0.71383253784E+03  0.25500000920E-02 0. -1.
    10030    2    1    2    0    0  0.00000000000E+00  0.00000000000E+00  0.19587509039E+04  0.33864159795E+04  0.27624460326E+04 0.  0.
        3    1    3    3  502    0  0.45991345498E+03 -0.12281946556E+04  0.15106120063E+04  0.20004827272E+04  0.10100000352E+00 0.  1.
       -3    1    3    3    0  502 -0.45991345498E+03  0.12281946556E+04  0.44813889761E+03  0.13859332523E+04  0.10100000352E+00 0. -1.
</event>
<event>
 5   0  0.1788003E-05  0.2751208E+04  0.7818609E-02  0.8318578E-01
        2   -1    0    0  501    0  0.00000000000E+00  0.00000000000E+00  0.24005694123E+04  0.24005694124E+04  0.25500000920E-02 0. -1.
       -2   -1    0    0    0  501  0.00000000000E+00  0.00000000000E+00 -0.78826585430E+03  0.78826585430E+03  0.25500000920E-02 0.  1.
    10030    2    1    2    0    0  0.00000000000E+00  0.00000000000E+00  0.16123035581E+04  0.31888352667E+04  0.27512083881E+04 0.  0.
        2    1    3    3  502    0 -0.94023869301E+03 -0.60255972525E+03 -0.12483233949E+03  0.11237037578E+04  0.25500000920E-02 0.  1.
       -2    1    3    3    0  502  0.94023869301E+03  0.60255972525E+03  0.17371358975E+04  0.20651315088E+04  0.25500000920E-02 0. -1.
</event>
<event>
 5   0  0.1788003E-05  0.2637355E+04  0.7818609E-02  0.8355622E-01
       -2   -1    0    0    0  501  0.00000000000E+00  0.00000000000E+00  0.82622567938E+03  0.82622567938E+03  0.25500000920E-02 0.  1.
        2   -1    0    0  501    0  0.00000000000E+00  0.00000000000E+00 -0.21046427495E+04  0.21046427495E+04  0.25500000920E-02 0. -1.
    10030    2    1    2    0    0  0.00000000000E+00  0.00000000000E+00 -0.12784170701E+04  0.29308684289E+04  0.26373546486E+04 0.  0.
        2    1    3    3  502    0  0.96808068770E+03 -0.47419689650E+03 -0.14832535822E+04  0.18335986757E+04  0.25500000920E-02 0.  1.
       -2    1    3    3    0  502 -0.96808068770E+03  0.47419689650E+03  0.20483651205E+03  0.10972697532E+04  0.25500000920E-02 0. -1.
</event>
<event>
 5   0  0.7600052E-06  0.2727583E+04  0.7818609E-02  0.8326110E-01
       -1   -1    0    0    0  501  0.00000000000E+00  0.00000000000E+00  0.91813254186E+03  0.91813254187E+03  0.50400001928E-02 0. -1.
        1   -1    0    0  501    0  0.00000000000E+00  0.00000000000E+00 -0.20257715280E+04  0.20257715281E+04  0.50400001928E-02 0.  1.
    10030    2    1    2    0    0  0.00000000000E+00  0.00000000000E+00 -0.11076389862E+04  0.29439040699E+04  0.27275826384E+04 0.  0.
        5    1    3    3  502    0 -0.29534379228E+03 -0.77430127960E+03 -0.17228331716E+04  0.19117914777E+04  0.46999998093E+01 0.  1.
       -5    1    3    3    0  502  0.29534379228E+03  0.77430127960E+03  0.61519418539E+03  0.10321125922E+04  0.46999998093E+01 0. -1.
</event>
<event>
 5   0  0.7348964E-06  0.2236157E+04  0.7818609E-02  0.8503528E-01
        1   -1    0    0  501    0  0.00000000000E+00  0.00000000000E+00  0.11121066084E+04  0.11121066084E+04  0.50400001928E-02 0.  1.
       -1   -1    0    0    0  501  0.00000000000E+00  0.00000000000E+00 -0.11240823871E+04  0.11240823871E+04  0.50400001928E-02 0. -1.
    10030    2    1    2    0    0  0.00000000000E+00  0.00000000000E+00 -0.11975778751E+02  0.22361889955E+04  0.22361569275E+04 0.  0.
        1    1    3    3  502    0 -0.24030802723E+03  0.97907346709E+03  0.47751325226E+03  0.11155051358E+04  0.50400001928E-02 0.  1.
       -1    1    3    3    0  502  0.24030802723E+03 -0.97907346709E+03 -0.48948903101E+03  0.11206838597E+04  0.50400001928E-02 0. -1.
</event>
<event>
 5   0  0.1788003E-05  0.2684222E+04  0.7818609E-02  0.8340143E-01
        2   -1    0    0  501    0  0.00000000000E+00  0.00000000000E+00  0.16447526619E+04  0.16447526619E+04  0.25500000920E-02 0. -1.
       -2   -1    0    0    0  501  0.00000000000E+00  0.00000000000E+00 -0.10951566997E+04  0.10951566997E+04  0.25500000920E-02 0.  1.
    10030    2    1    2    0    0  0.00000000000E+00  0.00000000000E+00  0.54959596226E+03  0.27399093616E+04  0.26842219707E+04 0.  0.
        2    1    3    3  502    0  0.62850192324E+03  0.10411941827E+04 -0.30457049428E+03  0.12537396778E+04  0.25500000920E-02 0.  1.
       -2    1    3    3    0  502 -0.62850192324E+03 -0.10411941827E+04  0.85416645654E+03  0.14861696838E+04  0.25500000920E-02 0. -1.
</event>
<event>
 5   0  0.1788003E-05  0.2671889E+04  0.7818609E-02  0.8344184E-01
        2   -1    0    0  501    0  0.00000000000E+00  0.00000000000E+00  0.21329942749E+04  0.21329942749E+04  0.25500000920E-02 0.  1.
       -2   -1    0    0    0  501  0.00000000000E+00  0.00000000000E+00 -0.83673360690E+03  0.83673360690E+03  0.25500000920E-02 0. -1.
    10030    2    1    2    0    0  0.00000000000E+00  0.00000000000E+00  0.12962606680E+04  0.29697278818E+04  0.26718892141E+04 0.  0.
        2    1    3    3  502    0 -0.76685217789E+02 -0.11398905336E+04 -0.12153191883E+03  0.11489129899E+04  0.25500000920E-02 0. -1.
       -2    1    3    3    0  502  0.76685217789E+02  0.11398905336E+04  0.14177925868E+04  0.18208148919E+04  0.25500000920E-02 0.  1.
</event>
<event>
 5   0  0.1931119E-05  0.2688040E+04  0.7818609E-02  0.8338896E-01
        2   -1    0    0  501    0  0.00000000000E+00  0.00000000000E+00  0.19095983242E+04  0.19095983242E+04  0.25500000920E-02 0.  1.
       -2   -1    0    0    0  501  0.00000000000E+00  0.00000000000E+00 -0.94595308676E+03  0.94595308676E+03  0.25500000920E-02 0. -1.
    10030    2    1    2    0    0  0.00000000000E+00  0.00000000000E+00  0.96364523740E+03  0.28555514109E+04  0.26880404976E+04 0.  0.
        3    1    3    3  502    0 -0.87235210892E+03  0.47602711910E+03  0.14430819017E+04  0.17521659183E+04  0.10100000352E+00 0.  1.
       -3    1    3    3    0  502  0.87235210892E+03 -0.47602711910E+03 -0.47943666429E+03  0.11033854926E+04  0.10100000352E+00 0. -1.
</event>
<event>
 5   0  0.6804685E-06  0.2666606E+04  0.7818609E-02  0.8345922E-01
        1   -1    0    0  501    0  0.00000000000E+00  0.00000000000E+00  0.21446119001E+04  0.21446119001E+04  0.50400001928E-02 0.  1.
       -1   -1    0    0    0  501  0.00000000000E+00  0.00000000000E+00 -0.82891303241E+03  0.82891303242E+03  0.50400001928E-02 0. -1.
    10030    2    1    2    0    0  0.00000000000E+00  0.00000000000E+00  0.13156988677E+04  0.29735249326E+04  0.26666058978E+04 0.  0.
        2    1    3    3  502    0 -0.10724973177E+04  0.75396718645E+03  0.92865910615E+03  0.16065879217E+04  0.25500000920E-02 0.  1.
       -2    1    3    3    0  502  0.10724973177E+04 -0.75396718645E+03  0.38703976158E+03  0.13669370109E+04  0.25500000920E-02 0. -1.
</event>
<event>
 5   0  0.7348964E-06  0.2745051E+04  0.7818609E-02  0.8320534E-01
        1   -1    0    0  501    0  0.00000000000E+00  0.00000000000E+00  0.19169392901E+04  0.19169392901E+04  0.50400001928E-02 0.  1.
       -1   -1    0    0    0  501  0.00000000000E+00  0.00000000000E+00 -0.98272640006E+03  0.98272640008E+03  0.50400001928E-02 0. -1.
    10030    2    1    2    0    0  0.00000000000E+00  0.00000000000E+00  0.93421289004E+03  0.28996656902E+04  0.27450514368E+04 0.  0.
        1    1    3    3  502    0  0.12890443817E+03 -0.10944410594E+04  0.13313642322E+04  0.17282790011E+04  0.50400001928E-02 0.  1.
       -1    1    3    3    0  502 -0.12890443817E+03  0.10944410594E+04 -0.39715134217E+03  0.11713866891E+04  0.50400001928E-02 0. -1.
</event>
<event>
 5   0  0.1788003E-05  0.2701073E+04  0.7818609E-02  0.8334657E-01
        2   -1    0    0  501    0  0.00000000000E+00  0.00000000000E+00  0.19970475641E+04  0.19970475642E+04  0.25500000920E-02 0. -1.
       -2   -1    0    0    0  501  0.00000000000E+00  0.00000000000E+00 -0.91332284214E+03  0.91332284215E+03  0.25500000920E-02 0.  1.
    10030    2    1    2    0    0  0.00000000000E+00  0.00000000000E+00  0.10837247220E+04  0.29103704063E+04  0.27010732365E+04 0.  0.
        2    1    3    3  502    0 -0.24813283955E+03 -0.54529486987E+03  0.18460364678E+04  0.19408160762E+04  0.25500000920E-02 0. -1.
       -2    1    3    3    0  502  0.24813283955E+03  0.54529486987E+03 -0.76231174581E+03  0.96955433008E+03  0.25500000920E-02 0.  1.
</event>
<event>
 5   0  0.1826851E-05  0.2707217E+04  0.7818609E-02  0.8332667E-01
       -2   -1    0    0    0  501  0.00000000000E+00  0.00000000000E+00  0.22746624343E+04  0.22746624343E+04  0.25500000920E-02 0. -1.
        2   -1    0    0  501    0  0.00000000000E+00  0.00000000000E+00 -0.80550685095E+03  0.80550685095E+03  0.25500000920E-02 0.  1.
    10030    2    1    2    0    0  0.00000000000E+00  0.00000000000E+00  0.14691555834E+04  0.30801692853E+04  0.27072171501E+04 0.  0.
        5    1    3    3  502    0 -0.40220312304E+03 -0.32551378530E+03 -0.68853826611E+03  0.86129763177E+03  0.46999998093E+01 0.  1.
       -5    1    3    3    0  502  0.40220312304E+03  0.32551378530E+03  0.21576938495E+04  0.22188716535E+04  0.46999998093E+01 0. -1.
</event>
<event>
 5   0  0.6804685E-06  0.2750334E+04  0.7818609E-02  0.8318856E-01
       -1   -1    0    0    0  501  0.00000000000E+00  0.00000000000E+00  0.54470048553E+03  0.54470048555E+03  0.50400001928E-02 0. -1.
        1   -1    0    0  501    0  0.00000000000E+00  0.00000000000E+00 -0.34717879351E+04  0.34717879351E+04  0.50400001928E-02 0.  1.
    10030    2    1    2    0    0  0.00000000000E+00  0.00000000000E+00 -0.29270874495E+04  0.40164884206E+04  0.27503342153E+04 0.  0.
        2    1    3    3  502    0 -0.10435398780E+04 -0.79095555290E+03 -0.20770675699E+04  0.24553606362E+04  0.25500000920E-02 0.  1.
       -2    1    3    3    0  502  0.10435398780E+04  0.79095555290E+03 -0.85001987963E+03  0.15611277845E+04  0.25500000920E-02 0. -1.
</event>
<event>
 5   0  0.7600052E-06  0.2675908E+04  0.7818609E-02  0.8342865E-01
       -1   -1    0    0    0  501  0.00000000000E+00  0.00000000000E+00  0.12975447197E+04  0.12975447197E+04  0.50400001928E-02 0. -1.
        1   -1    0    0  501    0  0.00000000000E+00  0.00000000000E+00 -0.13796216232E+04  0.13796216232E+04  0.50400001928E-02 0.  1.
    10030    2    1    2    0    0  0.00000000000E+00  0.00000000000E+00 -0.82076903548E+02  0.26771663429E+04  0.26759078851E+04 0.  0.
        5    1    3    3  502    0  0.28467760383E+03  0.61336720497E+03  0.11139905248E+04  0.13031721473E+04  0.46999998093E+01 0. -1.
       -5    1    3    3    0  502 -0.28467760383E+03 -0.61336720497E+03 -0.11960674283E+04  0.13739941955E+04  0.46999998093E+01 0.  1.
</event>
<event>
 5   0  0.1881699E-05  0.2698588E+04  0.7818609E-02  0.8335463E-01
        2   -1    0    0  501    0  0.00000000000E+00  0.00000000000E+00  0.16189921733E+04  0.16189921733E+04  0.25500000920E-02 0.  1.
       -2   -1    0    0    0  501  0.00000000000E+00  0.00000000000E+00 -0.11245232627E+04  0.11245232627E+04  0.25500000920E-02 0. -1.
    10030    2    1    2    0    0  0.00000000000E+00  0.00000000000E+00  0.49446891055E+03  0.27435154360E+04  0.26985880464E+04 0.  0.
        4    1    3    3  502    0  0.10510922952E+03 -0.89711384182E+03 -0.77181634958E+03  0.11880922884E+04  0.12699999809E+01 0. -1.
       -4    1    3    3    0  502 -0.10510922952E+03  0.89711384182E+03  0.12662852601E+04  0.15554231476E+04  0.12699999809E+01 0.  1.
</event>
<event>
 5   0  0.7351590E-06  0.2716460E+04  0.7818609E-02  0.8329684E-01
       -1   -1    0    0    0  501  0.00000000000E+00  0.00000000000E+00  0.72963361616E+03  0.72963361618E+03  0.50400001928E-02 0.  1.
        1   -1    0    0  501    0  0.00000000000E+00  0.00000000000E+00 -0.25283777175E+04  0.25283777175E+04  0.50400001928E-02 0. -1.
    10030    2    1    2    0    0  0.00000000000E+00  0.00000000000E+00 -0.17987441013E+04  0.32580113337E+04  0.27164604743E+04 0.  0.
        3    1    3    3  502    0 -0.95166864243E+03 -0.15667261873E+03 -0.20463567941E+04  0.22622545510E+04  0.10100000352E+00 0. -1.
       -3    1    3    3    0  502  0.95166864243E+03  0.15667261873E+03  0.24761269279E+03  0.99575678269E+03  0.10100000352E+00 0.  1.
</event>
<event>
 5   0  0.6804685E-06  0.2683574E+04  0.7818609E-02  0.8340354E-01
        1   -1    0    0  501    0  0.00000000000E+00  0.00000000000E+00  0.16898003967E+04  0.16898003968E+04  0.50400001928E-02 0.  1.
       -1   -1    0    0    0  501  0.00000000000E+00  0.00000000000E+00 -0.10654468626E+04  0.10654468626E+04  0.50400001928E-02 0. -1.
    10030    2    1    2    0    0  0.00000000000E+00  0.00000000000E+00  0.62435353417E+03  0.27552472593E+04  0.26835741325E+04 0.  0.
        2    1    3    3  502    0  0.31616444609E+03 -0.56577578572E+03 -0.89407648777E+03  0.11042802917E+04  0.25500000920E-02 0. -1.
       -2    1    3    3    0  502 -0.31616444609E+03  0.56577578572E+03  0.15184300219E+04  0.16509669676E+04  0.25500000920E-02 0.  1.
</event>
<event>
 5   0  0.1788003E-05  0.2168086E+04  0.7818609E-02  0.8531830E-01
       -2   -1    0    0    0  501  0.00000000000E+00  0.00000000000E+00  0.11017362658E+04  0.11017362658E+04  0.25500000920E-02 0. -1.
        2   -1    0    0  501    0  0.00000000000E+00  0.00000000000E+00 -0.10666335901E+04  0.10666335901E+04  0.25500000920E-02 0.  1.
    10030    2    1    2    0    0  0.00000000000E+00  0.00000000000E+00  0.35102675681E+02  0.21683698559E+04  0.21680857073E+04 0.  0.
        2    1    3    3  502    0  0.59581055985E+03  0.62807461534E+03 -0.63497647718E+03  0.10736214753E+04  0.25500000920E-02 0.  1.
       -2    1    3    3    0  502 -0.59581055985E+03 -0.62807461534E+03  0.67007915286E+03  0.10947483806E+04  0.25500000920E-02 0. -1.
</event>
<event>
 5   0  0.1826851E-05  0.2719665E+04  0.7818609E-02  0.8328652E-01
       -2   -1    0    0    0  501  0.00000000000E+00  0.00000000000E+00  0.12456013615E+04  0.12456013615E+04  0.25500000920E-02 0. -1.
        2   -1    0    0  501    0  0.00000000000E+00  0.00000000000E+00 -0.14845396750E+04  0.14845396750E+04  0.25500000920E-02 0.  1.
    10030    2    1    2    0    0  0.00000000000E+00  0.00000000000E+00 -0.23893831349E+03  0.27301410365E+04  0.27196651562E+04 0.  0.
        5    1    3    3  502    0 -0.76896638238E+03  0.28042396371E+02  0.10060215867E+04  0.12665690649E+04  0.46999998093E+01 0. -1.
       -5    1    3    3    0  502  0.76896638238E+03 -0.28042396371E+02 -0.12449599002E+04  0.14635719717E+04  0.46999998093E+01 0.  1.
</event>
<event>
 5   0  0.7754912E-06  0.2661149E+04  0.7818609E-02  0.8347722E-01
       -1   -1    0    0    0  501  0.00000000000E+00  0.00000000000E+00  0.21113581534E+04  0.21113581534E+04  0.50400001928E-02 0. -1.
        1   -1    0    0  501    0  0.00000000000E+00  0.00000000000E+00 -0.83852580736E+03  0.83852580737E+03  0.50400001928E-02 0.  1.
    10030    2    1    2    0    0  0.00000000000E+00  0.00000000000E+00  0.12728323461E+04  0.29498839608E+04  0.26611488498E+04 0.  0.
        4    1    3    3  502    0  0.12287038545E+04 -0.20641387172E+03  0.11541069252E+04  0.16983180669E+04  0.12699999809E+01 0. -1.
       -4    1    3    3    0  502 -0.12287038545E+04  0.20641387172E+03  0.11872542084E+03  0.12515658939E+04  0.12699999809E+01 0.  1.
</event>
<event>
 5   0  0.1826851E-05  0.2678070E+04  0.7818609E-02  0.8342156E-01
        2   -1    0    0  501    0  0.00000000000E+00  0.00000000000E+00  0.16264787152E+04  0.16264787152E+04  0.25500000920E-02 0. -1.
       -2   -1    0    0    0  501  0.00000000000E+00  0.00000000000E+00 -0.11023908447E+04  0.11023908447E+04  0.25500000920E-02 0.  1.
    10030    2    1    2    0    0  0.00000000000E+00  0.00000000000E+00  0.52408787049E+03  0.27288695599E+04  0.26780703835E+04 0.  0.
        5    1    3    3  502    0  0.40816056118E+03 -0.46151830114E+03  0.14734595721E+04  0.15970909137E+04  0.46999998093E+01 0. -1.
       -5    1    3    3    0  502 -0.40816056118E+03  0.46151830114E+03 -0.94937170165E+03  0.11317786462E+04  0.46999998093E+01 0.  1.
</event>
<event>
 5   0  0.7351590E-06  0.2684639E+04  0.7818609E-02  0.8340006E-01
       -1   -1    0    0    0  501  0.00000000000E+00  0.00000000000E+00  0.12887276915E+04  0.12887276915E+04  0.50400001928E-02 0. -1.
        1   -1    0    0  501    0  0.00000000000E+00  0.00000000000E+00 -0.13981398962E+04  0.13981398962E+04  0.50400001928E-02 0.  1.
    10030    2    1    2    0    0  0.00000000000E+00  0.00000000000E+00 -0.10941220470E+03  0.26868675878E+04  0.26846389708E+04 0.  0.
        3    1    3    3  502    0  0.88752012328E+03 -0.32776227796E+03  0.89829311464E+03  0.13046266171E+04  0.10100000352E+00 0. -1.
       -3    1    3    3    0  502 -0.88752012328E+03  0.32776227796E+03 -0.10077053193E+04  0.13822409706E+04  0.10100000352E+00 0.  1.
</event>
<event>
 5   0  0.1788003E-05  0.2208743E+04  0.7818609E-02  0.8514798E-01
       -2   -1    0    0    0  501  0.00000000000E+00  0.00000000000E+00  0.82755827417E+03  0.82755827417E+03  0.25500000920E-02 0.  1.
        2   -1    0    0  501    0  0.00000000000E+00  0.00000000000E+00 -0.14737774411E+04  0.14737774411E+04  0.25500000920E-02 0. -1.
    10030    2    1    2    0    0  0.00000000000E+00  0.00000000000E+00 -0.64621916693E+03  0.23013357153E+04  0.22087432768E+04 0.  0.
        2    1    3    3  502    0 -0.62886579881E+03  0.43506544117E+03 -0.11533071270E+04  0.13837888062E+04  0.25500000920E-02 0. -1.
       -2    1    3    3    0  502  0.62886579881E+03 -0.43506544117E+03  0.50708796009E+03  0.91754690904E+03  0.25500000920E-02 0.  1.
</event>
<event>
 5   0  0.1931119E-05  0.2698682E+04  0.7818609E-02  0.8335433E-01
       -2   -1    0    0    0  501  0.00000000000E+00  0.00000000000E+00  0.11393499153E+04  0.11393499153E+04  0.25500000920E-02 0. -1.
        2   -1    0    0  501    0  0.00000000000E+00  0.00000000000E+00 -0.15980348884E+04  0.15980348884E+04  0.25500000920E-02 0.  1.
    10030    2    1    2    0    0  0.00000000000E+00  0.00000000000E+00 -0.45868497309E+03  0.27373848037E+04  0.26986818373E+04 0.  0.
        3    1    3    3  502    0  0.14675430250E+03 -0.83887717825E+03 -0.12909995253E+04  0.15465870587E+04  0.10100000352E+00 0.  1.
       -3    1    3    3    0  502 -0.14675430250E+03  0.83887717825E+03  0.83231455223E+03  0.11907977450E+04  0.10100000352E+00 0. -1.
</event>
<event>
 5   0  0.1878160E-05  0.2727349E+04  0.7818609E-02  0.8326185E-01
        2   -1    0    0  501    0  0.00000000000E+00  0.00000000000E+00  0.16222027560E+04  0.16222027560E+04  0.25500000920E-02 0. -1.
       -2   -1    0    0    0  501  0.00000000000E+00  0.00000000000E+00 -0.11463479407E+04  0.11463479407E+04  0.25500000920E-02 0.  1.
    10030    2    1    2    0    0  0.00000000000E+00  0.00000000000E+00  0.47585481525E+03  0.27685506967E+04  0.27273494743E+04 0.  0.
        1    1    3    3  502    0  0.11278377291E+04  0.70733508470E+03  0.53780154474E+03  0.14358173166E+04  0.50400001928E-02 0.  1.
       -1    1    3    3    0  502 -0.11278377291E+04 -0.70733508470E+03 -0.61946729490E+02  0.13327333801E+04  0.50400001928E-02 0. -1.
</event>
<event>
 5   0  0.7348964E-06  0.2564680E+04  0.7818609E-02  0.8380298E-01
        1   -1    0    0  501    0  0.00000000000E+00  0.00000000000E+00  0.17987477350E+04  0.17987477350E+04  0.50400001928E-02 0. -1.
       -1   -1    0    0    0  501  0.00000000000E+00  0.00000000000E+00 -0.91418962363E+03  0.91418962364E+03  0.50400001928E-02 0.  1.
    10030    2    1    2    0    0  0.00000000000E+00  0.00000000000E+00  0.88455811141E+03  0.27129373587E+04  0.25646804986E+04 0.  0.
        1    1    3    3  502    0 -0.91883188755E+02  0.12034032426E+04  0.90065831058E+03  0.15059240609E+04  0.50400001928E-02 0. -1.
       -1    1    3    3    0  502  0.91883188755E+02 -0.12034032426E+04 -0.16100199171E+02  0.12070132978E+04  0.50400001928E-02 0.  1.
</event>
<event>
 5   0  0.1931119E-05  0.2696518E+04  0.7818609E-02  0.8336136E-01
        2   -1    0    0  501    0  0.00000000000E+00  0.00000000000E+00  0.13882275644E+04  0.13882275644E+04  0.25500000920E-02 0.  1.
       -2   -1    0    0    0  501  0.00000000000E+00  0.00000000000E+00 -0.13094411274E+04  0.13094411274E+04  0.25500000920E-02 0. -1.
    10030    2    1    2    0    0  0.00000000000E+00  0.00000000000E+00  0.78786437089E+02  0.26976686918E+04  0.26965179525E+04 0.  0.
        3    1    3    3  502    0 -0.89428956859E+03  0.63442169820E+03 -0.74551634553E+03  0.13259107644E+04  0.10100000352E+00 0. -1.
       -3    1    3    3    0  502  0.89428956859E+03 -0.63442169820E+03  0.82430278261E+03  0.13717579274E+04  0.10100000352E+00 0.  1.
</event>
<event>
 5   0  0.7754912E-06  0.2230369E+04  0.7818609E-02  0.8505893E-01
        1   -1    0    0  501    0  0.00000000000E+00  0.00000000000E+00  0.87713429753E+03  0.87713429754E+03  0.50400001928E-02 0. -1.
       -1   -1    0    0    0  501  0.00000000000E+00  0.00000000000E+00 -0.14178400189E+04  0.14178400189E+04  0.50400001928E-02 0.  1.
    10030    2    1    2    0    0  0.00000000000E+00  0.00000000000E+00 -0.54070572138E+03  0.22949743165E+04  0.22303686772E+04 0.  0.
        4    1    3    3  502    0  0.26979971793E+03 -0.80228071700E+03  0.47675625821E+03  0.97146506849E+03  0.12699999809E+01 0. -1.
       -4    1    3    3    0  502 -0.26979971793E+03  0.80228071700E+03 -0.10174619796E+04  0.13235092480E+04  0.12699999809E+01 0.  1.
</event>
<event>
 5   0  0.1826851E-05  0.2613683E+04  0.7818609E-02  0.8363568E-01
       -2   -1    0    0    0  501  0.00000000000E+00  0.00000000000E+00  0.11234256953E+04  0.11234256953E+04  0.25500000920E-02 0. -1.
        2   -1    0    0  501    0  0.00000000000E+00  0.00000000000E+00 -0.15202027410E+04  0.15202027410E+04  0.25500000920E-02 0.  1.
    10030    2    1    2    0    0  0.00000000000E+00  0.00000000000E+00 -0.39677704565E+03  0.26436284363E+04  0.26136830881E+04 0.  0.
        5    1    3    3  502    0 -0.10307626482E+04 -0.76159367900E+03 -0.45688689795E+03  0.13606117361E+04  0.46999998093E+01 0.  1.
       -5    1    3    3    0  502  0.10307626482E+04  0.76159367900E+03  0.60109852296E+02  0.12830167002E+04  0.46999998093E+01 0. -1.
</event>
<event>
 5   0  0.7754912E-06  0.2728039E+04  0.7818609E-02  0.8325964E-01
        1   -1    0    0  501    0  0.00000000000E+00  0.00000000000E+00  0.14968736479E+04  0.14968736479E+04  0.50400001928E-02 0. -1.
       -1   -1    0    0    0  501  0.00000000000E+00  0.00000000000E+00 -0.12429568524E+04  0.12429568524E+04  0.50400001928E-02 0.  1.
    10030    2    1    2    0    0  0.00000000000E+00  0.00000000000E+00  0.25391679553E+03  0.27398305003E+04  0.27280391184E+04 0.  0.
        4    1    3    3  502    0 -0.23354775166E+03 -0.80371196643E+03  0.12086700470E+04  0.14701640632E+04  0.12699999809E+01 0. -1.
       -4    1    3    3    0  502  0.23354775166E+03  0.80371196643E+03 -0.95475325150E+03  0.12696664371E+04  0.12699999809E+01 0.  1.
</event>
<event>
 5   0  0.7600052E-06  0.2692983E+04  0.7818609E-02  0.8337285E-01
       -1   -1    0    0    0  501  0.00000000000E+00  0.00000000000E+00  0.10106082421E+04  0.10106082421E+04  0.50400001928E-02 0. -1.
        1   -1    0    0  501    0  0.00000000000E+00  0.00000000000E+00 -0.17940081262E+04  0.17940081262E+04  0.50400001928E-02 0.  1.
    10030    2    1    2    0    0  0.00000000000E+00  0.00000000000E+00 -0.78339988416E+03  0.28046163683E+04  0.26929830290E+04 0.  0.
        5    1    3    3  502    0 -0.75713420304E+03  0.74672191012E+03 -0.12518745779E+04  0.16425765922E+04  0.46999998093E+01 0.  1.
       -5    1    3    3    0  502  0.75713420304E+03 -0.74672191012E+03  0.46847469376E+03  0.11620397761E+04  0.46999998093E+01 0. -1.
</event>
<event>
 5   0  0.1878160E-05  0.2641455E+04  0.7818609E-02  0.8354255E-01
       -2   -1    0    0    0  501  0.00000000000E+00  0.00000000000E+00  0.10593493797E+04  0.10593493797E+04  0.25500000920E-02 0. -1.
        2   -1    0    0  501    0  0.00000000000E+00  0.00000000000E+00 -0.16465964163E+04  0.16465964163E+04  0.25500000920E-02 0.  1.
    10030    2    1    2    0    0  0.00000000000E+00  0.00000000000E+00 -0.58724703667E+03  0.27059457960E+04  0.26414548205E+04 0.  0.
        1    1    3    3  502    0  0.38088211041E+03  0.68916970202E+02 -0.15871883197E+04  0.16337036124E+04  0.50400001928E-02 0.  1.
       -1    1    3    3    0  502 -0.38088211041E+03 -0.68916970202E+02  0.99994128304E+03  0.10722421836E+04  0.50400001928E-02 0. -1.
</event>
<event>
 5   0  0.1881699E-05  0.2683919E+04  0.7818609E-02  0.8340242E-01
       -2   -1    0    0    0  501  0.00000000000E+00  0.00000000000E+00  0.93502199273E+03  0.93502199274E+03  0.25500000920E-02 0. -1.
        2   -1    0    0  501    0  0.00000000000E+00  0.00000000000E+00 -0.19260029501E+04  0.19260029501E+04  0.25500000920E-02 0.  1.
    10030    2    1    2    0    0  0.00000000000E+00  0.00000000000E+00 -0.99098095737E+03  0.28610249428E+04  0.26839188635E+04 0.  0.
        4    1    3    3  502    0  0.67827819725E+03  0.96672665224E+03  0.18393089360E+03  0.11951794508E+04  0.12699999809E+01 0. -1.
       -4    1    3    3    0  502 -0.67827819725E+03 -0.96672665224E+03 -0.11749118510E+04  0.16658454921E+04  0.12699999809E+01 0.  1.
</event>
<event>
 5   0  0.1931119E-05  0.2714150E+04  0.7818609E-02  0.8330428E-01
        2   -1    0    0  501    0  0.00000000000E+00  0.00000000000E+00  0.21146861619E+04  0.21146861619E+04  0.25500000920E-02 0. -1.
       -2   -1    0    0    0  501  0.00000000000E+00  0.00000000000E+00 -0.87088697407E+03  0.87088697407E+03  0.25500000920E-02 0.  1.
    10030    2    1    2    0    0  0.00000000000E+00  0.00000000000E+00  0.12437991878E+04  0.29855731359E+04  0.27141500567E+04 0.  0.
        3    1    3    3  502    0 -0.10975592623E+04  0.22683936305E+03  0.14636428230E+04  0.18434594529E+04  0.10100000352E+00 0. -1.
       -3    1    3    3    0  502  0.10975592623E+04 -0.22683936305E+03 -0.21984363520E+03  0.11421136831E+04  0.10100000352E+00 0.  1.
</event>
<event>
 5   0  0.7754912E-06  0.2686933E+04  0.7818609E-02  0.8339257E-01
        1   -1    0    0  501    0  0.00000000000E+00  0.00000000000E+00  0.14697758499E+04  0.14697758499E+04  0.50400001928E-02 0.  1.
       -1   -1    0    0    0  501  0.00000000000E+00  0.00000000000E+00 -0.12280115999E+04  0.12280115999E+04  0.50400001928E-02 0. -1.
    10030    2    1    2    0    0  0.00000000000E+00  0.00000000000E+00  0.24176424997E+03  0.26977874498E+04  0.26869326697E+04 0.  0.
        4    1    3    3  502    0 -0.21812245551E+03 -0.82655189507E+02 -0.12075240145E+04  0.12298476103E+04  0.12699999809E+01 0. -1.
       -4    1    3    3    0  502  0.21812245551E+03  0.82655189507E+02  0.14492882645E+04  0.14679398395E+04  0.12699999809E+01 0.  1.
</event>
<event>
 5   0  0.6804685E-06  0.2689482E+04  0.7818609E-02  0.8338426E-01
       -1   -1    0    0    0  501  0.00000000000E+00  0.00000000000E+00  0.13567511514E+04  0.13567511514E+04  0.50400001928E-02 0. -1.
        1   -1    0    0  501    0  0.00000000000E+00  0.00000000000E+00 -0.13328374334E+04  0.13328374334E+04  0.50400001928E-02 0.  1.
    10030    2    1    2    0    0  0.00000000000E+00  0.00000000000E+00  0.23913717984E+02  0.26895885849E+04  0.26894822717E+04 0.  0.
        2    1    3    3  502    0 -0.64366247030E+02  0.75853619067E+03 -0.10966033359E+04  0.13349378423E+04  0.25500000920E-02 0.  1.
       -2    1    3    3    0  502  0.64366247030E+02 -0.75853619067E+03  0.11205170539E+04  0.13546507426E+04  0.25500000920E-02 0. -1.
</event>
<event>
 5   0  0.1826851E-05  0.2721301E+04  0.7818609E-02  0.8328127E-01
        2   -1    0    0  501    0  0.00000000000E+00  0.00000000000E+00  0.14880766126E+04  0.14880766127E+04  0.25500000920E-02 0.  1.
       -2   -1    0    0    0  501  0.00000000000E+00  0.00000000000E+00 -0.12441358055E+04  0.12441358055E+04  0.25500000920E-02 0. -1.
    10030    2    1    2    0    0  0.00000000000E+00  0.00000000000E+00  0.24394080714E+03  0.27322124182E+04  0.27213007148E+04 0.  0.
        5    1    3    3  502    0 -0.54462244553E+03  0.56370838774E+03  0.12386199737E+04  0.14658043129E+04  0.46999998093E+01 0.  1.
       -5    1    3    3    0  502  0.54462244553E+03 -0.56370838774E+03 -0.99467916656E+03  0.12664081052E+04  0.46999998093E+01 0. -1.
</event>
<event>
 5   0  0.7348964E-06  0.2658815E+04  0.7818609E-02  0.8348493E-01
       -1   -1    0    0    0  501  0.00000000000E+00  0.00000000000E+00  0.11262379036E+04  0.11262379036E+04  0.50400001928E-02 0. -1.
        1   -1    0    0  501    0  0.00000000000E+00  0.00000000000E+00 -0.15692287115E+04  0.15692287115E+04  0.50400001928E-02 0.  1.
    10030    2    1    2    0    0  0.00000000000E+00  0.00000000000E+00 -0.44299080788E+03  0.26954666151E+04  0.26588154161E+04 0.  0.
        1    1    3    3  502    0 -0.10958995969E+03 -0.12888295012E+04  0.89710786202E+02  0.12965876243E+04  0.50400001928E-02 0. -1.
       -1    1    3    3    0  502  0.10958995969E+03  0.12888295012E+04 -0.53270159408E+03  0.13988789907E+04  0.50400001928E-02 0.  1.
</event>
<event>
 5   0  0.1931119E-05  0.2728527E+04  0.7818609E-02  0.8325808E-01
       -2   -1    0    0    0  501  0.00000000000E+00  0.00000000000E+00  0.10042974449E+04  0.10042974449E+04  0.25500000920E-02 0.  1.
        2   -1    0    0  501    0  0.00000000000E+00  0.00000000000E+00 -0.18532508896E+04  0.18532508896E+04  0.25500000920E-02 0. -1.
    10030    2    1    2    0    0  0.00000000000E+00  0.00000000000E+00 -0.84895344473E+03  0.28575483346E+04  0.27285271729E+04 0.  0.
        3    1    3    3  502    0 -0.11393485075E+03 -0.11045126608E+04  0.40564907125E+03  0.11821508141E+04  0.10100000352E+00 0.  1.
       -3    1    3    3    0  502  0.11393485075E+03  0.11045126608E+04 -0.12546025160E+04  0.16753975204E+04  0.10100000352E+00 0. -1.
</event>
<event>
 5   0  0.6804685E-06  0.2678650E+04  0.7818609E-02  0.8341966E-01
       -1   -1    0    0    0  501  0.00000000000E+00  0.00000000000E+00  0.15887818266E+04  0.15887818266E+04  0.50400001928E-02 0. -1.
        1   -1    0    0  501    0  0.00000000000E+00  0.00000000000E+00 -0.11290357617E+04  0.11290357617E+04  0.50400001928E-02 0.  1.
    10030    2    1    2    0    0  0.00000000000E+00  0.00000000000E+00  0.45974606497E+03  0.27178175883E+04  0.26786500329E+04 0.  0.
        2    1    3    3  502    0  0.47474034106E+02  0.90114971220E+02 -0.11251004014E+04  0.11297014673E+04  0.25500000920E-02 0.  1.
       -2    1    3    3    0  502 -0.47474034106E+02 -0.90114971220E+02  0.15848464664E+04  0.15881161210E+04  0.25500000920E-02 0. -1.
</event>
<event>
 5   0  0.7754912E-06  0.2759114E+04  0.7818609E-02  0.8316075E-01
       -1   -1    0    0    0  501  0.00000000000E+00  0.00000000000E+00  0.24499934478E+04  0.24499934478E+04  0.50400001928E-02 0. -1.
        1   -1    0    0  501    0  0.00000000000E+00  0.00000000000E+00 -0.77680937373E+03  0.77680937374E+03  0.50400001928E-02 0.  1.
    10030    2    1    2    0    0  0.00000000000E+00  0.00000000000E+00  0.16731840741E+04  0.32268028216E+04  0.27591142607E+04 0.  0.
        4    1    3    3  502    0  0.33213736190E+02 -0.11181937255E+04  0.17807222626E+04  0.21029583328E+04  0.12699999809E+01 0. -1.
       -4    1    3    3    0  502 -0.33213736190E+02  0.11181937255E+04 -0.10753818854E+03  0.11238444888E+04  0.12699999809E+01 0.  1.
</event>
<event>
 5   0  0.6175875E-06  0.2761360E+04  0.7818609E-02  0.8315366E-01
        3   -1    0    0  501    0  0.00000000000E+00  0.00000000000E+00  0.18278610243E+04  0.18278610271E+04  0.10100000352E+00 0. -1.
       -3   -1    0    0    0  501  0.00000000000E+00  0.00000000000E+00 -0.10429005143E+04  0.10429005192E+04  0.10100000352E+00 0.  1.
    10030    2    1    2    0    0  0.00000000000E+00  0.00000000000E+00  0.78496050997E+03  0.28707615463E+04  0.27613599645E+04 0.  0.
        5    1    3    3  502    0  0.38147380302E+03  0.12714277505E+04 -0.23071204681E+01  0.13274329361E+04  0.46999998093E+01 0.  1.
       -5    1    3    3    0  502 -0.38147380302E+03 -0.12714277505E+04  0.78726763044E+03  0.15433286102E+04  0.46999998093E+01 0. -1.
</event>
<event>
 5   0  0.1881699E-05  0.2707164E+04  0.7818609E-02  0.8332684E-01
       -2   -1    0    0    0  501  0.00000000000E+00  0.00000000000E+00  0.94421401586E+03  0.94421401587E+03  0.25500000920E-02 0.  1.
        2   -1    0    0  501    0  0.00000000000E+00  0.00000000000E+00 -0.19404338407E+04  0.19404338407E+04  0.25500000920E-02 0. -1.
    10030    2    1    2    0    0  0.00000000000E+00  0.00000000000E+00 -0.99621982488E+03  0.28846478566E+04  0.27071644422E+04 0.  0.
        4    1    3    3  502    0  0.27127836298E+03  0.45442702123E+03  0.82939533543E+03  0.98386691335E+03  0.12699999809E+01 0.  1.
       -4    1    3    3    0  502 -0.27127836298E+03 -0.45442702123E+03 -0.18256151603E+04  0.19007809433E+04  0.12699999809E+01 0. -1.
</event>
<event>
 5   0  0.7600052E-06  0.2306534E+04  0.7818609E-02  0.8475349E-01
       -1   -1    0    0    0  501  0.00000000000E+00  0.00000000000E+00  0.18444583216E+04  0.18444583216E+04  0.50400001928E-02 0. -1.
        1   -1    0    0  501    0  0.00000000000E+00  0.00000000000E+00 -0.72109217540E+03  0.72109217541E+03  0.50400001928E-02 0.  1.
    10030    2    1    2    0    0  0.00000000000E+00  0.00000000000E+00  0.11233661462E+04  0.25655504970E+04  0.23065337314E+04 0.  0.
        5    1    3    3  502    0  0.55888418903E+03  0.28959843202E+03 -0.51315706119E+03  0.81213979586E+03  0.46999998093E+01 0.  1.
       -5    1    3    3    0  502 -0.55888418903E+03 -0.28959843202E+03  0.16365232074E+04  0.17534107011E+04  0.46999998093E+01 0. -1.
</event>
<event>
 5   0  0.1788003E-05  0.2951079E+04  0.7818609E-02  0.8257840E-01
       -2   -1    0    0    0  501  0.00000000000E+00  0.00000000000E+00  0.73476305675E+03  0.73476305676E+03  0.25500000920E-02 0. -1.
        2   -1    0    0  501    0  0.00000000000E+00  0.00000000000E+00 -0.29631549405E+04  0.29631549405E+04  0.25500000920E-02 0.  1.
    10030    2    1    2    0    0  0.00000000000E+00  0.00000000000E+00 -0.22283918838E+04  0.36979179973E+04  0.29510789768E+04 0.  0.
        2    1    3    3  502    0  0.19930613641E+03  0.36324778176E+03  0.66037202689E+03  0.77959162442E+03  0.25500000920E-02 0. -1.
       -2    1    3    3    0  502 -0.19930613641E+03 -0.36324778176E+03 -0.28887639107E+04  0.29183263729E+04  0.25500000920E-02 0.  1.
</event>
<event>
 5   0  0.7754912E-06  0.2757367E+04  0.7818609E-02  0.8316628E-01
        1   -1    0    0  501    0  0.00000000000E+00  0.00000000000E+00  0.18633207226E+04  0.18633207226E+04  0.50400001928E-02 0.  1.
       -1   -1    0    0    0  501  0.00000000000E+00  0.00000000000E+00 -0.10200974144E+04  0.10200974144E+04  0.50400001928E-02 0. -1.
    10030    2    1    2    0    0  0.00000000000E+00  0.00000000000E+00  0.84322330823E+03  0.28834181370E+04  0.27573673323E+04 0.  0.
        4    1    3    3  502    0 -0.10704055376E+04  0.37321967706E+03  0.12421515967E+04  0.16816667757E+04  0.12699999809E+01 0.  1.
       -4    1    3    3    0  502  0.10704055376E+04 -0.37321967706E+03 -0.39892828850E+03  0.12017513613E+04  0.12699999809E+01 0. -1.
</event>
<event>
 5   0  0.7348964E-06  0.2667388E+04  0.7818609E-02  0.8345665E-01
       -1   -1    0    0    0  501  0.00000000000E+00  0.00000000000E+00  0.13857444043E+04  0.13857444043E+04  0.50400001928E-02 0.  1.
        1   -1    0    0  501    0  0.00000000000E+00  0.00000000000E+00 -0.12835983104E+04  0.12835983104E+04  0.50400001928E-02 0. -1.
    10030    2    1    2    0    0  0.00000000000E+00  0.00000000000E+00  0.10214609396E+03  0.26693427147E+04  0.26673876179E+04 0.  0.
        1    1    3    3  502    0  0.14354259976E+03  0.34077132413E+02 -0.12754072524E+04  0.12839117525E+04  0.50400001928E-02 0. -1.
       -1    1    3    3    0  502 -0.14354259976E+03 -0.34077132413E+02  0.13775533463E+04  0.13854309622E+04  0.50400001928E-02 0.  1.
</event>
<event>
 5   0  0.1788003E-05  0.2250383E+04  0.7818609E-02  0.8497746E-01
        2   -1    0    0  501    0  0.00000000000E+00  0.00000000000E+00  0.10653335378E+04  0.10653335378E+04  0.25500000920E-02 0. -1.
       -2   -1    0    0    0  501  0.00000000000E+00  0.00000000000E+00 -0.11884123140E+04  0.11884123140E+04  0.25500000920E-02 0.  1.
    10030    2    1    2    0    0  0.00000000000E+00  0.00000000000E+00 -0.12307877619E+03  0.22537458518E+04  0.22503826295E+04 0.  0.
        2    1    3    3  502    0  0.40060733074E+03  0.60822309604E+03 -0.92051226097E+03  0.11737820882E+04  0.25500000920E-02 0.  1.
       -2    1    3    3    0  502 -0.40060733074E+03 -0.60822309604E+03  0.79743348478E+03  0.10799637636E+04  0.25500000920E-02 0. -1.
</event>
<event>
 5   0  0.1878160E-05  0.2671374E+04  0.7818609E-02  0.8344353E-01
        2   -1    0    0  501    0  0.00000000000E+00  0.00000000000E+00  0.12970846807E+04  0.12970846807E+04  0.25500000920E-02 0. -1.
       -2   -1    0    0    0  501  0.00000000000E+00  0.00000000000E+00 -0.13754378776E+04  0.13754378776E+04  0.25500000920E-02 0.  1.
    10030    2    1    2    0    0  0.00000000000E+00  0.00000000000E+00 -0.78353196978E+02  0.26725225583E+04  0.26713737292E+04 0.  0.
        1    1    3    3  502    0  0.84941681986E+03 -0.62296308912E+03 -0.86078945904E+03  0.13603493805E+04  0.50400001928E-02 0.  1.
       -1    1    3    3    0  502 -0.84941681986E+03  0.62296308912E+03  0.78243626206E+03  0.13121731778E+04  0.50400001928E-02 0. -1.
</event>
<event>
 5   0  0.6804685E-06  0.2572441E+04  0.7818609E-02  0.8377623E-01
        1   -1    0    0  501    0  0.00000000000E+00  0.00000000000E+00  0.16026567585E+04  0.16026567585E+04  0.50400001928E-02 0.  1.
       -1   -1    0    0    0  501  0.00000000000E+00  0.00000000000E+00 -0.10322627390E+04  0.10322627390E+04  0.50400001928E-02 0. -1.
    10030    2    1    2    0    0  0.00000000000E+00  0.00000000000E+00  0.57039401950E+03  0.26349194976E+04  0.25724407517E+04 0.  0.
        2    1    3    3  502    0 -0.54307312348E+03 -0.62054238646E+03  0.12962689241E+04  0.15363314729E+04  0.25500000920E-02 0.  1.
       -2    1    3    3    0  502  0.54307312348E+03  0.62054238646E+03 -0.72587490463E+03  0.10985880247E+04  0.25500000920E-02 0. -1.
</event>
<event>
 5   0  0.7348964E-06  0.2697334E+04  0.7818609E-02  0.8335871E-01
        1   -1    0    0  501    0  0.00000000000E+00  0.00000000000E+00  0.11169512449E+04  0.11169512449E+04  0.50400001928E-02 0.  1.
       -1   -1    0    0    0  501  0.00000000000E+00  0.00000000000E+00 -0.16284527378E+04  0.16284527378E+04  0.50400001928E-02 0. -1.
    10030    2    1    2    0    0  0.00000000000E+00  0.00000000000E+00 -0.51150149284E+03  0.27454039827E+04  0.26973337300E+04 0.  0.
        1    1    3    3  502    0  0.80138383721E+03  0.23922640900E+03  0.82114901582E+03  0.11720627268E+04  0.50400001928E-02 0.  1.
       -1    1    3    3    0  502 -0.80138383721E+03 -0.23922640900E+03 -0.13326505087E+04  0.15733412559E+04  0.50400001928E-02 0. -1.
</event>
<event>
 5   0  0.7348964E-06  0.2688563E+04  0.7818609E-02  0.8338725E-01
        1   -1    0    0  501    0  0.00000000000E+00  0.00000000000E+00  0.15507176134E+04  0.15507176134E+04  0.50400001928E-02 0. -1.
       -1   -1    0    0    0  501  0.00000000000E+00  0.00000000000E+00 -0.11653266002E+04  0.11653266002E+04  0.50400001928E-02 0.  1.
    10030    2    1    2    0    0  0.00000000000E+00  0.00000000000E+00  0.38539101323E+03  0.27160442137E+04  0.26885628015E+04 0.  0.
        1    1    3    3  502    0  0.97160742928E+03  0.14467151838E+03  0.11197584476E+04  0.14895669927E+04  0.50400001928E-02 0. -1.
       -1    1    3    3    0  502 -0.97160742928E+03 -0.14467151838E+03 -0.73436743434E+03  0.12264772209E+04  0.50400001928E-02 0.  1.
</event>
<event>
 5   0  0.1881699E-05  0.2858803E+04  0.7818609E-02  0.8285241E-01
        2   -1    0    0  501    0  0.00000000000E+00  0.00000000000E+00  0.18276687873E+04  0.18276687873E+04  0.25500000920E-02 0. -1.
       -2   -1    0    0    0  501  0.00000000000E+00  0.00000000000E+00 -0.11179207529E+04  0.11179207529E+04  0.25500000920E-02 0.  1.
    10030    2    1    2    0    0  0.00000000000E+00  0.00000000000E+00  0.70974803443E+03  0.29455895403E+04  0.28588031530E+04 0.  0.
        4    1    3    3  502    0 -0.10203858823E+04  0.32089851000E+03 -0.62207889497E+03  0.12373952348E+04  0.12699999809E+01 0.  1.
       -4    1    3    3    0  502  0.10203858823E+04 -0.32089851000E+03  0.13318269294E+04  0.17081943055E+04  0.12699999809E+01 0. -1.
</event>
<event>
 5   0  0.7351590E-06  0.2761124E+04  0.7818609E-02  0.8315440E-01
        1   -1    0    0  501    0  0.00000000000E+00  0.00000000000E+00  0.21869053830E+04  0.21869053830E+04  0.50400001928E-02 0. -1.
       -1   -1    0    0    0  501  0.00000000000E+00  0.00000000000E+00 -0.87152921212E+03  0.87152921214E+03  0.50400001928E-02 0.  1.
    10030    2    1    2    0    0  0.00000000000E+00  0.00000000000E+00  0.13153761709E+04  0.30584345951E+04  0.27611243546E+04 0.  0.
        3    1    3    3  502    0  0.10474360922E+04  0.89612606510E+03  0.57341995398E+03  0.14929751323E+04  0.10100000352E+00 0. -1.
       -3    1    3    3    0  502 -0.10474360922E+04 -0.89612606510E+03  0.74195621688E+03  0.15654594628E+04  0.10100000352E+00 0.  1.
</event>
<event>
 5   0  0.7348964E-06  0.2705106E+04  0.7818609E-02  0.8333350E-01
       -1   -1    0    0    0  501  0.00000000000E+00  0.00000000000E+00  0.90438666537E+03  0.90438666538E+03  0.50400001928E-02 0.  1.
        1   -1    0    0  501    0  0.00000000000E+00  0.00000000000E+00 -0.20228063231E+04  0.20228063231E+04  0.50400001928E-02 0. -1.
    10030    2    1    2    0    0  0.00000000000E+00  0.00000000000E+00 -0.11184196577E+04  0.29271929885E+04  0.27051055915E+04 0.  0.
        1    1    3    3  502    0  0.11903777477E+04 -0.60639228936E+03 -0.78796131640E+03  0.15509976876E+04  0.50400001928E-02 0.  1.
       -1    1    3    3    0  502 -0.11903777477E+04  0.60639228936E+03 -0.33045834130E+03  0.13761953009E+04  0.50400001928E-02 0. -1.
</event>
<event>
 5   0  0.7348964E-06  0.2734300E+04  0.7818609E-02  0.8323961E-01
        1   -1    0    0  501    0  0.00000000000E+00  0.00000000000E+00  0.93181830423E+03  0.93181830424E+03  0.50400001928E-02 0.  1.
       -1   -1    0    0    0  501  0.00000000000E+00  0.00000000000E+00 -0.20058628578E+04  0.20058628578E+04  0.50400001928E-02 0. -1.
    10030    2    1    2    0    0  0.00000000000E+00  0.00000000000E+00 -0.10740445536E+04  0.29376811620E+04  0.27343004419E+04 0.  0.
        1    1    3    3  502    0  0.26367375711E+03  0.13324522337E+04 -0.37007116688E+03  0.14078016457E+04  0.50400001928E-02 0.  1.
       -1    1    3    3    0  502 -0.26367375711E+03 -0.13324522337E+04 -0.70397338669E+03  0.15298795163E+04  0.50400001928E-02 0. -1.
</event>
<event>
 5   0  0.1881699E-05  0.2933137E+04  0.7818609E-02  0.8263086E-01
       -2   -1    0    0    0  501  0.00000000000E+00  0.00000000000E+00  0.20888307330E+04  0.20888307330E+04  0.25500000920E-02 0.  1.
        2   -1    0    0  501    0  0.00000000000E+00  0.00000000000E+00 -0.10296781236E+04  0.10296781236E+04  0.25500000920E-02 0. -1.
    10030    2    1    2    0    0  0.00000000000E+00  0.00000000000E+00  0.10591526094E+04  0.31185088567E+04  0.29331370986E+04 0.  0.
        4    1    3    3  502    0 -0.43143878550E+03 -0.43845161836E+03 -0.88589376387E+03  0.10785122257E+04  0.12699999809E+01 0. -1.
       -4    1    3    3    0  502  0.43143878550E+03  0.43845161836E+03  0.19450463733E+04  0.20399966309E+04  0.12699999809E+01 0.  1.
</event>
<event>
 5   0  0.1931119E-05  0.2689941E+04  0.7818609E-02  0.8338276E-01
       -2   -1    0    0    0  501  0.00000000000E+00  0.00000000000E+00  0.81981586585E+03  0.81981586585E+03  0.25500000920E-02 0.  1.
        2   -1    0    0  501    0  0.00000000000E+00  0.00000000000E+00 -0.22065268595E+04  0.22065268595E+04  0.25500000920E-02 0. -1.
    10030    2    1    2    0    0  0.00000000000E+00  0.00000000000E+00 -0.13867109936E+04  0.30263427253E+04  0.26899410609E+04 0.  0.
        3    1    3    3  502    0 -0.97603277908E+02  0.30813384286E+03 -0.21621816242E+04  0.21862072755E+04  0.10100000352E+00 0. -1.
       -3    1    3    3    0  502  0.97603277908E+02 -0.30813384286E+03  0.77547063061E+03  0.84013544986E+03  0.10100000352E+00 0.  1.
</event>
<event>
 5   0  0.1826851E-05  0.2689037E+04  0.7818609E-02  0.8338571E-01
        2   -1    0    0  501    0  0.00000000000E+00  0.00000000000E+00  0.18738521777E+04  0.18738521777E+04  0.25500000920E-02 0.  1.
       -2   -1    0    0    0  501  0.00000000000E+00  0.00000000000E+00 -0.96471317670E+03  0.96471317670E+03  0.25500000920E-02 0. -1.
    10030    2    1    2    0    0  0.00000000000E+00  0.00000000000E+00  0.90913900103E+03  0.28385653544E+04  0.26890369183E+04 0.  0.
        5    1    3    3  502    0  0.63687168022E+03  0.10473048262E+04  0.10377908685E+04  0.16060774928E+04  0.46999998093E+01 0.  1.
       -5    1    3    3    0  502 -0.63687168022E+03 -0.10473048262E+04 -0.12865186744E+03  0.12324878617E+04  0.46999998093E+01 0. -1.
</event>
<event>
 5   0  0.1931119E-05  0.2681426E+04  0.7818609E-02  0.8341057E-01
        2   -1    0    0  501    0  0.00000000000E+00  0.00000000000E+00  0.90496732952E+03  0.90496732952E+03  0.25500000920E-02 0.  1.
       -2   -1    0    0    0  501  0.00000000000E+00  0.00000000000E+00 -0.19862719481E+04  0.19862719481E+04  0.25500000920E-02 0. -1.
    10030    2    1    2    0    0  0.00000000000E+00  0.00000000000E+00 -0.10813046185E+04  0.28912392776E+04  0.26814259046E+04 0.  0.
        3    1    3    3  502    0 -0.22699730814E+03  0.10938984005E+04  0.25853870902E+03  0.11467274143E+04  0.10100000352E+00 0.  1.
       -3    1    3    3    0  502  0.22699730814E+03 -0.10938984005E+04 -0.13398433276E+04  0.17445118633E+04  0.10100000352E+00 0. -1.
</event>
<event>
 5   0  0.7600052E-06  0.2665768E+04  0.7818609E-02  0.8346198E-01
        1   -1    0    0  501    0  0.00000000000E+00  0.00000000000E+00  0.11820248872E+04  0.11820248872E+04  0.50400001928E-02 0.  1.
       -1   -1    0    0    0  501  0.00000000000E+00  0.00000000000E+00 -0.15029971390E+04  0.15029971390E+04  0.50400001928E-02 0. -1.
    10030    2    1    2    0    0  0.00000000000E+00  0.00000000000E+00 -0.32097225178E+03  0.26850220262E+04  0.26657681997E+04 0.  0.
        5    1    3    3  502    0  0.10289354439E+04 -0.41360660602E+03  0.58429991188E+03  0.12534779812E+04  0.46999998093E+01 0. -1.
       -5    1    3    3    0  502 -0.10289354439E+04  0.41360660602E+03 -0.90527216365E+03  0.14315440450E+04  0.46999998093E+01 0.  1.
</event>
<event>
 5   0  0.1826851E-05  0.2774830E+04  0.7818609E-02  0.8311126E-01
       -2   -1    0    0    0  501  0.00000000000E+00  0.00000000000E+00  0.14307655956E+04  0.14307655956E+04  0.25500000920E-02 0.  1.
        2   -1    0    0  501    0  0.00000000000E+00  0.00000000000E+00 -0.13453774999E+04  0.13453774999E+04  0.25500000920E-02 0. -1.
    10030    2    1    2    0    0  0.00000000000E+00  0.00000000000E+00  0.85388095657E+02  0.27761430955E+04  0.27748296092E+04 0.  0.
        5    1    3    3  502    0  0.10735417099E+04 -0.35715266082E+03 -0.76071030584E+03  0.13633605853E+04  0.46999998093E+01 0.  1.
       -5    1    3    3    0  502 -0.10735417099E+04  0.35715266082E+03  0.84609840149E+03  0.14127825102E+04  0.46999998093E+01 0. -1.
</event>
<event>
 5   0  0.1788003E-05  0.2712627E+04  0.7818609E-02  0.8330920E-01
       -2   -1    0    0    0  501  0.00000000000E+00  0.00000000000E+00  0.75430586565E+03  0.75430586565E+03  0.25500000920E-02 0. -1.
        2   -1    0    0  501    0  0.00000000000E+00  0.00000000000E+00 -0.24387805786E+04  0.24387805786E+04  0.25500000920E-02 0.  1.
    10030    2    1    2    0    0  0.00000000000E+00  0.00000000000E+00 -0.16844747129E+04  0.31930864442E+04  0.27126271365E+04 0.  0.
        2    1    3    3  502    0  0.96191702764E+03  0.28771441123E+03  0.23115275081E+03  0.10302890588E+04  0.25500000920E-02 0.  1.
       -2    1    3    3    0  502 -0.96191702764E+03 -0.28771441123E+03 -0.19156274638E+04  0.21627973854E+04  0.25500000920E-02 0. -1.
</event>
<event>
 5   0  0.1826851E-05  0.2696068E+04  0.7818609E-02  0.8336282E-01
        2   -1    0    0  501    0  0.00000000000E+00  0.00000000000E+00  0.33995495698E+04  0.33995495698E+04  0.25500000920E-02 0. -1.
       -2   -1    0    0    0  501  0.00000000000E+00  0.00000000000E+00 -0.53454008269E+03  0.53454008270E+03  0.25500000920E-02 0.  1.
    10030    2    1    2    0    0  0.00000000000E+00  0.00000000000E+00  0.28650094871E+04  0.39340896525E+04  0.26960678836E+04 0.  0.
        5    1    3    3  502    0  0.53475212665E+03 -0.11451667987E+04  0.74838239418E+03  0.14688312128E+04  0.46999998093E+01 0.  1.
       -5    1    3    3    0  502 -0.53475212665E+03  0.11451667987E+04  0.21166270930E+04  0.24652584397E+04  0.46999998093E+01 0. -1.
</event>
<event>
 5   0  0.7348964E-06  0.2640543E+04  0.7818609E-02  0.8354559E-01
       -1   -1    0    0    0  501  0.00000000000E+00  0.00000000000E+00  0.79654849534E+03  0.79654849536E+03  0.50400001928E-02 0.  1.
        1   -1    0    0  501    0  0.00000000000E+00  0.00000000000E+00 -0.21883373789E+04  0.21883373789E+04  0.50400001928E-02 0. -1.
    10030    2    1    2    0    0  0.00000000000E+00  0.00000000000E+00 -0.13917888836E+04  0.29848858743E+04  0.26405430097E+04 0.  0.
        1    1    3    3  502    0  0.90818952479E+02 -0.97019809861E+03  0.31110921995E+03  0.10228985186E+04  0.50400001928E-02 0.  1.
       -1    1    3    3    0  502 -0.90818952479E+02  0.97019809861E+03 -0.17028981035E+04  0.19619873556E+04  0.50400001928E-02 0. -1.
</event>
<event>
 5   0  0.1788003E-05  0.2700029E+04  0.7818609E-02  0.8334996E-01
       -2   -1    0    0    0  501  0.00000000000E+00  0.00000000000E+00  0.85701867924E+03  0.85701867924E+03  0.25500000920E-02 0. -1.
        2   -1    0    0  501    0  0.00000000000E+00  0.00000000000E+00 -0.21266040309E+04  0.21266040309E+04  0.25500000920E-02 0.  1.
    10030    2    1    2    0    0  0.00000000000E+00  0.00000000000E+00 -0.12695853517E+04  0.29836227101E+04  0.27000291686E+04 0.  0.
        2    1    3    3  502    0 -0.81558958468E+03 -0.13782464414E+03 -0.18137952708E+04  0.19934982537E+04  0.25500000920E-02 0.  1.
       -2    1    3    3    0  502  0.81558958468E+03  0.13782464414E+03  0.54420991912E+03  0.99012445644E+03  0.25500000920E-02 0. -1.
</event>
<event>
 5   0  0.7600052E-06  0.2709604E+04  0.7818609E-02  0.8331895E-01
       -1   -1    0    0    0  501  0.00000000000E+00  0.00000000000E+00  0.14268363559E+04  0.14268363559E+04  0.50400001928E-02 0.  1.
        1   -1    0    0  501    0  0.00000000000E+00  0.00000000000E+00 -0.12864046026E+04  0.12864046026E+04  0.50400001928E-02 0. -1.
    10030    2    1    2    0    0  0.00000000000E+00  0.00000000000E+00  0.14043175332E+03  0.27132409585E+04  0.27096042924E+04 0.  0.
        5    1    3    3  502    0 -0.15059415108E+02 -0.17988747729E+03 -0.12743000792E+04  0.12870311078E+04  0.46999998093E+01 0. -1.
       -5    1    3    3    0  502  0.15059415108E+02  0.17988747729E+03  0.14147318325E+04  0.14262098508E+04  0.46999998093E+01 0.  1.
</event>
<event>
 5   0  0.7351590E-06  0.2707544E+04  0.7818609E-02  0.8332561E-01
       -1   -1    0    0    0  501  0.00000000000E+00  0.00000000000E+00  0.74093458509E+03  0.74093458511E+03  0.50400001928E-02 0. -1.
        1   -1    0    0  501    0  0.00000000000E+00  0.00000000000E+00 -0.24734951066E+04  0.24734951066E+04  0.50400001928E-02 0.  1.
    10030    2    1    2    0    0  0.00000000000E+00  0.00000000000E+00 -0.17325605215E+04  0.32144296917E+04  0.27075435882E+04 0.  0.
        3    1    3    3  502    0  0.10407797748E+04 -0.29897608431E+03  0.98280661464E+02  0.10873216347E+04  0.10100000352E+00 0. -1.
       -3    1    3    3    0  502 -0.10407797748E+04  0.29897608431E+03 -0.18308411830E+04  0.21271080570E+04  0.10100000352E+00 0.  1.
</event>
<event>
 5   0  0.1881699E-05  0.2009786E+04  0.7818609E-02  0.8602059E-01
       -2   -1    0    0    0  501  0.00000000000E+00  0.00000000000E+00  0.59768940475E+03  0.59768940476E+03  0.25500000920E-02 0.  1.
        2   -1    0    0  501    0  0.00000000000E+00  0.00000000000E+00 -0.16895235733E+04  0.16895235733E+04  0.25500000920E-02 0. -1.
    10030    2    1    2    0    0  0.00000000000E+00  0.00000000000E+00 -0.10918341685E+04  0.22872129781E+04  0.20097863955E+04 0.  0.
        4    1    3    3  502    0  0.64572885485E+03 -0.68530512553E+03 -0.94536651466E+03  0.13342894472E+04  0.12699999809E+01 0. -1.
       -4    1    3    3    0  502 -0.64572885485E+03  0.68530512553E+03 -0.14646765388E+03  0.95292353082E+03  0.12699999809E+01 0.  1.
</event>
<event>
 5   0  0.7600052E-06  0.2683771E+04  0.7818609E-02  0.8340290E-01
       -1   -1    0    0    0  501  0.00000000000E+00  0.00000000000E+00  0.23315222343E+04  0.23315222343E+04  0.50400001928E-02 0. -1.
        1   -1    0    0  501    0  0.00000000000E+00  0.00000000000E+00 -0.77230930161E+03  0.77230930162E+03  0.50400001928E-02 0.  1.
    10030    2    1    2    0    0  0.00000000000E+00  0.00000000000E+00  0.15592129327E+04  0.31038315360E+04  0.26837707119E+04 0.  0.
        5    1    3    3  502    0 -0.77346884573E+03 -0.76097931882E+03  0.16926637698E+04  0.20105910341E+04  0.46999998093E+01 0. -1.
       -5    1    3    3    0  502  0.77346884573E+03  0.76097931882E+03 -0.13345083703E+03  0.10932405019E+04  0.46999998093E+01 0.  1.
</event>
<event>
 5   0  0.7348964E-06  0.2683577E+04  0.7818609E-02  0.8340353E-01
       -1   -1    0    0    0  501  0.00000000000E+00  0.00000000000E+00  0.76018427661E+03  0.76018427663E+03  0.50400001928E-02 0. -1.
        1   -1    0    0  501    0  0.00000000000E+00  0.00000000000E+00 -0.23683682420E+04  0.23683682420E+04  0.50400001928E-02 0.  1.
    10030    2    1    2    0    0  0.00000000000E+00  0.00000000000E+00 -0.16081839654E+04  0.31285525186E+04  0.26835769405E+04 0.  0.
        1    1    3    3  502    0  0.20745533524E+03 -0.13205758381E+04 -0.66894780596E+03  0.14948074885E+04  0.50400001928E-02 0. -1.
       -1    1    3    3    0  502 -0.20745533524E+03  0.13205758381E+04 -0.93923615942E+03  0.16337450302E+04  0.50400001928E-02 0.  1.
</event>
<event>
 5   0  0.7600052E-06  0.2101392E+04  0.7818609E-02  0.8560631E-01
       -1   -1    0    0    0  501  0.00000000000E+00  0.00000000000E+00  0.97325955998E+03  0.97325955999E+03  0.50400001928E-02 0. -1.
        1   -1    0    0  501    0  0.00000000000E+00  0.00000000000E+00 -0.11342934285E+04  0.11342934285E+04  0.50400001928E-02 0.  1.
    10030    2    1    2    0    0  0.00000000000E+00  0.00000000000E+00 -0.16103386854E+03  0.21075529885E+04  0.21013918465E+04 0.  0.
        5    1    3    3  502    0  0.53714706308E+03  0.14734694051E+03  0.81299452613E+03  0.98550508764E+03  0.46999998093E+01 0. -1.
       -5    1    3    3    0  502 -0.53714706308E+03 -0.14734694051E+03 -0.97402839467E+03  0.11220479009E+04  0.46999998093E+01 0.  1.
</event>
<event>
 5   0  0.1826851E-05  0.2699758E+04  0.7818609E-02  0.8335083E-01
       -2   -1    0    0    0  501  0.00000000000E+00  0.00000000000E+00  0.14554234760E+04  0.14554234760E+04  0.25500000920E-02 0. -1.
        2   -1    0    0  501    0  0.00000000000E+00  0.00000000000E+00 -0.12519888576E+04  0.12519888576E+04  0.25500000920E-02 0.  1.
    10030    2    1    2    0    0  0.00000000000E+00  0.00000000000E+00  0.20343461842E+03  0.27074123337E+04  0.26997584893E+04 0.  0.
        5    1    3    3  502    0 -0.12892583234E+04  0.27585047568E+03  0.39214389587E+03  0.13755287836E+04  0.46999998093E+01 0.  1.
       -5    1    3    3    0  502  0.12892583234E+04 -0.27585047568E+03 -0.18870927745E+03  0.13318835500E+04  0.46999998093E+01 0. -1.
</event>
<event>
 5   0  0.7348964E-06  0.2701538E+04  0.7818609E-02  0.8334506E-01
        1   -1    0    0  501    0  0.00000000000E+00  0.00000000000E+00  0.12858362254E+04  0.12858362254E+04  0.50400001928E-02 0.  1.
       -1   -1    0    0    0  501  0.00000000000E+00  0.00000000000E+00 -0.14189809508E+04  0.14189809508E+04  0.50400001928E-02 0. -1.
    10030    2    1    2    0    0  0.00000000000E+00  0.00000000000E+00 -0.13314472539E+03  0.27048171762E+04  0.27015381616E+04 0.  0.
        1    1    3    3  502    0  0.95128353135E+03  0.48668069812E+03 -0.89387950831E+03  0.13931328129E+04  0.50400001928E-02 0. -1.
       -1    1    3    3    0  502 -0.95128353135E+03 -0.48668069812E+03  0.76073478292E+03  0.13116843633E+04  0.50400001928E-02 0.  1.
</event>
<event>
 5   0  0.6175875E-06  0.2693333E+04  0.7818609E-02  0.8337172E-01
       -3   -1    0    0    0  501  0.00000000000E+00  0.00000000000E+00  0.16288732576E+04  0.16288732607E+04  0.10100000352E+00 0.  1.
        3   -1    0    0  501    0  0.00000000000E+00  0.00000000000E+00 -0.11133524685E+04  0.11133524731E+04  0.10100000352E+00 0. -1.
    10030    2    1    2    0    0  0.00000000000E+00  0.00000000000E+00  0.51552078910E+03  0.27422257338E+04  0.26933325623E+04 0.  0.
        3    1    3    3  502    0 -0.49945485051E+03 -0.14361319666E+03 -0.10071411190E+04  0.11333195232E+04  0.10100000352E+00 0. -1.
       -3    1    3    3    0  502  0.49945485051E+03  0.14361319666E+03  0.15226619081E+04  0.16089062106E+04  0.10100000352E+00 0.  1.
</event>
<event>
 5   0  0.1826851E-05  0.2540078E+04  0.7818609E-02  0.8388845E-01
       -2   -1    0    0    0  501  0.00000000000E+00  0.00000000000E+00  0.15067248771E+04  0.15067248771E+04  0.25500000920E-02 0.  1.
        2   -1    0    0  501    0  0.00000000000E+00  0.00000000000E+00 -0.10705330291E+04  0.10705330291E+04  0.25500000920E-02 0. -1.
    10030    2    1    2    0    0  0.00000000000E+00  0.00000000000E+00  0.43619184798E+03  0.25772579062E+04  0.25400777521E+04 0.  0.
        5    1    3    3  502    0  0.66892714899E+03 -0.38420735962E+03  0.12417729681E+04  0.14618826971E+04  0.46999998093E+01 0.  1.
       -5    1    3    3    0  502 -0.66892714899E+03  0.38420735962E+03 -0.80558112012E+03  0.11153752090E+04  0.46999998093E+01 0. -1.
</event>
<event>
 5   0  0.7600052E-06  0.2657474E+04  0.7818609E-02  0.8348937E-01
       -1   -1    0    0    0  501  0.00000000000E+00  0.00000000000E+00  0.15121057268E+04  0.15121057268E+04  0.50400001928E-02 0. -1.
        1   -1    0    0  501    0  0.00000000000E+00  0.00000000000E+00 -0.11676046124E+04  0.11676046124E+04  0.50400001928E-02 0.  1.
    10030    2    1    2    0    0  0.00000000000E+00  0.00000000000E+00  0.34450111435E+03  0.26797103392E+04  0.26574737034E+04 0.  0.
        5    1    3    3  502    0  0.10690384730E+04 -0.19975864669E+03 -0.59753276415E+03  0.12408925287E+04  0.46999998093E+01 0.  1.
       -5    1    3    3    0  502 -0.10690384730E+04  0.19975864669E+03  0.94203387850E+03  0.14388178105E+04  0.46999998093E+01 0. -1.
</event>
<event>
 5   0  0.1881699E-05  0.2668480E+04  0.7818609E-02  0.8345305E-01
        2   -1    0    0  501    0  0.00000000000E+00  0.00000000000E+00  0.12049472167E+04  0.12049472167E+04  0.25500000920E-02 0.  1.
       -2   -1    0    0    0  501  0.00000000000E+00  0.00000000000E+00 -0.14774060583E+04  0.14774060583E+04  0.25500000920E-02 0. -1.
    10030    2    1    2    0    0  0.00000000000E+00  0.00000000000E+00 -0.27245884160E+03  0.26823532751E+04  0.26684799553E+04 0.  0.
        4    1    3    3  502    0  0.84762702419E+03 -0.89315064262E+02 -0.11680875504E+04  0.14459871684E+04  0.12699999809E+01 0. -1.
       -4    1    3    3    0  502 -0.84762702419E+03  0.89315064262E+02  0.89562870880E+03  0.12363661067E+04  0.12699999809E+01 0.  1.
</event>
<event>
 5   0  0.7754912E-06  0.2651314E+04  0.7818609E-02  0.8350977E-01
       -1   -1    0    0    0  501  0.00000000000E+00  0.00000000000E+00  0.92271840144E+03  0.92271840145E+03  0.50400001928E-02 0. -1.
        1   -1    0    0  501    0  0.00000000000E+00  0.00000000000E+00 -0.19045531097E+04  0.19045531097E+04  0.50400001928E-02 0.  1.
    10030    2    1    2    0    0  0.00000000000E+00  0.00000000000E+00 -0.98183470829E+03  0.28272715112E+04  0.26513137882E+04 0.  0.
        4    1    3    3  502    0  0.10020053306E+04  0.80483793299E+03 -0.83742207711E+03  0.15339674472E+04  0.12699999809E+01 0.  1.
       -4    1    3    3    0  502 -0.10020053306E+04 -0.80483793299E+03 -0.14441263118E+03  0.12933040640E+04  0.12699999809E+01 0. -1.
</event>
<event>
 5   0  0.6804685E-06  0.2708256E+04  0.7818609E-02  0.8332331E-01
        1   -1    0    0  501    0  0.00000000000E+00  0.00000000000E+00  0.10290701579E+04  0.10290701579E+04  0.50400001928E-02 0.  1.
       -1   -1    0    0    0  501  0.00000000000E+00  0.00000000000E+00 -0.17818635416E+04  0.17818635416E+04  0.50400001928E-02 0. -1.
    10030    2    1    2    0    0  0.00000000000E+00  0.00000000000E+00 -0.75279338374E+03  0.28109336996E+04  0.27082559674E+04 0.  0.
        2    1    3    3  502    0 -0.11831669736E+04 -0.51349645994E+03  0.51671457724E+02  0.12908263405E+04  0.25500000920E-02 0.  1.
       -2    1    3    3    0  502  0.11831669736E+04  0.51349645994E+03 -0.80446484146E+03  0.15201073590E+04  0.25500000920E-02 0. -1.
</event>
<event>
 5   0  0.7351590E-06  0.2663662E+04  0.7818609E-02  0.8346892E-01
       -1   -1    0    0    0  501  0.00000000000E+00  0.00000000000E+00  0.14376938224E+04  0.14376938225E+04  0.50400001928E-02 0.  1.
        1   -1    0    0  501    0  0.00000000000E+00  0.00000000000E+00 -0.12337634663E+04  0.12337634663E+04  0.50400001928E-02 0. -1.
    10030    2    1    2    0    0  0.00000000000E+00  0.00000000000E+00  0.20393035615E+03  0.26714572888E+04  0.26636622262E+04 0.  0.
        3    1    3    3  502    0  0.92899820735E+03 -0.61868206692E+03  0.83070628489E+03  0.13913583691E+04  0.10100000352E+00 0.  1.
       -3    1    3    3    0  502 -0.92899820735E+03  0.61868206692E+03 -0.62677592873E+03  0.12800989197E+04  0.10100000352E+00 0. -1.
</event>
<event>
 5   0  0.1931119E-05  0.2687913E+04  0.7818609E-02  0.8338938E-01
        2   -1    0    0  501    0  0.00000000000E+00  0.00000000000E+00  0.12914692147E+04  0.12914692147E+04  0.25500000920E-02 0. -1.
       -2   -1    0    0    0  501  0.00000000000E+00  0.00000000000E+00 -0.13985765226E+04  0.13985765226E+04  0.25500000920E-02 0.  1.
    10030    2    1    2    0    0  0.00000000000E+00  0.00000000000E+00 -0.10710730788E+03  0.26900457372E+04  0.26879125903E+04 0.  0.
        3    1    3    3  502    0 -0.27043033158E+03 -0.83365854618E+03  0.96612654957E+03  0.13044231123E+04  0.10100000352E+00 0. -1.
       -3    1    3    3    0  502  0.27043033158E+03  0.83365854618E+03 -0.10732338575E+04  0.13856226250E+04  0.10100000352E+00 0.  1.
</event>
<event>
 5   0  0.6804685E-06  0.2553637E+04  0.7818609E-02  0.8384123E-01
        1   -1    0    0  501    0  0.00000000000E+00  0.00000000000E+00  0.21752865229E+04  0.21752865229E+04  0.50400001928E-02 0.  1.
       -1   -1    0    0    0  501  0.00000000000E+00  0.00000000000E+00 -0.74944840032E+03  0.74944840033E+03  0.50400001928E-02 0. -1.
    10030    2    1    2    0    0  0.00000000000E+00  0.00000000000E+00  0.14258381226E+04  0.29247349233E+04  0.25536366264E+04 0.  0.
        2    1    3    3  502    0 -0.13033278042E+03  0.80578878720E+03  0.18374257812E+04  0.20105759634E+04  0.25500000920E-02 0.  1.
       -2    1    3    3    0  502  0.13033278042E+03 -0.80578878720E+03 -0.41158765856E+03  0.91415895987E+03  0.25500000920E-02 0. -1.
</event>
<event>
 5   0  0.6804685E-06  0.2664353E+04  0.7818609E-02  0.8346665E-01
        1   -1    0    0  501    0  0.00000000000E+00  0.00000000000E+00  0.20163659906E+04  0.20163659906E+04  0.50400001928E-02 0.  1.
       -1   -1    0    0    0  501  0.00000000000E+00  0.00000000000E+00 -0.88014460993E+03  0.88014460995E+03  0.50400001928E-02 0. -1.
    10030    2    1    2    0    0  0.00000000000E+00  0.00000000000E+00  0.11362213807E+04  0.28965106006E+04  0.26643525730E+04 0.  0.
        2    1    3    3  502    0  0.97815395302E+03 -0.89818137643E+03  0.68305286751E+03  0.14933439525E+04  0.25500000920E-02 0.  1.
       -2    1    3    3    0  502 -0.97815395302E+03  0.89818137643E+03  0.45316851317E+03  0.14031666480E+04  0.25500000920E-02 0. -1.
</event>
<event>
 5   0  0.1826851E-05  0.2509025E+04  0.7818609E-02  0.8399777E-01
       -2   -1    0    0    0  501  0.00000000000E+00  0.00000000000E+00  0.97557933991E+03  0.97557933991E+03  0.25500000920E-02 0. -1.
        2   -1    0    0  501    0  0.00000000000E+00  0.00000000000E+00 -0.16131975612E+04  0.16131975612E+04  0.25500000920E-02 0.  1.
    10030    2    1    2    0    0  0.00000000000E+00  0.00000000000E+00 -0.63761822132E+03  0.25887769011E+04  0.25090254777E+04 0.  0.
        5    1    3    3  502    0  0.88185771352E+03  0.16353808707E+03 -0.12238225519E+04  0.15172941248E+04  0.46999998093E+01 0.  1.
       -5    1    3    3    0  502 -0.88185771352E+03 -0.16353808707E+03  0.58620433053E+03  0.10714827763E+04  0.46999998093E+01 0. -1.
</event>
<event>
 5   0  0.1881699E-05  0.2864646E+04  0.7818609E-02  0.8283475E-01
        2   -1    0    0  501    0  0.00000000000E+00  0.00000000000E+00  0.11384403379E+04  0.11384403379E+04  0.25500000920E-02 0. -1.
       -2   -1    0    0    0  501  0.00000000000E+00  0.00000000000E+00 -0.18020700400E+04  0.18020700400E+04  0.25500000920E-02 0.  1.
    10030    2    1    2    0    0  0.00000000000E+00  0.00000000000E+00 -0.66362970204E+03  0.29405103779E+04  0.28646460341E+04 0.  0.
        4    1    3    3  502    0 -0.97686761408E+03  0.85748170600E+03  0.28578541616E+03  0.13308719430E+04  0.12699999809E+01 0.  1.
       -4    1    3    3    0  502  0.97686761408E+03 -0.85748170600E+03 -0.94941511821E+03  0.16096384349E+04  0.12699999809E+01 0. -1.
</event>
<event>
 5   0  0.6804685E-06  0.2590254E+04  0.7818609E-02  0.8371519E-01
       -1   -1    0    0    0  501  0.00000000000E+00  0.00000000000E+00  0.80873387276E+03  0.80873387278E+03  0.50400001928E-02 0. -1.
        1   -1    0    0  501    0  0.00000000000E+00  0.00000000000E+00 -0.20740498355E+04  0.20740498355E+04  0.50400001928E-02 0.  1.
    10030    2    1    2    0    0  0.00000000000E+00  0.00000000000E+00 -0.12653159627E+04  0.28827837083E+04  0.25902543163E+04 0.  0.
        2    1    3    3  502    0  0.10712796001E+04 -0.41092985322E+03 -0.13012075724E+04  0.17348326929E+04  0.25500000920E-02 0. -1.
       -2    1    3    3    0  502 -0.10712796001E+04  0.41092985322E+03  0.35891609734E+02  0.11479510153E+04  0.25500000920E-02 0.  1.
</event>
<event>
 5   0  0.7351590E-06  0.2719287E+04  0.7818609E-02  0.8328774E-01
       -1   -1    0    0    0  501  0.00000000000E+00  0.00000000000E+00  0.12957507645E+04  0.12957507645E+04  0.50400001928E-02 0.  1.
        1   -1    0    0  501    0  0.00000000000E+00  0.00000000000E+00 -0.14266871303E+04  0.14266871303E+04  0.50400001928E-02 0. -1.
    10030    2    1    2    0    0  0.00000000000E+00  0.00000000000E+00 -0.13093636580E+03  0.27224378949E+04  0.27192873625E+04 0.  0.
        3    1    3    3  502    0 -0.92657718487E+03 -0.89986553955E+03 -0.49061022239E+03  0.13816662655E+04  0.10100000352E+00 0. -1.
       -3    1    3    3    0  502  0.92657718487E+03  0.89986553955E+03  0.35967385659E+03  0.13407716294E+04  0.10100000352E+00 0.  1.
</event>
<event>
 5   0  0.7351590E-06  0.2738627E+04  0.7818609E-02  0.8322580E-01
       -1   -1    0    0    0  501  0.00000000000E+00  0.00000000000E+00  0.22752000732E+04  0.22752000732E+04  0.50400001928E-02 0. -1.
        1   -1    0    0  501    0  0.00000000000E+00  0.00000000000E+00 -0.82411185474E+03  0.82411185475E+03  0.50400001928E-02 0.  1.
    10030    2    1    2    0    0  0.00000000000E+00  0.00000000000E+00  0.14510882185E+04  0.30993119279E+04  0.27386269204E+04 0.  0.
        3    1    3    3  502    0 -0.10805041329E+03 -0.13591443710E+04  0.86901184931E+03  0.16168271143E+04  0.10100000352E+00 0.  1.
       -3    1    3    3    0  502  0.10805041329E+03  0.13591443710E+04  0.58207636914E+03  0.14824848137E+04  0.10100000352E+00 0. -1.
</event>
<event>
 5   0  0.1788003E-05  0.2701845E+04  0.7818609E-02  0.8334407E-01
       -2   -1    0    0    0  501  0.00000000000E+00  0.00000000000E+00  0.19199295362E+04  0.19199295362E+04  0.25500000920E-02 0.  1.
        2   -1    0    0  501    0  0.00000000000E+00  0.00000000000E+00 -0.95055148563E+03  0.95055148563E+03  0.25500000920E-02 0. -1.
    10030    2    1    2    0    0  0.00000000000E+00  0.00000000000E+00  0.96937805056E+03  0.28704810218E+04  0.27018452013E+04 0.  0.
        2    1    3    3  502    0 -0.36899288315E+03  0.12765399471E+04  0.22601356418E+03  0.13478843109E+04  0.25500000920E-02 0. -1.
       -2    1    3    3    0  502  0.36899288315E+03 -0.12765399471E+04  0.74336448637E+03  0.15225967109E+04  0.25500000920E-02 0.  1.
</event>
<event>
 5   0  0.7348964E-06  0.2711221E+04  0.7818609E-02  0.8331373E-01
       -1   -1    0    0    0  501  0.00000000000E+00  0.00000000000E+00  0.90673988522E+03  0.90673988523E+03  0.50400001928E-02 0. -1.
        1   -1    0    0  501    0  0.00000000000E+00  0.00000000000E+00 -0.20266892182E+04  0.20266892182E+04  0.50400001928E-02 0.  1.
    10030    2    1    2    0    0  0.00000000000E+00  0.00000000000E+00 -0.11199493330E+04  0.29334291035E+04  0.27112210896E+04 0.  0.
        1    1    3    3  502    0  0.96351175348E+03  0.95332663056E+03 -0.58400743766E+03  0.14758899860E+04  0.50400001928E-02 0. -1.
       -1    1    3    3    0  502 -0.96351175348E+03 -0.95332663056E+03 -0.53594189536E+03  0.14575391174E+04  0.50400001928E-02 0.  1.
</event>
<event>
 5   0  0.1826851E-05  0.2748611E+04  0.7818609E-02  0.8319402E-01
       -2   -1    0    0    0  501  0.00000000000E+00  0.00000000000E+00  0.95277346690E+03  0.95277346691E+03  0.25500000920E-02 0. -1.
        2   -1    0    0  501    0  0.00000000000E+00  0.00000000000E+00 -0.19823348845E+04  0.19823348845E+04  0.25500000920E-02 0.  1.
    10030    2    1    2    0    0  0.00000000000E+00  0.00000000000E+00 -0.10295614176E+04  0.29351083514E+04  0.27486113442E+04 0.  0.
        5    1    3    3  502    0  0.12070368989E+04  0.36512966748E+03 -0.10981406244E+04  0.16721820087E+04  0.46999998093E+01 0.  1.
       -5    1    3    3    0  502 -0.12070368989E+04 -0.36512966748E+03  0.68579206872E+02  0.12629263426E+04  0.46999998093E+01 0. -1.
</event>
<event>
 5   0  0.7351590E-06  0.2042254E+04  0.7818609E-02  0.8587116E-01
        1   -1    0    0  501    0  0.00000000000E+00  0.00000000000E+00  0.96042137397E+03  0.96042137398E+03  0.50400001928E-02 0.  1.
       -1   -1    0    0    0  501  0.00000000000E+00  0.00000000000E+00 -0.10856701256E+04  0.10856701257E+04  0.50400001928E-02 0. -1.
    10030    2    1    2    0    0  0.00000000000E+00  0.00000000000E+00 -0.12524875167E+03  0.20460914996E+04  0.20422544345E+04 0.  0.
        3    1    3    3  502    0 -0.67999560819E+03 -0.38801039045E+03  0.59416409029E+03  0.98284132323E+03  0.10100000352E+00 0.  1.
       -3    1    3    3    0  502  0.67999560819E+03  0.38801039045E+03 -0.71941284197E+03  0.10632501764E+04  0.10100000352E+00 0. -1.
</event>
<event>
 5   0  0.1788003E-05  0.2694682E+04  0.7818609E-02  0.8336733E-01
       -2   -1    0    0    0  501  0.00000000000E+00  0.00000000000E+00  0.76299017975E+03  0.76299017976E+03  0.25500000920E-02 0.  1.
        2   -1    0    0  501    0  0.00000000000E+00  0.00000000000E+00 -0.23792282189E+04  0.23792282189E+04  0.25500000920E-02 0. -1.
    10030    2    1    2    0    0  0.00000000000E+00  0.00000000000E+00 -0.16162380392E+04  0.31422183987E+04  0.26946819972E+04 0.  0.
        2    1    3    3  502    0  0.33656449580E+03 -0.75516911738E+03 -0.20486518535E+04  0.22091922670E+04  0.25500000920E-02 0.  1.
       -2    1    3    3    0  502 -0.33656449580E+03  0.75516911738E+03  0.43241381430E+03  0.93302613172E+03  0.25500000920E-02 0. -1.
</event>
<event>
 5   0  0.1826851E-05  0.2603750E+04  0.7818609E-02  0.8366928E-01
        2   -1    0    0  501    0  0.00000000000E+00  0.00000000000E+00  0.81155431507E+03  0.81155431507E+03  0.25500000920E-02 0.  1.
       -2   -1    0    0    0  501  0.00000000000E+00  0.00000000000E+00 -0.20884353896E+04  0.20884353896E+04  0.25500000920E-02 0. -1.
    10030    2    1    2    0    0  0.00000000000E+00  0.00000000000E+00 -0.12768810745E+04  0.28999897046E+04  0.26037501817E+04 0.  0.
        5    1    3    3  502    0 -0.79431433010E+03  0.10004080617E+04 -0.91822876124E+03  0.15731871131E+04  0.46999998093E+01 0. -1.
       -5    1    3    3    0  502  0.79431433010E+03 -0.10004080617E+04 -0.35865231325E+03  0.13268025915E+04  0.46999998093E+01 0.  1.
</event>
<event>
 5   0  0.7348964E-06  0.2703871E+04  0.7818609E-02  0.8333750E-01
       -1   -1    0    0    0  501  0.00000000000E+00  0.00000000000E+00  0.77558083158E+03  0.77558083160E+03  0.50400001928E-02 0. -1.
        1   -1    0    0  501    0  0.00000000000E+00  0.00000000000E+00 -0.23565944957E+04  0.23565944957E+04  0.50400001928E-02 0.  1.
    10030    2    1    2    0    0  0.00000000000E+00  0.00000000000E+00 -0.15810136641E+04  0.31321753273E+04  0.27038709427E+04 0.  0.
        1    1    3    3  502    0  0.26176648481E+03 -0.67809039169E+03 -0.21109865808E+04  0.22326201236E+04  0.50400001928E-02 0.  1.
       -1    1    3    3    0  502 -0.26176648481E+03  0.67809039169E+03  0.52997291677E+03  0.89955520364E+03  0.50400001928E-02 0. -1.
</event>
<event>
 5   0  0.7754912E-06  0.2763587E+04  0.7818609E-02  0.8314663E-01
       -1   -1    0    0    0  501  0.00000000000E+00  0.00000000000E+00  0.10954534873E+04  0.10954534873E+04  0.50400001928E-02 0.  1.
        1   -1    0    0  501    0  0.00000000000E+00  0.00000000000E+00 -0.17429796757E+04  0.17429796757E+04  0.50400001928E-02 0. -1.
    10030    2    1    2    0    0  0.00000000000E+00  0.00000000000E+00 -0.64752618840E+03  0.28384331630E+04  0.27635869185E+04 0.  0.
        4    1    3    3  502    0 -0.40299929508E+03 -0.98027655712E+03  0.58681477464E+03  0.12114882389E+04  0.12699999809E+01 0.  1.
       -4    1    3    3    0  502  0.40299929508E+03  0.98027655712E+03 -0.12343409630E+04  0.16269449242E+04  0.12699999809E+01 0. -1.
</event>
<event>
 5   0  0.1931119E-05  0.2702045E+04  0.7818609E-02  0.8334342E-01
       -2   -1    0    0    0  501  0.00000000000E+00  0.00000000000E+00  0.18796832493E+04  0.18796832493E+04  0.25500000920E-02 0.  1.
        2   -1    0    0  501    0  0.00000000000E+00  0.00000000000E+00 -0.97104789194E+03  0.97104789194E+03  0.25500000920E-02 0. -1.
    10030    2    1    2    0    0  0.00000000000E+00  0.00000000000E+00  0.90863535734E+03  0.28507311412E+04  0.27020454894E+04 0.  0.
        3    1    3    3  502    0 -0.30461311337E+03  0.10098576576E+03 -0.93025218424E+03  0.98405102013E+03  0.10100000352E+00 0. -1.
       -3    1    3    3    0  502  0.30461311337E+03 -0.10098576576E+03  0.18388875416E+04  0.18666801211E+04  0.10100000352E+00 0.  1.
</event>
<event>
 5   0  0.7600052E-06  0.2676246E+04  0.7818609E-02  0.8342754E-01
        1   -1    0    0  501    0  0.00000000000E+00  0.00000000000E+00  0.20315548557E+04  0.20315548557E+04  0.50400001928E-02 0.  1.
       -1   -1    0    0    0  501  0.00000000000E+00  0.00000000000E+00 -0.88138079623E+03  0.88138079625E+03  0.50400001928E-02 0. -1.
    10030    2    1    2    0    0  0.00000000000E+00  0.00000000000E+00  0.11501740594E+04  0.29129356519E+04  0.26762462042E+04 0.  0.
        5    1    3    3  502    0  0.12199615676E+04  0.52509371760E+03  0.75234491700E+03  0.15264581890E+04  0.46999998093E+01 0.  1.
       -5    1    3    3    0  502 -0.12199615676E+04 -0.52509371760E+03  0.39782914244E+03  0.13864774629E+04  0.46999998093E+01 0. -1.
</event>
<event>
 5   0  0.1878160E-05  0.2697280E+04  0.7818609E-02  0.8335888E-01
       -2   -1    0    0    0  501  0.00000000000E+00  0.00000000000E+00  0.13028398706E+04  0.13028398706E+04  0.25500000920E-02 0. -1.
        2   -1    0    0  501    0  0.00000000000E+00  0.00000000000E+00 -0.13960502349E+04  0.13960502349E+04  0.25500000920E-02 0.  1.
    10030    2    1    2    0    0  0.00000000000E+00  0.00000000000E+00 -0.93210364270E+02  0.26988901056E+04  0.26972800429E+04 0.  0.
        1    1    3    3  502    0 -0.34824062519E+03  0.13026329718E+04 -0.20024026249E+02  0.13485270312E+04  0.50400001928E-02 0. -1.
       -1    1    3    3    0  502  0.34824062519E+03 -0.13026329718E+04 -0.73186338021E+02  0.13503630743E+04  0.50400001928E-02 0.  1.
</event>
<event>
 5   0  0.7348964E-06  0.2712885E+04  0.7818609E-02  0.8330836E-01
        1   -1    0    0  501    0  0.00000000000E+00  0.00000000000E+00  0.24172801089E+04  0.24172801089E+04  0.50400001928E-02 0. -1.
       -1   -1    0    0    0  501  0.00000000000E+00  0.00000000000E+00 -0.76115952535E+03  0.76115952536E+03  0.50400001928E-02 0.  1.
    10030    2    1    2    0    0  0.00000000000E+00  0.00000000000E+00  0.16561205836E+04  0.31784396343E+04  0.27128846495E+04 0.  0.
        1    1    3    3  502    0 -0.12282021912E+04 -0.36581075902E+03  0.13489160577E+04  0.18606108311E+04  0.50400001928E-02 0. -1.
       -1    1    3    3    0  502  0.12282021912E+04  0.36581075902E+03  0.30720452583E+03  0.13178288032E+04  0.50400001928E-02 0.  1.
</event>
<event>
 5   0  0.1788003E-05  0.2680960E+04  0.7818609E-02  0.8341209E-01
       -2   -1    0    0    0  501  0.00000000000E+00  0.00000000000E+00  0.99584248997E+03  0.99584248998E+03  0.25500000920E-02 0. -1.
        2   -1    0    0  501    0  0.00000000000E+00  0.00000000000E+00 -0.18043881318E+04  0.18043881318E+04  0.25500000920E-02 0.  1.
    10030    2    1    2    0    0  0.00000000000E+00  0.00000000000E+00 -0.80854564185E+03  0.28002306218E+04  0.26809598058E+04 0.  0.
        2    1    3    3  502    0 -0.41441240172E+03  0.21541837555E+03 -0.17166519244E+04  0.17790549583E+04  0.25500000920E-02 0.  1.
       -2    1    3    3    0  502  0.41441240172E+03 -0.21541837555E+03  0.90810628256E+03  0.10211756635E+04  0.25500000920E-02 0. -1.
</event>
<event>
 5   0  0.7351590E-06  0.2745628E+04  0.7818609E-02  0.8320350E-01
        1   -1    0    0  501    0  0.00000000000E+00  0.00000000000E+00  0.14176445857E+04  0.14176445857E+04  0.50400001928E-02 0.  1.
       -1   -1    0    0    0  501  0.00000000000E+00  0.00000000000E+00 -0.13294011059E+04  0.13294011059E+04  0.50400001928E-02 0. -1.
    10030    2    1    2    0    0  0.00000000000E+00  0.00000000000E+00  0.88243479840E+02  0.27470456917E+04  0.27456280011E+04 0.  0.
        3    1    3    3  502    0  0.72917772724E+03  0.40941327531E+03  0.11333982171E+04  0.14085137261E+04  0.10100000352E+00 0.  1.
       -3    1    3    3    0  502 -0.72917772724E+03 -0.40941327531E+03 -0.10451547372E+04  0.13385319656E+04  0.10100000352E+00 0. -1.
</event>
<event>
 5   0  0.1881699E-05  0.2711490E+04  0.7818609E-02  0.8331286E-01
       -2   -1    0    0    0  501  0.00000000000E+00  0.00000000000E+00  0.15058554872E+04  0.15058554872E+04  0.25500000920E-02 0.  1.
        2   -1    0    0  501    0  0.00000000000E+00  0.00000000000E+00 -0.12205984187E+04  0.12205984187E+04  0.25500000920E-02 0. -1.
    10030    2    1    2    0    0  0.00000000000E+00  0.00000000000E+00  0.28525706848E+03  0.27264539059E+04  0.27114902371E+04 0.  0.
        4    1    3    3  502    0 -0.86227704231E+03  0.10458797036E+04  0.16840516512E+03  0.13659238503E+04  0.12699999809E+01 0.  1.
       -4    1    3    3    0  502  0.86227704231E+03 -0.10458797036E+04  0.11685190336E+03  0.13605300557E+04  0.12699999809E+01 0. -1.
</event>
<event>
 5   0  0.1878160E-05  0.2539220E+04  0.7818609E-02  0.8389145E-01
       -2   -1    0    0    0  501  0.00000000000E+00  0.00000000000E+00  0.59084000360E+03  0.59084000360E+03  0.25500000920E-02 0.  1.
        2   -1    0    0  501    0  0.00000000000E+00  0.00000000000E+00 -0.27281667393E+04  0.27281667393E+04  0.25500000920E-02 0. -1.
    10030    2    1    2    0    0  0.00000000000E+00  0.00000000000E+00 -0.21373267357E+04  0.33190067429E+04  0.25392203891E+04 0.  0.
        1    1    3    3  502    0 -0.43890069631E+03 -0.48652391873E+03 -0.24900796815E+04  0.25748468236E+04  0.50400001928E-02 0. -1.
       -1    1    3    3    0  502  0.43890069631E+03  0.48652391873E+03  0.35275294579E+03  0.74415991931E+03  0.50400001928E-02 0.  1.
</event>
<event>
 5   0  0.7351590E-06  0.2671327E+04  0.7818609E-02  0.8344369E-01
       -1   -1    0    0    0  501  0.00000000000E+00  0.00000000000E+00  0.16728770412E+04  0.16728770412E+04  0.50400001928E-02 0.  1.
        1   -1    0    0  501    0  0.00000000000E+00  0.00000000000E+00 -0.10664242464E+04  0.10664242464E+04  0.50400001928E-02 0. -1.
    10030    2    1    2    0    0  0.00000000000E+00  0.00000000000E+00  0.60645279482E+03  0.27393012877E+04  0.26713267401E+04 0.  0.
        3    1    3    3  502    0  0.11883756446E+04  0.49286169167E+02  0.92641653311E+03  0.15076184538E+04  0.10100000352E+00 0. -1.
       -3    1    3    3    0  502 -0.11883756446E+04 -0.49286169167E+02 -0.31996373829E+03  0.12316828339E+04  0.10100000352E+00 0.  1.
</event>
<event>
 5   0  0.7600052E-06  0.2688634E+04  0.7818609E-02  0.8338702E-01
       -1   -1    0    0    0  501  0.00000000000E+00  0.00000000000E+00  0.10778807840E+04  0.10778807840E+04  0.50400001928E-02 0.  1.
        1   -1    0    0  501    0  0.00000000000E+00  0.00000000000E+00 -0.16766128208E+04  0.16766128208E+04  0.50400001928E-02 0. -1.
    10030    2    1    2    0    0  0.00000000000E+00  0.00000000000E+00 -0.59873203676E+03  0.27544936049E+04  0.26886344057E+04 0.  0.
        5    1    3    3  502    0 -0.11720466880E+04 -0.28344772059E+03  0.30943825801E+03  0.12449137218E+04  0.46999998093E+01 0.  1.
       -5    1    3    3    0  502  0.11720466880E+04  0.28344772059E+03 -0.90817029477E+03  0.15095798831E+04  0.46999998093E+01 0. -1.
</event>
<event>
 5   0  0.7351590E-06  0.2682138E+04  0.7818609E-02  0.8340824E-01
        1   -1    0    0  501    0  0.00000000000E+00  0.00000000000E+00  0.18374078913E+04  0.18374078913E+04  0.50400001928E-02 0.  1.
       -1   -1    0    0    0  501  0.00000000000E+00  0.00000000000E+00 -0.97880581481E+03  0.97880581482E+03  0.50400001928E-02 0. -1.
    10030    2    1    2    0    0  0.00000000000E+00  0.00000000000E+00  0.85860207650E+03  0.28162137061E+04  0.26821376014E+04 0.  0.
        3    1    3    3  502    0 -0.14454222875E+03 -0.10623122983E+04 -0.41661812561E+03  0.11502045678E+04  0.10100000352E+00 0. -1.
       -3    1    3    3    0  502  0.14454222875E+03  0.10623122983E+04  0.12752202021E+04  0.16660091383E+04  0.10100000352E+00 0.  1.
</event>
<event>
 5   0  0.6175875E-06  0.2751043E+04  0.7818609E-02  0.8318631E-01
       -3   -1    0    0    0  501  0.00000000000E+00  0.00000000000E+00  0.16674861636E+04  0.16674861666E+04  0.10100000352E+00 0. -1.
        3   -1    0    0  501    0  0.00000000000E+00  0.00000000000E+00 -0.11346777163E+04  0.11346777208E+04  0.10100000352E+00 0.  1.
    10030    2    1    2    0    0  0.00000000000E+00  0.00000000000E+00  0.53280844729E+03  0.28021638874E+04  0.27510430041E+04 0.  0.
        1    1    3    3  502    0  0.83643339115E+03 -0.48259253137E+03  0.12641694887E+04  0.15907988136E+04  0.50400001928E-02 0. -1.
       -1    1    3    3    0  502 -0.83643339115E+03  0.48259253137E+03 -0.73136104140E+03  0.12113650738E+04  0.50400001928E-02 0.  1.
</event>
<event>
 5   0  0.1788003E-05  0.2663820E+04  0.7818609E-02  0.8346841E-01
       -2   -1    0    0    0  501  0.00000000000E+00  0.00000000000E+00  0.11784744897E+04  0.11784744897E+04  0.25500000920E-02 0.  1.
        2   -1    0    0  501    0  0.00000000000E+00  0.00000000000E+00 -0.15053222747E+04  0.15053222747E+04  0.25500000920E-02 0. -1.
    10030    2    1    2    0    0  0.00000000000E+00  0.00000000000E+00 -0.32684778503E+03  0.26837967644E+04  0.26638197383E+04 0.  0.
        2    1    3    3  502    0  0.62099566513E+03  0.10773660657E+04  0.31726064907E+03  0.12833579295E+04  0.25500000920E-02 0.  1.
       -2    1    3    3    0  502 -0.62099566513E+03 -0.10773660657E+04 -0.64410843411E+03  0.14004388350E+04  0.25500000920E-02 0. -1.
</event>
<event>
 5   0  0.7351590E-06  0.2591997E+04  0.7818609E-02  0.8370925E-01
       -1   -1    0    0    0  501  0.00000000000E+00  0.00000000000E+00  0.87998961165E+03  0.87998961167E+03  0.50400001928E-02 0.  1.
        1   -1    0    0  501    0  0.00000000000E+00  0.00000000000E+00 -0.19086726058E+04  0.19086726058E+04  0.50400001928E-02 0. -1.
    10030    2    1    2    0    0  0.00000000000E+00  0.00000000000E+00 -0.10286829942E+04  0.27886622175E+04  0.25919969639E+04 0.  0.
        3    1    3    3  502    0  0.12090473770E+04 -0.36514948188E+03 -0.20162958874E+03  0.12789777970E+04  0.10100000352E+00 0. -1.
       -3    1    3    3    0  502 -0.12090473770E+04  0.36514948188E+03 -0.82705340545E+03  0.15096844205E+04  0.10100000352E+00 0.  1.
</event>
<event>
 5   0  0.1878160E-05  0.2703128E+04  0.7818609E-02  0.8333991E-01
        2   -1    0    0  501    0  0.00000000000E+00  0.00000000000E+00  0.18852697726E+04  0.18852697726E+04  0.25500000920E-02 0.  1.
       -2   -1    0    0    0  501  0.00000000000E+00  0.00000000000E+00 -0.96894645605E+03  0.96894645605E+03  0.25500000920E-02 0. -1.
    10030    2    1    2    0    0  0.00000000000E+00  0.00000000000E+00  0.91632331652E+03  0.28542162286E+04  0.27031281618E+04 0.  0.
        1    1    3    3  502    0  0.10568353532E+04 -0.84240097823E+03  0.47252697301E+03  0.14317199838E+04  0.50400001928E-02 0.  1.
       -1    1    3    3    0  502 -0.10568353532E+04  0.84240097823E+03  0.44379634351E+03  0.14224962448E+04  0.50400001928E-02 0. -1.
</event>
<event>
 5   0  0.1881699E-05  0.2501457E+04  0.7818609E-02  0.8402467E-01
       -2   -1    0    0    0  501  0.00000000000E+00  0.00000000000E+00  0.89943185284E+03  0.89943185284E+03  0.25500000920E-02 0.  1.
        2   -1    0    0  501    0  0.00000000000E+00  0.00000000000E+00 -0.17392334233E+04  0.17392334234E+04  0.25500000920E-02 0. -1.
    10030    2    1    2    0    0  0.00000000000E+00  0.00000000000E+00 -0.83980157051E+03  0.26386652762E+04  0.25014571277E+04 0.  0.
        4    1    3    3  502    0 -0.36749946987E+03  0.11448750173E+04 -0.78306030490E+03  0.14349145339E+04  0.12699999809E+01 0. -1.
       -4    1    3    3    0  502  0.36749946987E+03 -0.11448750173E+04 -0.56741265614E+02  0.12037507423E+04  0.12699999809E+01 0.  1.
</event>
<event>
 5   0  0.7600052E-06  0.2687111E+04  0.7818609E-02  0.8339199E-01
       -1   -1    0    0    0  501  0.00000000000E+00  0.00000000000E+00  0.92291666551E+03  0.92291666552E+03  0.50400001928E-02 0. -1.
        1   -1    0    0  501    0  0.00000000000E+00  0.00000000000E+00 -0.19559097737E+04  0.19559097737E+04  0.50400001928E-02 0.  1.
    10030    2    1    2    0    0  0.00000000000E+00  0.00000000000E+00 -0.10329931082E+04  0.28788264392E+04  0.26871112566E+04 0.  0.
        5    1    3    3  502    0  0.27902551604E+02  0.11363307171E+03  0.91743884826E+03  0.92488223989E+03  0.46999998093E+01 0. -1.
       -5    1    3    3    0  502 -0.27902551604E+02 -0.11363307171E+03 -0.19504319564E+04  0.19539441993E+04  0.46999998093E+01 0.  1.
</event>
<event>
 5   0  0.1931119E-05  0.2713249E+04  0.7818609E-02  0.8330719E-01
       -2   -1    0    0    0  501  0.00000000000E+00  0.00000000000E+00  0.17009460228E+04  0.17009460228E+04  0.25500000920E-02 0. -1.
        2   -1    0    0  501    0  0.00000000000E+00  0.00000000000E+00 -0.10820038513E+04  0.10820038513E+04  0.25500000920E-02 0.  1.
    10030    2    1    2    0    0  0.00000000000E+00  0.00000000000E+00  0.61894217154E+03  0.27829498741E+04  0.27132490836E+04 0.  0.
        3    1    3    3  502    0 -0.87872794186E+03 -0.93071844470E+03 -0.15155362898E+03  0.12889407014E+04  0.10100000352E+00 0.  1.
       -3    1    3    3    0  502  0.87872794186E+03  0.93071844470E+03  0.77049580052E+03  0.14940091726E+04  0.10100000352E+00 0. -1.
</event>
<event>
 5   0  0.1931119E-05  0.2802749E+04  0.7818609E-02  0.8302415E-01
        2   -1    0    0  501    0  0.00000000000E+00  0.00000000000E+00  0.15228867630E+04  0.15228867630E+04  0.25500000920E-02 0. -1.
       -2   -1    0    0    0  501  0.00000000000E+00  0.00000000000E+00 -0.12895581690E+04  0.12895581690E+04  0.25500000920E-02 0.  1.
    10030    2    1    2    0    0  0.00000000000E+00  0.00000000000E+00  0.23332859399E+03  0.28124449320E+04  0.28027494114E+04 0.  0.
        3    1    3    3  502    0 -0.12180303806E+04 -0.62593621628E+03 -0.18178160293E+03  0.13814625280E+04  0.10100000352E+00 0.  1.
       -3    1    3    3    0  502  0.12180303806E+04  0.62593621628E+03  0.41511019693E+03  0.14309824040E+04  0.10100000352E+00 0. -1.
</event>
<event>
 5   0  0.6804685E-06  0.2230558E+04  0.7818609E-02  0.8505816E-01
        1   -1    0    0  501    0  0.00000000000E+00  0.00000000000E+00  0.96479612276E+03  0.96479612277E+03  0.50400001928E-02 0.  1.
       -1   -1    0    0    0  501  0.00000000000E+00  0.00000000000E+00 -0.12892338041E+04  0.12892338042E+04  0.50400001928E-02 0. -1.
    10030    2    1    2    0    0  0.00000000000E+00  0.00000000000E+00 -0.32443768139E+03  0.22540299269E+04  0.22305584732E+04 0.  0.
        2    1    3    3  502    0 -0.90929338680E+03 -0.49371030798E+03 -0.58287243191E+03  0.11875624629E+04  0.25500000920E-02 0. -1.
       -2    1    3    3    0  502  0.90929338680E+03  0.49371030798E+03  0.25843475052E+03  0.10664674640E+04  0.25500000920E-02 0.  1.
</event>
<event>
 5   0  0.7600052E-06  0.2698283E+04  0.7818609E-02  0.8335562E-01
        1   -1    0    0  501    0  0.00000000000E+00  0.00000000000E+00  0.19903390370E+04  0.19903390370E+04  0.50400001928E-02 0.  1.
       -1   -1    0    0    0  501  0.00000000000E+00  0.00000000000E+00 -0.91450887897E+03  0.91450887898E+03  0.50400001928E-02 0. -1.
    10030    2    1    2    0    0  0.00000000000E+00  0.00000000000E+00  0.10758301580E+04  0.29048479160E+04  0.26982829515E+04 0.  0.
        5    1    3    3  502    0  0.66274424241E+03  0.49663588314E+01 -0.72716487558E+03  0.98389300325E+03  0.46999998093E+01 0. -1.
       -5    1    3    3    0  502 -0.66274424241E+03 -0.49663588314E+01  0.18029950336E+04  0.19209549128E+04  0.46999998093E+01 0.  1.
</event>
<event>
 5   0  0.7348964E-06  0.2718591E+04  0.7818609E-02  0.8328998E-01
        1   -1    0    0  501    0  0.00000000000E+00  0.00000000000E+00  0.13926644521E+04  0.13926644521E+04  0.50400001928E-02 0. -1.
       -1   -1    0    0    0  501  0.00000000000E+00  0.00000000000E+00 -0.13267261281E+04  0.13267261281E+04  0.50400001928E-02 0.  1.
    10030    2    1    2    0    0  0.00000000000E+00  0.00000000000E+00  0.65938323993E+02  0.27193905802E+04  0.27185910441E+04 0.  0.
        1    1    3    3  502    0 -0.70877419078E+03 -0.88801206632E+03 -0.71341248666E+03  0.13415974283E+04  0.50400001928E-02 0.  1.
       -1    1    3    3    0  502  0.70877419078E+03  0.88801206632E+03  0.77935081065E+03  0.13777931519E+04  0.50400001928E-02 0. -1.
</event>
<event>
 5   0  0.1826851E-05  0.2707613E+04  0.7818609E-02  0.8332539E-01
       -2   -1    0    0    0  501  0.00000000000E+00  0.00000000000E+00  0.91312997772E+03  0.91312997773E+03  0.25500000920E-02 0.  1.
        2   -1    0    0  501    0  0.00000000000E+00  0.00000000000E+00 -0.20071539469E+04  0.20071539469E+04  0.25500000920E-02 0. -1.
    10030    2    1    2    0    0  0.00000000000E+00  0.00000000000E+00 -0.10940239691E+04  0.29202839246E+04  0.27076132950E+04 0.  0.
        5    1    3    3  502    0  0.83396731195E+03  0.78539449454E+03  0.23105546677E+03  0.11686550852E+04  0.46999998093E+01 0.  1.
       -5    1    3    3    0  502 -0.83396731195E+03 -0.78539449454E+03 -0.13250794359E+04  0.17516288394E+04  0.46999998093E+01 0. -1.
</event>
<event>
 5   0  0.1931119E-05  0.2697465E+04  0.7818609E-02  0.8335828E-01
       -2   -1    0    0    0  501  0.00000000000E+00  0.00000000000E+00  0.88460033784E+03  0.88460033784E+03  0.25500000920E-02 0.  1.
        2   -1    0    0  501    0  0.00000000000E+00  0.00000000000E+00 -0.20563854078E+04  0.20563854078E+04  0.25500000920E-02 0. -1.
    10030    2    1    2    0    0  0.00000000000E+00  0.00000000000E+00 -0.11717850700E+04  0.29409857457E+04  0.26974649036E+04 0.  0.
        3    1    3    3  502    0  0.24581337806E+03 -0.93497832514E+03  0.43947320035E+03  0.10619535721E+04  0.10100000352E+00 0.  1.
       -3    1    3    3    0  502 -0.24581337806E+03  0.93497832514E+03 -0.16112582703E+04  0.18790321736E+04  0.10100000352E+00 0. -1.
</event>
<event>
 5   0  0.1881699E-05  0.2925711E+04  0.7818609E-02  0.8265268E-01
       -2   -1    0    0    0  501  0.00000000000E+00  0.00000000000E+00  0.14350098958E+04  0.14350098958E+04  0.25500000920E-02 0.  1.
        2   -1    0    0  501    0  0.00000000000E+00  0.00000000000E+00 -0.14912417240E+04  0.14912417240E+04  0.25500000920E-02 0. -1.
    10030    2    1    2    0    0  0.00000000000E+00  0.00000000000E+00 -0.56231828224E+02  0.29262516199E+04  0.29257112852E+04 0.  0.
        4    1    3    3  502    0 -0.61857721488E+03  0.91835709885E+03 -0.98428801930E+03  0.14814999324E+04  0.12699999809E+01 0. -1.
       -4    1    3    3    0  502  0.61857721488E+03 -0.91835709885E+03  0.92805619108E+03  0.14447516875E+04  0.12699999809E+01 0.  1.
</event>
<event>
 5   0  0.1931119E-05  0.2670438E+04  0.7818609E-02  0.8344661E-01
        2   -1    0    0  501    0  0.00000000000E+00  0.00000000000E+00  0.21031819944E+04  0.21031819944E+04  0.25500000920E-02 0. -1.
       -2   -1    0    0    0  501  0.00000000000E+00  0.00000000000E+00 -0.84767291437E+03  0.84767291438E+03  0.25500000920E-02 0.  1.
    10030    2    1    2    0    0  0.00000000000E+00  0.00000000000E+00  0.12555090801E+04  0.29508549088E+04  0.26704384739E+04 0.  0.
        3    1    3    3  502    0  0.22584825836E+03 -0.12314321227E+04  0.11405755864E+04  0.16936189616E+04  0.10100000352E+00 0. -1.
       -3    1    3    3    0  502 -0.22584825836E+03  0.12314321227E+04  0.11493349369E+03  0.12572359472E+04  0.10100000352E+00 0.  1.
</event>
<event>
 5   0  0.7600052E-06  0.2141683E+04  0.7818609E-02  0.8543101E-01
        1   -1    0    0  501    0  0.00000000000E+00  0.00000000000E+00  0.12468912012E+04  0.12468912012E+04  0.50400001928E-02 0. -1.
       -1   -1    0    0    0  501  0.00000000000E+00  0.00000000000E+00 -0.91964847431E+03  0.91964847432E+03  0.50400001928E-02 0.  1.
    10030    2    1    2    0    0  0.00000000000E+00  0.00000000000E+00  0.32724272691E+03  0.21665396755E+04  0.21416830679E+04 0.  0.
        5    1    3    3  502    0 -0.45260739833E+03 -0.22353372914E+02  0.11451015936E+04  0.12315164961E+04  0.46999998093E+01 0. -1.
       -5    1    3    3    0  502  0.45260739833E+03  0.22353372914E+02 -0.81785886673E+03  0.93502317949E+03  0.46999998093E+01 0.  1.
</event>
<event>
 5   0  0.7754912E-06  0.2706412E+04  0.7818609E-02  0.8332927E-01
        1   -1    0    0  501    0  0.00000000000E+00  0.00000000000E+00  0.74922281783E+03  0.74922281785E+03  0.50400001928E-02 0. -1.
       -1   -1    0    0    0  501  0.00000000000E+00  0.00000000000E+00 -0.24440887447E+04  0.24440887447E+04  0.50400001928E-02 0.  1.
    10030    2    1    2    0    0  0.00000000000E+00  0.00000000000E+00 -0.16948659269E+04  0.31933115626E+04  0.27064124271E+04 0.  0.
        4    1    3    3  502    0 -0.70647285489E+03  0.56333732301E+03  0.34112083179E+03  0.96582496809E+03  0.12699999809E+01 0. -1.
       -4    1    3    3    0  502  0.70647285489E+03 -0.56333732301E+03 -0.20359867587E+04  0.22274865945E+04  0.12699999809E+01 0.  1.
</event>
<event>
 5   0  0.7600052E-06  0.2677266E+04  0.7818609E-02  0.8342419E-01
        1   -1    0    0  501    0  0.00000000000E+00  0.00000000000E+00  0.51173549964E+03  0.51173549966E+03  0.50400001928E-02 0.  1.
       -1   -1    0    0    0  501  0.00000000000E+00  0.00000000000E+00 -0.35016879039E+04  0.35016879039E+04  0.50400001928E-02 0. -1.
    10030    2    1    2    0    0  0.00000000000E+00  0.00000000000E+00 -0.29899524042E+04  0.40134234036E+04  0.26772657762E+04 0.  0.
        5    1    3    3  502    0  0.82797792361E+03 -0.50733636384E+03 -0.28762245929E+04  0.30357252226E+04  0.46999998093E+01 0. -1.
       -5    1    3    3    0  502 -0.82797792361E+03  0.50733636384E+03 -0.11372781135E+03  0.97769818100E+03  0.46999998093E+01 0.  1.
</event>
<event>
 5   0  0.7754912E-06  0.2706629E+04  0.7818609E-02  0.8332857E-01
       -1   -1    0    0    0  501  0.00000000000E+00  0.00000000000E+00  0.80410457073E+03  0.80410457074E+03  0.50400001928E-02 0.  1.
        1   -1    0    0  501    0  0.00000000000E+00  0.00000000000E+00 -0.22776388308E+04  0.22776388308E+04  0.50400001928E-02 0. -1.
    10030    2    1    2    0    0  0.00000000000E+00  0.00000000000E+00 -0.14735342600E+04  0.30817434015E+04  0.27066287476E+04 0.  0.
        4    1    3    3  502    0 -0.89948378354E+03 -0.10101152697E+04 -0.68516186005E+03  0.15161966635E+04  0.12699999809E+01 0.  1.
       -4    1    3    3    0  502  0.89948378354E+03  0.10101152697E+04 -0.78837239998E+03  0.15655467380E+04  0.12699999809E+01 0. -1.
</event>
<event>
 5   0  0.1931119E-05  0.2749680E+04  0.7818609E-02  0.8319063E-01
        2   -1    0    0  501    0  0.00000000000E+00  0.00000000000E+00  0.13135661185E+04  0.13135661185E+04  0.25500000920E-02 0.  1.
       -2   -1    0    0    0  501  0.00000000000E+00  0.00000000000E+00 -0.14389725229E+04  0.14389725229E+04  0.25500000920E-02 0. -1.
    10030    2    1    2    0    0  0.00000000000E+00  0.00000000000E+00 -0.12540640434E+03  0.27525386414E+04  0.27496803826E+04 0.  0.
        3    1    3    3  502    0  0.11820009733E+04 -0.57988688399E+03 -0.45908253456E+03  0.13943284702E+04  0.10100000352E+00 0. -1.
       -3    1    3    3    0  502 -0.11820009733E+04  0.57988688399E+03  0.33367613023E+03  0.13582101712E+04  0.10100000352E+00 0.  1.
</event>
<event>
 5   0  0.7351590E-06  0.2674027E+04  0.7818609E-02  0.8343482E-01
       -1   -1    0    0    0  501  0.00000000000E+00  0.00000000000E+00  0.14799416574E+04  0.14799416574E+04  0.50400001928E-02 0.  1.
        1   -1    0    0  501    0  0.00000000000E+00  0.00000000000E+00 -0.12078887365E+04  0.12078887366E+04  0.50400001928E-02 0. -1.
    10030    2    1    2    0    0  0.00000000000E+00  0.00000000000E+00  0.27205292081E+03  0.26878303939E+04  0.26740268201E+04 0.  0.
        3    1    3    3  502    0  0.70313836782E+03  0.32102044463E+03  0.12325966460E+04  0.14549062485E+04  0.10100000352E+00 0.  1.
       -3    1    3    3    0  502 -0.70313836782E+03 -0.32102044463E+03 -0.96054372515E+03  0.12329241454E+04  0.10100000352E+00 0. -1.
</event>
<event>
 5   0  0.6175875E-06  0.2660095E+04  0.7818609E-02  0.8348070E-01
       -4   -1    0    0    0  501  0.00000000000E+00  0.00000000000E+00  0.14144182799E+04  0.14144188501E+04  0.12699999809E+01 0. -1.
        4   -1    0    0  501    0  0.00000000000E+00  0.00000000000E+00 -0.12507084300E+04  0.12507090748E+04  0.12699999809E+01 0.  1.
    10030    2    1    2    0    0  0.00000000000E+00  0.00000000000E+00  0.16370984992E+03  0.26651279249E+04  0.26600951000E+04 0.  0.
        5    1    3    3  502    0  0.17899551885E+02 -0.30188577593E+03  0.13795077041E+04  0.14122744108E+04  0.46999998093E+01 0. -1.
       -5    1    3    3    0  502 -0.17899551885E+02  0.30188577593E+03 -0.12157978542E+04  0.12528535141E+04  0.46999998093E+01 0.  1.
</event>
<event>
 5   0  0.1931119E-05  0.2718380E+04  0.7818609E-02  0.8329066E-01
       -2   -1    0    0    0  501  0.00000000000E+00  0.00000000000E+00  0.12896215503E+04  0.12896215503E+04  0.25500000920E-02 0. -1.
        2   -1    0    0  501    0  0.00000000000E+00  0.00000000000E+00 -0.14325108100E+04  0.14325108100E+04  0.25500000920E-02 0.  1.
    10030    2    1    2    0    0  0.00000000000E+00  0.00000000000E+00 -0.14288925965E+03  0.27221323603E+04  0.27183795259E+04 0.  0.
        3    1    3    3  502    0  0.56678644509E+03  0.92145404564E+03 -0.89542467308E+03  0.14043182645E+04  0.10100000352E+00 0.  1.
       -3    1    3    3    0  502 -0.56678644509E+03 -0.92145404564E+03  0.75253541343E+03  0.13178140959E+04  0.10100000352E+00 0. -1.
</event>
<event>
 5   0  0.7351590E-06  0.2705592E+04  0.7818609E-02  0.8333193E-01
        1   -1    0    0  501    0  0.00000000000E+00  0.00000000000E+00  0.20883237910E+04  0.20883237910E+04  0.50400001928E-02 0. -1.
       -1   -1    0    0    0  501  0.00000000000E+00  0.00000000000E+00 -0.87632813270E+03  0.87632813271E+03  0.50400001928E-02 0.  1.
    10030    2    1    2    0    0  0.00000000000E+00  0.00000000000E+00  0.12119956583E+04  0.29646519237E+04  0.27055919043E+04 0.  0.
        3    1    3    3  502    0  0.71717952843E+03 -0.11047571478E+04  0.26787057704E+03  0.13440943002E+04  0.10100000352E+00 0. -1.
       -3    1    3    3    0  502 -0.71717952843E+03  0.11047571478E+04  0.94412508122E+03  0.16205576234E+04  0.10100000352E+00 0.  1.
</event>
<event>
 5   0  0.1881699E-05  0.2746597E+04  0.7818609E-02  0.8320042E-01
        2   -1    0    0  501    0  0.00000000000E+00  0.00000000000E+00  0.21448464781E+04  0.21448464781E+04  0.25500000920E-02 0. -1.
       -2   -1    0    0    0  501  0.00000000000E+00  0.00000000000E+00 -0.87929295878E+03  0.87929295879E+03  0.25500000920E-02 0.  1.
    10030    2    1    2    0    0  0.00000000000E+00  0.00000000000E+00  0.12655535193E+04  0.30241394369E+04  0.27465967348E+04 0.  0.
        4    1    3    3  502    0  0.39816590399E+03  0.21215138223E+03 -0.79536679568E+03  0.91441470277E+03  0.12699999809E+01 0.  1.
       -4    1    3    3    0  502 -0.39816590399E+03 -0.21215138223E+03  0.20609203150E+04  0.21097247341E+04  0.12699999809E+01 0. -1.
</event>
<event>
 5   0  0.6804685E-06  0.2671523E+04  0.7818609E-02  0.8344304E-01
        1   -1    0    0  501    0  0.00000000000E+00  0.00000000000E+00  0.92319401306E+03  0.92319401307E+03  0.50400001928E-02 0. -1.
       -1   -1    0    0    0  501  0.00000000000E+00  0.00000000000E+00 -0.19327015936E+04  0.19327015936E+04  0.50400001928E-02 0.  1.
    10030    2    1    2    0    0  0.00000000000E+00  0.00000000000E+00 -0.10095075806E+04  0.28558956067E+04  0.26715228169E+04 0.  0.
        2    1    3    3  502    0 -0.39345347375E+03  0.89874506788E+03  0.46428861349E+03  0.10854087938E+04  0.25500000920E-02 0. -1.
       -2    1    3    3    0  502  0.39345347375E+03 -0.89874506788E+03 -0.14737961940E+04  0.17704868129E+04  0.25500000920E-02 0.  1.
</event>
<event>
 5   0  0.6804685E-06  0.2712600E+04  0.7818609E-02  0.8330928E-01
        1   -1    0    0  501    0  0.00000000000E+00  0.00000000000E+00  0.14800767451E+04  0.14800767452E+04  0.50400001928E-02 0. -1.
       -1   -1    0    0    0  501  0.00000000000E+00  0.00000000000E+00 -0.12428743085E+04  0.12428743085E+04  0.50400001928E-02 0.  1.
    10030    2    1    2    0    0  0.00000000000E+00  0.00000000000E+00  0.23720243665E+03  0.27229510537E+04  0.27125997576E+04 0.  0.
        2    1    3    3  502    0  0.13250848009E+04  0.37808835761E-01  0.40901410610E+03  0.13867740516E+04  0.25500000920E-02 0.  1.
       -2    1    3    3    0  502 -0.13250848009E+04 -0.37808835761E-01 -0.17181166945E+03  0.13361770021E+04  0.25500000920E-02 0. -1.
</event>
<event>
 5   0  0.7754912E-06  0.2605423E+04  0.7818609E-02  0.8366361E-01
       -1   -1    0    0    0  501  0.00000000000E+00  0.00000000000E+00  0.13920468420E+04  0.13920468420E+04  0.50400001928E-02 0.  1.
        1   -1    0    0  501    0  0.00000000000E+00  0.00000000000E+00 -0.12191095875E+04  0.12191095875E+04  0.50400001928E-02 0. -1.
    10030    2    1    2    0    0  0.00000000000E+00  0.00000000000E+00  0.17293725455E+03  0.26111564296E+04  0.26054233064E+04 0.  0.
        4    1    3    3  502    0  0.39578856796E+03 -0.47790359926E+03  0.12344215965E+04  0.13816073001E+04  0.12699999809E+01 0.  1.
       -4    1    3    3    0  502 -0.39578856796E+03  0.47790359926E+03 -0.10614843420E+04  0.12295491295E+04  0.12699999809E+01 0. -1.
</event>
<event>
 5   0  0.7351590E-06  0.2711874E+04  0.7818609E-02  0.8331163E-01
        1   -1    0    0  501    0  0.00000000000E+00  0.00000000000E+00  0.13728649143E+04  0.13728649143E+04  0.50400001928E-02 0. -1.
       -1   -1    0    0    0  501  0.00000000000E+00  0.00000000000E+00 -0.13392177935E+04  0.13392177935E+04  0.50400001928E-02 0.  1.
    10030    2    1    2    0    0  0.00000000000E+00  0.00000000000E+00  0.33647120839E+02  0.27120827078E+04  0.27118739804E+04 0.  0.
        3    1    3    3  502    0  0.12593145291E+04 -0.50149172428E+03  0.51439492927E+02  0.13564708122E+04  0.10100000352E+00 0.  1.
       -3    1    3    3    0  502 -0.12593145291E+04  0.50149172428E+03 -0.17792372089E+02  0.13556118956E+04  0.10100000352E+00 0. -1.
</event>
<event>
 5   0  0.7600052E-06  0.2694669E+04  0.7818609E-02  0.8336737E-01
       -1   -1    0    0    0  501  0.00000000000E+00  0.00000000000E+00  0.10197436625E+04  0.10197436626E+04  0.50400001928E-02 0.  1.
        1   -1    0    0  501    0  0.00000000000E+00  0.00000000000E+00 -0.17801628836E+04  0.17801628836E+04  0.50400001928E-02 0. -1.
    10030    2    1    2    0    0  0.00000000000E+00  0.00000000000E+00 -0.76041922102E+03  0.27999065461E+04  0.26946686764E+04 0.  0.
        5    1    3    3  502    0  0.81027015191E+03 -0.41073167144E+03 -0.14140812379E+04  0.16807397367E+04  0.46999998093E+01 0. -1.
       -5    1    3    3    0  502 -0.81027015191E+03  0.41073167144E+03  0.65366201691E+03  0.11191668094E+04  0.46999998093E+01 0.  1.
</event>
<event>
 5   0  0.1931119E-05  0.2093703E+04  0.7818609E-02  0.8564022E-01
       -2   -1    0    0    0  501  0.00000000000E+00  0.00000000000E+00  0.75264830479E+03  0.75264830479E+03  0.25500000920E-02 0.  1.
        2   -1    0    0  501    0  0.00000000000E+00  0.00000000000E+00 -0.14560561891E+04  0.14560561891E+04  0.25500000920E-02 0. -1.
    10030    2    1    2    0    0  0.00000000000E+00  0.00000000000E+00 -0.70340788433E+03  0.22087044939E+04  0.20937031522E+04 0.  0.
        3    1    3    3  502    0  0.85948661912E+03  0.52364186629E+03 -0.47818678056E+02  0.10075736642E+04  0.10100000352E+00 0.  1.
       -3    1    3    3    0  502 -0.85948661912E+03 -0.52364186629E+03 -0.65558920628E+03  0.12011308297E+04  0.10100000352E+00 0. -1.
</event>
<event>
 5   0  0.7348964E-06  0.2460140E+04  0.7818609E-02  0.8417325E-01
       -1   -1    0    0    0  501  0.00000000000E+00  0.00000000000E+00  0.96497439849E+03  0.96497439851E+03  0.50400001928E-02 0. -1.
        1   -1    0    0  501    0  0.00000000000E+00  0.00000000000E+00 -0.15679919887E+04  0.15679919887E+04  0.50400001928E-02 0.  1.
    10030    2    1    2    0    0  0.00000000000E+00  0.00000000000E+00 -0.60301759020E+03  0.25329663872E+04  0.24601399360E+04 0.  0.
        1    1    3    3  502    0  0.15344986829E+03 -0.44928196352E+03  0.86683880270E+03  0.98833731828E+03  0.50400001928E-02 0. -1.
       -1    1    3    3    0  502 -0.15344986829E+03  0.44928196352E+03 -0.14698563929E+04  0.15446290689E+04  0.50400001928E-02 0.  1.
</event>
<event>
 5   0  0.1878160E-05  0.2617008E+04  0.7818609E-02  0.8362447E-01
        2   -1    0    0  501    0  0.00000000000E+00  0.00000000000E+00  0.12339133512E+04  0.12339133512E+04  0.25500000920E-02 0. -1.
       -2   -1    0    0    0  501  0.00000000000E+00  0.00000000000E+00 -0.13876033688E+04  0.13876033688E+04  0.25500000920E-02 0.  1.
    10030    2    1    2    0    0  0.00000000000E+00  0.00000000000E+00 -0.15369001762E+03  0.26215167199E+04  0.26170076980E+04 0.  0.
        1    1    3    3  502    0 -0.32545321081E+03 -0.75014066948E+03  0.94645876678E+03  0.12507657709E+04  0.50400001928E-02 0. -1.
       -1    1    3    3    0  502  0.32545321081E+03  0.75014066948E+03 -0.11001487844E+04  0.13707509490E+04  0.50400001928E-02 0.  1.
</event>
<event>
 5   0  0.7351590E-06  0.2386553E+04  0.7818609E-02  0.8444555E-01
        1   -1    0    0  501    0  0.00000000000E+00  0.00000000000E+00  0.12410491657E+04  0.12410491658E+04  0.50400001928E-02 0. -1.
       -1   -1    0    0    0  501  0.00000000000E+00  0.00000000000E+00 -0.11473431305E+04  0.11473431305E+04  0.50400001928E-02 0.  1.
    10030    2    1    2    0    0  0.00000000000E+00  0.00000000000E+00  0.93706035252E+02  0.23883922963E+04  0.23865533599E+04 0.  0.
        3    1    3    3  502    0  0.10696015690E+03  0.60320382329E+02  0.12347091366E+04  0.12408004214E+04  0.10100000352E+00 0. -1.
       -3    1    3    3    0  502 -0.10696015690E+03 -0.60320382329E+02 -0.11410031013E+04  0.11475918748E+04  0.10100000352E+00 0.  1.
</event>
<event>
 5   0  0.6804685E-06  0.2160409E+04  0.7818609E-02  0.8535090E-01
       -1   -1    0    0    0  501  0.00000000000E+00  0.00000000000E+00  0.31850673687E+04  0.31850673687E+04  0.50400001928E-02 0. -1.
        1   -1    0    0  501    0  0.00000000000E+00  0.00000000000E+00 -0.36634744201E+03  0.36634744205E+03  0.50400001928E-02 0.  1.
    10030    2    1    2    0    0  0.00000000000E+00  0.00000000000E+00  0.28187199267E+04  0.35514148107E+04  0.21604085569E+04 0.  0.
        2    1    3    3  502    0  0.20558081600E+01  0.48522915828E+03  0.29958276583E+04  0.30348698359E+04  0.25500000920E-02 0. -1.
       -2    1    3    3    0  502 -0.20558081600E+01 -0.48522915828E+03 -0.17710773168E+03  0.51654497483E+03  0.25500000920E-02 0.  1.
</event>
<event>
 5   0  0.7600052E-06  0.2712351E+04  0.7818609E-02  0.8331008E-01
       -1   -1    0    0    0  501  0.00000000000E+00  0.00000000000E+00  0.16259904125E+04  0.16259904125E+04  0.50400001928E-02 0. -1.
        1   -1    0    0  501    0  0.00000000000E+00  0.00000000000E+00 -0.11311337587E+04  0.11311337588E+04  0.50400001928E-02 0.  1.
    10030    2    1    2    0    0  0.00000000000E+00  0.00000000000E+00  0.49485665378E+03  0.27571241713E+04  0.27123514868E+04 0.  0.
        5    1    3    3  502    0  0.13010324091E+04 -0.40171749045E+02  0.63435774409E+03  0.14480093012E+04  0.46999998093E+01 0. -1.
       -5    1    3    3    0  502 -0.13010324091E+04  0.40171749045E+02 -0.13950109031E+03  0.13091148701E+04  0.46999998093E+01 0.  1.
</event>
<event>
 5   0  0.1826851E-05  0.2698715E+04  0.7818609E-02  0.8335422E-01
       -2   -1    0    0    0  501  0.00000000000E+00  0.00000000000E+00  0.15251797582E+04  0.15251797582E+04  0.25500000920E-02 0.  1.
        2   -1    0    0  501    0  0.00000000000E+00  0.00000000000E+00 -0.11938040880E+04  0.11938040880E+04  0.25500000920E-02 0. -1.
    10030    2    1    2    0    0  0.00000000000E+00  0.00000000000E+00  0.33137567021E+03  0.27189838461E+04  0.26987151240E+04 0.  0.
        5    1    3    3  502    0 -0.88290037860E+03 -0.55110689766E+03 -0.69954717802E+03  0.12540415605E+04  0.46999998093E+01 0. -1.
       -5    1    3    3    0  502  0.88290037860E+03  0.55110689766E+03  0.10309228482E+04  0.14649422856E+04  0.46999998093E+01 0.  1.
</event>
<event>
 5   0  0.1826851E-05  0.2676141E+04  0.7818609E-02  0.8342788E-01
       -2   -1    0    0    0  501  0.00000000000E+00  0.00000000000E+00  0.81875271799E+03  0.81875271799E+03  0.25500000920E-02 0. -1.
        2   -1    0    0  501    0  0.00000000000E+00  0.00000000000E+00 -0.21867810333E+04  0.21867810333E+04  0.25500000920E-02 0.  1.
    10030    2    1    2    0    0  0.00000000000E+00  0.00000000000E+00 -0.13680283153E+04  0.30055337513E+04  0.26761411881E+04 0.  0.
        5    1    3    3  502    0 -0.79724113339E+01 -0.69508791028E+03  0.60004081497E+03  0.91830377980E+03  0.46999998093E+01 0. -1.
       -5    1    3    3    0  502  0.79724113339E+01  0.69508791028E+03 -0.19680691303E+04  0.20872299715E+04  0.46999998093E+01 0.  1.
</event>
<event>
 5   0  0.1826851E-05  0.2714476E+04  0.7818609E-02  0.8330323E-01
        2   -1    0    0  501    0  0.00000000000E+00  0.00000000000E+00  0.27596253966E+04  0.27596253966E+04  0.25500000920E-02 0. -1.
       -2   -1    0    0    0  501  0.00000000000E+00  0.00000000000E+00 -0.66751627196E+03  0.66751627197E+03  0.25500000920E-02 0.  1.
    10030    2    1    2    0    0  0.00000000000E+00  0.00000000000E+00  0.20921091246E+04  0.34271416685E+04  0.27144759028E+04 0.  0.
        5    1    3    3  502    0 -0.48387880291E+03 -0.47476178878E+03 -0.43845904728E+03  0.80734495609E+03  0.46999998093E+01 0.  1.
       -5    1    3    3    0  502  0.48387880291E+03  0.47476178878E+03  0.25305681719E+04  0.26197967124E+04  0.46999998093E+01 0. -1.
</event>
<event>
 5   0  0.7754912E-06  0.2734371E+04  0.7818609E-02  0.8323938E-01
        1   -1    0    0  501    0  0.00000000000E+00  0.00000000000E+00  0.19147585166E+04  0.19147585166E+04  0.50400001928E-02 0.  1.
       -1   -1    0    0    0  501  0.00000000000E+00  0.00000000000E+00 -0.97620475808E+03  0.97620475810E+03  0.50400001928E-02 0. -1.
    10030    2    1    2    0    0  0.00000000000E+00  0.00000000000E+00  0.93855375852E+03  0.28909632747E+04  0.27343711339E+04 0.  0.
        4    1    3    3  502    0  0.13654828825E+04 -0.68197626327E+02  0.46865758402E+03  0.14452805826E+04  0.12699999809E+01 0. -1.
       -4    1    3    3    0  502 -0.13654828825E+04  0.68197626327E+02  0.46989617450E+03  0.14456826921E+04  0.12699999809E+01 0.  1.
</event>
<event>
 5   0  0.1788003E-05  0.2634558E+04  0.7818609E-02  0.8356556E-01
        2   -1    0    0  501    0  0.00000000000E+00  0.00000000000E+00  0.11450178685E+04  0.11450178685E+04  0.25500000920E-02 0. -1.
       -2   -1    0    0    0  501  0.00000000000E+00  0.00000000000E+00 -0.15154559036E+04  0.15154559036E+04  0.25500000920E-02 0.  1.
    10030    2    1    2    0    0  0.00000000000E+00  0.00000000000E+00 -0.37043803503E+03  0.26604737721E+04  0.26345580947E+04 0.  0.
        2    1    3    3  502    0  0.85228889183E+03 -0.39319321637E+02 -0.11987258467E+04  0.14713551644E+04  0.25500000920E-02 0.  1.
       -2    1    3    3    0  502 -0.85228889183E+03  0.39319321637E+02  0.82828781167E+03  0.11891186077E+04  0.25500000920E-02 0. -1.
</event>
<event>
 5   0  0.1931119E-05  0.2226186E+04  0.7818609E-02  0.8507607E-01
       -2   -1    0    0    0  501  0.00000000000E+00  0.00000000000E+00  0.51108636875E+03  0.51108636876E+03  0.25500000920E-02 0. -1.
        2   -1    0    0  501    0  0.00000000000E+00  0.00000000000E+00 -0.24242011100E+04  0.24242011100E+04  0.25500000920E-02 0.  1.
    10030    2    1    2    0    0  0.00000000000E+00  0.00000000000E+00 -0.19131147413E+04  0.29352874788E+04  0.22261861040E+04 0.  0.
        3    1    3    3  502    0 -0.76111105536E+03 -0.68149411831E+03 -0.37393552486E+03  0.10879117882E+04  0.10100000352E+00 0. -1.
       -3    1    3    3    0  502  0.76111105536E+03  0.68149411831E+03 -0.15391792164E+04  0.18473756906E+04  0.10100000352E+00 0.  1.
</event>
<event>
 5   0  0.7351590E-06  0.2709296E+04  0.7818609E-02  0.8331995E-01
       -1   -1    0    0    0  501  0.00000000000E+00  0.00000000000E+00  0.13410688357E+04  0.13410688357E+04  0.50400001928E-02 0.  1.
        1   -1    0    0  501    0  0.00000000000E+00  0.00000000000E+00 -0.13683650229E+04  0.13683650229E+04  0.50400001928E-02 0. -1.
    10030    2    1    2    0    0  0.00000000000E+00  0.00000000000E+00 -0.27296187241E+02  0.27094338586E+04  0.27092963574E+04 0.  0.
        3    1    3    3  502    0 -0.23936757555E+03  0.68547610354E+03  0.11300433474E+04  0.13431948116E+04  0.10100000352E+00 0.  1.
       -3    1    3    3    0  502  0.23936757555E+03 -0.68547610354E+03 -0.11573395347E+04  0.13662390470E+04  0.10100000352E+00 0. -1.
</event>
<event>
 5   0  0.1931119E-05  0.2728618E+04  0.7818609E-02  0.8325779E-01
        2   -1    0    0  501    0  0.00000000000E+00  0.00000000000E+00  0.28086282808E+04  0.28086282808E+04  0.25500000920E-02 0. -1.
       -2   -1    0    0    0  501  0.00000000000E+00  0.00000000000E+00 -0.66272197752E+03  0.66272197753E+03  0.25500000920E-02 0.  1.
    10030    2    1    2    0    0  0.00000000000E+00  0.00000000000E+00  0.21459063033E+04  0.34713502583E+04  0.27286184698E+04 0.  0.
        3    1    3    3  502    0 -0.70103124275E+03 -0.65220058867E+02  0.25596551659E+04  0.26547190129E+04  0.10100000352E+00 0. -1.
       -3    1    3    3    0  502  0.70103124275E+03  0.65220058867E+02 -0.41374886260E+03  0.81663124536E+03  0.10100000352E+00 0.  1.
</event>
<event>
 5   0  0.7348964E-06  0.2837317E+04  0.7818609E-02  0.8291776E-01
       -1   -1    0    0    0  501  0.00000000000E+00  0.00000000000E+00  0.94767341577E+03  0.94767341578E+03  0.50400001928E-02 0.  1.
        1   -1    0    0  501    0  0.00000000000E+00  0.00000000000E+00 -0.21237188563E+04  0.21237188563E+04  0.50400001928E-02 0. -1.
    10030    2    1    2    0    0  0.00000000000E+00  0.00000000000E+00 -0.11760454405E+04  0.30713922721E+04  0.28373169740E+04 0.  0.
        1    1    3    3  502    0  0.55627176530E+03 -0.97149289206E+03 -0.15313228905E+04  0.18968886396E+04  0.50400001928E-02 0. -1.
       -1    1    3    3    0  502 -0.55627176530E+03  0.97149289206E+03  0.35527744995E+03  0.11745036325E+04  0.50400001928E-02 0.  1.
</event>
<event>
 5   0  0.1826851E-05  0.2807164E+04  0.7818609E-02  0.8301048E-01
       -2   -1    0    0    0  501  0.00000000000E+00  0.00000000000E+00  0.96485174228E+03  0.96485174228E+03  0.25500000920E-02 0. -1.
        2   -1    0    0  501    0  0.00000000000E+00  0.00000000000E+00 -0.20418085698E+04  0.20418085698E+04  0.25500000920E-02 0.  1.
    10030    2    1    2    0    0  0.00000000000E+00  0.00000000000E+00 -0.10769568275E+04  0.30066603120E+04  0.28071640892E+04 0.  0.
        5    1    3    3  502    0  0.32434196294E+03 -0.13370535356E+04 -0.24105605971E+03  0.13967963273E+04  0.46999998093E+01 0. -1.
       -5    1    3    3    0  502 -0.32434196294E+03  0.13370535356E+04 -0.83590076776E+03  0.16098639848E+04  0.46999998093E+01 0.  1.
</event>
<event>
 5   0  0.7351590E-06  0.2274634E+04  0.7818609E-02  0.8487990E-01
       -1   -1    0    0    0  501  0.00000000000E+00  0.00000000000E+00  0.73772253114E+03  0.73772253116E+03  0.50400001928E-02 0.  1.
        1   -1    0    0  501    0  0.00000000000E+00  0.00000000000E+00 -0.17533559439E+04  0.17533559440E+04  0.50400001928E-02 0. -1.
    10030    2    1    2    0    0  0.00000000000E+00  0.00000000000E+00 -0.10156334128E+04  0.24910784751E+04  0.22746341992E+04 0.  0.
        3    1    3    3  502    0 -0.67328542881E+03  0.73415324689E+02  0.49279068873E+03  0.83758328042E+03  0.10100000352E+00 0.  1.
       -3    1    3    3    0  502  0.67328542881E+03 -0.73415324689E+02 -0.15084241015E+04  0.16534951947E+04  0.10100000352E+00 0. -1.
</event>
<event>
 5   0  0.1788003E-05  0.2711270E+04  0.7818609E-02  0.8331358E-01
        2   -1    0    0  501    0  0.00000000000E+00  0.00000000000E+00  0.13834177997E+04  0.13834177997E+04  0.25500000920E-02 0. -1.
       -2   -1    0    0    0  501  0.00000000000E+00  0.00000000000E+00 -0.13284101202E+04  0.13284101202E+04  0.25500000920E-02 0.  1.
    10030    2    1    2    0    0  0.00000000000E+00  0.00000000000E+00  0.55007679517E+02  0.27118279199E+04  0.27112699649E+04 0.  0.
        2    1    3    3  502    0  0.62184570997E+03  0.59104448138E+03  0.10773486067E+04  0.13772093836E+04  0.25500000920E-02 0. -1.
       -2    1    3    3    0  502 -0.62184570997E+03 -0.59104448138E+03 -0.10223409272E+04  0.13346185363E+04  0.25500000920E-02 0.  1.
</event>
<event>
 5   0  0.7600052E-06  0.2736573E+04  0.7818609E-02  0.8323235E-01
        1   -1    0    0  501    0  0.00000000000E+00  0.00000000000E+00  0.20998424020E+04  0.20998424020E+04  0.50400001928E-02 0. -1.
       -1   -1    0    0    0  501  0.00000000000E+00  0.00000000000E+00 -0.89159418900E+03  0.89159418902E+03  0.50400001928E-02 0.  1.
    10030    2    1    2    0    0  0.00000000000E+00  0.00000000000E+00  0.12082482130E+04  0.29914365910E+04  0.27365725157E+04 0.  0.
        5    1    3    3  502    0  0.46327986044E+03  0.38636354757E+02  0.20108562940E+04  0.20639007055E+04  0.46999998093E+01 0. -1.
       -5    1    3    3    0  502 -0.46327986044E+03 -0.38636354757E+02 -0.80260808108E+03  0.92753588546E+03  0.46999998093E+01 0.  1.
</event>
<event>
 5   0  0.6804685E-06  0.2732956E+04  0.7818609E-02  0.8324391E-01
       -1   -1    0    0    0  501  0.00000000000E+00  0.00000000000E+00  0.21206947680E+04  0.21206947680E+04  0.50400001928E-02 0. -1.
        1   -1    0    0  501    0  0.00000000000E+00  0.00000000000E+00 -0.88049527060E+03  0.88049527062E+03  0.50400001928E-02 0.  1.
    10030    2    1    2    0    0  0.00000000000E+00  0.00000000000E+00  0.12401994974E+04  0.30011900386E+04  0.27329556994E+04 0.  0.
        2    1    3    3  502    0  0.73129083027E+03 -0.71921065590E+03  0.16116073420E+04  0.19103215621E+04  0.25500000920E-02 0. -1.
       -2    1    3    3    0  502 -0.73129083027E+03  0.71921065590E+03 -0.37140784459E+03  0.10908684765E+04  0.25500000920E-02 0.  1.
</event>
<event>
 5   0  0.6175875E-06  0.2743289E+04  0.7818609E-02  0.8321094E-01
       -3   -1    0    0    0  501  0.00000000000E+00  0.00000000000E+00  0.16711547381E+04  0.16711547412E+04  0.10100000352E+00 0. -1.
        3   -1    0    0  501    0  0.00000000000E+00  0.00000000000E+00 -0.11258139368E+04  0.11258139413E+04  0.10100000352E+00 0.  1.
    10030    2    1    2    0    0  0.00000000000E+00  0.00000000000E+00  0.54534080133E+03  0.27969686825E+04  0.27432894892E+04 0.  0.
        2    1    3    3  502    0  0.47667991414E+03 -0.11242744484E+04  0.90954721592E+03  0.15226598156E+04  0.25500000920E-02 0. -1.
       -2    1    3    3    0  502 -0.47667991414E+03  0.11242744484E+04 -0.36420641459E+03  0.12743088669E+04  0.25500000920E-02 0.  1.
</event>
<event>
 5   0  0.1826851E-05  0.2693795E+04  0.7818609E-02  0.8337021E-01
        2   -1    0    0  501    0  0.00000000000E+00  0.00000000000E+00  0.16209664762E+04  0.16209664762E+04  0.25500000920E-02 0. -1.
       -2   -1    0    0    0  501  0.00000000000E+00  0.00000000000E+00 -0.11191675378E+04  0.11191675378E+04  0.25500000920E-02 0.  1.
    10030    2    1    2    0    0  0.00000000000E+00  0.00000000000E+00  0.50179893838E+03  0.27401340141E+04  0.26937951371E+04 0.  0.
        5    1    3    3  502    0 -0.45451366938E+03 -0.48823753566E+03 -0.93933667841E+03  0.11520998448E+04  0.46999998093E+01 0.  1.
       -5    1    3    3    0  502  0.45451366938E+03  0.48823753566E+03  0.14411356168E+04  0.15880341693E+04  0.46999998093E+01 0. -1.
</event>
<event>
 5   0  0.7600052E-06  0.2643347E+04  0.7818609E-02  0.8353624E-01
       -1   -1    0    0    0  501  0.00000000000E+00  0.00000000000E+00  0.31641111512E+04  0.31641111512E+04  0.50400001928E-02 0.  1.
        1   -1    0    0  501    0  0.00000000000E+00  0.00000000000E+00 -0.55207321144E+03  0.55207321147E+03  0.50400001928E-02 0. -1.
    10030    2    1    2    0    0  0.00000000000E+00  0.00000000000E+00  0.26120379397E+04  0.37161843626E+04  0.26433471241E+04 0.  0.
        5    1    3    3  502    0  0.84713988340E+03  0.30093025038E+03 -0.55996124917E+02  0.90075671169E+03  0.46999998093E+01 0. -1.
       -5    1    3    3    0  502 -0.84713988340E+03 -0.30093025038E+03  0.26680340646E+04  0.28154276510E+04  0.46999998093E+01 0.  1.
</event>
<event>
 5   0  0.1878160E-05  0.2714504E+04  0.7818609E-02  0.8330314E-01
       -2   -1    0    0    0  501  0.00000000000E+00  0.00000000000E+00  0.98098007886E+03  0.98098007887E+03  0.25500000920E-02 0. -1.
        2   -1    0    0  501    0  0.00000000000E+00  0.00000000000E+00 -0.18778493228E+04  0.18778493228E+04  0.25500000920E-02 0.  1.
    10030    2    1    2    0    0  0.00000000000E+00  0.00000000000E+00 -0.89686924398E+03  0.28588294017E+04  0.27145038418E+04 0.  0.
        1    1    3    3  502    0  0.25328007003E+03 -0.47470055744E+03  0.86386606232E+03  0.10177209769E+04  0.50400001928E-02 0. -1.
       -1    1    3    3    0  502 -0.25328007003E+03  0.47470055744E+03 -0.17607353063E+04  0.18411084248E+04  0.50400001928E-02 0.  1.
</event>
<event>
 5   0  0.1826851E-05  0.2735133E+04  0.7818609E-02  0.8323695E-01
        2   -1    0    0  501    0  0.00000000000E+00  0.00000000000E+00  0.23794785931E+04  0.23794785931E+04  0.25500000920E-02 0. -1.
       -2   -1    0    0    0  501  0.00000000000E+00  0.00000000000E+00 -0.78598625342E+03  0.78598625342E+03  0.25500000920E-02 0.  1.
    10030    2    1    2    0    0  0.00000000000E+00  0.00000000000E+00  0.15934923397E+04  0.31654648465E+04  0.27351325119E+04 0.  0.
        5    1    3    3  502    0  0.94679166973E+03 -0.98491018292E+03  0.72584732520E+03  0.15470420045E+04  0.46999998093E+01 0. -1.
       -5    1    3    3    0  502 -0.94679166973E+03  0.98491018292E+03  0.86764501446E+03  0.16184228420E+04  0.46999998093E+01 0.  1.
</event>
<event>
 5   0  0.1826851E-05  0.2740929E+04  0.7818609E-02  0.8321846E-01
       -2   -1    0    0    0  501  0.00000000000E+00  0.00000000000E+00  0.88603443192E+03  0.88603443192E+03  0.25500000920E-02 0.  1.
        2   -1    0    0  501    0  0.00000000000E+00  0.00000000000E+00 -0.21197511651E+04  0.21197511651E+04  0.25500000920E-02 0. -1.
    10030    2    1    2    0    0  0.00000000000E+00  0.00000000000E+00 -0.12337167332E+04  0.30057855970E+04  0.27409286889E+04 0.  0.
        5    1    3    3  502    0 -0.62823087892E+03 -0.10525607809E+04  0.55217872974E+02  0.12270408869E+04  0.46999998093E+01 0.  1.
       -5    1    3    3    0  502  0.62823087892E+03  0.10525607809E+04 -0.12889346061E+04  0.17787447101E+04  0.46999998093E+01 0. -1.
</event>
<event>
 5   0  0.7600052E-06  0.2789035E+04  0.7818609E-02  0.8306681E-01
       -1   -1    0    0    0  501  0.00000000000E+00  0.00000000000E+00  0.10224436384E+04  0.10224436384E+04  0.50400001928E-02 0.  1.
        1   -1    0    0  501    0  0.00000000000E+00  0.00000000000E+00 -0.19019920261E+04  0.19019920261E+04  0.50400001928E-02 0. -1.
    10030    2    1    2    0    0  0.00000000000E+00  0.00000000000E+00 -0.87954838766E+03  0.29244356645E+04  0.27890354228E+04 0.  0.
        5    1    3    3  502    0 -0.50828886190E+03  0.10076512975E+03  0.91773885563E+03  0.10539344741E+04  0.46999998093E+01 0.  1.
       -5    1    3    3    0  502  0.50828886190E+03 -0.10076512975E+03 -0.17972872433E+04  0.18705011904E+04  0.46999998093E+01 0. -1.
</event>
<event>
 5   0  0.6175875E-06  0.2698283E+04  0.7818609E-02  0.8335562E-01
        3   -1    0    0  501    0  0.00000000000E+00  0.00000000000E+00  0.22440493855E+04  0.22440493877E+04  0.10100000352E+00 0. -1.
       -3   -1    0    0    0  501  0.00000000000E+00  0.00000000000E+00 -0.81111511879E+03  0.81111512508E+03  0.10100000352E+00 0.  1.
    10030    2    1    2    0    0  0.00000000000E+00  0.00000000000E+00  0.14329342667E+04  0.30551645128E+04  0.26982827109E+04 0.  0.
        2    1    3    3  502    0 -0.11567450662E+03 -0.67076853217E+03  0.20353811738E+04  0.21461797543E+04  0.25500000920E-02 0. -1.
       -2    1    3    3    0  502  0.11567450662E+03  0.67076853217E+03 -0.60244690713E+03  0.90898475848E+03  0.25500000920E-02 0.  1.
</event>
<event>
 5   0  0.1826851E-05  0.2725901E+04  0.7818609E-02  0.8326649E-01
       -2   -1    0    0    0  501  0.00000000000E+00  0.00000000000E+00  0.84090778095E+03  0.84090778095E+03  0.25500000920E-02 0. -1.
        2   -1    0    0  501    0  0.00000000000E+00  0.00000000000E+00 -0.22090825001E+04  0.22090825001E+04  0.25500000920E-02 0.  1.
    10030    2    1    2    0    0  0.00000000000E+00  0.00000000000E+00 -0.13681747192E+04  0.30499902811E+04  0.27259014385E+04 0.  0.
        5    1    3    3  502    0  0.96438097532E+03  0.48238686749E+03  0.24861852783E+03  0.11065988514E+04  0.46999998093E+01 0. -1.
       -5    1    3    3    0  502 -0.96438097532E+03 -0.48238686749E+03 -0.16167932470E+04  0.19433914297E+04  0.46999998093E+01 0.  1.
</event>
<event>
 5   0  0.7754912E-06  0.2750977E+04  0.7818609E-02  0.8318652E-01
       -1   -1    0    0    0  501  0.00000000000E+00  0.00000000000E+00  0.12498820454E+04  0.12498820455E+04  0.50400001928E-02 0.  1.
        1   -1    0    0  501    0  0.00000000000E+00  0.00000000000E+00 -0.15137175386E+04  0.15137175386E+04  0.50400001928E-02 0. -1.
    10030    2    1    2    0    0  0.00000000000E+00  0.00000000000E+00 -0.26383549313E+03  0.27635995840E+04  0.27509768253E+04 0.  0.
        4    1    3    3  502    0  0.11412380810E+04 -0.73610894183E+03  0.87455551619E+02  0.13608566486E+04  0.12699999809E+01 0.  1.
       -4    1    3    3    0  502 -0.11412380810E+04  0.73610894183E+03 -0.35129104475E+03  0.14027429354E+04  0.12699999809E+01 0. -1.
</event>
<event>
 5   0  0.1878160E-05  0.2687203E+04  0.7818609E-02  0.8339169E-01
        2   -1    0    0  501    0  0.00000000000E+00  0.00000000000E+00  0.15928345598E+04  0.15928345598E+04  0.25500000920E-02 0.  1.
       -2   -1    0    0    0  501  0.00000000000E+00  0.00000000000E+00 -0.11333662387E+04  0.11333662387E+04  0.25500000920E-02 0. -1.
    10030    2    1    2    0    0  0.00000000000E+00  0.00000000000E+00  0.45946832113E+03  0.27262007985E+04  0.26872029427E+04 0.  0.
        1    1    3    3  502    0  0.74661099396E+03  0.54375460686E+02  0.13616683093E+04  0.15538742715E+04  0.50400001928E-02 0.  1.
       -1    1    3    3    0  502 -0.74661099396E+03 -0.54375460686E+02 -0.90219998820E+03  0.11723265269E+04  0.50400001928E-02 0. -1.
</event>
<event>
 5   0  0.7600052E-06  0.2217652E+04  0.7818609E-02  0.8511117E-01
        1   -1    0    0  501    0  0.00000000000E+00  0.00000000000E+00  0.99435548007E+03  0.99435548008E+03  0.50400001928E-02 0.  1.
       -1   -1    0    0    0  501  0.00000000000E+00  0.00000000000E+00 -0.12364748717E+04  0.12364748718E+04  0.50400001928E-02 0. -1.
    10030    2    1    2    0    0  0.00000000000E+00  0.00000000000E+00 -0.24211939167E+03  0.22308303518E+04  0.22176524207E+04 0.  0.
        5    1    3    3  502    0 -0.32516509209E+02  0.73863918930E+03  0.71018487498E+03  0.10251974551E+04  0.46999998093E+01 0.  1.
       -5    1    3    3    0  502  0.32516509209E+02 -0.73863918930E+03 -0.95230426665E+03  0.12056328967E+04  0.46999998093E+01 0. -1.
</event>
<event>
 5   0  0.7348964E-06  0.2694248E+04  0.7818609E-02  0.8336874E-01
       -1   -1    0    0    0  501  0.00000000000E+00  0.00000000000E+00  0.13870824601E+04  0.13870824601E+04  0.50400001928E-02 0. -1.
        1   -1    0    0  501    0  0.00000000000E+00  0.00000000000E+00 -0.13083164607E+04  0.13083164607E+04  0.50400001928E-02 0.  1.
    10030    2    1    2    0    0  0.00000000000E+00  0.00000000000E+00  0.78765999479E+02  0.26953989208E+04  0.26942478096E+04 0.  0.
        1    1    3    3  502    0 -0.70059140792E+03  0.97184788702E+03 -0.57685596828E+03  0.13296914847E+04  0.50400001928E-02 0.  1.
       -1    1    3    3    0  502  0.70059140792E+03 -0.97184788702E+03  0.65562196776E+03  0.13657074361E+04  0.50400001928E-02 0. -1.
</event>
<event>
 5   0  0.7348964E-06  0.2730338E+04  0.7818609E-02  0.8325228E-01
       -1   -1    0    0    0  501  0.00000000000E+00  0.00000000000E+00  0.79298250586E+03  0.79298250588E+03  0.50400001928E-02 0. -1.
        1   -1    0    0  501    0  0.00000000000E+00  0.00000000000E+00 -0.23502243630E+04  0.23502243630E+04  0.50400001928E-02 0.  1.
    10030    2    1    2    0    0  0.00000000000E+00  0.00000000000E+00 -0.15572418572E+04  0.31432068689E+04  0.27303382976E+04 0.  0.
        1    1    3    3  502    0  0.10363952506E+04  0.44652516863E+03 -0.16630261745E+04  0.20097651353E+04  0.50400001928E-02 0.  1.
       -1    1    3    3    0  502 -0.10363952506E+04 -0.44652516863E+03  0.10578431736E+03  0.11334417336E+04  0.50400001928E-02 0. -1.
</event>
<event>
 5   0  0.7754912E-06  0.2679959E+04  0.7818609E-02  0.8341537E-01
       -1   -1    0    0    0  501  0.00000000000E+00  0.00000000000E+00  0.72700411461E+03  0.72700411462E+03  0.50400001928E-02 0. -1.
        1   -1    0    0  501    0  0.00000000000E+00  0.00000000000E+00 -0.24697874989E+04  0.24697874989E+04  0.50400001928E-02 0.  1.
    10030    2    1    2    0    0  0.00000000000E+00  0.00000000000E+00 -0.17427833843E+04  0.31967916136E+04  0.26799594579E+04 0.  0.
        4    1    3    3  502    0 -0.10412422790E+03 -0.70086620617E+03  0.48525710442E+03  0.85879646254E+03  0.12699999809E+01 0. -1.
       -4    1    3    3    0  502  0.10412422790E+03  0.70086620617E+03 -0.22280404888E+04  0.23379951510E+04  0.12699999809E+01 0.  1.
</event>
<event>
 5   0  0.1881699E-05  0.2703493E+04  0.7818609E-02  0.8333872E-01
        2   -1    0    0  501    0  0.00000000000E+00  0.00000000000E+00  0.15436989707E+04  0.15436989707E+04  0.25500000920E-02 0. -1.
       -2   -1    0    0    0  501  0.00000000000E+00  0.00000000000E+00 -0.11836628610E+04  0.11836628610E+04  0.25500000920E-02 0.  1.
    10030    2    1    2    0    0  0.00000000000E+00  0.00000000000E+00  0.36003610970E+03  0.27273618317E+04  0.27034933994E+04 0.  0.
        4    1    3    3  502    0  0.52739493242E+03 -0.12075646652E+04 -0.12407260057E+03  0.13235382346E+04  0.12699999809E+01 0.  1.
       -4    1    3    3    0  502 -0.52739493242E+03  0.12075646652E+04  0.48410871027E+03  0.14038235971E+04  0.12699999809E+01 0. -1.
</event>
<event>
 5   0  0.1931119E-05  0.2686077E+04  0.7818609E-02  0.8339537E-01
        2   -1    0    0  501    0  0.00000000000E+00  0.00000000000E+00  0.16882274887E+04  0.16882274887E+04  0.25500000920E-02 0.  1.
       -2   -1    0    0    0  501  0.00000000000E+00  0.00000000000E+00 -0.10684298970E+04  0.10684298970E+04  0.25500000920E-02 0. -1.
    10030    2    1    2    0    0  0.00000000000E+00  0.00000000000E+00  0.61979759166E+03  0.27566573857E+04  0.26860772303E+04 0.  0.
        3    1    3    3  502    0 -0.37813158291E+03 -0.95286392715E+03  0.12003492153E+04  0.15785345756E+04  0.10100000352E+00 0.  1.
       -3    1    3    3    0  502  0.37813158291E+03  0.95286392715E+03 -0.58055162360E+03  0.11781228100E+04  0.10100000352E+00 0. -1.
</event>
<event>
 5   0  0.7348964E-06  0.2745168E+04  0.7818609E-02  0.8320497E-01
       -1   -1    0    0    0  501  0.00000000000E+00  0.00000000000E+00  0.13669055461E+04  0.13669055461E+04  0.50400001928E-02 0.  1.
        1   -1    0    0  501    0  0.00000000000E+00  0.00000000000E+00 -0.13782860315E+04  0.13782860315E+04  0.50400001928E-02 0. -1.
    10030    2    1    2    0    0  0.00000000000E+00  0.00000000000E+00 -0.11380485417E+02  0.27451915776E+04  0.27451679879E+04 0.  0.
        1    1    3    3  502    0 -0.23129964431E+02  0.10929798162E+04  0.82428492879E+03  0.13691550379E+04  0.50400001928E-02 0.  1.
       -1    1    3    3    0  502  0.23129964431E+02 -0.10929798162E+04 -0.83566541421E+03  0.13760365397E+04  0.50400001928E-02 0. -1.
</event>
<event>
 5   0  0.1826851E-05  0.2690723E+04  0.7818609E-02  0.8338021E-01
        2   -1    0    0  501    0  0.00000000000E+00  0.00000000000E+00  0.91237320665E+03  0.91237320665E+03  0.25500000920E-02 0.  1.
       -2   -1    0    0    0  501  0.00000000000E+00  0.00000000000E+00 -0.19838341494E+04  0.19838341494E+04  0.25500000920E-02 0. -1.
    10030    2    1    2    0    0  0.00000000000E+00  0.00000000000E+00 -0.10714609428E+04  0.28962073561E+04  0.26907226720E+04 0.  0.
        5    1    3    3  502    0 -0.89770582776E+02  0.13411600199E+04 -0.47478411485E+03  0.14255563834E+04  0.46999998093E+01 0.  1.
       -5    1    3    3    0  502  0.89770582776E+02 -0.13411600199E+04 -0.59667682790E+03  0.14706509727E+04  0.46999998093E+01 0. -1.
</event>
<event>
 5   0  0.1931119E-05  0.2698229E+04  0.7818609E-02  0.8335580E-01
        2   -1    0    0  501    0  0.00000000000E+00  0.00000000000E+00  0.18462854789E+04  0.18462854789E+04  0.25500000920E-02 0. -1.
       -2   -1    0    0    0  501  0.00000000000E+00  0.00000000000E+00 -0.98582241104E+03  0.98582241104E+03  0.25500000920E-02 0.  1.
    10030    2    1    2    0    0  0.00000000000E+00  0.00000000000E+00  0.86046306790E+03  0.28321078900E+04  0.26982287541E+04 0.  0.
        3    1    3    3  502    0 -0.36856999521E+02  0.12815316407E+04 -0.10642525853E+02  0.12821057125E+04  0.10100000352E+00 0.  1.
       -3    1    3    3    0  502  0.36856999521E+02 -0.12815316407E+04  0.87110559375E+03  0.15500021775E+04  0.10100000352E+00 0. -1.
</event>
<event>
 5   0  0.1881699E-05  0.2669781E+04  0.7818609E-02  0.8344877E-01
        2   -1    0    0  501    0  0.00000000000E+00  0.00000000000E+00  0.18928665888E+04  0.18928665888E+04  0.25500000920E-02 0.  1.
       -2   -1    0    0    0  501  0.00000000000E+00  0.00000000000E+00 -0.94139351945E+03  0.94139351946E+03  0.25500000920E-02 0. -1.
    10030    2    1    2    0    0  0.00000000000E+00  0.00000000000E+00  0.95147306935E+03  0.28342601083E+04  0.26697807699E+04 0.  0.
        4    1    3    3  502    0  0.89121423417E+03  0.67572548829E+03 -0.29790026162E+03  0.11574169195E+04  0.12699999809E+01 0. -1.
       -4    1    3    3    0  502 -0.89121423417E+03 -0.67572548829E+03  0.12493733310E+04  0.16768431888E+04  0.12699999809E+01 0.  1.
</event>
<event>
 5   0  0.1788003E-05  0.2643455E+04  0.7818609E-02  0.8353588E-01
        2   -1    0    0  501    0  0.00000000000E+00  0.00000000000E+00  0.24385158268E+04  0.24385158268E+04  0.25500000920E-02 0. -1.
       -2   -1    0    0    0  501  0.00000000000E+00  0.00000000000E+00 -0.71640469952E+03  0.71640469952E+03  0.25500000920E-02 0.  1.
    10030    2    1    2    0    0  0.00000000000E+00  0.00000000000E+00  0.17221111272E+04  0.31549205263E+04  0.26434554645E+04 0.  0.
        2    1    3    3  502    0  0.12378678376E+04 -0.34385385000E+03  0.12316354526E+04  0.17797410322E+04  0.25500000920E-02 0.  1.
       -2    1    3    3    0  502 -0.12378678376E+04  0.34385385000E+03  0.49047567467E+03  0.13751794941E+04  0.25500000920E-02 0. -1.
</event>
<event>
 5   0  0.1788003E-05  0.2709593E+04  0.7818609E-02  0.8331899E-01
        2   -1    0    0  501    0  0.00000000000E+00  0.00000000000E+00  0.14567674989E+04  0.14567674989E+04  0.25500000920E-02 0. -1.
       -2   -1    0    0    0  501  0.00000000000E+00  0.00000000000E+00 -0.12599631542E+04  0.12599631542E+04  0.25500000920E-02 0.  1.
    10030    2    1    2    0    0  0.00000000000E+00  0.00000000000E+00  0.19680434474E+03  0.27167306531E+04  0.27095928645E+04 0.  0.
        2    1    3    3  502    0  0.49411493690E+03  0.19221978397E+03  0.13484323398E+04  0.14489195255E+04  0.25500000920E-02 0. -1.
       -2    1    3    3    0  502 -0.49411493690E+03 -0.19221978397E+03 -0.11516279951E+04  0.12678111276E+04  0.25500000920E-02 0.  1.
</event>
<event>
 5   0  0.1788003E-05  0.2671422E+04  0.7818609E-02  0.8344338E-01
       -2   -1    0    0    0  501  0.00000000000E+00  0.00000000000E+00  0.94210510508E+03  0.94210510508E+03  0.25500000920E-02 0.  1.
        2   -1    0    0  501    0  0.00000000000E+00  0.00000000000E+00 -0.18937625556E+04  0.18937625556E+04  0.25500000920E-02 0. -1.
    10030    2    1    2    0    0  0.00000000000E+00  0.00000000000E+00 -0.95165745048E+03  0.28358676606E+04  0.26714216226E+04 0.  0.
        2    1    3    3  502    0  0.47705926875E+03  0.13968671523E+03 -0.17919140671E+04  0.18595843482E+04  0.25500000920E-02 0. -1.
       -2    1    3    3    0  502 -0.47705926875E+03 -0.13968671523E+03  0.84025661662E+03  0.97628331241E+03  0.25500000920E-02 0.  1.
</event>
<event>
 5   0  0.1931119E-05  0.2321462E+04  0.7818609E-02  0.8469507E-01
       -2   -1    0    0    0  501  0.00000000000E+00  0.00000000000E+00  0.12248022528E+04  0.12248022528E+04  0.25500000920E-02 0. -1.
        2   -1    0    0  501    0  0.00000000000E+00  0.00000000000E+00 -0.11000110955E+04  0.11000110955E+04  0.25500000920E-02 0.  1.
    10030    2    1    2    0    0  0.00000000000E+00  0.00000000000E+00  0.12479115733E+03  0.23248133483E+04  0.23214616670E+04 0.  0.
        3    1    3    3  502    0  0.18914657311E+03 -0.66643055588E+03  0.99507794439E+03  0.12124711285E+04  0.10100000352E+00 0. -1.
       -3    1    3    3    0  502 -0.18914657311E+03  0.66643055588E+03 -0.87028678707E+03  0.11123422198E+04  0.10100000352E+00 0.  1.
</event>
<event>
 5   0  0.1881699E-05  0.2674729E+04  0.7818609E-02  0.8343251E-01
        2   -1    0    0  501    0  0.00000000000E+00  0.00000000000E+00  0.19003850689E+04  0.19003850689E+04  0.25500000920E-02 0. -1.
       -2   -1    0    0    0  501  0.00000000000E+00  0.00000000000E+00 -0.94114803717E+03  0.94114803717E+03  0.25500000920E-02 0.  1.
    10030    2    1    2    0    0  0.00000000000E+00  0.00000000000E+00  0.95923703174E+03  0.28415331061E+04  0.26747289040E+04 0.  0.
        4    1    3    3  502    0  0.48172426399E+03 -0.39870422273E+03 -0.77627196790E+03  0.99680645302E+03  0.12699999809E+01 0.  1.
       -4    1    3    3    0  502 -0.48172426399E+03  0.39870422273E+03  0.17355089996E+04  0.18447266530E+04  0.12699999809E+01 0. -1.
</event>
<event>
 5   0  0.1878160E-05  0.2677433E+04  0.7818609E-02  0.8342365E-01
       -2   -1    0    0    0  501  0.00000000000E+00  0.00000000000E+00  0.15145522800E+04  0.15145522800E+04  0.25500000920E-02 0. -1.
        2   -1    0    0  501    0  0.00000000000E+00  0.00000000000E+00 -0.11832945101E+04  0.11832945101E+04  0.25500000920E-02 0.  1.
    10030    2    1    2    0    0  0.00000000000E+00  0.00000000000E+00  0.33125776984E+03  0.26978467901E+04  0.26774326495E+04 0.  0.
        1    1    3    3  502    0 -0.25450235483E+03  0.67557497450E+03 -0.97034807120E+03  0.12094413479E+04  0.50400001928E-02 0.  1.
       -1    1    3    3    0  502  0.25450235483E+03 -0.67557497450E+03  0.13016058410E+04  0.14884054422E+04  0.50400001928E-02 0. -1.
</event>
<event>
 5   0  0.7348964E-06  0.2714771E+04  0.7818609E-02  0.8330228E-01
       -1   -1    0    0    0  501  0.00000000000E+00  0.00000000000E+00  0.26098330415E+04  0.26098330415E+04  0.50400001928E-02 0. -1.
        1   -1    0    0  501    0  0.00000000000E+00  0.00000000000E+00 -0.70598229512E+03  0.70598229514E+03  0.50400001928E-02 0.  1.
    10030    2    1    2    0    0  0.00000000000E+00  0.00000000000E+00  0.19038507464E+04  0.33158153366E+04  0.27147713867E+04 0.  0.
        1    1    3    3  502    0 -0.86139833047E+03 -0.96086253423E+03  0.14661207591E+04  0.19531446372E+04  0.50400001928E-02 0. -1.
       -1    1    3    3    0  502  0.86139833047E+03  0.96086253423E+03  0.43772998729E+03  0.13626706995E+04  0.50400001928E-02 0.  1.
</event>
<event>
 5   0  0.7351590E-06  0.2727621E+04  0.7818609E-02  0.8326098E-01
        1   -1    0    0  501    0  0.00000000000E+00  0.00000000000E+00  0.16297756220E+04  0.16297756221E+04  0.50400001928E-02 0.  1.
       -1   -1    0    0    0  501  0.00000000000E+00  0.00000000000E+00 -0.11412483790E+04  0.11412483790E+04  0.50400001928E-02 0. -1.
    10030    2    1    2    0    0  0.00000000000E+00  0.00000000000E+00  0.48852724309E+03  0.27710240010E+04  0.27276207850E+04 0.  0.
        3    1    3    3  502    0 -0.47545633668E+03 -0.53121901300E+03  0.14254017672E+04  0.15937448277E+04  0.10100000352E+00 0.  1.
       -3    1    3    3    0  502  0.47545633668E+03  0.53121901300E+03 -0.93687452406E+03  0.11772791733E+04  0.10100000352E+00 0. -1.
</event>
<event>
 5   0  0.7348964E-06  0.2735139E+04  0.7818609E-02  0.8323693E-01
        1   -1    0    0  501    0  0.00000000000E+00  0.00000000000E+00  0.32688008008E+04  0.32688008008E+04  0.50400001928E-02 0.  1.
       -1   -1    0    0    0  501  0.00000000000E+00  0.00000000000E+00 -0.57215072702E+03  0.57215072705E+03  0.50400001928E-02 0. -1.
    10030    2    1    2    0    0  0.00000000000E+00  0.00000000000E+00  0.26966500737E+04  0.38409515278E+04  0.27351393052E+04 0.  0.
        1    1    3    3  502    0  0.42530600552E+03  0.10881159829E+04  0.35002284011E+03  0.12195891026E+04  0.50400001928E-02 0. -1.
       -1    1    3    3    0  502 -0.42530600552E+03 -0.10881159829E+04  0.23466272336E+04  0.26213624252E+04  0.50400001928E-02 0.  1.
</event>
<event>
 5   0  0.1881699E-05  0.2676915E+04  0.7818609E-02  0.8342534E-01
        2   -1    0    0  501    0  0.00000000000E+00  0.00000000000E+00  0.25256965595E+04  0.25256965595E+04  0.25500000920E-02 0.  1.
       -2   -1    0    0    0  501  0.00000000000E+00  0.00000000000E+00 -0.70929682716E+03  0.70929682717E+03  0.25500000920E-02 0. -1.
    10030    2    1    2    0    0  0.00000000000E+00  0.00000000000E+00  0.18163997323E+04  0.32349933866E+04  0.26769150573E+04 0.  0.
        4    1    3    3  502    0 -0.63649543418E+03  0.11671321133E+04  0.10959739460E+04  0.17229289918E+04  0.12699999809E+01 0.  1.
       -4    1    3    3    0  502  0.63649543418E+03 -0.11671321133E+04  0.72042578630E+03  0.15120643948E+04  0.12699999809E+01 0. -1.
</event>
<event>
 5   0  0.1788003E-05  0.2693850E+04  0.7818609E-02  0.8337003E-01
       -2   -1    0    0    0  501  0.00000000000E+00  0.00000000000E+00  0.72148795584E+03  0.72148795584E+03  0.25500000920E-02 0.  1.
        2   -1    0    0  501    0  0.00000000000E+00  0.00000000000E+00 -0.25145357836E+04  0.25145357836E+04  0.25500000920E-02 0. -1.
    10030    2    1    2    0    0  0.00000000000E+00  0.00000000000E+00 -0.17930478278E+04  0.32360237394E+04  0.26938502426E+04 0.  0.
        2    1    3    3  502    0 -0.77345553366E+02 -0.93697305167E+03 -0.20551712458E+04  0.22600065672E+04  0.25500000920E-02 0. -1.
       -2    1    3    3    0  502  0.77345553366E+02  0.93697305167E+03  0.26212341806E+03  0.97601717223E+03  0.25500000920E-02 0.  1.
</event>
<event>
 5   0  0.1788003E-05  0.2686835E+04  0.7818609E-02  0.8339289E-01
       -2   -1    0    0    0  501  0.00000000000E+00  0.00000000000E+00  0.25611917084E+04  0.25611917084E+04  0.25500000920E-02 0.  1.
        2   -1    0    0  501    0  0.00000000000E+00  0.00000000000E+00 -0.70466041878E+03  0.70466041878E+03  0.25500000920E-02 0. -1.
    10030    2    1    2    0    0  0.00000000000E+00  0.00000000000E+00  0.18565312896E+04  0.32658521271E+04  0.26868348827E+04 0.  0.
        2    1    3    3  502    0 -0.13845931626E+02 -0.90682889856E+02 -0.70084905163E+03  0.70682705771E+03  0.25500000920E-02 0. -1.
       -2    1    3    3    0  502  0.13845931626E+02  0.90682889856E+02  0.25573803412E+04  0.25590250694E+04  0.25500000920E-02 0.  1.
</event>
<event>
 5   0  0.1878160E-05  0.2744251E+04  0.7818609E-02  0.8320788E-01
        2   -1    0    0  501    0  0.00000000000E+00  0.00000000000E+00  0.17995210009E+04  0.17995210009E+04  0.25500000920E-02 0.  1.
       -2   -1    0    0    0  501  0.00000000000E+00  0.00000000000E+00 -0.10462388220E+04  0.10462388220E+04  0.25500000920E-02 0. -1.
    10030    2    1    2    0    0  0.00000000000E+00  0.00000000000E+00  0.75328217893E+03  0.28457598229E+04  0.27442512510E+04 0.  0.
        1    1    3    3  502    0  0.11979437568E+04  0.57448339257E+03  0.73229723600E+03  0.15170232875E+04  0.50400001928E-02 0.  1.
       -1    1    3    3    0  502 -0.11979437568E+04 -0.57448339257E+03  0.20984942929E+02  0.13287365355E+04  0.50400001928E-02 0. -1.
</event>
<event>
 5   0  0.1826851E-05  0.2690352E+04  0.7818609E-02  0.8338142E-01
        2   -1    0    0  501    0  0.00000000000E+00  0.00000000000E+00  0.89049413711E+03  0.89049413711E+03  0.25500000920E-02 0. -1.
       -2   -1    0    0    0  501  0.00000000000E+00  0.00000000000E+00 -0.20320162676E+04  0.20320162676E+04  0.25500000920E-02 0.  1.
    10030    2    1    2    0    0  0.00000000000E+00  0.00000000000E+00 -0.11415221305E+04  0.29225104047E+04  0.26903520757E+04 0.  0.
        5    1    3    3  502    0  0.91577194587E+03 -0.32958881413E+03 -0.15794408905E+04  0.18552419410E+04  0.46999998093E+01 0.  1.
       -5    1    3    3    0  502 -0.91577194587E+03  0.32958881413E+03  0.43791875999E+03  0.10672684637E+04  0.46999998093E+01 0. -1.
</event>
<event>
 5   0  0.6804685E-06  0.2721807E+04  0.7818609E-02  0.8327964E-01
        1   -1    0    0  501    0  0.00000000000E+00  0.00000000000E+00  0.29324886579E+04  0.29324886579E+04  0.50400001928E-02 0. -1.
       -1   -1    0    0    0  501  0.00000000000E+00  0.00000000000E+00 -0.63156541633E+03  0.63156541635E+03  0.50400001928E-02 0.  1.
    10030    2    1    2    0    0  0.00000000000E+00  0.00000000000E+00  0.23009232415E+04  0.35640540742E+04  0.27218070616E+04 0.  0.
        2    1    3    3  502    0  0.91174988520E+03 -0.47486275714E+03 -0.17277599462E+02  0.10281444484E+04  0.25500000920E-02 0.  1.
       -2    1    3    3    0  502 -0.91174988520E+03  0.47486275714E+03  0.23182008410E+04  0.25359096259E+04  0.25500000920E-02 0. -1.
</event>
<event>
 5   0  0.7351590E-06  0.2647421E+04  0.7818609E-02  0.8352269E-01
       -1   -1    0    0    0  501  0.00000000000E+00  0.00000000000E+00  0.13820732791E+04  0.13820732791E+04  0.50400001928E-02 0.  1.
        1   -1    0    0  501    0  0.00000000000E+00  0.00000000000E+00 -0.12678121991E+04  0.12678121991E+04  0.50400001928E-02 0. -1.
    10030    2    1    2    0    0  0.00000000000E+00  0.00000000000E+00  0.11426108000E+03  0.26498854783E+04  0.26474209060E+04 0.  0.
        3    1    3    3  502    0  0.11970564020E+04 -0.33007802180E+03 -0.40189623659E+03  0.13051498478E+04  0.10100000352E+00 0. -1.
       -3    1    3    3    0  502 -0.11970564020E+04  0.33007802180E+03  0.51615731659E+03  0.13447356304E+04  0.10100000352E+00 0.  1.
</event>
<event>
 5   0  0.7348964E-06  0.2595637E+04  0.7818609E-02  0.8369685E-01
       -1   -1    0    0    0  501  0.00000000000E+00  0.00000000000E+00  0.96053157640E+03  0.96053157641E+03  0.50400001928E-02 0. -1.
        1   -1    0    0  501    0  0.00000000000E+00  0.00000000000E+00 -0.17535422425E+04  0.17535422425E+04  0.50400001928E-02 0.  1.
    10030    2    1    2    0    0  0.00000000000E+00  0.00000000000E+00 -0.79301066611E+03  0.27140738189E+04  0.25956368733E+04 0.  0.
        1    1    3    3  502    0  0.29348650932E+03  0.85414544991E+03 -0.13710373487E+04  0.16417801900E+04  0.50400001928E-02 0.  1.
       -1    1    3    3    0  502 -0.29348650932E+03 -0.85414544991E+03  0.57802668261E+03  0.10722936289E+04  0.50400001928E-02 0. -1.
</event>
<event>
 5   0  0.6804685E-06  0.2759267E+04  0.7818609E-02  0.8316027E-01
       -1   -1    0    0    0  501  0.00000000000E+00  0.00000000000E+00  0.14042069387E+04  0.14042069387E+04  0.50400001928E-02 0. -1.
        1   -1    0    0  501    0  0.00000000000E+00  0.00000000000E+00 -0.13554902672E+04  0.13554902672E+04  0.50400001928E-02 0.  1.
    10030    2    1    2    0    0  0.00000000000E+00  0.00000000000E+00  0.48716671525E+02  0.27596972060E+04  0.27592671771E+04 0.  0.
        2    1    3    3  502    0  0.76043353448E+03 -0.11414423861E+04 -0.12479222528E+03  0.13772156624E+04  0.25500000920E-02 0. -1.
       -2    1    3    3    0  502 -0.76043353448E+03  0.11414423861E+04  0.17350889681E+03  0.13824815436E+04  0.25500000920E-02 0.  1.
</event>
<event>
 5   0  0.1931119E-05  0.2659813E+04  0.7818609E-02  0.8348163E-01
        2   -1    0    0  501    0  0.00000000000E+00  0.00000000000E+00  0.21435012930E+04  0.21435012930E+04  0.25500000920E-02 0. -1.
       -2   -1    0    0    0  501  0.00000000000E+00  0.00000000000E+00 -0.82512229096E+03  0.82512229096E+03  0.25500000920E-02 0.  1.
    10030    2    1    2    0    0  0.00000000000E+00  0.00000000000E+00  0.13183790020E+04  0.29686235840E+04  0.26598125479E+04 0.  0.
        3    1    3    3  502    0 -0.18708265696E+03  0.34663415701E+03 -0.75852240253E+03  0.85469959908E+03  0.10100000352E+00 0.  1.
       -3    1    3    3    0  502  0.18708265696E+03 -0.34663415701E+03  0.20769014046E+04  0.21139239849E+04  0.10100000352E+00 0. -1.
</event>
<event>
 5   0  0.6804685E-06  0.2685178E+04  0.7818609E-02  0.8339830E-01
        1   -1    0    0  501    0  0.00000000000E+00  0.00000000000E+00  0.25455209071E+04  0.25455209071E+04  0.50400001928E-02 0.  1.
       -1   -1    0    0    0  501  0.00000000000E+00  0.00000000000E+00 -0.70812428856E+03  0.70812428857E+03  0.50400001928E-02 0. -1.
    10030    2    1    2    0    0  0.00000000000E+00  0.00000000000E+00  0.18373966186E+04  0.32536451957E+04  0.26851779691E+04 0.  0.
        2    1    3    3  502    0  0.26384322208E+02  0.45928931297E+03 -0.60963782796E+03  0.76374150520E+03  0.25500000920E-02 0. -1.
       -2    1    3    3    0  502 -0.26384322208E+02 -0.45928931297E+03  0.24470344465E+04  0.24899036905E+04  0.25500000920E-02 0.  1.
</event>
<event>
 5   0  0.1826851E-05  0.2012935E+04  0.7818609E-02  0.8600597E-01
        2   -1    0    0  501    0  0.00000000000E+00  0.00000000000E+00  0.98415140222E+03  0.98415140223E+03  0.25500000920E-02 0.  1.
       -2   -1    0    0    0  501  0.00000000000E+00  0.00000000000E+00 -0.10292891299E+04  0.10292891299E+04  0.25500000920E-02 0. -1.
    10030    2    1    2    0    0  0.00000000000E+00  0.00000000000E+00 -0.45137727704E+02  0.20134405322E+04  0.20129345151E+04 0.  0.
        5    1    3    3  502    0  0.42510742053E+03 -0.54481268958E+03 -0.75447479216E+03  0.10231282851E+04  0.46999998093E+01 0. -1.
       -5    1    3    3    0  502 -0.42510742053E+03  0.54481268958E+03  0.70933706445E+03  0.99031224709E+03  0.46999998093E+01 0.  1.
</event>
<event>
 5   0  0.1878160E-05  0.2792977E+04  0.7818609E-02  0.8305452E-01
       -2   -1    0    0    0  501  0.00000000000E+00  0.00000000000E+00  0.95691037370E+03  0.95691037370E+03  0.25500000920E-02 0.  1.
        2   -1    0    0  501    0  0.00000000000E+00  0.00000000000E+00 -0.20379968106E+04  0.20379968106E+04  0.25500000920E-02 0. -1.
    10030    2    1    2    0    0  0.00000000000E+00  0.00000000000E+00 -0.10810864369E+04  0.29949071843E+04  0.27929771138E+04 0.  0.
        1    1    3    3  502    0  0.91187185201E+03 -0.10545568396E+04 -0.62752438129E+03  0.15288516121E+04  0.50400001928E-02 0. -1.
       -1    1    3    3    0  502 -0.91187185201E+03  0.10545568396E+04 -0.45356205557E+03  0.14660555722E+04  0.50400001928E-02 0.  1.
</event>
<event>
 5   0  0.7600052E-06  0.2704833E+04  0.7818609E-02  0.8333439E-01
        1   -1    0    0  501    0  0.00000000000E+00  0.00000000000E+00  0.20751900113E+04  0.20751900113E+04  0.50400001928E-02 0. -1.
       -1   -1    0    0    0  501  0.00000000000E+00  0.00000000000E+00 -0.88137963456E+03  0.88137963457E+03  0.50400001928E-02 0.  1.
    10030    2    1    2    0    0  0.00000000000E+00  0.00000000000E+00  0.11938103767E+04  0.29565696459E+04  0.27048328701E+04 0.  0.
        5    1    3    3  502    0 -0.11455728853E+04 -0.70956972610E+03  0.47140821294E+03  0.14276113704E+04  0.46999998093E+01 0. -1.
       -5    1    3    3    0  502  0.11455728853E+04  0.70956972610E+03  0.72240216378E+03  0.15289582754E+04  0.46999998093E+01 0.  1.
</event>
<event>
 5   0  0.7351590E-06  0.2586898E+04  0.7818609E-02  0.8372665E-01
       -1   -1    0    0    0  501  0.00000000000E+00  0.00000000000E+00  0.10775637038E+04  0.10775637038E+04  0.50400001928E-02 0.  1.
        1   -1    0    0  501    0  0.00000000000E+00  0.00000000000E+00 -0.15525855965E+04  0.15525855965E+04  0.50400001928E-02 0. -1.
    10030    2    1    2    0    0  0.00000000000E+00  0.00000000000E+00 -0.47502189277E+03  0.26301493003E+04  0.25868976677E+04 0.  0.
        3    1    3    3  502    0  0.42021643224E+03 -0.60240430386E+03 -0.13199887961E+04  0.15105771172E+04  0.10100000352E+00 0. -1.
       -3    1    3    3    0  502 -0.42021643224E+03  0.60240430386E+03  0.84496690328E+03  0.11195721831E+04  0.10100000352E+00 0.  1.
</event>
<event>
 5   0  0.7348964E-06  0.2124775E+04  0.7818609E-02  0.8550408E-01
        1   -1    0    0  501    0  0.00000000000E+00  0.00000000000E+00  0.26850163877E+04  0.26850163877E+04  0.50400001928E-02 0. -1.
       -1   -1    0    0    0  501  0.00000000000E+00  0.00000000000E+00 -0.42035762877E+03  0.42035762880E+03  0.50400001928E-02 0.  1.
    10030    2    1    2    0    0  0.00000000000E+00  0.00000000000E+00  0.22646587589E+04  0.31053740165E+04  0.21247749264E+04 0.  0.
        1    1    3    3  502    0  0.82804484211E+03 -0.39470780483E+03  0.19155863095E+04  0.21238934580E+04  0.50400001928E-02 0. -1.
       -1    1    3    3    0  502 -0.82804484211E+03  0.39470780483E+03  0.34907244941E+03  0.98148055849E+03  0.50400001928E-02 0.  1.
</event>
<event>
 5   0  0.7600052E-06  0.2701472E+04  0.7818609E-02  0.8334528E-01
        1   -1    0    0  501    0  0.00000000000E+00  0.00000000000E+00  0.13491787587E+04  0.13491787587E+04  0.50400001928E-02 0. -1.
       -1   -1    0    0    0  501  0.00000000000E+00  0.00000000000E+00 -0.13522947052E+04  0.13522947052E+04  0.50400001928E-02 0.  1.
    10030    2    1    2    0    0  0.00000000000E+00  0.00000000000E+00 -0.31159465537E+01  0.27014734639E+04  0.27014716669E+04 0.  0.
        5    1    3    3  502    0  0.37539665598E+03  0.12516598356E+04  0.34033435457E+03  0.13503423849E+04  0.46999998093E+01 0. -1.
       -5    1    3    3    0  502 -0.37539665598E+03 -0.12516598356E+04 -0.34345030112E+03  0.13511310791E+04  0.46999998093E+01 0.  1.
</event>
<event>
 5   0  0.1788003E-05  0.2685034E+04  0.7818609E-02  0.8339877E-01
        2   -1    0    0  501    0  0.00000000000E+00  0.00000000000E+00  0.14291462197E+04  0.14291462197E+04  0.25500000920E-02 0.  1.
       -2   -1    0    0    0  501  0.00000000000E+00  0.00000000000E+00 -0.12611392841E+04  0.12611392841E+04  0.25500000920E-02 0. -1.
    10030    2    1    2    0    0  0.00000000000E+00  0.00000000000E+00  0.16800693567E+03  0.26902855038E+04  0.26850344060E+04 0.  0.
        2    1    3    3  502    0  0.13218105519E+04 -0.66711078401E+02  0.30965255913E+03  0.13592344207E+04  0.25500000920E-02 0. -1.
       -2    1    3    3    0  502 -0.13218105519E+04  0.66711078401E+02 -0.14164562346E+03  0.13310510831E+04  0.25500000920E-02 0.  1.
</event>
<event>
 5   0  0.6804685E-06  0.2611899E+04  0.7818609E-02  0.8364171E-01
        1   -1    0    0  501    0  0.00000000000E+00  0.00000000000E+00  0.16268433173E+04  0.16268433173E+04  0.50400001928E-02 0.  1.
       -1   -1    0    0    0  501  0.00000000000E+00  0.00000000000E+00 -0.10483519195E+04  0.10483519195E+04  0.50400001928E-02 0. -1.
    10030    2    1    2    0    0  0.00000000000E+00  0.00000000000E+00  0.57849139780E+03  0.26751952368E+04  0.26118991669E+04 0.  0.
        2    1    3    3  502    0 -0.22802693867E+03  0.63030144382E+03  0.14372230794E+04  0.15858393282E+04  0.25500000920E-02 0.  1.
       -2    1    3    3    0  502  0.22802693867E+03 -0.63030144382E+03 -0.85873168156E+03  0.10893559087E+04  0.25500000920E-02 0. -1.
</event>
<event>
 5   0  0.1826851E-05  0.2689844E+04  0.7818609E-02  0.8338308E-01
        2   -1    0    0  501    0  0.00000000000E+00  0.00000000000E+00  0.14733438036E+04  0.14733438036E+04  0.25500000920E-02 0. -1.
       -2   -1    0    0    0  501  0.00000000000E+00  0.00000000000E+00 -0.12276941553E+04  0.12276941553E+04  0.25500000920E-02 0.  1.
    10030    2    1    2    0    0  0.00000000000E+00  0.00000000000E+00  0.24564964825E+03  0.27010379589E+04  0.26898442902E+04 0.  0.
        5    1    3    3  502    0  0.11264200851E+04  0.73355284577E+03  0.79383951207E+02  0.13465681889E+04  0.46999998093E+01 0. -1.
       -5    1    3    3    0  502 -0.11264200851E+04 -0.73355284577E+03  0.16626569704E+03  0.13544697700E+04  0.46999998093E+01 0.  1.
</event>
<event>
 5   0  0.7348964E-06  0.2692909E+04  0.7818609E-02  0.8337309E-01
       -1   -1    0    0    0  501  0.00000000000E+00  0.00000000000E+00  0.10213097471E+04  0.10213097471E+04  0.50400001928E-02 0.  1.
        1   -1    0    0  501    0  0.00000000000E+00  0.00000000000E+00 -0.17751126746E+04  0.17751126746E+04  0.50400001928E-02 0. -1.
    10030    2    1    2    0    0  0.00000000000E+00  0.00000000000E+00 -0.75380292749E+03  0.27964224217E+04  0.26929091160E+04 0.  0.
        1    1    3    3  502    0  0.22917651236E+02  0.41184436763E+03 -0.17078868206E+04  0.17569912902E+04  0.50400001928E-02 0. -1.
       -1    1    3    3    0  502 -0.22917651236E+02 -0.41184436763E+03  0.95408389314E+03  0.10394311315E+04  0.50400001928E-02 0.  1.
</event>
<event>
 5   0  0.1931119E-05  0.2734811E+04  0.7818609E-02  0.8323798E-01
        2   -1    0    0  501    0  0.00000000000E+00  0.00000000000E+00  0.27183899761E+04  0.27183899761E+04  0.25500000920E-02 0. -1.
       -2   -1    0    0    0  501  0.00000000000E+00  0.00000000000E+00 -0.68783274578E+03  0.68783274578E+03  0.25500000920E-02 0.  1.
    10030    2    1    2    0    0  0.00000000000E+00  0.00000000000E+00  0.20305572304E+04  0.34062227219E+04  0.27348108830E+04 0.  0.
        3    1    3    3  502    0  0.87066041748E+03  0.99207605427E+03  0.14600709778E+04  0.19682661737E+04  0.10100000352E+00 0. -1.
       -3    1    3    3    0  502 -0.87066041748E+03 -0.99207605427E+03  0.57048625253E+03  0.14379565482E+04  0.10100000352E+00 0.  1.
</event>
<event>
 5   0  0.1826851E-05  0.2665428E+04  0.7818609E-02  0.8346310E-01
        2   -1    0    0  501    0  0.00000000000E+00  0.00000000000E+00  0.22169593291E+04  0.22169593291E+04  0.25500000920E-02 0.  1.
       -2   -1    0    0    0  501  0.00000000000E+00  0.00000000000E+00 -0.80115431776E+03  0.80115431776E+03  0.25500000920E-02 0. -1.
    10030    2    1    2    0    0  0.00000000000E+00  0.00000000000E+00  0.14158050113E+04  0.30181136468E+04  0.26654279497E+04 0.  0.
        5    1    3    3  502    0 -0.13323799717E+04  0.28053087192E+02  0.69770634665E+03  0.15042737785E+04  0.46999998093E+01 0. -1.
       -5    1    3    3    0  502  0.13323799717E+04 -0.28053087192E+02  0.71809866466E+03  0.15138398683E+04  0.46999998093E+01 0.  1.
</event>
<event>
 5   0  0.1826851E-05  0.2647783E+04  0.7818609E-02  0.8352149E-01
       -2   -1    0    0    0  501  0.00000000000E+00  0.00000000000E+00  0.66501743416E+03  0.66501743417E+03  0.25500000920E-02 0.  1.
        2   -1    0    0  501    0  0.00000000000E+00  0.00000000000E+00 -0.26355539572E+04  0.26355539572E+04  0.25500000920E-02 0. -1.
    10030    2    1    2    0    0  0.00000000000E+00  0.00000000000E+00 -0.19705365231E+04  0.33005713914E+04  0.26477834732E+04 0.  0.
        5    1    3    3  502    0 -0.59537460538E+02 -0.11597120919E+04 -0.17777689686E+04  0.21234315249E+04  0.46999998093E+01 0. -1.
       -5    1    3    3    0  502  0.59537460538E+02  0.11597120919E+04 -0.19276755448E+03  0.11771398665E+04  0.46999998093E+01 0.  1.
</event>
<event>
 5   0  0.1931119E-05  0.2711858E+04  0.7818609E-02  0.8331168E-01
       -2   -1    0    0    0  501  0.00000000000E+00  0.00000000000E+00  0.17930759107E+04  0.17930759107E+04  0.25500000920E-02 0.  1.
        2   -1    0    0  501    0  0.00000000000E+00  0.00000000000E+00 -0.10253571638E+04  0.10253571638E+04  0.25500000920E-02 0. -1.
    10030    2    1    2    0    0  0.00000000000E+00  0.00000000000E+00  0.76771874690E+03  0.28184330744E+04  0.27118578356E+04 0.  0.
        3    1    3    3  502    0  0.94878820880E+03  0.14756200018E+03  0.13788604142E+04  0.16802469048E+04  0.10100000352E+00 0.  1.
       -3    1    3    3    0  502 -0.94878820880E+03 -0.14756200018E+03 -0.61114166727E+03  0.11381861696E+04  0.10100000352E+00 0. -1.
</event>
<event>
 5   0  0.7348964E-06  0.2752476E+04  0.7818609E-02  0.8318176E-01
       -1   -1    0    0    0  501  0.00000000000E+00  0.00000000000E+00  0.10882731847E+04  0.10882731847E+04  0.50400001928E-02 0. -1.
        1   -1    0    0  501    0  0.00000000000E+00  0.00000000000E+00 -0.17404007116E+04  0.17404007116E+04  0.50400001928E-02 0.  1.
    10030    2    1    2    0    0  0.00000000000E+00  0.00000000000E+00 -0.65212752692E+03  0.28286738963E+04  0.27524762851E+04 0.  0.
        1    1    3    3  502    0 -0.44827775358E+03  0.92360757174E+02  0.10077677941E+04  0.11068330410E+04  0.50400001928E-02 0. -1.
       -1    1    3    3    0  502  0.44827775358E+03 -0.92360757174E+02 -0.16598953211E+04  0.17218408552E+04  0.50400001928E-02 0.  1.
</event>
<event>
 5   0  0.7754912E-06  0.2784034E+04  0.7818609E-02  0.8308242E-01
        1   -1    0    0  501    0  0.00000000000E+00  0.00000000000E+00  0.12744881970E+04  0.12744881971E+04  0.50400001928E-02 0. -1.
       -1   -1    0    0    0  501  0.00000000000E+00  0.00000000000E+00 -0.15203842528E+04  0.15203842528E+04  0.50400001928E-02 0.  1.
    10030    2    1    2    0    0  0.00000000000E+00  0.00000000000E+00 -0.24589605577E+03  0.27948724499E+04  0.27840343283E+04 0.  0.
        4    1    3    3  502    0 -0.12752217644E+02 -0.60746927950E+03 -0.13802327304E+04  0.15080535625E+04  0.12699999809E+01 0.  1.
       -4    1    3    3    0  502  0.12752217644E+02  0.60746927950E+03  0.11343366746E+04  0.12868188873E+04  0.12699999809E+01 0. -1.
</event>
<event>
 5   0  0.7600052E-06  0.2756458E+04  0.7818609E-02  0.8316915E-01
       -1   -1    0    0    0  501  0.00000000000E+00  0.00000000000E+00  0.70428665861E+03  0.70428665862E+03  0.50400001928E-02 0. -1.
        1   -1    0    0  501    0  0.00000000000E+00  0.00000000000E+00 -0.26970762475E+04  0.26970762475E+04  0.50400001928E-02 0.  1.
    10030    2    1    2    0    0  0.00000000000E+00  0.00000000000E+00 -0.19927895889E+04  0.34013629062E+04  0.27564577402E+04 0.  0.
        5    1    3    3  502    0  0.49693483074E+03  0.10984938401E+04 -0.18203446540E+04  0.21834169762E+04  0.46999998093E+01 0. -1.
       -5    1    3    3    0  502 -0.49693483074E+03 -0.10984938401E+04 -0.17244493496E+03  0.12179459300E+04  0.46999998093E+01 0.  1.
</event>
<event>
 5   0  0.1788003E-05  0.2715979E+04  0.7818609E-02  0.8329839E-01
        2   -1    0    0  501    0  0.00000000000E+00  0.00000000000E+00  0.17017481967E+04  0.17017481967E+04  0.25500000920E-02 0. -1.
       -2   -1    0    0    0  501  0.00000000000E+00  0.00000000000E+00 -0.10836708047E+04  0.10836708047E+04  0.25500000920E-02 0.  1.
    10030    2    1    2    0    0  0.00000000000E+00  0.00000000000E+00  0.61807739195E+03  0.27854190014E+04  0.27159785255E+04 0.  0.
        2    1    3    3  502    0 -0.10851082337E+04 -0.37694753898E+03  0.10518394707E+04  0.15575351034E+04  0.25500000920E-02 0. -1.
       -2    1    3    3    0  502  0.10851082337E+04  0.37694753898E+03 -0.43376207878E+03  0.12278838980E+04  0.25500000920E-02 0.  1.
</event>
<event>
 5   0  0.7351590E-06  0.2621932E+04  0.7818609E-02  0.8360789E-01
       -1   -1    0    0    0  501  0.00000000000E+00  0.00000000000E+00  0.15288234519E+04  0.15288234519E+04  0.50400001928E-02 0. -1.
        1   -1    0    0  501    0  0.00000000000E+00  0.00000000000E+00 -0.11241531735E+04  0.11241531735E+04  0.50400001928E-02 0.  1.
    10030    2    1    2    0    0  0.00000000000E+00  0.00000000000E+00  0.40467027848E+03  0.26529766254E+04  0.26219319100E+04 0.  0.
        3    1    3    3  502    0 -0.10243369777E+04 -0.64905638557E+03 -0.30165004857E+03  0.12496132191E+04  0.10100000352E+00 0.  1.
       -3    1    3    3    0  502  0.10243369777E+04  0.64905638557E+03  0.70632032704E+03  0.14033634063E+04  0.10100000352E+00 0. -1.
</event>
<event>
 5   0  0.7754912E-06  0.2722339E+04  0.7818609E-02  0.8327793E-01
        1   -1    0    0  501    0  0.00000000000E+00  0.00000000000E+00  0.22793403667E+04  0.22793403667E+04  0.50400001928E-02 0.  1.
       -1   -1    0    0    0  501  0.00000000000E+00  0.00000000000E+00 -0.81285888921E+03  0.81285888922E+03  0.50400001928E-02 0. -1.
    10030    2    1    2    0    0  0.00000000000E+00  0.00000000000E+00  0.14664814775E+04  0.30921992560E+04  0.27223387582E+04 0.  0.
        4    1    3    3  502    0 -0.10238075689E+03 -0.68897658039E+02 -0.80649111846E+03  0.81587881681E+03  0.12699999809E+01 0. -1.
       -4    1    3    3    0  502  0.10238075689E+03  0.68897658039E+02  0.22729725960E+04  0.22763204392E+04  0.12699999809E+01 0.  1.
</event>
<event>
 5   0  0.1881699E-05  0.2713245E+04  0.7818609E-02  0.8330720E-01
        2   -1    0    0  501    0  0.00000000000E+00  0.00000000000E+00  0.14671879894E+04  0.14671879894E+04  0.25500000920E-02 0. -1.
       -2   -1    0    0    0  501  0.00000000000E+00  0.00000000000E+00 -0.12543886944E+04  0.12543886944E+04  0.25500000920E-02 0.  1.
    10030    2    1    2    0    0  0.00000000000E+00  0.00000000000E+00  0.21279929492E+03  0.27215766838E+04  0.27132445717E+04 0.  0.
        4    1    3    3  502    0 -0.64947261289E+03 -0.19602182176E+03  0.12848193598E+04  0.14529286389E+04  0.12699999809E+01 0. -1.
       -4    1    3    3    0  502  0.64947261289E+03  0.19602182176E+03 -0.10720200649E+04  0.12686480449E+04  0.12699999809E+01 0.  1.
</event>
<event>
 5   0  0.7754912E-06  0.2699307E+04  0.7818609E-02  0.8335230E-01
       -1   -1    0    0    0  501  0.00000000000E+00  0.00000000000E+00  0.11208354937E+04  0.11208354937E+04  0.50400001928E-02 0. -1.
        1   -1    0    0  501    0  0.00000000000E+00  0.00000000000E+00 -0.16251849356E+04  0.16251849357E+04  0.50400001928E-02 0.  1.
    10030    2    1    2    0    0  0.00000000000E+00  0.00000000000E+00 -0.50434944197E+03  0.27460204293E+04  0.26993072887E+04 0.  0.
        4    1    3    3  502    0 -0.83091704831E+03 -0.10320807556E+03 -0.13290244406E+04  0.15707904458E+04  0.12699999809E+01 0.  1.
       -4    1    3    3    0  502  0.83091704831E+03  0.10320807556E+03  0.82467499860E+03  0.11752299836E+04  0.12699999809E+01 0. -1.
</event>
<event>
 5   0  0.7754912E-06  0.2698194E+04  0.7818609E-02  0.8335591E-01
       -1   -1    0    0    0  501  0.00000000000E+00  0.00000000000E+00  0.15418629361E+04  0.15418629361E+04  0.50400001928E-02 0. -1.
        1   -1    0    0  501    0  0.00000000000E+00  0.00000000000E+00 -0.11804307789E+04  0.11804307789E+04  0.50400001928E-02 0.  1.
    10030    2    1    2    0    0  0.00000000000E+00  0.00000000000E+00  0.36143215715E+03  0.27222937150E+04  0.26981938156E+04 0.  0.
        4    1    3    3  502    0  0.47800894281E+03 -0.12615489619E+04  0.17273842729E+03  0.13600876846E+04  0.12699999809E+01 0. -1.
       -4    1    3    3    0  502 -0.47800894281E+03  0.12615489619E+04  0.18869372987E+03  0.13622060304E+04  0.12699999809E+01 0.  1.
</event>
<event>
 5   0  0.7348964E-06  0.2506320E+04  0.7818609E-02  0.8400737E-01
        1   -1    0    0  501    0  0.00000000000E+00  0.00000000000E+00  0.13256407312E+04  0.13256407312E+04  0.50400001928E-02 0.  1.
       -1   -1    0    0    0  501  0.00000000000E+00  0.00000000000E+00 -0.11846425448E+04  0.11846425448E+04  0.50400001928E-02 0. -1.
    10030    2    1    2    0    0  0.00000000000E+00  0.00000000000E+00  0.14099818641E+03  0.25102832761E+04  0.25063203382E+04 0.  0.
        1    1    3    3  502    0  0.58131278188E+02  0.45362679017E+03  0.12390717572E+04  0.13207783046E+04  0.50400001928E-02 0.  1.
       -1    1    3    3    0  502 -0.58131278188E+02 -0.45362679017E+03 -0.10980735708E+04  0.11895049715E+04  0.50400001928E-02 0. -1.
</event>
<event>
 5   0  0.1878160E-05  0.2694907E+04  0.7818609E-02  0.8336659E-01
       -2   -1    0    0    0  501  0.00000000000E+00  0.00000000000E+00  0.11479785158E+04  0.11479785158E+04  0.25500000920E-02 0. -1.
        2   -1    0    0  501    0  0.00000000000E+00  0.00000000000E+00 -0.15815899070E+04  0.15815899070E+04  0.25500000920E-02 0.  1.
    10030    2    1    2    0    0  0.00000000000E+00  0.00000000000E+00 -0.43361139123E+03  0.27295684229E+04  0.26949072222E+04 0.  0.
        1    1    3    3  502    0  0.36665112375E+03  0.17673252531E+03 -0.15178358885E+04  0.15714621270E+04  0.50400001928E-02 0.  1.
       -1    1    3    3    0  502 -0.36665112375E+03 -0.17673252531E+03  0.10842244973E+04  0.11581062959E+04  0.50400001928E-02 0. -1.
</event>
<event>
 5   0  0.7351590E-06  0.2712786E+04  0.7818609E-02  0.8330868E-01
       -1   -1    0    0    0  501  0.00000000000E+00  0.00000000000E+00  0.13152702269E+04  0.13152702269E+04  0.50400001928E-02 0. -1.
        1   -1    0    0  501    0  0.00000000000E+00  0.00000000000E+00 -0.13988011098E+04  0.13988011099E+04  0.50400001928E-02 0.  1.
    10030    2    1    2    0    0  0.00000000000E+00  0.00000000000E+00 -0.83530882912E+02  0.27140713368E+04  0.27127856187E+04 0.  0.
        3    1    3    3  502    0  0.62061275939E+03 -0.22546220023E+03 -0.12271510413E+04  0.13935182414E+04  0.10100000352E+00 0.  1.
       -3    1    3    3    0  502 -0.62061275939E+03  0.22546220023E+03  0.11436201584E+04  0.13205530954E+04  0.10100000352E+00 0. -1.
</event>
<event>
 5   0  0.1788003E-05  0.2701425E+04  0.7818609E-02  0.8334543E-01
       -2   -1    0    0    0  501  0.00000000000E+00  0.00000000000E+00  0.19650212361E+04  0.19650212361E+04  0.25500000920E-02 0. -1.
        2   -1    0    0  501    0  0.00000000000E+00  0.00000000000E+00 -0.92845010389E+03  0.92845010389E+03  0.25500000920E-02 0.  1.
    10030    2    1    2    0    0  0.00000000000E+00  0.00000000000E+00  0.10365711322E+04  0.28934713400E+04  0.27014249357E+04 0.  0.
        2    1    3    3  502    0  0.68180315610E+03  0.25901681602E+03 -0.69940800827E+03  0.10105032492E+04  0.25500000920E-02 0.  1.
       -2    1    3    3    0  502 -0.68180315610E+03 -0.25901681602E+03  0.17359791405E+04  0.18829680908E+04  0.25500000920E-02 0. -1.
</event>
<event>
 5   0  0.1931119E-05  0.2714613E+04  0.7818609E-02  0.8330279E-01
       -2   -1    0    0    0  501  0.00000000000E+00  0.00000000000E+00  0.12362705953E+04  0.12362705953E+04  0.25500000920E-02 0.  1.
        2   -1    0    0  501    0  0.00000000000E+00  0.00000000000E+00 -0.14901922379E+04  0.14901922379E+04  0.25500000920E-02 0. -1.
    10030    2    1    2    0    0  0.00000000000E+00  0.00000000000E+00 -0.25392164265E+03  0.27264628332E+04  0.27146129338E+04 0.  0.
        3    1    3    3  502    0 -0.11835668339E+04 -0.15028885571E+03  0.52306109763E+03  0.13026934069E+04  0.10100000352E+00 0.  1.
       -3    1    3    3    0  502  0.11835668339E+04  0.15028885571E+03 -0.77698274029E+03  0.14237694263E+04  0.10100000352E+00 0. -1.
</event>
<event>
 5   0  0.7600052E-06  0.2767388E+04  0.7818609E-02  0.8313465E-01
        1   -1    0    0  501    0  0.00000000000E+00  0.00000000000E+00  0.20013241202E+04  0.20013241202E+04  0.50400001928E-02 0.  1.
       -1   -1    0    0    0  501  0.00000000000E+00  0.00000000000E+00 -0.95667100338E+03  0.95667100339E+03  0.50400001928E-02 0. -1.
    10030    2    1    2    0    0  0.00000000000E+00  0.00000000000E+00  0.10446531168E+04  0.29579951236E+04  0.27673877605E+04 0.  0.
        5    1    3    3  502    0 -0.21009153078E+03  0.78604314670E+02  0.19817515999E+04  0.19944118389E+04  0.46999998093E+01 0.  1.
       -5    1    3    3    0  502  0.21009153078E+03 -0.78604314670E+02 -0.93709848305E+03  0.96358328468E+03  0.46999998093E+01 0. -1.
</event>
<event>
 5   0  0.1881699E-05  0.2712422E+04  0.7818609E-02  0.8330986E-01
       -2   -1    0    0    0  501  0.00000000000E+00  0.00000000000E+00  0.13274342253E+04  0.13274342253E+04  0.25500000920E-02 0. -1.
        2   -1    0    0  501    0  0.00000000000E+00  0.00000000000E+00 -0.13856120340E+04  0.13856120340E+04  0.25500000920E-02 0.  1.
    10030    2    1    2    0    0  0.00000000000E+00  0.00000000000E+00 -0.58177808696E+02  0.27130462593E+04  0.27124224132E+04 0.  0.
        4    1    3    3  502    0  0.62811093164E+02  0.61732371573E+03  0.11771210489E+04  0.13306574992E+04  0.12699999809E+01 0. -1.
       -4    1    3    3    0  502 -0.62811093164E+02 -0.61732371573E+03 -0.12352988576E+04  0.13823887601E+04  0.12699999809E+01 0.  1.
</event>
<event>
 5   0  0.1881699E-05  0.2722525E+04  0.7818609E-02  0.8327733E-01
       -2   -1    0    0    0  501  0.00000000000E+00  0.00000000000E+00  0.81815691993E+03  0.81815691994E+03  0.25500000920E-02 0. -1.
        2   -1    0    0  501    0  0.00000000000E+00  0.00000000000E+00 -0.22648900846E+04  0.22648900846E+04  0.25500000920E-02 0.  1.
    10030    2    1    2    0    0  0.00000000000E+00  0.00000000000E+00 -0.14467331647E+04  0.30830470045E+04  0.27225249278E+04 0.  0.
        4    1    3    3  502    0  0.47622631151E+02  0.57333458034E+03 -0.21204528690E+04  0.21971122954E+04  0.12699999809E+01 0.  1.
       -4    1    3    3    0  502 -0.47622631151E+02 -0.57333458034E+03  0.67371970432E+03  0.88593470916E+03  0.12699999809E+01 0. -1.
</event>
<event>
 5   0  0.1788003E-05  0.1955723E+04  0.7818609E-02  0.8627606E-01
       -2   -1    0    0    0  501  0.00000000000E+00  0.00000000000E+00  0.44403719678E+03  0.44403719679E+03  0.25500000920E-02 0. -1.
        2   -1    0    0  501    0  0.00000000000E+00  0.00000000000E+00 -0.21534529536E+04  0.21534529536E+04  0.25500000920E-02 0.  1.
    10030    2    1    2    0    0  0.00000000000E+00  0.00000000000E+00 -0.17094157569E+04  0.25974901504E+04  0.19557231020E+04 0.  0.
        2    1    3    3  502    0  0.38023085853E+03 -0.88395747491E+03 -0.10857327219E+04  0.14507831907E+04  0.25500000920E-02 0.  1.
       -2    1    3    3    0  502 -0.38023085853E+03  0.88395747491E+03 -0.62368303499E+03  0.11467069597E+04  0.25500000920E-02 0. -1.
</event>
<event>
 5   0  0.7600052E-06  0.2550442E+04  0.7818609E-02  0.8385233E-01
        1   -1    0    0  501    0  0.00000000000E+00  0.00000000000E+00  0.90041523667E+03  0.90041523669E+03  0.50400001928E-02 0. -1.
       -1   -1    0    0    0  501  0.00000000000E+00  0.00000000000E+00 -0.18060427247E+04  0.18060427247E+04  0.50400001928E-02 0.  1.
    10030    2    1    2    0    0  0.00000000000E+00  0.00000000000E+00 -0.90562748799E+03  0.27064579614E+04  0.25504418342E+04 0.  0.
        5    1    3    3  502    0 -0.68991595394E+03 -0.14431040695E+03 -0.15805341632E+04  0.17305836727E+04  0.46999998093E+01 0.  1.
       -5    1    3    3    0  502  0.68991595394E+03  0.14431040695E+03  0.67490667522E+03  0.97587428868E+03  0.46999998093E+01 0. -1.
</event>
<event>
 5   0  0.1931119E-05  0.2515875E+04  0.7818609E-02  0.8397352E-01
        2   -1    0    0  501    0  0.00000000000E+00  0.00000000000E+00  0.89384759827E+03  0.89384759827E+03  0.25500000920E-02 0. -1.
       -2   -1    0    0    0  501  0.00000000000E+00  0.00000000000E+00 -0.17703314672E+04  0.17703314672E+04  0.25500000920E-02 0.  1.
    10030    2    1    2    0    0  0.00000000000E+00  0.00000000000E+00 -0.87648386891E+03  0.26641790654E+04  0.25158748221E+04 0.  0.
        3    1    3    3  502    0 -0.12260387588E+04  0.97225739602E+02 -0.15850612037E+03  0.12400597094E+04  0.10100000352E+00 0. -1.
       -3    1    3    3    0  502  0.12260387588E+04 -0.97225739602E+02 -0.71797774854E+03  0.14241193560E+04  0.10100000352E+00 0.  1.
</event>
<event>
 5   0  0.7351590E-06  0.2597243E+04  0.7818609E-02  0.8369138E-01
       -1   -1    0    0    0  501  0.00000000000E+00  0.00000000000E+00  0.87009842810E+03  0.87009842812E+03  0.50400001928E-02 0. -1.
        1   -1    0    0  501    0  0.00000000000E+00  0.00000000000E+00 -0.19381927072E+04  0.19381927072E+04  0.50400001928E-02 0.  1.
    10030    2    1    2    0    0  0.00000000000E+00  0.00000000000E+00 -0.10680942791E+04  0.28082911353E+04  0.25972434833E+04 0.  0.
        3    1    3    3  502    0 -0.77692782179E+03  0.47639835823E+03 -0.15343403534E+04  0.17845931095E+04  0.10100000352E+00 0.  1.
       -3    1    3    3    0  502  0.77692782179E+03 -0.47639835823E+03  0.46624607437E+03  0.10236980258E+04  0.10100000352E+00 0. -1.
</event>
<event>
 5   0  0.1881699E-05  0.2692786E+04  0.7818609E-02  0.8337350E-01
        2   -1    0    0  501    0  0.00000000000E+00  0.00000000000E+00  0.26164042404E+04  0.26164042404E+04  0.25500000920E-02 0. -1.
       -2   -1    0    0    0  501  0.00000000000E+00  0.00000000000E+00 -0.69284923873E+03  0.69284923873E+03  0.25500000920E-02 0.  1.
    10030    2    1    2    0    0  0.00000000000E+00  0.00000000000E+00  0.19235550017E+04  0.33092534791E+04  0.26927856849E+04 0.  0.
        4    1    3    3  502    0 -0.47022398527E+03 -0.97337533906E+02 -0.58403613473E+03  0.75609854609E+03  0.12699999809E+01 0.  1.
       -4    1    3    3    0  502  0.47022398527E+03  0.97337533906E+02  0.25075911364E+04  0.25531549330E+04  0.12699999809E+01 0. -1.
</event>
<event>
 5   0  0.7754912E-06  0.2709566E+04  0.7818609E-02  0.8331908E-01
        1   -1    0    0  501    0  0.00000000000E+00  0.00000000000E+00  0.11480315564E+04  0.11480315564E+04  0.50400001928E-02 0. -1.
       -1   -1    0    0    0  501  0.00000000000E+00  0.00000000000E+00 -0.15987690023E+04  0.15987690023E+04  0.50400001928E-02 0.  1.
    10030    2    1    2    0    0  0.00000000000E+00  0.00000000000E+00 -0.45073744583E+03  0.27468005587E+04  0.27095662133E+04 0.  0.
        4    1    3    3  502    0 -0.40143831618E+03 -0.12765475574E+04 -0.43972002423E+03  0.14085743504E+04  0.12699999809E+01 0.  1.
       -4    1    3    3    0  502  0.40143831618E+03  0.12765475574E+04 -0.11017421595E+02  0.13382262083E+04  0.12699999809E+01 0. -1.
</event>
<event>
 5   0  0.7351590E-06  0.2724639E+04  0.7818609E-02  0.8327055E-01
        1   -1    0    0  501    0  0.00000000000E+00  0.00000000000E+00  0.12671633321E+04  0.12671633321E+04  0.50400001928E-02 0. -1.
       -1   -1    0    0    0  501  0.00000000000E+00  0.00000000000E+00 -0.14646211522E+04  0.14646211522E+04  0.50400001928E-02 0.  1.
    10030    2    1    2    0    0  0.00000000000E+00  0.00000000000E+00 -0.19745782014E+03  0.27317844843E+04  0.27246388528E+04 0.  0.
        3    1    3    3  502    0 -0.11927208711E+04 -0.32148315053E+03  0.47721622149E+03  0.13242619925E+04  0.10100000352E+00 0.  1.
       -3    1    3    3    0  502  0.11927208711E+04  0.32148315053E+03 -0.67467404164E+03  0.14075224918E+04  0.10100000352E+00 0. -1.
</event>
<event>
 5   0  0.1788003E-05  0.2721737E+04  0.7818609E-02  0.8327986E-01
        2   -1    0    0  501    0  0.00000000000E+00  0.00000000000E+00  0.13625891776E+04  0.13625891776E+04  0.25500000920E-02 0. -1.
       -2   -1    0    0    0  501  0.00000000000E+00  0.00000000000E+00 -0.13591501392E+04  0.13591501392E+04  0.25500000920E-02 0.  1.
    10030    2    1    2    0    0  0.00000000000E+00  0.00000000000E+00  0.34390383728E+01  0.27217393167E+04  0.27217371441E+04 0.  0.
        2    1    3    3  502    0 -0.45909169708E+03  0.69863684955E+03  0.10755474744E+04  0.13622264876E+04  0.25500000920E-02 0. -1.
       -2    1    3    3    0  502  0.45909169708E+03 -0.69863684955E+03 -0.10721084360E+04  0.13595128291E+04  0.25500000920E-02 0.  1.
</event>
<event>
 5   0  0.7351590E-06  0.2626205E+04  0.7818609E-02  0.8359354E-01
        1   -1    0    0  501    0  0.00000000000E+00  0.00000000000E+00  0.95973680131E+03  0.95973680132E+03  0.50400001928E-02 0.  1.
       -1   -1    0    0    0  501  0.00000000000E+00  0.00000000000E+00 -0.17965738036E+04  0.17965738037E+04  0.50400001928E-02 0. -1.
    10030    2    1    2    0    0  0.00000000000E+00  0.00000000000E+00 -0.83683700234E+03  0.27563106050E+04  0.26262048630E+04 0.  0.
        3    1    3    3  502    0  0.10215154699E+04  0.99926239700E+02 -0.12779915087E+04  0.16391282486E+04  0.10100000352E+00 0. -1.
       -3    1    3    3    0  502 -0.10215154699E+04 -0.99926239700E+02  0.44115450639E+03  0.11171823564E+04  0.10100000352E+00 0.  1.
</event>
<event>
 5   0  0.1881699E-05  0.2714757E+04  0.7818609E-02  0.8330233E-01
        2   -1    0    0  501    0  0.00000000000E+00  0.00000000000E+00  0.24584841918E+04  0.24584841918E+04  0.25500000920E-02 0. -1.
       -2   -1    0    0    0  501  0.00000000000E+00  0.00000000000E+00 -0.74943615151E+03  0.74943615151E+03  0.25500000920E-02 0.  1.
    10030    2    1    2    0    0  0.00000000000E+00  0.00000000000E+00  0.17090480403E+04  0.32079203434E+04  0.27147573971E+04 0.  0.
        4    1    3    3  502    0 -0.46121353556E+03  0.65770669011E+03 -0.43839745937E+03  0.91514477591E+03  0.12699999809E+01 0.  1.
       -4    1    3    3    0  502  0.46121353556E+03 -0.65770669011E+03  0.21474454997E+04  0.22927755674E+04  0.12699999809E+01 0. -1.
</event>
<event>
 5   0  0.1878160E-05  0.2695694E+04  0.7818609E-02  0.8336403E-01
       -2   -1    0    0    0  501  0.00000000000E+00  0.00000000000E+00  0.78392251806E+03  0.78392251807E+03  0.25500000920E-02 0. -1.
        2   -1    0    0  501    0  0.00000000000E+00  0.00000000000E+00 -0.23174374896E+04  0.23174374896E+04  0.25500000920E-02 0.  1.
    10030    2    1    2    0    0  0.00000000000E+00  0.00000000000E+00 -0.15335149715E+04  0.31013600076E+04  0.26956939235E+04 0.  0.
        1    1    3    3  502    0  0.53766129473E+03  0.37477846888E+03 -0.21217714286E+04  0.22206874079E+04  0.50400001928E-02 0.  1.
       -1    1    3    3    0  502 -0.53766129473E+03 -0.37477846888E+03  0.58825645707E+03  0.88067259971E+03  0.50400001928E-02 0. -1.
</event>
<event>
 5   0  0.1931119E-05  0.2756284E+04  0.7818609E-02  0.8316970E-01
       -2   -1    0    0    0  501  0.00000000000E+00  0.00000000000E+00  0.16495004115E+04  0.16495004115E+04  0.25500000920E-02 0.  1.
        2   -1    0    0  501    0  0.00000000000E+00  0.00000000000E+00 -0.11514243000E+04  0.11514243001E+04  0.25500000920E-02 0. -1.
    10030    2    1    2    0    0  0.00000000000E+00  0.00000000000E+00  0.49807611141E+03  0.28009247115E+04  0.27562836260E+04 0.  0.
        3    1    3    3  502    0  0.39208338447E+03 -0.24446304994E+03 -0.10703677828E+04  0.11658382237E+04  0.10100000352E+00 0. -1.
       -3    1    3    3    0  502 -0.39208338447E+03  0.24446304994E+03  0.15684438942E+04  0.16350864878E+04  0.10100000352E+00 0.  1.
</event>
<event>
 5   0  0.1931119E-05  0.2741773E+04  0.7818609E-02  0.8321577E-01
        2   -1    0    0  501    0  0.00000000000E+00  0.00000000000E+00  0.15848866519E+04  0.15848866519E+04  0.25500000920E-02 0. -1.
       -2   -1    0    0    0  501  0.00000000000E+00  0.00000000000E+00 -0.11857820661E+04  0.11857820661E+04  0.25500000920E-02 0.  1.
    10030    2    1    2    0    0  0.00000000000E+00  0.00000000000E+00  0.39910458576E+03  0.27706687180E+04  0.27417732719E+04 0.  0.
        3    1    3    3  502    0 -0.12344375351E+04 -0.39344192995E+02 -0.40165143990E+03  0.12987331839E+04  0.10100000352E+00 0.  1.
       -3    1    3    3    0  502  0.12344375351E+04  0.39344192995E+02  0.80075602566E+03  0.14719355341E+04  0.10100000352E+00 0. -1.
</event>
<event>
 5   0  0.1826851E-05  0.2694658E+04  0.7818609E-02  0.8336740E-01
        2   -1    0    0  501    0  0.00000000000E+00  0.00000000000E+00  0.11165419730E+04  0.11165419730E+04  0.25500000920E-02 0. -1.
       -2   -1    0    0    0  501  0.00000000000E+00  0.00000000000E+00 -0.16258197682E+04  0.16258197682E+04  0.25500000920E-02 0.  1.
    10030    2    1    2    0    0  0.00000000000E+00  0.00000000000E+00 -0.50927779517E+03  0.27423617412E+04  0.26946584287E+04 0.  0.
        5    1    3    3  502    0 -0.55722318884E+02  0.27655852113E+03 -0.15954154002E+04  0.16201734418E+04  0.46999998093E+01 0.  1.
       -5    1    3    3    0  502  0.55722318884E+02 -0.27655852113E+03  0.10861376050E+04  0.11221882994E+04  0.46999998093E+01 0. -1.
</event>
<event>
 5   0  0.7351590E-06  0.2550683E+04  0.7818609E-02  0.8385149E-01
       -1   -1    0    0    0  501  0.00000000000E+00  0.00000000000E+00  0.12151208031E+04  0.12151208031E+04  0.50400001928E-02 0. -1.
        1   -1    0    0  501    0  0.00000000000E+00  0.00000000000E+00 -0.13385470053E+04  0.13385470053E+04  0.50400001928E-02 0.  1.
    10030    2    1    2    0    0  0.00000000000E+00  0.00000000000E+00 -0.12342620224E+03  0.25536678084E+04  0.25506832905E+04 0.  0.
        3    1    3    3  502    0 -0.11240691167E+04 -0.21678301338E+03 -0.62448295158E+03  0.13040342100E+04  0.10100000352E+00 0.  1.
       -3    1    3    3    0  502  0.11240691167E+04  0.21678301338E+03  0.50105674934E+03  0.12496335984E+04  0.10100000352E+00 0. -1.
</event>
<event>
 5   0  0.7754912E-06  0.2671644E+04  0.7818609E-02  0.8344265E-01
        1   -1    0    0  501    0  0.00000000000E+00  0.00000000000E+00  0.15424103114E+04  0.15424103114E+04  0.50400001928E-02 0.  1.
       -1   -1    0    0    0  501  0.00000000000E+00  0.00000000000E+00 -0.11569036193E+04  0.11569036193E+04  0.50400001928E-02 0. -1.
    10030    2    1    2    0    0  0.00000000000E+00  0.00000000000E+00  0.38550669213E+03  0.26993139307E+04  0.26716437425E+04 0.  0.
        4    1    3    3  502    0 -0.34665935044E+03  0.11564232925E+04 -0.38494729599E+03  0.12671517550E+04  0.12699999809E+01 0. -1.
       -4    1    3    3    0  502  0.34665935044E+03 -0.11564232925E+04  0.77045398812E+03  0.14321621757E+04  0.12699999809E+01 0.  1.
</event>
<event>
 5   0  0.1881699E-05  0.2600056E+04  0.7818609E-02  0.8368182E-01
        2   -1    0    0  501    0  0.00000000000E+00  0.00000000000E+00  0.15964460030E+04  0.15964460030E+04  0.25500000920E-02 0.  1.
       -2   -1    0    0    0  501  0.00000000000E+00  0.00000000000E+00 -0.10586471603E+04  0.10586471603E+04  0.25500000920E-02 0. -1.
    10030    2    1    2    0    0  0.00000000000E+00  0.00000000000E+00  0.53779884265E+03  0.26550931633E+04  0.26000561745E+04 0.  0.
        4    1    3    3  502    0  0.10252267220E+04 -0.25694071623E+03  0.10418653332E+04  0.14841136575E+04  0.12699999809E+01 0.  1.
       -4    1    3    3    0  502 -0.10252267220E+04  0.25694071623E+03 -0.50406649055E+03  0.11709795057E+04  0.12699999809E+01 0. -1.
</event>
<event>
 5   0  0.7351590E-06  0.2698277E+04  0.7818609E-02  0.8335564E-01
       -1   -1    0    0    0  501  0.00000000000E+00  0.00000000000E+00  0.11080334490E+04  0.11080334490E+04  0.50400001928E-02 0. -1.
        1   -1    0    0  501    0  0.00000000000E+00  0.00000000000E+00 -0.16427078735E+04  0.16427078735E+04  0.50400001928E-02 0.  1.
    10030    2    1    2    0    0  0.00000000000E+00  0.00000000000E+00 -0.53467442446E+03  0.27507413225E+04  0.26982774289E+04 0.  0.
        3    1    3    3  502    0 -0.83396602735E+03 -0.99304453120E+03 -0.64678180471E+03  0.14491250770E+04  0.10100000352E+00 0. -1.
       -3    1    3    3    0  502  0.83396602735E+03  0.99304453120E+03  0.11210738025E+03  0.13016162455E+04  0.10100000352E+00 0.  1.
</event>
<event>
 5   0  0.6804685E-06  0.2682889E+04  0.7818609E-02  0.8340578E-01
        1   -1    0    0  501    0  0.00000000000E+00  0.00000000000E+00  0.12070122028E+04  0.12070122028E+04  0.50400001928E-02 0.  1.
       -1   -1    0    0    0  501  0.00000000000E+00  0.00000000000E+00 -0.14908490584E+04  0.14908490584E+04  0.50400001928E-02 0. -1.
    10030    2    1    2    0    0  0.00000000000E+00  0.00000000000E+00 -0.28383685564E+03  0.26978612612E+04  0.26828887461E+04 0.  0.
        2    1    3    3  502    0  0.39423398865E+03  0.37317535790E+03  0.10916274012E+04  0.12191516184E+04  0.25500000920E-02 0.  1.
       -2    1    3    3    0  502 -0.39423398865E+03 -0.37317535790E+03 -0.13754642569E+04  0.14787096427E+04  0.25500000920E-02 0. -1.
</event>
<event>
 5   0  0.7600052E-06  0.2634546E+04  0.7818609E-02  0.8356561E-01
       -1   -1    0    0    0  501  0.00000000000E+00  0.00000000000E+00  0.12681492113E+04  0.12681492114E+04  0.50400001928E-02 0. -1.
        1   -1    0    0  501    0  0.00000000000E+00  0.00000000000E+00 -0.13682995670E+04  0.13682995670E+04  0.50400001928E-02 0.  1.
    10030    2    1    2    0    0  0.00000000000E+00  0.00000000000E+00 -0.10015035561E+03  0.26364487783E+04  0.26345458939E+04 0.  0.
        5    1    3    3  502    0 -0.38874890234E+03 -0.10008472778E+03  0.12054398128E+04  0.12705313432E+04  0.46999998093E+01 0. -1.
       -5    1    3    3    0  502  0.38874890234E+03  0.10008472778E+03 -0.13055901684E+04  0.13659174351E+04  0.46999998093E+01 0.  1.
</event>
<event>
 5   0  0.7351590E-06  0.2772713E+04  0.7818609E-02  0.8311790E-01
        1   -1    0    0  501    0  0.00000000000E+00  0.00000000000E+00  0.13489500432E+04  0.13489500432E+04  0.50400001928E-02 0.  1.
       -1   -1    0    0    0  501  0.00000000000E+00  0.00000000000E+00 -0.14248000355E+04  0.14248000355E+04  0.50400001928E-02 0. -1.
    10030    2    1    2    0    0  0.00000000000E+00  0.00000000000E+00 -0.75849992310E+02  0.27737500787E+04  0.27727128012E+04 0.  0.
        3    1    3    3  502    0 -0.70384933115E+03 -0.71153509617E+03  0.92175551565E+03  0.13606319542E+04  0.10100000352E+00 0.  1.
       -3    1    3    3    0  502  0.70384933115E+03  0.71153509617E+03 -0.99760550796E+03  0.14131181245E+04  0.10100000352E+00 0. -1.
</event>
<event>
 5   0  0.7600052E-06  0.2711974E+04  0.7818609E-02  0.8331130E-01
       -1   -1    0    0    0  501  0.00000000000E+00  0.00000000000E+00  0.18773257726E+04  0.18773257726E+04  0.50400001928E-02 0. -1.
        1   -1    0    0  501    0  0.00000000000E+00  0.00000000000E+00 -0.97942515433E+03  0.97942515435E+03  0.50400001928E-02 0.  1.
    10030    2    1    2    0    0  0.00000000000E+00  0.00000000000E+00  0.89790061825E+03  0.28567509269E+04  0.27119735136E+04 0.  0.
        5    1    3    3  502    0 -0.72700394948E+03 -0.16244679491E+02 -0.75664786938E+03  0.10494459111E+04  0.46999998093E+01 0.  1.
       -5    1    3    3    0  502  0.72700394948E+03  0.16244679491E+02  0.16545484876E+04  0.18073050158E+04  0.46999998093E+01 0. -1.
</event>
<event>
 5   0  0.6804685E-06  0.1929634E+04  0.7818609E-02  0.8640245E-01
        1   -1    0    0  501    0  0.00000000000E+00  0.00000000000E+00  0.13641283415E+04  0.13641283415E+04  0.50400001928E-02 0. -1.
       -1   -1    0    0    0  501  0.00000000000E+00  0.00000000000E+00 -0.68239287181E+03  0.68239287183E+03  0.50400001928E-02 0.  1.
    10030    2    1    2    0    0  0.00000000000E+00  0.00000000000E+00  0.68173546964E+03  0.20465212133E+04  0.19296335989E+04 0.  0.
        2    1    3    3  502    0 -0.17629714514E+03 -0.57424673314E+03  0.11416064221E+04  0.12900020220E+04  0.25500000920E-02 0. -1.
       -2    1    3    3    0  502  0.17629714514E+03  0.57424673314E+03 -0.45987095241E+03  0.75651919128E+03  0.25500000920E-02 0.  1.
</event>
<event>
 5   0  0.6804685E-06  0.2700930E+04  0.7818609E-02  0.8334703E-01
        1   -1    0    0  501    0  0.00000000000E+00  0.00000000000E+00  0.15473335892E+04  0.15473335892E+04  0.50400001928E-02 0.  1.
       -1   -1    0    0    0  501  0.00000000000E+00  0.00000000000E+00 -0.11786441050E+04  0.11786441050E+04  0.50400001928E-02 0. -1.
    10030    2    1    2    0    0  0.00000000000E+00  0.00000000000E+00  0.36868948421E+03  0.27259776942E+04  0.27009299238E+04 0.  0.
        2    1    3    3  502    0  0.17770063314E+03  0.36150046654E+03  0.14852886373E+04  0.15389419867E+04  0.25500000920E-02 0.  1.
       -2    1    3    3    0  502 -0.17770063314E+03 -0.36150046654E+03 -0.11165991531E+04  0.11870357075E+04  0.25500000920E-02 0. -1.
</event>
<event>
 5   0  0.1826851E-05  0.2070943E+04  0.7818609E-02  0.8574152E-01
        2   -1    0    0  501    0  0.00000000000E+00  0.00000000000E+00  0.12127486095E+04  0.12127486095E+04  0.25500000920E-02 0.  1.
       -2   -1    0    0    0  501  0.00000000000E+00  0.00000000000E+00 -0.88410823070E+03  0.88410823070E+03  0.25500000920E-02 0. -1.
    10030    2    1    2    0    0  0.00000000000E+00  0.00000000000E+00  0.32864037877E+03  0.20968568402E+04  0.20709428069E+04 0.  0.
        5    1    3    3  502    0 -0.18453392996E+03  0.51030110142E+03 -0.72859871275E+03  0.90848123791E+03  0.46999998093E+01 0. -1.
       -5    1    3    3    0  502  0.18453392996E+03 -0.51030110142E+03  0.10572390915E+04  0.11883756023E+04  0.46999998093E+01 0.  1.
</event>
<event>
 5   0  0.7351590E-06  0.2705616E+04  0.7818609E-02  0.8333185E-01
       -1   -1    0    0    0  501  0.00000000000E+00  0.00000000000E+00  0.14599681979E+04  0.14599681979E+04  0.50400001928E-02 0. -1.
        1   -1    0    0  501    0  0.00000000000E+00  0.00000000000E+00 -0.12535128465E+04  0.12535128465E+04  0.50400001928E-02 0.  1.
    10030    2    1    2    0    0  0.00000000000E+00  0.00000000000E+00  0.20645535137E+03  0.27134810443E+04  0.27056155614E+04 0.  0.
        3    1    3    3  502    0  0.74998089858E+03  0.94719544492E+03 -0.50717813361E+03  0.13102977633E+04  0.10100000352E+00 0.  1.
       -3    1    3    3    0  502 -0.74998089858E+03 -0.94719544492E+03  0.71363348498E+03  0.14031832810E+04  0.10100000352E+00 0. -1.
</event>
<event>
 5   0  0.1826851E-05  0.2664041E+04  0.7818609E-02  0.8346767E-01
       -2   -1    0    0    0  501  0.00000000000E+00  0.00000000000E+00  0.12297134660E+04  0.12297134660E+04  0.25500000920E-02 0. -1.
        2   -1    0    0  501    0  0.00000000000E+00  0.00000000000E+00 -0.14428395549E+04  0.14428395549E+04  0.25500000920E-02 0.  1.
    10030    2    1    2    0    0  0.00000000000E+00  0.00000000000E+00 -0.21312608886E+03  0.26725530209E+04  0.26640414636E+04 0.  0.
        5    1    3    3  502    0  0.68511016171E+03 -0.94110328213E+03  0.54296663597E+03  0.12844789524E+04  0.46999998093E+01 0. -1.
       -5    1    3    3    0  502 -0.68511016171E+03  0.94110328213E+03 -0.75609272483E+03  0.13880740686E+04  0.46999998093E+01 0.  1.
</event>
<event>
 5   0  0.7351590E-06  0.2684305E+04  0.7818609E-02  0.8340116E-01
        1   -1    0    0  501    0  0.00000000000E+00  0.00000000000E+00  0.17104117778E+04  0.17104117778E+04  0.50400001928E-02 0. -1.
       -1   -1    0    0    0  501  0.00000000000E+00  0.00000000000E+00 -0.10531808558E+04  0.10531808559E+04  0.50400001928E-02 0.  1.
    10030    2    1    2    0    0  0.00000000000E+00  0.00000000000E+00  0.65723092198E+03  0.27635926337E+04  0.26843047070E+04 0.  0.
        3    1    3    3  502    0 -0.20855083574E+03 -0.21206632770E+03 -0.10188236531E+04  0.10613516028E+04  0.10100000352E+00 0.  1.
       -3    1    3    3    0  502  0.20855083574E+03  0.21206632770E+03  0.16760545751E+04  0.17022410309E+04  0.10100000352E+00 0. -1.
</event>
<event>
 5   0  0.1881699E-05  0.2736252E+04  0.7818609E-02  0.8323338E-01
       -2   -1    0    0    0  501  0.00000000000E+00  0.00000000000E+00  0.12803258438E+04  0.12803258438E+04  0.25500000920E-02 0. -1.
        2   -1    0    0  501    0  0.00000000000E+00  0.00000000000E+00 -0.14619467714E+04  0.14619467715E+04  0.25500000920E-02 0.  1.
    10030    2    1    2    0    0  0.00000000000E+00  0.00000000000E+00 -0.18162092768E+03  0.27422726152E+04  0.27362516213E+04 0.  0.
        4    1    3    3  502    0 -0.83095730161E+02 -0.13585545405E+04  0.48026969607E+02  0.13619410936E+04  0.12699999809E+01 0. -1.
       -4    1    3    3    0  502  0.83095730161E+02  0.13585545405E+04 -0.22964789729E+03  0.13803315216E+04  0.12699999809E+01 0.  1.
</event>
<event>
 5   0  0.7754912E-06  0.2688517E+04  0.7818609E-02  0.8338740E-01
       -1   -1    0    0    0  501  0.00000000000E+00  0.00000000000E+00  0.70975066434E+03  0.70975066436E+03  0.50400001928E-02 0.  1.
        1   -1    0    0  501    0  0.00000000000E+00  0.00000000000E+00 -0.25460080978E+04  0.25460080978E+04  0.50400001928E-02 0. -1.
    10030    2    1    2    0    0  0.00000000000E+00  0.00000000000E+00 -0.18362574335E+04  0.32557587622E+04  0.26885170179E+04 0.  0.
        4    1    3    3  502    0 -0.10458526170E+04 -0.84077834979E+03 -0.82190747849E+03  0.15736103222E+04  0.12699999809E+01 0.  1.
       -4    1    3    3    0  502  0.10458526170E+04  0.84077834979E+03 -0.10143499550E+04  0.16821484400E+04  0.12699999809E+01 0. -1.
</event>
<event>
 5   0  0.1881699E-05  0.2715281E+04  0.7818609E-02  0.8330064E-01
        2   -1    0    0  501    0  0.00000000000E+00  0.00000000000E+00  0.15695746447E+04  0.15695746447E+04  0.25500000920E-02 0. -1.
       -2   -1    0    0    0  501  0.00000000000E+00  0.00000000000E+00 -0.11743226771E+04  0.11743226771E+04  0.25500000920E-02 0.  1.
    10030    2    1    2    0    0  0.00000000000E+00  0.00000000000E+00  0.39525196765E+03  0.27438973218E+04  0.27152805371E+04 0.  0.
        4    1    3    3  502    0  0.79483582639E+03  0.16227751551E+02 -0.91449895076E+03  0.12117496749E+04  0.12699999809E+01 0.  1.
       -4    1    3    3    0  502 -0.79483582639E+03 -0.16227751551E+02  0.13097509184E+04  0.15321476469E+04  0.12699999809E+01 0. -1.
</event>
<event>
 5   0  0.1788003E-05  0.2650320E+04  0.7818609E-02  0.8351307E-01
       -2   -1    0    0    0  501  0.00000000000E+00  0.00000000000E+00  0.11389936122E+04  0.11389936122E+04  0.25500000920E-02 0. -1.
        2   -1    0    0  501    0  0.00000000000E+00  0.00000000000E+00 -0.15417551144E+04  0.15417551144E+04  0.25500000920E-02 0.  1.
    10030    2    1    2    0    0  0.00000000000E+00  0.00000000000E+00 -0.40276150218E+03  0.26807487266E+04  0.26503201519E+04 0.  0.
        2    1    3    3  502    0  0.79193926389E+03 -0.10540343205E+04 -0.66079963403E+02  0.13200464795E+04  0.25500000920E-02 0. -1.
       -2    1    3    3    0  502 -0.79193926389E+03  0.10540343205E+04 -0.33668153878E+03  0.13607022470E+04  0.25500000920E-02 0.  1.
</event>
<event>
 5   0  0.7348964E-06  0.2657231E+04  0.7818609E-02  0.8349017E-01
       -1   -1    0    0    0  501  0.00000000000E+00  0.00000000000E+00  0.10931457500E+04  0.10931457500E+04  0.50400001928E-02 0.  1.
        1   -1    0    0  501    0  0.00000000000E+00  0.00000000000E+00 -0.16148073274E+04  0.16148073274E+04  0.50400001928E-02 0. -1.
    10030    2    1    2    0    0  0.00000000000E+00  0.00000000000E+00 -0.52166157739E+03  0.27079530773E+04  0.26572314667E+04 0.  0.
        1    1    3    3  502    0 -0.27135311666E+03 -0.12743051402E+04  0.43939488435E+01  0.13028834987E+04  0.50400001928E-02 0. -1.
       -1    1    3    3    0  502  0.27135311666E+03  0.12743051402E+04 -0.52605552623E+03  0.14050695787E+04  0.50400001928E-02 0.  1.
</event>
<event>
 5   0  0.7348964E-06  0.2662619E+04  0.7818609E-02  0.8347237E-01
       -1   -1    0    0    0  501  0.00000000000E+00  0.00000000000E+00  0.11323931452E+04  0.11323931452E+04  0.50400001928E-02 0.  1.
        1   -1    0    0  501    0  0.00000000000E+00  0.00000000000E+00 -0.15651680284E+04  0.15651680285E+04  0.50400001928E-02 0. -1.
    10030    2    1    2    0    0  0.00000000000E+00  0.00000000000E+00 -0.43277488327E+03  0.26975611736E+04  0.26626194219E+04 0.  0.
        1    1    3    3  502    0 -0.63678244699E+03  0.94803351617E+02  0.96419700667E+03  0.11593771724E+04  0.50400001928E-02 0.  1.
       -1    1    3    3    0  502  0.63678244699E+03 -0.94803351617E+02 -0.13969718899E+04  0.15381840012E+04  0.50400001928E-02 0. -1.
</event>
<event>
 5   0  0.1826851E-05  0.2740083E+04  0.7818609E-02  0.8322115E-01
       -2   -1    0    0    0  501  0.00000000000E+00  0.00000000000E+00  0.95384341458E+03  0.95384341458E+03  0.25500000920E-02 0.  1.
        2   -1    0    0  501    0  0.00000000000E+00  0.00000000000E+00 -0.19678428051E+04  0.19678428051E+04  0.25500000920E-02 0. -1.
    10030    2    1    2    0    0  0.00000000000E+00  0.00000000000E+00 -0.10139993905E+04  0.29216862197E+04  0.27400831378E+04 0.  0.
        5    1    3    3  502    0 -0.81167089371E+03  0.98558842616E+03  0.22712925200E+02  0.12770012343E+04  0.46999998093E+01 0.  1.
       -5    1    3    3    0  502  0.81167089371E+03 -0.98558842616E+03 -0.10367123157E+04  0.16446849853E+04  0.46999998093E+01 0. -1.
</event>
<event>
 5   0  0.1931119E-05  0.2669229E+04  0.7818609E-02  0.8345059E-01
       -2   -1    0    0    0  501  0.00000000000E+00  0.00000000000E+00  0.12805236092E+04  0.12805236092E+04  0.25500000920E-02 0. -1.
        2   -1    0    0  501    0  0.00000000000E+00  0.00000000000E+00 -0.13909898110E+04  0.13909898110E+04  0.25500000920E-02 0.  1.
    10030    2    1    2    0    0  0.00000000000E+00  0.00000000000E+00 -0.11046620177E+03  0.26715134202E+04  0.26692285726E+04 0.  0.
        3    1    3    3  502    0  0.36450667850E+03 -0.72179210172E+03 -0.11179076320E+04  0.13796979527E+04  0.10100000352E+00 0.  1.
       -3    1    3    3    0  502 -0.36450667850E+03  0.72179210172E+03  0.10074414302E+04  0.12918154676E+04  0.10100000352E+00 0. -1.
</event>
<event>
 5   0  0.1826851E-05  0.2092211E+04  0.7818609E-02  0.8564682E-01
        2   -1    0    0  501    0  0.00000000000E+00  0.00000000000E+00  0.11329482492E+04  0.11329482492E+04  0.25500000920E-02 0.  1.
       -2   -1    0    0    0  501  0.00000000000E+00  0.00000000000E+00 -0.96591947803E+03  0.96591947803E+03  0.25500000920E-02 0. -1.
    10030    2    1    2    0    0  0.00000000000E+00  0.00000000000E+00  0.16702877115E+03  0.20988677272E+04  0.20922110615E+04 0.  0.
        5    1    3    3  502    0  0.89855010080E+03 -0.51176977439E+03  0.24217607258E+03  0.10620602270E+04  0.46999998093E+01 0.  1.
       -5    1    3    3    0  502 -0.89855010080E+03  0.51176977439E+03 -0.75147301434E+02  0.10368075002E+04  0.46999998093E+01 0. -1.
</event>
<event>
 5   0  0.6804685E-06  0.2521764E+04  0.7818609E-02  0.8395273E-01
        1   -1    0    0  501    0  0.00000000000E+00  0.00000000000E+00  0.14327991898E+04  0.14327991898E+04  0.50400001928E-02 0.  1.
       -1   -1    0    0    0  501  0.00000000000E+00  0.00000000000E+00 -0.11095922175E+04  0.11095922175E+04  0.50400001928E-02 0. -1.
    10030    2    1    2    0    0  0.00000000000E+00  0.00000000000E+00  0.32320697226E+03  0.25423914073E+04  0.25217635339E+04 0.  0.
        2    1    3    3  502    0  0.11208234951E+04 -0.16963400586E+03  0.71820814205E+03  0.13419552669E+04  0.25500000920E-02 0.  1.
       -2    1    3    3    0  502 -0.11208234951E+04  0.16963400586E+03 -0.39500116978E+03  0.12004361404E+04  0.25500000920E-02 0. -1.
</event>
<event>
 5   0  0.1881699E-05  0.2298809E+04  0.7818609E-02  0.8478391E-01
       -2   -1    0    0    0  501  0.00000000000E+00  0.00000000000E+00  0.15100279048E+04  0.15100279048E+04  0.25500000920E-02 0.  1.
        2   -1    0    0  501    0  0.00000000000E+00  0.00000000000E+00 -0.87490474034E+03  0.87490474034E+03  0.25500000920E-02 0. -1.
    10030    2    1    2    0    0  0.00000000000E+00  0.00000000000E+00  0.63512316443E+03  0.23849326451E+04  0.22988088846E+04 0.  0.
        4    1    3    3  502    0 -0.85997412323E+03  0.96727356668E+02  0.11023520827E+04  0.14014611665E+04  0.12699999809E+01 0.  1.
       -4    1    3    3    0  502  0.85997412323E+03 -0.96727356668E+02 -0.46722891829E+03  0.98347147856E+03  0.12699999809E+01 0. -1.
</event>
<event>
 5   0  0.7351590E-06  0.2546712E+04  0.7818609E-02  0.8386531E-01
       -1   -1    0    0    0  501  0.00000000000E+00  0.00000000000E+00  0.81947761791E+03  0.81947761793E+03  0.50400001928E-02 0.  1.
        1   -1    0    0  501    0  0.00000000000E+00  0.00000000000E+00 -0.19786209487E+04  0.19786209487E+04  0.50400001928E-02 0. -1.
    10030    2    1    2    0    0  0.00000000000E+00  0.00000000000E+00 -0.11591433307E+04  0.27980985666E+04  0.25467120621E+04 0.  0.
        3    1    3    3  502    0 -0.47438090580E+03 -0.52720332550E+03 -0.17415349827E+04  0.18804054606E+04  0.10100000352E+00 0. -1.
       -3    1    3    3    0  502  0.47438090580E+03  0.52720332550E+03  0.58239165197E+03  0.91769310594E+03  0.10100000352E+00 0.  1.
</event>
<event>
 5   0  0.1931119E-05  0.2743704E+04  0.7818609E-02  0.8320962E-01
        2   -1    0    0  501    0  0.00000000000E+00  0.00000000000E+00  0.15475678508E+04  0.15475678508E+04  0.25500000920E-02 0. -1.
       -2   -1    0    0    0  501  0.00000000000E+00  0.00000000000E+00 -0.12160878738E+04  0.12160878738E+04  0.25500000920E-02 0.  1.
    10030    2    1    2    0    0  0.00000000000E+00  0.00000000000E+00  0.33147997705E+03  0.27636557246E+04  0.27437044281E+04 0.  0.
        3    1    3    3  502    0  0.35965223680E+03  0.10853487223E+04 -0.59782701614E+03  0.12902436715E+04  0.10100000352E+00 0.  1.
       -3    1    3    3    0  502 -0.35965223680E+03 -0.10853487223E+04  0.92930699319E+03  0.14734120531E+04  0.10100000352E+00 0. -1.
</event>
<event>
 5   0  0.7348964E-06  0.2713093E+04  0.7818609E-02  0.8330769E-01
       -1   -1    0    0    0  501  0.00000000000E+00  0.00000000000E+00  0.85990836564E+03  0.85990836565E+03  0.50400001928E-02 0.  1.
        1   -1    0    0  501    0  0.00000000000E+00  0.00000000000E+00 -0.21400175490E+04  0.21400175490E+04  0.50400001928E-02 0. -1.
    10030    2    1    2    0    0  0.00000000000E+00  0.00000000000E+00 -0.12801091834E+04  0.29999259147E+04  0.27130934323E+04 0.  0.
        1    1    3    3  502    0  0.12564478581E+04  0.49779329582E+03 -0.51035195524E+03  0.14446170786E+04  0.50400001928E-02 0.  1.
       -1    1    3    3    0  502 -0.12564478581E+04 -0.49779329582E+03 -0.76975722813E+03  0.15553088361E+04  0.50400001928E-02 0. -1.
</event>
<event>
 5   0  0.1826851E-05  0.2502781E+04  0.7818609E-02  0.8401995E-01
       -2   -1    0    0    0  501  0.00000000000E+00  0.00000000000E+00  0.98697444459E+03  0.98697444460E+03  0.25500000920E-02 0. -1.
        2   -1    0    0  501    0  0.00000000000E+00  0.00000000000E+00 -0.15866454139E+04  0.15866454139E+04  0.25500000920E-02 0.  1.
    10030    2    1    2    0    0  0.00000000000E+00  0.00000000000E+00 -0.59967096930E+03  0.25736198585E+04  0.25027812339E+04 0.  0.
        5    1    3    3  502    0  0.32951935854E+03 -0.65009969284E+03 -0.13458504999E+04  0.15305385576E+04  0.46999998093E+01 0.  1.
       -5    1    3    3    0  502 -0.32951935854E+03  0.65009969284E+03  0.74617953061E+03  0.10430813009E+04  0.46999998093E+01 0. -1.
</event>
<event>
 5   0  0.7754912E-06  0.2693398E+04  0.7818609E-02  0.8337150E-01
        1   -1    0    0  501    0  0.00000000000E+00  0.00000000000E+00  0.19270203083E+04  0.19270203083E+04  0.50400001928E-02 0.  1.
       -1   -1    0    0    0  501  0.00000000000E+00  0.00000000000E+00 -0.94114115955E+03  0.94114115956E+03  0.50400001928E-02 0. -1.
    10030    2    1    2    0    0  0.00000000000E+00  0.00000000000E+00  0.98587914874E+03  0.28681614679E+04  0.26933979487E+04 0.  0.
        4    1    3    3  502    0  0.10798846587E+04  0.54995455228E+02 -0.36190657716E+03  0.11402426758E+04  0.12699999809E+01 0. -1.
       -4    1    3    3    0  502 -0.10798846587E+04 -0.54995455228E+02  0.13477857259E+04  0.17279187921E+04  0.12699999809E+01 0.  1.
</event>
<event>
 5   0  0.1788003E-05  0.2648999E+04  0.7818609E-02  0.8351745E-01
       -2   -1    0    0    0  501  0.00000000000E+00  0.00000000000E+00  0.11830473097E+04  0.11830473097E+04  0.25500000920E-02 0. -1.
        2   -1    0    0  501    0  0.00000000000E+00  0.00000000000E+00 -0.14828645360E+04  0.14828645360E+04  0.25500000920E-02 0.  1.
    10030    2    1    2    0    0  0.00000000000E+00  0.00000000000E+00 -0.29981722633E+03  0.26659118457E+04  0.26489989807E+04 0.  0.
        2    1    3    3  502    0 -0.12196379833E+04 -0.28712145982E+03  0.28218489264E+03  0.12843612641E+04  0.25500000920E-02 0. -1.
       -2    1    3    3    0  502  0.12196379833E+04  0.28712145982E+03 -0.58200211897E+03  0.13815505816E+04  0.25500000920E-02 0.  1.
</event>
<event>
 5   0  0.1931119E-05  0.2700600E+04  0.7818609E-02  0.8334810E-01
       -2   -1    0    0    0  501  0.00000000000E+00  0.00000000000E+00  0.99471469516E+03  0.99471469517E+03  0.25500000920E-02 0.  1.
        2   -1    0    0  501    0  0.00000000000E+00  0.00000000000E+00 -0.18329980827E+04  0.18329980827E+04  0.25500000920E-02 0. -1.
    10030    2    1    2    0    0  0.00000000000E+00  0.00000000000E+00 -0.83828338753E+03  0.28277127779E+04  0.27006000289E+04 0.  0.
        3    1    3    3  502    0 -0.93680454553E+03  0.23936505001E+03  0.56777880522E+03  0.11212810377E+04  0.10100000352E+00 0.  1.
       -3    1    3    3    0  502  0.93680454553E+03 -0.23936505001E+03 -0.14060621928E+04  0.17064317401E+04  0.10100000352E+00 0. -1.
</event>
<event>
 5   0  0.7600052E-06  0.2791817E+04  0.7818609E-02  0.8305813E-01
       -1   -1    0    0    0  501  0.00000000000E+00  0.00000000000E+00  0.11949166320E+04  0.11949166321E+04  0.50400001928E-02 0. -1.
        1   -1    0    0  501    0  0.00000000000E+00  0.00000000000E+00 -0.16307086931E+04  0.16307086931E+04  0.50400001928E-02 0.  1.
    10030    2    1    2    0    0  0.00000000000E+00  0.00000000000E+00 -0.43579206106E+03  0.28256253252E+04  0.27918172859E+04 0.  0.
        5    1    3    3  502    0  0.41040198597E+03 -0.10099029723E+04  0.66455975831E+03  0.12767127970E+04  0.46999998093E+01 0. -1.
       -5    1    3    3    0  502 -0.41040198597E+03  0.10099029723E+04 -0.11003518194E+04  0.15489125282E+04  0.46999998093E+01 0.  1.
</event>
<event>
 5   0  0.6804685E-06  0.2643608E+04  0.7818609E-02  0.8353538E-01
       -1   -1    0    0    0  501  0.00000000000E+00  0.00000000000E+00  0.11385361134E+04  0.11385361134E+04  0.50400001928E-02 0. -1.
        1   -1    0    0  501    0  0.00000000000E+00  0.00000000000E+00 -0.15345725741E+04  0.15345725741E+04  0.50400001928E-02 0.  1.
    10030    2    1    2    0    0  0.00000000000E+00  0.00000000000E+00 -0.39603646073E+03  0.26731086876E+04  0.26436083631E+04 0.  0.
        2    1    3    3  502    0  0.11661390538E+04  0.24108552518E+03 -0.77814848468E+03  0.14225039850E+04  0.25500000920E-02 0.  1.
       -2    1    3    3    0  502 -0.11661390538E+04 -0.24108552518E+03  0.38211202396E+03  0.12506047025E+04  0.25500000920E-02 0. -1.
</event>
<event>
 5   0  0.1881699E-05  0.2693729E+04  0.7818609E-02  0.8337043E-01
        2   -1    0    0  501    0  0.00000000000E+00  0.00000000000E+00  0.27310786759E+04  0.27310786759E+04  0.25500000920E-02 0.  1.
       -2   -1    0    0    0  501  0.00000000000E+00  0.00000000000E+00 -0.66422253054E+03  0.66422253055E+03  0.25500000920E-02 0. -1.
    10030    2    1    2    0    0  0.00000000000E+00  0.00000000000E+00  0.20668561454E+04  0.33953012065E+04  0.26937290058E+04 0.  0.
        4    1    3    3  502    0  0.12311216434E+04 -0.16792037610E+03  0.16885991530E+04  0.20964795410E+04  0.12699999809E+01 0.  1.
       -4    1    3    3    0  502 -0.12311216434E+04  0.16792037610E+03  0.37825699238E+03  0.12988216655E+04  0.12699999809E+01 0. -1.
</event>
<event>
 5   0  0.1788003E-05  0.2674091E+04  0.7818609E-02  0.8343461E-01
       -2   -1    0    0    0  501  0.00000000000E+00  0.00000000000E+00  0.10922003185E+04  0.10922003186E+04  0.25500000920E-02 0. -1.
        2   -1    0    0  501    0  0.00000000000E+00  0.00000000000E+00 -0.16367794334E+04  0.16367794334E+04  0.25500000920E-02 0.  1.
    10030    2    1    2    0    0  0.00000000000E+00  0.00000000000E+00 -0.54457911482E+03  0.27289797519E+04  0.26740912614E+04 0.  0.
        2    1    3    3  502    0 -0.97726103673E+02  0.71912221924E+03  0.87370431834E+03  0.11358020925E+04  0.25500000920E-02 0. -1.
       -2    1    3    3    0  502  0.97726103673E+02 -0.71912221924E+03 -0.14182834332E+04  0.15931776594E+04  0.25500000920E-02 0.  1.
</event>
<event>
 5   0  0.6804685E-06  0.2717877E+04  0.7818609E-02  0.8329228E-01
        1   -1    0    0  501    0  0.00000000000E+00  0.00000000000E+00  0.17293330001E+04  0.17293330001E+04  0.50400001928E-02 0.  1.
       -1   -1    0    0    0  501  0.00000000000E+00  0.00000000000E+00 -0.10678761345E+04  0.10678761345E+04  0.50400001928E-02 0. -1.
    10030    2    1    2    0    0  0.00000000000E+00  0.00000000000E+00  0.66145686561E+03  0.27972091347E+04  0.27178767003E+04 0.  0.
        2    1    3    3  502    0 -0.10991045916E+04  0.42521053393E+03 -0.36569011790E+03  0.12339222681E+04  0.25500000920E-02 0. -1.
       -2    1    3    3    0  502  0.10991045916E+04 -0.42521053393E+03  0.10271469835E+04  0.15632868665E+04  0.25500000920E-02 0.  1.
</event>
<event>
 5   0  0.1788003E-05  0.2778963E+04  0.7818609E-02  0.8309829E-01
        2   -1    0    0  501    0  0.00000000000E+00  0.00000000000E+00  0.16393048043E+04  0.16393048043E+04  0.25500000920E-02 0.  1.
       -2   -1    0    0    0  501  0.00000000000E+00  0.00000000000E+00 -0.11777304301E+04  0.11777304301E+04  0.25500000920E-02 0. -1.
    10030    2    1    2    0    0  0.00000000000E+00  0.00000000000E+00  0.46157437423E+03  0.28170352344E+04  0.27789632255E+04 0.  0.
        2    1    3    3  502    0  0.10371253527E+04 -0.55635900017E+03  0.97948194767E+03  0.15311920912E+04  0.25500000920E-02 0.  1.
       -2    1    3    3    0  502 -0.10371253527E+04  0.55635900017E+03 -0.51790757344E+03  0.12858431432E+04  0.25500000920E-02 0. -1.
</event>
<event>
 5   0  0.1826851E-05  0.2696398E+04  0.7818609E-02  0.8336175E-01
        2   -1    0    0  501    0  0.00000000000E+00  0.00000000000E+00  0.11729301275E+04  0.11729301275E+04  0.25500000920E-02 0. -1.
       -2   -1    0    0    0  501  0.00000000000E+00  0.00000000000E+00 -0.15496580214E+04  0.15496580214E+04  0.25500000920E-02 0.  1.
    10030    2    1    2    0    0  0.00000000000E+00  0.00000000000E+00 -0.37672789390E+03  0.27225881489E+04  0.26963980275E+04 0.  0.
        5    1    3    3  502    0  0.15162073817E+02  0.44649973973E+03 -0.14727357882E+04  0.15390141967E+04  0.46999998093E+01 0.  1.
       -5    1    3    3    0  502 -0.15162073817E+02 -0.44649973973E+03  0.10960078943E+04  0.11835739522E+04  0.46999998093E+01 0. -1.
</event>
<event>
 5   0  0.1881699E-05  0.2704707E+04  0.7818609E-02  0.8333479E-01
        2   -1    0    0  501    0  0.00000000000E+00  0.00000000000E+00  0.20366541219E+04  0.20366541219E+04  0.25500000920E-02 0.  1.
       -2   -1    0    0    0  501  0.00000000000E+00  0.00000000000E+00 -0.89797295602E+03  0.89797295602E+03  0.25500000920E-02 0. -1.
    10030    2    1    2    0    0  0.00000000000E+00  0.00000000000E+00  0.11386811659E+04  0.29346270779E+04  0.27047072464E+04 0.  0.
        4    1    3    3  502    0 -0.13207419224E+04  0.53736555584E+02  0.87930319416E+03  0.15875838759E+04  0.12699999809E+01 0.  1.
       -4    1    3    3    0  502  0.13207419224E+04 -0.53736555584E+02  0.25937797170E+03  0.13470432020E+04  0.12699999809E+01 0. -1.
</event>
<event>
 5   0  0.1788003E-05  0.2693562E+04  0.7818609E-02  0.8337097E-01
       -2   -1    0    0    0  501  0.00000000000E+00  0.00000000000E+00  0.10307383246E+04  0.10307383246E+04  0.25500000920E-02 0. -1.
        2   -1    0    0  501    0  0.00000000000E+00  0.00000000000E+00 -0.17597277670E+04  0.17597277670E+04  0.25500000920E-02 0.  1.
    10030    2    1    2    0    0  0.00000000000E+00  0.00000000000E+00 -0.72898944245E+03  0.27904660916E+04  0.26935618429E+04 0.  0.
        2    1    3    3  502    0 -0.73903475606E+03  0.11182990653E+04 -0.49978259041E+03  0.14305760405E+04  0.25500000920E-02 0.  1.
       -2    1    3    3    0  502  0.73903475606E+03 -0.11182990653E+04 -0.22920685204E+03  0.13598900511E+04  0.25500000920E-02 0. -1.
</event>
<event>
 5   0  0.6175875E-06  0.2705307E+04  0.7818609E-02  0.8333285E-01
        4   -1    0    0  501    0  0.00000000000E+00  0.00000000000E+00  0.20621995490E+04  0.20621999400E+04  0.12699999809E+01 0.  1.
       -4   -1    0    0    0  501  0.00000000000E+00  0.00000000000E+00 -0.88724208191E+03  0.88724299085E+03  0.12699999809E+01 0. -1.
    10030    2    1    2    0    0  0.00000000000E+00  0.00000000000E+00  0.11749574671E+04  0.29494429309E+04  0.27053074785E+04 0.  0.
        1    1    3    3  502    0 -0.52143889937E+02  0.15004001588E+03 -0.87703930466E+03  0.89130742932E+03  0.50400001928E-02 0. -1.
       -1    1    3    3    0  502  0.52143889937E+02 -0.15004001588E+03  0.20519967717E+04  0.20581355015E+04  0.50400001928E-02 0.  1.
</event>
<event>
 5   0  0.7348964E-06  0.2689092E+04  0.7818609E-02  0.8338553E-01
       -1   -1    0    0    0  501  0.00000000000E+00  0.00000000000E+00  0.10055117685E+04  0.10055117685E+04  0.50400001928E-02 0. -1.
        1   -1    0    0  501    0  0.00000000000E+00  0.00000000000E+00 -0.17978940676E+04  0.17978940676E+04  0.50400001928E-02 0.  1.
    10030    2    1    2    0    0  0.00000000000E+00  0.00000000000E+00 -0.79238229909E+03  0.28034058360E+04  0.26890917749E+04 0.  0.
        1    1    3    3  502    0  0.30999753715E+03 -0.46314942527E+03  0.87942478616E+03  0.10411502378E+04  0.50400001928E-02 0. -1.
       -1    1    3    3    0  502 -0.30999753715E+03  0.46314942527E+03 -0.16718070852E+04  0.17622555982E+04  0.50400001928E-02 0.  1.
</event>
<event>
 5   0  0.1931119E-05  0.2711601E+04  0.7818609E-02  0.8331251E-01
        2   -1    0    0  501    0  0.00000000000E+00  0.00000000000E+00  0.19405148237E+04  0.19405148237E+04  0.25500000920E-02 0.  1.
       -2   -1    0    0    0  501  0.00000000000E+00  0.00000000000E+00 -0.94727202200E+03  0.94727202200E+03  0.25500000920E-02 0. -1.
    10030    2    1    2    0    0  0.00000000000E+00  0.00000000000E+00  0.99324280170E+03  0.28877868457E+04  0.27116012987E+04 0.  0.
        3    1    3    3  502    0  0.89200983447E+03 -0.88553110401E+03  0.10379267026E+04  0.16300732288E+04  0.10100000352E+00 0.  1.
       -3    1    3    3    0  502 -0.89200983447E+03  0.88553110401E+03 -0.44683900945E+02  0.12577136169E+04  0.10100000352E+00 0. -1.
</event>
<event>
 5   0  0.7348964E-06  0.2620328E+04  0.7818609E-02  0.8361329E-01
       -1   -1    0    0    0  501  0.00000000000E+00  0.00000000000E+00  0.90378019798E+03  0.90378019799E+03  0.50400001928E-02 0. -1.
        1   -1    0    0  501    0  0.00000000000E+00  0.00000000000E+00 -0.18992780215E+04  0.18992780215E+04  0.50400001928E-02 0.  1.
    10030    2    1    2    0    0  0.00000000000E+00  0.00000000000E+00 -0.99549782351E+03  0.28030582195E+04  0.26203281217E+04 0.  0.
        1    1    3    3  502    0  0.57251329857E+03  0.96271838500E+03 -0.12248006614E+04  0.16597393850E+04  0.50400001928E-02 0.  1.
       -1    1    3    3    0  502 -0.57251329857E+03 -0.96271838500E+03  0.22930283789E+03  0.11433188345E+04  0.50400001928E-02 0. -1.
</event>
<event>
 5   0  0.1788003E-05  0.2671913E+04  0.7818609E-02  0.8344176E-01
        2   -1    0    0  501    0  0.00000000000E+00  0.00000000000E+00  0.10562651283E+04  0.10562651283E+04  0.25500000920E-02 0. -1.
       -2   -1    0    0    0  501  0.00000000000E+00  0.00000000000E+00 -0.16897079025E+04  0.16897079025E+04  0.25500000920E-02 0.  1.
    10030    2    1    2    0    0  0.00000000000E+00  0.00000000000E+00 -0.63344277417E+03  0.27459730307E+04  0.26719128237E+04 0.  0.
        2    1    3    3  502    0  0.10773486290E+04  0.19302821063E+03 -0.11040094752E+04  0.15545986234E+04  0.25500000920E-02 0.  1.
       -2    1    3    3    0  502 -0.10773486290E+04 -0.19302821063E+03  0.47056670103E+03  0.11913744074E+04  0.25500000920E-02 0. -1.
</event>
<event>
 5   0  0.1826851E-05  0.2697572E+04  0.7818609E-02  0.8335793E-01
       -2   -1    0    0    0  501  0.00000000000E+00  0.00000000000E+00  0.14406859942E+04  0.14406859942E+04  0.25500000920E-02 0.  1.
        2   -1    0    0  501    0  0.00000000000E+00  0.00000000000E+00 -0.12627482025E+04  0.12627482025E+04  0.25500000920E-02 0. -1.
    10030    2    1    2    0    0  0.00000000000E+00  0.00000000000E+00  0.17793779169E+03  0.27034341967E+04  0.26975719820E+04 0.  0.
        5    1    3    3  502    0  0.97114751811E+03  0.19688257897E+03 -0.82806679567E+03  0.12913585714E+04  0.46999998093E+01 0. -1.
       -5    1    3    3    0  502 -0.97114751811E+03 -0.19688257897E+03  0.10060045874E+04  0.14120756253E+04  0.46999998093E+01 0.  1.
</event>
<event>
 5   0  0.7351590E-06  0.2647652E+04  0.7818609E-02  0.8352193E-01
        1   -1    0    0  501    0  0.00000000000E+00  0.00000000000E+00  0.79004243431E+03  0.79004243433E+03  0.50400001928E-02 0.  1.
       -1   -1    0    0    0  501  0.00000000000E+00  0.00000000000E+00 -0.22182542548E+04  0.22182542549E+04  0.50400001928E-02 0. -1.
    10030    2    1    2    0    0  0.00000000000E+00  0.00000000000E+00 -0.14282118205E+04  0.30082966892E+04  0.26476517833E+04 0.  0.
        3    1    3    3  502    0 -0.56162322036E+03  0.10599958425E+04 -0.13502870005E+04  0.18061801742E+04  0.10100000352E+00 0. -1.
       -3    1    3    3    0  502  0.56162322036E+03 -0.10599958425E+04 -0.77924820015E+02  0.12021165150E+04  0.10100000352E+00 0.  1.
</event>
<event>
 5   0  0.7348964E-06  0.2719244E+04  0.7818609E-02  0.8328788E-01
        1   -1    0    0  501    0  0.00000000000E+00  0.00000000000E+00  0.18158938688E+04  0.18158938688E+04  0.50400001928E-02 0.  1.
       -1   -1    0    0    0  501  0.00000000000E+00  0.00000000000E+00 -0.10179956815E+04  0.10179956815E+04  0.50400001928E-02 0. -1.
    10030    2    1    2    0    0  0.00000000000E+00  0.00000000000E+00  0.79789818732E+03  0.28338895503E+04  0.27192440983E+04 0.  0.
        1    1    3    3  502    0  0.60982951108E+02  0.82699810115E+03  0.15218391709E+04  0.17331010478E+04  0.50400001928E-02 0.  1.
       -1    1    3    3    0  502 -0.60982951108E+02 -0.82699810115E+03 -0.72394098358E+03  0.11007885026E+04  0.50400001928E-02 0. -1.
</event>
<event>
 5   0  0.7600052E-06  0.2692209E+04  0.7818609E-02  0.8337537E-01
       -1   -1    0    0    0  501  0.00000000000E+00  0.00000000000E+00  0.24569183181E+04  0.24569183181E+04  0.50400001928E-02 0. -1.
        1   -1    0    0  501    0  0.00000000000E+00  0.00000000000E+00 -0.73750828657E+03  0.73750828659E+03  0.50400001928E-02 0.  1.
    10030    2    1    2    0    0  0.00000000000E+00  0.00000000000E+00  0.17194100315E+04  0.31944266047E+04  0.26922092185E+04 0.  0.
        5    1    3    3  502    0  0.11785103528E+04  0.47466422207E+03  0.13873943509E+04  0.18812437243E+04  0.46999998093E+01 0. -1.
       -5    1    3    3    0  502 -0.11785103528E+04 -0.47466422207E+03  0.33201568067E+03  0.13131828804E+04  0.46999998093E+01 0.  1.
</event>
<event>
 5   0  0.7351590E-06  0.2702855E+04  0.7818609E-02  0.8334079E-01
        1   -1    0    0  501    0  0.00000000000E+00  0.00000000000E+00  0.24820558990E+04  0.24820558990E+04  0.50400001928E-02 0.  1.
       -1   -1    0    0    0  501  0.00000000000E+00  0.00000000000E+00 -0.73582386142E+03  0.73582386144E+03  0.50400001928E-02 0. -1.
    10030    2    1    2    0    0  0.00000000000E+00  0.00000000000E+00  0.17462320376E+04  0.32178797604E+04  0.27028547544E+04 0.  0.
        3    1    3    3  502    0 -0.20165455409E+03  0.10529759628E+04 -0.10641896126E+03  0.10773801293E+04  0.10100000352E+00 0. -1.
       -3    1    3    3    0  502  0.20165455409E+03 -0.10529759628E+04  0.18526509988E+04  0.21404996312E+04  0.10100000352E+00 0.  1.
</event>
<event>
 5   0  0.1826851E-05  0.2673520E+04  0.7818609E-02  0.8343648E-01
       -2   -1    0    0    0  501  0.00000000000E+00  0.00000000000E+00  0.12625229924E+04  0.12625229924E+04  0.25500000920E-02 0. -1.
        2   -1    0    0  501    0  0.00000000000E+00  0.00000000000E+00 -0.14153620531E+04  0.14153620531E+04  0.25500000920E-02 0.  1.
    10030    2    1    2    0    0  0.00000000000E+00  0.00000000000E+00 -0.15283906072E+03  0.26778850456E+04  0.26735198781E+04 0.  0.
        5    1    3    3  502    0 -0.84464665681E+03 -0.42869436630E+03  0.86835868525E+03  0.12850197395E+04  0.46999998093E+01 0. -1.
       -5    1    3    3    0  502  0.84464665681E+03  0.42869436630E+03 -0.10211977460E+04  0.13928653061E+04  0.46999998093E+01 0.  1.
</event>
<event>
 5   0  0.1826851E-05  0.2654220E+04  0.7818609E-02  0.8350014E-01
        2   -1    0    0  501    0  0.00000000000E+00  0.00000000000E+00  0.15586217075E+04  0.15586217075E+04  0.25500000920E-02 0.  1.
       -2   -1    0    0    0  501  0.00000000000E+00  0.00000000000E+00 -0.11299863885E+04  0.11299863885E+04  0.25500000920E-02 0. -1.
    10030    2    1    2    0    0  0.00000000000E+00  0.00000000000E+00  0.42863531901E+03  0.26886080960E+04  0.26542202729E+04 0.  0.
        5    1    3    3  502    0  0.51290815009E+03  0.29383249004E+03  0.14178980887E+04  0.15361866366E+04  0.46999998093E+01 0.  1.
       -5    1    3    3    0  502 -0.51290815009E+03 -0.29383249004E+03 -0.98926276966E+03  0.11524214594E+04  0.46999998093E+01 0. -1.
</event>
<event>
 5   0  0.7348964E-06  0.2603957E+04  0.7818609E-02  0.8366858E-01
        1   -1    0    0  501    0  0.00000000000E+00  0.00000000000E+00  0.11175841591E+04  0.11175841591E+04  0.50400001928E-02 0. -1.
       -1   -1    0    0    0  501  0.00000000000E+00  0.00000000000E+00 -0.15167968362E+04  0.15167968362E+04  0.50400001928E-02 0.  1.
    10030    2    1    2    0    0  0.00000000000E+00  0.00000000000E+00 -0.39921267713E+03  0.26343809953E+04  0.26039570786E+04 0.  0.
        1    1    3    3  502    0 -0.92456921546E+03 -0.37352062073E+03 -0.10465265560E+04  0.14455323312E+04  0.50400001928E-02 0.  1.
       -1    1    3    3    0  502  0.92456921546E+03  0.37352062073E+03  0.64731387886E+03  0.11888486641E+04  0.50400001928E-02 0. -1.
</event>
<event>
 5   0  0.6175875E-06  0.2736399E+04  0.7818609E-02  0.8323290E-01
       -3   -1    0    0    0  501  0.00000000000E+00  0.00000000000E+00  0.78312556548E+03  0.78312557199E+03  0.10100000352E+00 0.  1.
        3   -1    0    0  501    0  0.00000000000E+00  0.00000000000E+00 -0.23903834423E+04  0.23903834444E+04  0.10100000352E+00 0. -1.
    10030    2    1    2    0    0  0.00000000000E+00  0.00000000000E+00 -0.16072578768E+04  0.31735090164E+04  0.27363993851E+04 0.  0.
        2    1    3    3  502    0  0.48646183090E+03 -0.42337910189E+03 -0.22030621871E+04  0.22955125739E+04  0.25500000920E-02 0. -1.
       -2    1    3    3    0  502 -0.48646183090E+03  0.42337910189E+03  0.59580431029E+03  0.87799644248E+03  0.25500000920E-02 0.  1.
</event>
<event>
 5   0  0.1931119E-05  0.2701595E+04  0.7818609E-02  0.8334488E-01
        2   -1    0    0  501    0  0.00000000000E+00  0.00000000000E+00  0.12736957730E+04  0.12736957730E+04  0.25500000920E-02 0.  1.
       -2   -1    0    0    0  501  0.00000000000E+00  0.00000000000E+00 -0.14325667977E+04  0.14325667977E+04  0.25500000920E-02 0. -1.
    10030    2    1    2    0    0  0.00000000000E+00  0.00000000000E+00 -0.15887102467E+03  0.27062625707E+04  0.27015952878E+04 0.  0.
        3    1    3    3  502    0  0.22945335823E+03  0.77338720327E+03  0.10058926161E+04  0.12894171455E+04  0.10100000352E+00 0.  1.
       -3    1    3    3    0  502 -0.22945335823E+03 -0.77338720327E+03 -0.11647636408E+04  0.14168454252E+04  0.10100000352E+00 0. -1.
</event>
<event>
 5   0  0.1826851E-05  0.2695292E+04  0.7818609E-02  0.8336534E-01
        2   -1    0    0  501    0  0.00000000000E+00  0.00000000000E+00  0.11764872793E+04  0.11764872793E+04  0.25500000920E-02 0. -1.
       -2   -1    0    0    0  501  0.00000000000E+00  0.00000000000E+00 -0.15437059206E+04  0.15437059206E+04  0.25500000920E-02 0.  1.
    10030    2    1    2    0    0  0.00000000000E+00  0.00000000000E+00 -0.36721864133E+03  0.27201931999E+04  0.26952924728E+04 0.  0.
        5    1    3    3  502    0 -0.80621615478E+03  0.75917277930E+03 -0.95868911829E+03  0.14647302525E+04  0.46999998093E+01 0.  1.
       -5    1    3    3    0  502  0.80621615478E+03 -0.75917277930E+03  0.59147047697E+03  0.12554629474E+04  0.46999998093E+01 0. -1.
</event>
<event>
 5   0  0.1881699E-05  0.2694055E+04  0.7818609E-02  0.8336936E-01
        2   -1    0    0  501    0  0.00000000000E+00  0.00000000000E+00  0.20705431880E+04  0.20705431880E+04  0.25500000920E-02 0. -1.
       -2   -1    0    0    0  501  0.00000000000E+00  0.00000000000E+00 -0.87633197674E+03  0.87633197674E+03  0.25500000920E-02 0.  1.
    10030    2    1    2    0    0  0.00000000000E+00  0.00000000000E+00  0.11942112113E+04  0.29468751648E+04  0.26940550884E+04 0.  0.
        4    1    3    3  502    0  0.95142894909E+03 -0.92869529837E+03  0.83371385635E+03  0.15693222771E+04  0.12699999809E+01 0.  1.
       -4    1    3    3    0  502 -0.95142894909E+03  0.92869529837E+03  0.36049735494E+03  0.13775528876E+04  0.12699999809E+01 0. -1.
</event>
<event>
 5   0  0.7351590E-06  0.2667139E+04  0.7818609E-02  0.8345746E-01
        1   -1    0    0  501    0  0.00000000000E+00  0.00000000000E+00  0.15246196349E+04  0.15246196349E+04  0.50400001928E-02 0. -1.
       -1   -1    0    0    0  501  0.00000000000E+00  0.00000000000E+00 -0.11664601526E+04  0.11664601526E+04  0.50400001928E-02 0.  1.
    10030    2    1    2    0    0  0.00000000000E+00  0.00000000000E+00  0.35815948226E+03  0.26910797875E+04  0.26671393304E+04 0.  0.
        3    1    3    3  502    0  0.64585503654E+02  0.10113692963E+04 -0.69551624223E+03  0.12291387205E+04  0.10100000352E+00 0. -1.
       -3    1    3    3    0  502 -0.64585503654E+02 -0.10113692963E+04  0.10536757245E+04  0.14619410670E+04  0.10100000352E+00 0.  1.
</event>
<event>
 5   0  0.7754912E-06  0.2714341E+04  0.7818609E-02  0.8330367E-01
       -1   -1    0    0    0  501  0.00000000000E+00  0.00000000000E+00  0.10213051216E+04  0.10213051216E+04  0.50400001928E-02 0. -1.
        1   -1    0    0  501    0  0.00000000000E+00  0.00000000000E+00 -0.18034879139E+04  0.18034879139E+04  0.50400001928E-02 0.  1.
    10030    2    1    2    0    0  0.00000000000E+00  0.00000000000E+00 -0.78218279230E+03  0.28247930355E+04  0.27143407621E+04 0.  0.
        4    1    3    3  502    0  0.99491148417E+03  0.91801567305E+03 -0.29068648495E+03  0.13845944831E+04  0.12699999809E+01 0. -1.
       -4    1    3    3    0  502 -0.99491148417E+03 -0.91801567305E+03 -0.49149630735E+03  0.14401985524E+04  0.12699999809E+01 0.  1.
</event>
<event>
 5   0  0.7754912E-06  0.2742536E+04  0.7818609E-02  0.8321334E-01
       -1   -1    0    0    0  501  0.00000000000E+00  0.00000000000E+00  0.98795747309E+03  0.98795747310E+03  0.50400001928E-02 0. -1.
        1   -1    0    0  501    0  0.00000000000E+00  0.00000000000E+00 -0.19032961686E+04  0.19032961686E+04  0.50400001928E-02 0.  1.
    10030    2    1    2    0    0  0.00000000000E+00  0.00000000000E+00 -0.91533869552E+03  0.28912536417E+04  0.27425358144E+04 0.  0.
        4    1    3    3  502    0  0.12415871580E+04 -0.46867890064E+03 -0.93731405236E+02  0.13304081224E+04  0.12699999809E+01 0.  1.
       -4    1    3    3    0  502 -0.12415871580E+04  0.46867890064E+03 -0.82160729028E+03  0.15608455193E+04  0.12699999809E+01 0. -1.
</event>
<event>
 5   0  0.7754912E-06  0.2707171E+04  0.7818609E-02  0.8332682E-01
       -1   -1    0    0    0  501  0.00000000000E+00  0.00000000000E+00  0.14825819983E+04  0.14825819983E+04  0.50400001928E-02 0.  1.
        1   -1    0    0  501    0  0.00000000000E+00  0.00000000000E+00 -0.12358129118E+04  0.12358129118E+04  0.50400001928E-02 0. -1.
    10030    2    1    2    0    0  0.00000000000E+00  0.00000000000E+00  0.24676908656E+03  0.27183949101E+04  0.27071711999E+04 0.  0.
        4    1    3    3  502    0  0.71198640421E+03 -0.97830097318E+03 -0.48592184138E+03  0.13038861464E+04  0.12699999809E+01 0. -1.
       -4    1    3    3    0  502 -0.71198640421E+03  0.97830097318E+03  0.73269092794E+03  0.14145087637E+04  0.12699999809E+01 0.  1.
</event>
<event>
 5   0  0.7348964E-06  0.2671192E+04  0.7818609E-02  0.8344413E-01
       -1   -1    0    0    0  501  0.00000000000E+00  0.00000000000E+00  0.12149855805E+04  0.12149855805E+04  0.50400001928E-02 0.  1.
        1   -1    0    0  501    0  0.00000000000E+00  0.00000000000E+00 -0.14681793135E+04  0.14681793135E+04  0.50400001928E-02 0. -1.
    10030    2    1    2    0    0  0.00000000000E+00  0.00000000000E+00 -0.25319373295E+03  0.26831648940E+04  0.26711920152E+04 0.  0.
        1    1    3    3  502    0  0.86107730795E+03  0.46405821263E+03  0.78688157610E+03  0.12553831167E+04  0.50400001928E-02 0.  1.
       -1    1    3    3    0  502 -0.86107730795E+03 -0.46405821263E+03 -0.10400753090E+04  0.14277817773E+04  0.50400001928E-02 0. -1.
</event>
<event>
 5   0  0.7600052E-06  0.2738437E+04  0.7818609E-02  0.8322640E-01
        1   -1    0    0  501    0  0.00000000000E+00  0.00000000000E+00  0.17511067824E+04  0.17511067824E+04  0.50400001928E-02 0. -1.
       -1   -1    0    0    0  501  0.00000000000E+00  0.00000000000E+00 -0.10706142540E+04  0.10706142540E+04  0.50400001928E-02 0.  1.
    10030    2    1    2    0    0  0.00000000000E+00  0.00000000000E+00  0.68049252839E+03  0.28217210364E+04  0.27384374241E+04 0.  0.
        5    1    3    3  502    0  0.91402770638E+03  0.61250358777E+03 -0.49948044464E+03  0.12083501552E+04  0.46999998093E+01 0.  1.
       -5    1    3    3    0  502 -0.91402770638E+03 -0.61250358777E+03  0.11799729730E+04  0.16133708812E+04  0.46999998093E+01 0. -1.
</event>
<event>
 5   0  0.1881699E-05  0.2579175E+04  0.7818609E-02  0.8375309E-01
       -2   -1    0    0    0  501  0.00000000000E+00  0.00000000000E+00  0.12074407732E+04  0.12074407732E+04  0.25500000920E-02 0. -1.
        2   -1    0    0  501    0  0.00000000000E+00  0.00000000000E+00 -0.13773231977E+04  0.13773231977E+04  0.25500000920E-02 0.  1.
    10030    2    1    2    0    0  0.00000000000E+00  0.00000000000E+00 -0.16988242453E+03  0.25847639709E+04  0.25791752068E+04 0.  0.
        4    1    3    3  502    0  0.52657536083E+03 -0.86642022473E+03 -0.88358016464E+03  0.13448721637E+04  0.12699999809E+01 0.  1.
       -4    1    3    3    0  502 -0.52657536083E+03  0.86642022473E+03  0.71369774011E+03  0.12398918072E+04  0.12699999809E+01 0. -1.
</event>
<event>
 5   0  0.6175875E-06  0.2663880E+04  0.7818609E-02  0.8346821E-01
        3   -1    0    0  501    0  0.00000000000E+00  0.00000000000E+00  0.12683793478E+04  0.12683793518E+04  0.10100000352E+00 0.  1.
       -3   -1    0    0    0  501  0.00000000000E+00  0.00000000000E+00 -0.13986856081E+04  0.13986856118E+04  0.10100000352E+00 0. -1.
    10030    2    1    2    0    0  0.00000000000E+00  0.00000000000E+00 -0.13030626038E+03  0.26670649636E+04  0.26638798393E+04 0.  0.
        2    1    3    3  502    0 -0.29862100540E+03  0.45353767914E+03  0.11525218633E+04  0.12740398646E+04  0.25500000920E-02 0.  1.
       -2    1    3    3    0  502  0.29862100540E+03 -0.45353767914E+03 -0.12828281237E+04  0.13930250989E+04  0.25500000920E-02 0. -1.
</event>
<event>
 5   0  0.1881699E-05  0.2705903E+04  0.7818609E-02  0.8333092E-01
       -2   -1    0    0    0  501  0.00000000000E+00  0.00000000000E+00  0.11598679973E+04  0.11598679973E+04  0.25500000920E-02 0.  1.
        2   -1    0    0  501    0  0.00000000000E+00  0.00000000000E+00 -0.15781775775E+04  0.15781775775E+04  0.25500000920E-02 0. -1.
    10030    2    1    2    0    0  0.00000000000E+00  0.00000000000E+00 -0.41830958016E+03  0.27380455748E+04  0.27059029297E+04 0.  0.
        4    1    3    3  502    0  0.37075003640E+03  0.28557644797E+03 -0.14936695773E+04  0.15652667237E+04  0.12699999809E+01 0. -1.
       -4    1    3    3    0  502 -0.37075003640E+03 -0.28557644797E+03  0.10753599972E+04  0.11727788511E+04  0.12699999809E+01 0.  1.
</event>
<event>
 5   0  0.7348964E-06  0.2652496E+04  0.7818609E-02  0.8350585E-01
        1   -1    0    0  501    0  0.00000000000E+00  0.00000000000E+00  0.19770730274E+04  0.19770730274E+04  0.50400001928E-02 0. -1.
       -1   -1    0    0    0  501  0.00000000000E+00  0.00000000000E+00 -0.88966542764E+03  0.88966542765E+03  0.50400001928E-02 0.  1.
    10030    2    1    2    0    0  0.00000000000E+00  0.00000000000E+00  0.10874075997E+04  0.28667384550E+04  0.26524958212E+04 0.  0.
        1    1    3    3  502    0 -0.98269984326E+03 -0.76637745579E+02 -0.41530008628E+03  0.10696010881E+04  0.50400001928E-02 0.  1.
       -1    1    3    3    0  502  0.98269984326E+03  0.76637745579E+02  0.15027076860E+04  0.17971373669E+04  0.50400001928E-02 0. -1.
</event>
<event>
 5   0  0.1878160E-05  0.2616185E+04  0.7818609E-02  0.8362724E-01
       -2   -1    0    0    0  501  0.00000000000E+00  0.00000000000E+00  0.11344170827E+04  0.11344170827E+04  0.25500000920E-02 0. -1.
        2   -1    0    0  501    0  0.00000000000E+00  0.00000000000E+00 -0.15083575786E+04  0.15083575786E+04  0.25500000920E-02 0.  1.
    10030    2    1    2    0    0  0.00000000000E+00  0.00000000000E+00 -0.37394049598E+03  0.26427746613E+04  0.26161854705E+04 0.  0.
        1    1    3    3  502    0 -0.84235634657E+03  0.42178198790E+03 -0.11037413975E+04  0.14511062444E+04  0.50400001928E-02 0.  1.
       -1    1    3    3    0  502  0.84235634657E+03 -0.42178198790E+03  0.72980090155E+03  0.11916684169E+04  0.50400001928E-02 0. -1.
</event>
<event>
 5   0  0.7351590E-06  0.1970282E+04  0.7818609E-02  0.8620642E-01
       -1   -1    0    0    0  501  0.00000000000E+00  0.00000000000E+00  0.13613749109E+04  0.13613749109E+04  0.50400001928E-02 0. -1.
        1   -1    0    0  501    0  0.00000000000E+00  0.00000000000E+00 -0.71288430355E+03  0.71288430357E+03  0.50400001928E-02 0.  1.
    10030    2    1    2    0    0  0.00000000000E+00  0.00000000000E+00  0.64849060736E+03  0.20742592145E+04  0.19702820156E+04 0.  0.
        3    1    3    3  502    0 -0.84051960693E+03 -0.69716479504E+02 -0.21170722852E+03  0.86957090451E+03  0.10100000352E+00 0.  1.
       -3    1    3    3    0  502  0.84051960693E+03  0.69716479504E+02  0.86019783588E+03  0.12046883100E+04  0.10100000352E+00 0. -1.
</event>
<event>
 5   0  0.1788003E-05  0.2723435E+04  0.7818609E-02  0.8327441E-01
        2   -1    0    0  501    0  0.00000000000E+00  0.00000000000E+00  0.68044061197E+03  0.68044061198E+03  0.25500000920E-02 0.  1.
       -2   -1    0    0    0  501  0.00000000000E+00  0.00000000000E+00 -0.27251091206E+04  0.27251091206E+04  0.25500000920E-02 0. -1.
    10030    2    1    2    0    0  0.00000000000E+00  0.00000000000E+00 -0.20446685087E+04  0.34055497326E+04  0.27234352702E+04 0.  0.
        2    1    3    3  502    0  0.65999077939E+03 -0.58611712669E+03 -0.23189326113E+04  0.24812435533E+04  0.25500000920E-02 0. -1.
       -2    1    3    3    0  502 -0.65999077939E+03  0.58611712669E+03  0.27426410265E+03  0.92430617930E+03  0.25500000920E-02 0.  1.
</event>
<event>
 5   0  0.7348964E-06  0.2575157E+04  0.7818609E-02  0.8376689E-01
       -1   -1    0    0    0  501  0.00000000000E+00  0.00000000000E+00  0.17971589300E+04  0.17971589300E+04  0.50400001928E-02 0.  1.
        1   -1    0    0  501    0  0.00000000000E+00  0.00000000000E+00 -0.92248831083E+03  0.92248831085E+03  0.50400001928E-02 0. -1.
    10030    2    1    2    0    0  0.00000000000E+00  0.00000000000E+00  0.87467061913E+03  0.27196472408E+04  0.25751567763E+04 0.  0.
        1    1    3    3  502    0  0.62564931764E+03  0.62283952200E+03 -0.55253386344E+03  0.10414700231E+04  0.50400001928E-02 0. -1.
       -1    1    3    3    0  502 -0.62564931764E+03 -0.62283952200E+03  0.14272044826E+04  0.16781772177E+04  0.50400001928E-02 0.  1.
</event>
<event>
 5   0  0.7351590E-06  0.2688270E+04  0.7818609E-02  0.8338821E-01
       -1   -1    0    0    0  501  0.00000000000E+00  0.00000000000E+00  0.98036472637E+03  0.98036472639E+03  0.50400001928E-02 0. -1.
        1   -1    0    0  501    0  0.00000000000E+00  0.00000000000E+00 -0.18428841878E+04  0.18428841878E+04  0.50400001928E-02 0.  1.
    10030    2    1    2    0    0  0.00000000000E+00  0.00000000000E+00 -0.86251946138E+03  0.28232489141E+04  0.26882698172E+04 0.  0.
        3    1    3    3  502    0 -0.11693248076E+04 -0.64349379987E+03 -0.26423379211E+03  0.13605970319E+04  0.10100000352E+00 0. -1.
       -3    1    3    3    0  502  0.11693248076E+04  0.64349379987E+03 -0.59828566927E+03  0.14626518822E+04  0.10100000352E+00 0.  1.
</event>
<event>
 5   0  0.7348964E-06  0.2707303E+04  0.7818609E-02  0.8332639E-01
        1   -1    0    0  501    0  0.00000000000E+00  0.00000000000E+00  0.18973832907E+04  0.18973832907E+04  0.50400001928E-02 0.  1.
       -1   -1    0    0    0  501  0.00000000000E+00  0.00000000000E+00 -0.96573630832E+03  0.96573630833E+03  0.50400001928E-02 0. -1.
    10030    2    1    2    0    0  0.00000000000E+00  0.00000000000E+00  0.93164698240E+03  0.28631195991E+04  0.27073026685E+04 0.  0.
        1    1    3    3  502    0 -0.12849313293E+03  0.63267999792E+03  0.17240809092E+04  0.18409914303E+04  0.50400001928E-02 0.  1.
       -1    1    3    3    0  502  0.12849313293E+03 -0.63267999792E+03 -0.79243392680E+03  0.10221281687E+04  0.50400001928E-02 0. -1.
</event>
<event>
 5   0  0.1826851E-05  0.2705043E+04  0.7818609E-02  0.8333371E-01
       -2   -1    0    0    0  501  0.00000000000E+00  0.00000000000E+00  0.11995317164E+04  0.11995317164E+04  0.25500000920E-02 0. -1.
        2   -1    0    0  501    0  0.00000000000E+00  0.00000000000E+00 -0.15250237513E+04  0.15250237513E+04  0.25500000920E-02 0.  1.
    10030    2    1    2    0    0  0.00000000000E+00  0.00000000000E+00 -0.32549203494E+03  0.27245554676E+04  0.27050429630E+04 0.  0.
        5    1    3    3  502    0 -0.75409013229E+03  0.10814138468E+04  0.14139979114E+03  0.13259426181E+04  0.46999998093E+01 0. -1.
       -5    1    3    3    0  502  0.75409013229E+03 -0.10814138468E+04 -0.46689182608E+03  0.13986128495E+04  0.46999998093E+01 0.  1.
</event>
<event>
 5   0  0.1931119E-05  0.2741232E+04  0.7818609E-02  0.8321749E-01
       -2   -1    0    0    0  501  0.00000000000E+00  0.00000000000E+00  0.91641245195E+03  0.91641245195E+03  0.25500000920E-02 0.  1.
        2   -1    0    0  501    0  0.00000000000E+00  0.00000000000E+00 -0.20499379753E+04  0.20499379753E+04  0.25500000920E-02 0. -1.
    10030    2    1    2    0    0  0.00000000000E+00  0.00000000000E+00 -0.11335255233E+04  0.29663504272E+04  0.27412323406E+04 0.  0.
        3    1    3    3  502    0  0.78157569127E+03  0.69265871527E+03  0.39380165423E+03  0.11161166651E+04  0.10100000352E+00 0.  1.
       -3    1    3    3    0  502 -0.78157569127E+03 -0.69265871527E+03 -0.15273271776E+04  0.18502337621E+04  0.10100000352E+00 0. -1.
</event>
<event>
 5   0  0.1878160E-05  0.2488158E+04  0.7818609E-02  0.8407217E-01
        2   -1    0    0  501    0  0.00000000000E+00  0.00000000000E+00  0.13020648196E+04  0.13020648196E+04  0.25500000920E-02 0. -1.
       -2   -1    0    0    0  501  0.00000000000E+00  0.00000000000E+00 -0.11886750563E+04  0.11886750563E+04  0.25500000920E-02 0.  1.
    10030    2    1    2    0    0  0.00000000000E+00  0.00000000000E+00  0.11338976333E+03  0.24907398759E+04  0.24881575294E+04 0.  0.
        1    1    3    3  502    0  0.81985281403E+03 -0.62934334819E+03  0.74987314594E+03  0.12769265529E+04  0.50400001928E-02 0. -1.
       -1    1    3    3    0  502 -0.81985281403E+03  0.62934334819E+03 -0.63648338261E+03  0.12138133229E+04  0.50400001928E-02 0.  1.
</event>
<event>
 5   0  0.6804685E-06  0.2696734E+04  0.7818609E-02  0.8336065E-01
        1   -1    0    0  501    0  0.00000000000E+00  0.00000000000E+00  0.12856384723E+04  0.12856384723E+04  0.50400001928E-02 0. -1.
       -1   -1    0    0    0  501  0.00000000000E+00  0.00000000000E+00 -0.14141563304E+04  0.14141563305E+04  0.50400001928E-02 0.  1.
    10030    2    1    2    0    0  0.00000000000E+00  0.00000000000E+00 -0.12851785814E+03  0.26997948028E+04  0.26967341614E+04 0.  0.
        2    1    3    3  502    0 -0.67108146586E+03 -0.43980707947E+03 -0.11491461373E+04  0.14015410967E+04  0.25500000920E-02 0.  1.
       -2    1    3    3    0  502  0.67108146586E+03  0.43980707947E+03  0.10206282792E+04  0.12982537060E+04  0.25500000920E-02 0. -1.
</event>
<event>
 5   0  0.7348964E-06  0.2745958E+04  0.7818609E-02  0.8320245E-01
        1   -1    0    0  501    0  0.00000000000E+00  0.00000000000E+00  0.13519181672E+04  0.13519181672E+04  0.50400001928E-02 0.  1.
       -1   -1    0    0    0  501  0.00000000000E+00  0.00000000000E+00 -0.13943677765E+04  0.13943677765E+04  0.50400001928E-02 0. -1.
    10030    2    1    2    0    0  0.00000000000E+00  0.00000000000E+00 -0.42449609330E+02  0.27462859437E+04  0.27459578502E+04 0.  0.
        1    1    3    3  502    0  0.36211167530E+03 -0.82682631300E+03  0.10134540304E+04  0.13571498403E+04  0.50400001928E-02 0.  1.
       -1    1    3    3    0  502 -0.36211167530E+03  0.82682631300E+03 -0.10559036397E+04  0.13891361034E+04  0.50400001928E-02 0. -1.
</event>
<event>
 5   0  0.1826851E-05  0.3051422E+04  0.7818609E-02  0.8229197E-01
        2   -1    0    0  501    0  0.00000000000E+00  0.00000000000E+00  0.13616808180E+04  0.13616808180E+04  0.25500000920E-02 0.  1.
       -2   -1    0    0    0  501  0.00000000000E+00  0.00000000000E+00 -0.17095009586E+04  0.17095009586E+04  0.25500000920E-02 0. -1.
    10030    2    1    2    0    0  0.00000000000E+00  0.00000000000E+00 -0.34782014068E+03  0.30711817766E+04  0.30514223986E+04 0.  0.
        5    1    3    3  502    0 -0.99441384945E+03  0.10276518578E+04 -0.70918597957E+03  0.15962124196E+04  0.46999998093E+01 0. -1.
       -5    1    3    3    0  502  0.99441384945E+03 -0.10276518578E+04  0.36136583889E+03  0.14749693571E+04  0.46999998093E+01 0.  1.
</event>
<event>
 5   0  0.7600052E-06  0.2648981E+04  0.7818609E-02  0.8351751E-01
        1   -1    0    0  501    0  0.00000000000E+00  0.00000000000E+00  0.10311495194E+04  0.10311495194E+04  0.50400001928E-02 0.  1.
       -1   -1    0    0    0  501  0.00000000000E+00  0.00000000000E+00 -0.17012815988E+04  0.17012815988E+04  0.50400001928E-02 0. -1.
    10030    2    1    2    0    0  0.00000000000E+00  0.00000000000E+00 -0.67013207936E+03  0.27324311182E+04  0.26489814669E+04 0.  0.
        5    1    3    3  502    0 -0.68319322673E+03  0.10049330218E+04 -0.87855165158E+03  0.14995060713E+04  0.46999998093E+01 0.  1.
       -5    1    3    3    0  502  0.68319322673E+03 -0.10049330218E+04  0.20841957222E+03  0.12329250469E+04  0.46999998093E+01 0. -1.
</event>
<event>
 5   0  0.7754912E-06  0.2676228E+04  0.7818609E-02  0.8342760E-01
        1   -1    0    0  501    0  0.00000000000E+00  0.00000000000E+00  0.75931840590E+03  0.75931840591E+03  0.50400001928E-02 0. -1.
       -1   -1    0    0    0  501  0.00000000000E+00  0.00000000000E+00 -0.23581003930E+04  0.23581003930E+04  0.50400001928E-02 0.  1.
    10030    2    1    2    0    0  0.00000000000E+00  0.00000000000E+00 -0.15987819871E+04  0.31174187989E+04  0.26762279659E+04 0.  0.
        4    1    3    3  502    0  0.10428131792E+04 -0.42578781892E+03  0.42045021838E+02  0.11271752260E+04  0.12699999809E+01 0. -1.
       -4    1    3    3    0  502 -0.10428131792E+04  0.42578781892E+03 -0.16408270089E+04  0.19902435729E+04  0.12699999809E+01 0.  1.
</event>
<event>
 5   0  0.1826851E-05  0.2663292E+04  0.7818609E-02  0.8347015E-01
       -2   -1    0    0    0  501  0.00000000000E+00  0.00000000000E+00  0.11532275992E+04  0.11532275992E+04  0.25500000920E-02 0. -1.
        2   -1    0    0  501    0  0.00000000000E+00  0.00000000000E+00 -0.15376677192E+04  0.15376677192E+04  0.25500000920E-02 0.  1.
    10030    2    1    2    0    0  0.00000000000E+00  0.00000000000E+00 -0.38444012007E+03  0.26908953184E+04  0.26632918369E+04 0.  0.
        5    1    3    3  502    0  0.39293117387E+03 -0.83287830124E+03  0.77961060239E+03  0.12066051357E+04  0.46999998093E+01 0. -1.
       -5    1    3    3    0  502 -0.39293117387E+03  0.83287830124E+03 -0.11640507225E+04  0.14842901827E+04  0.46999998093E+01 0.  1.
</event>
<event>
 5   0  0.6175875E-06  0.2695425E+04  0.7818609E-02  0.8336491E-01
       -3   -1    0    0    0  501  0.00000000000E+00  0.00000000000E+00  0.11863746496E+04  0.11863746539E+04  0.10100000352E+00 0. -1.
        3   -1    0    0  501    0  0.00000000000E+00  0.00000000000E+00 -0.15309911201E+04  0.15309911234E+04  0.10100000352E+00 0.  1.
    10030    2    1    2    0    0  0.00000000000E+00  0.00000000000E+00 -0.34461647054E+03  0.27173657773E+04  0.26954250604E+04 0.  0.
        3    1    3    3  502    0  0.13184578464E+03  0.46766785393E+03  0.10949973165E+04  0.11979631321E+04  0.10100000352E+00 0. -1.
       -3    1    3    3    0  502 -0.13184578464E+03 -0.46766785393E+03 -0.14396137870E+04  0.15194026453E+04  0.10100000352E+00 0.  1.
</event>
<event>
 5   0  0.1826851E-05  0.2686540E+04  0.7818609E-02  0.8339386E-01
        2   -1    0    0  501    0  0.00000000000E+00  0.00000000000E+00  0.26443609029E+04  0.26443609029E+04  0.25500000920E-02 0. -1.
       -2   -1    0    0    0  501  0.00000000000E+00  0.00000000000E+00 -0.68234791015E+03  0.68234791015E+03  0.25500000920E-02 0.  1.
    10030    2    1    2    0    0  0.00000000000E+00  0.00000000000E+00  0.19620129928E+04  0.33267088131E+04  0.26865398831E+04 0.  0.
        5    1    3    3  502    0 -0.12469977166E+04 -0.93967346802E+02  0.37371656404E+03  0.13051893838E+04  0.46999998093E+01 0.  1.
       -5    1    3    3    0  502  0.12469977166E+04  0.93967346802E+02  0.15882964287E+04  0.20215194293E+04  0.46999998093E+01 0. -1.
</event>
<event>
 5   0  0.1881699E-05  0.2684038E+04  0.7818609E-02  0.8340203E-01
        2   -1    0    0  501    0  0.00000000000E+00  0.00000000000E+00  0.14589380909E+04  0.14589380909E+04  0.25500000920E-02 0.  1.
       -2   -1    0    0    0  501  0.00000000000E+00  0.00000000000E+00 -0.12344695871E+04  0.12344695871E+04  0.25500000920E-02 0. -1.
    10030    2    1    2    0    0  0.00000000000E+00  0.00000000000E+00  0.22446850382E+03  0.26934076780E+04  0.26840377811E+04 0.  0.
        4    1    3    3  502    0  0.11690851931E+04 -0.60430610548E+03  0.37595777316E+03  0.13686825482E+04  0.12699999809E+01 0. -1.
       -4    1    3    3    0  502 -0.11690851931E+04  0.60430610548E+03 -0.15148926934E+03  0.13247251297E+04  0.12699999809E+01 0.  1.
</event>
<event>
 5   0  0.1878160E-05  0.2727647E+04  0.7818609E-02  0.8326090E-01
       -2   -1    0    0    0  501  0.00000000000E+00  0.00000000000E+00  0.88795106689E+03  0.88795106689E+03  0.25500000920E-02 0.  1.
        2   -1    0    0  501    0  0.00000000000E+00  0.00000000000E+00 -0.20947257508E+04  0.20947257508E+04  0.25500000920E-02 0. -1.
    10030    2    1    2    0    0  0.00000000000E+00  0.00000000000E+00 -0.12067746839E+04  0.29826768177E+04  0.27276465792E+04 0.  0.
        1    1    3    3  502    0  0.52780626620E+03  0.12524224158E+04 -0.47932176776E+03  0.14411421579E+04  0.50400001928E-02 0. -1.
       -1    1    3    3    0  502 -0.52780626620E+03 -0.12524224158E+04 -0.72745291617E+03  0.15415346598E+04  0.50400001928E-02 0.  1.
</event>
<event>
 5   0  0.1878160E-05  0.2744851E+04  0.7818609E-02  0.8320597E-01
       -2   -1    0    0    0  501  0.00000000000E+00  0.00000000000E+00  0.98717345007E+03  0.98717345007E+03  0.25500000920E-02 0.  1.
        2   -1    0    0  501    0  0.00000000000E+00  0.00000000000E+00 -0.19080249104E+04  0.19080249104E+04  0.25500000920E-02 0. -1.
    10030    2    1    2    0    0  0.00000000000E+00  0.00000000000E+00 -0.92085146031E+03  0.28951983604E+04  0.27448508401E+04 0.  0.
        1    1    3    3  502    0 -0.81705633714E+03 -0.59205763455E+03 -0.14416710847E+04  0.17596956604E+04  0.50400001928E-02 0. -1.
       -1    1    3    3    0  502  0.81705633714E+03  0.59205763455E+03  0.52081962439E+03  0.11355027001E+04  0.50400001928E-02 0.  1.
</event>
<event>
 5   0  0.6804685E-06  0.1937951E+04  0.7818609E-02  0.8636193E-01
       -1   -1    0    0    0  501  0.00000000000E+00  0.00000000000E+00  0.15909236894E+04  0.15909236894E+04  0.50400001928E-02 0.  1.
        1   -1    0    0  501    0  0.00000000000E+00  0.00000000000E+00 -0.59016906322E+03  0.59016906324E+03  0.50400001928E-02 0. -1.
    10030    2    1    2    0    0  0.00000000000E+00  0.00000000000E+00  0.10007546262E+04  0.21810927526E+04  0.19379514374E+04 0.  0.
        2    1    3    3  502    0 -0.84984954379E+03  0.46201044915E+03  0.56420249331E+03  0.11198313961E+04  0.25500000920E-02 0.  1.
       -2    1    3    3    0  502  0.84984954379E+03 -0.46201044915E+03  0.43655213286E+03  0.10612613565E+04  0.25500000920E-02 0. -1.
</event>
<event>
 5   0  0.1878160E-05  0.2695679E+04  0.7818609E-02  0.8336408E-01
        2   -1    0    0  501    0  0.00000000000E+00  0.00000000000E+00  0.20039138206E+04  0.20039138206E+04  0.25500000920E-02 0. -1.
       -2   -1    0    0    0  501  0.00000000000E+00  0.00000000000E+00 -0.90656133149E+03  0.90656133149E+03  0.25500000920E-02 0.  1.
    10030    2    1    2    0    0  0.00000000000E+00  0.00000000000E+00  0.10973524891E+04  0.29104751521E+04  0.26956786021E+04 0.  0.
        1    1    3    3  502    0  0.12708523938E+04  0.11184430859E+03  0.10181774968E+04  0.16322562211E+04  0.50400001928E-02 0.  1.
       -1    1    3    3    0  502 -0.12708523938E+04 -0.11184430859E+03  0.79174992356E+02  0.12782189311E+04  0.50400001928E-02 0. -1.
</event>
<event>
 5   0  0.7600052E-06  0.2702161E+04  0.7818609E-02  0.8334304E-01
       -1   -1    0    0    0  501  0.00000000000E+00  0.00000000000E+00  0.95786456225E+03  0.95786456227E+03  0.50400001928E-02 0.  1.
        1   -1    0    0  501    0  0.00000000000E+00  0.00000000000E+00 -0.19057171564E+04  0.19057171564E+04  0.50400001928E-02 0. -1.
    10030    2    1    2    0    0  0.00000000000E+00  0.00000000000E+00 -0.94785259412E+03  0.28635817186E+04  0.27021613052E+04 0.  0.
        5    1    3    3  502    0  0.89262039515E+03  0.89810956926E+03 -0.97326947894E+03  0.15970746811E+04  0.46999998093E+01 0.  1.
       -5    1    3    3    0  502 -0.89262039515E+03 -0.89810956926E+03  0.25416884825E+02  0.12665070376E+04  0.46999998093E+01 0. -1.
</event>
<event>
 5   0  0.7351590E-06  0.2602527E+04  0.7818609E-02  0.8367343E-01
        1   -1    0    0  501    0  0.00000000000E+00  0.00000000000E+00  0.13710403144E+04  0.13710403144E+04  0.50400001928E-02 0.  1.
       -1   -1    0    0    0  501  0.00000000000E+00  0.00000000000E+00 -0.12350376845E+04  0.12350376845E+04  0.50400001928E-02 0. -1.
    10030    2    1    2    0    0  0.00000000000E+00  0.00000000000E+00  0.13600262990E+03  0.26060779989E+04  0.26025268146E+04 0.  0.
        3    1    3    3  502    0 -0.11833067914E+04  0.16193113405E+03  0.58528124655E+03  0.13300341359E+04  0.10100000352E+00 0.  1.
       -3    1    3    3    0  502  0.11833067914E+04 -0.16193113405E+03 -0.44927861664E+03  0.12760438630E+04  0.10100000352E+00 0. -1.
</event>
<event>
 5   0  0.1881699E-05  0.2706678E+04  0.7818609E-02  0.8332841E-01
       -2   -1    0    0    0  501  0.00000000000E+00  0.00000000000E+00  0.14596714770E+04  0.14596714770E+04  0.25500000920E-02 0.  1.
        2   -1    0    0  501    0  0.00000000000E+00  0.00000000000E+00 -0.12547527668E+04  0.12547527668E+04  0.25500000920E-02 0. -1.
    10030    2    1    2    0    0  0.00000000000E+00  0.00000000000E+00  0.20491871020E+03  0.27144242439E+04  0.27066782775E+04 0.  0.
        4    1    3    3  502    0  0.16327012248E+03 -0.46885917847E+02 -0.12440183857E+04  0.12555631323E+04  0.12699999809E+01 0. -1.
       -4    1    3    3    0  502 -0.16327012248E+03  0.46885917847E+02  0.14489370959E+04  0.14588611116E+04  0.12699999809E+01 0.  1.
</event>
<event>
 5   0  0.7348964E-06  0.2666826E+04  0.7818609E-02  0.8345850E-01
        1   -1    0    0  501    0  0.00000000000E+00  0.00000000000E+00  0.12691761332E+04  0.12691761332E+04  0.50400001928E-02 0. -1.
       -1   -1    0    0    0  501  0.00000000000E+00  0.00000000000E+00 -0.14009008385E+04  0.14009008385E+04  0.50400001928E-02 0.  1.
    10030    2    1    2    0    0  0.00000000000E+00  0.00000000000E+00 -0.13172470527E+03  0.26700769717E+04  0.26668257605E+04 0.  0.
        1    1    3    3  502    0  0.29397238004E+02  0.13111310823E+04  0.17538990299E+03  0.13231366259E+04  0.50400001928E-02 0.  1.
       -1    1    3    3    0  502 -0.29397238004E+02 -0.13111310823E+04 -0.30711460826E+03  0.13469403458E+04  0.50400001928E-02 0. -1.
</event>
<event>
 5   0  0.1931119E-05  0.2697550E+04  0.7818609E-02  0.8335800E-01
        2   -1    0    0  501    0  0.00000000000E+00  0.00000000000E+00  0.20207887040E+04  0.20207887040E+04  0.25500000920E-02 0. -1.
       -2   -1    0    0    0  501  0.00000000000E+00  0.00000000000E+00 -0.90023964354E+03  0.90023964355E+03  0.25500000920E-02 0.  1.
    10030    2    1    2    0    0  0.00000000000E+00  0.00000000000E+00  0.11205490605E+04  0.29210283476E+04  0.26975500756E+04 0.  0.
        3    1    3    3  502    0 -0.13271484456E+04 -0.92992665670E+02  0.80051840565E+03  0.15526752270E+04  0.10100000352E+00 0.  1.
       -3    1    3    3    0  502  0.13271484456E+04  0.92992665670E+02  0.32003065481E+03  0.13683531206E+04  0.10100000352E+00 0. -1.
</event>
<event>
 5   0  0.1931119E-05  0.2842907E+04  0.7818609E-02  0.8290070E-01
       -2   -1    0    0    0  501  0.00000000000E+00  0.00000000000E+00  0.86253530761E+03  0.86253530761E+03  0.25500000920E-02 0. -1.
        2   -1    0    0  501    0  0.00000000000E+00  0.00000000000E+00 -0.23425469646E+04  0.23425469646E+04  0.25500000920E-02 0.  1.
    10030    2    1    2    0    0  0.00000000000E+00  0.00000000000E+00 -0.14800116569E+04  0.32050822722E+04  0.28429065878E+04 0.  0.
        3    1    3    3  502    0  0.84503041372E+03  0.58265932621E+03 -0.18486217425E+04  0.21144669890E+04  0.10100000352E+00 0.  1.
       -3    1    3    3    0  502 -0.84503041372E+03 -0.58265932621E+03  0.36861008555E+03  0.10906152832E+04  0.10100000352E+00 0. -1.
</event>
<event>
 5   0  0.1931119E-05  0.2741282E+04  0.7818609E-02  0.8321733E-01
       -2   -1    0    0    0  501  0.00000000000E+00  0.00000000000E+00  0.16604373403E+04  0.16604373403E+04  0.25500000920E-02 0.  1.
        2   -1    0    0  501    0  0.00000000000E+00  0.00000000000E+00 -0.11314230039E+04  0.11314230039E+04  0.25500000920E-02 0. -1.
    10030    2    1    2    0    0  0.00000000000E+00  0.00000000000E+00  0.52901433639E+03  0.27918603443E+04  0.27412821843E+04 0.  0.
        3    1    3    3  502    0  0.69016281044E+03  0.11834859412E+04  0.22259801713E+03  0.13879890365E+04  0.10100000352E+00 0. -1.
       -3    1    3    3    0  502 -0.69016281044E+03 -0.11834859412E+04  0.30641631925E+03  0.14038713078E+04  0.10100000352E+00 0.  1.
</event>
<event>
 5   0  0.6804685E-06  0.2687788E+04  0.7818609E-02  0.8338978E-01
        1   -1    0    0  501    0  0.00000000000E+00  0.00000000000E+00  0.12263860412E+04  0.12263860412E+04  0.50400001928E-02 0. -1.
       -1   -1    0    0    0  501  0.00000000000E+00  0.00000000000E+00 -0.14726614843E+04  0.14726614843E+04  0.50400001928E-02 0.  1.
    10030    2    1    2    0    0  0.00000000000E+00  0.00000000000E+00 -0.24627544310E+03  0.26990475255E+04  0.26877883010E+04 0.  0.
        2    1    3    3  502    0 -0.45657437095E+02 -0.22104665934E+03  0.12072157783E+04  0.12281352379E+04  0.25500000920E-02 0. -1.
       -2    1    3    3    0  502  0.45657437095E+02  0.22104665934E+03 -0.14534912214E+04  0.14709122876E+04  0.25500000920E-02 0.  1.
</event>
<event>
 5   0  0.1826851E-05  0.2630941E+04  0.7818609E-02  0.8357767E-01
       -2   -1    0    0    0  501  0.00000000000E+00  0.00000000000E+00  0.12440297869E+04  0.12440297869E+04  0.25500000920E-02 0. -1.
        2   -1    0    0  501    0  0.00000000000E+00  0.00000000000E+00 -0.13910139991E+04  0.13910139991E+04  0.25500000920E-02 0.  1.
    10030    2    1    2    0    0  0.00000000000E+00  0.00000000000E+00 -0.14698421218E+03  0.26350437860E+04  0.26309411615E+04 0.  0.
        5    1    3    3  502    0  0.61882774599E+03  0.51169374158E+02  0.10880035992E+04  0.12527330147E+04  0.46999998093E+01 0. -1.
       -5    1    3    3    0  502 -0.61882774599E+03 -0.51169374158E+02 -0.12349878114E+04  0.13823107713E+04  0.46999998093E+01 0.  1.
</event>
<event>
 5   0  0.1826851E-05  0.2712934E+04  0.7818609E-02  0.8330821E-01
        2   -1    0    0  501    0  0.00000000000E+00  0.00000000000E+00  0.14469837868E+04  0.14469837868E+04  0.25500000920E-02 0.  1.
       -2   -1    0    0    0  501  0.00000000000E+00  0.00000000000E+00 -0.12716125662E+04  0.12716125662E+04  0.25500000920E-02 0. -1.
    10030    2    1    2    0    0  0.00000000000E+00  0.00000000000E+00  0.17537122058E+03  0.27185963530E+04  0.27129340326E+04 0.  0.
        5    1    3    3  502    0 -0.16828844136E+03 -0.18120251836E+02  0.14363517258E+04  0.14462979338E+04  0.46999998093E+01 0.  1.
       -5    1    3    3    0  502  0.16828844136E+03  0.18120251836E+02 -0.12609805052E+04  0.12722984192E+04  0.46999998093E+01 0. -1.
</event>
<event>
 5   0  0.1881699E-05  0.2693801E+04  0.7818609E-02  0.8337019E-01
        2   -1    0    0  501    0  0.00000000000E+00  0.00000000000E+00  0.24281378884E+04  0.24281378884E+04  0.25500000920E-02 0. -1.
       -2   -1    0    0    0  501  0.00000000000E+00  0.00000000000E+00 -0.74713276906E+03  0.74713276906E+03  0.25500000920E-02 0.  1.
    10030    2    1    2    0    0  0.00000000000E+00  0.00000000000E+00  0.16810051193E+04  0.31752706575E+04  0.26938013173E+04 0.  0.
        4    1    3    3  502    0 -0.35006335634E+03 -0.76053420286E+03 -0.40314837320E+03  0.92923993182E+03  0.12699999809E+01 0.  1.
       -4    1    3    3    0  502  0.35006335634E+03  0.76053420286E+03  0.20841534925E+04  0.22460307256E+04  0.12699999809E+01 0. -1.
</event>
<event>
 5   0  0.1881699E-05  0.2721855E+04  0.7818609E-02  0.8327949E-01
       -2   -1    0    0    0  501  0.00000000000E+00  0.00000000000E+00  0.11192872815E+04  0.11192872815E+04  0.25500000920E-02 0.  1.
        2   -1    0    0  501    0  0.00000000000E+00  0.00000000000E+00 -0.16547345887E+04  0.16547345887E+04  0.25500000920E-02 0. -1.
    10030    2    1    2    0    0  0.00000000000E+00  0.00000000000E+00 -0.53544730716E+03  0.27740218702E+04  0.27218547936E+04 0.  0.
        4    1    3    3  502    0  0.14185323720E+03  0.11544869882E+04 -0.98777667429E+03  0.15259970242E+04  0.12699999809E+01 0. -1.
       -4    1    3    3    0  502 -0.14185323720E+03 -0.11544869882E+04  0.45232936713E+03  0.12480248459E+04  0.12699999809E+01 0.  1.
</event>
<event>
 5   0  0.7754912E-06  0.2703328E+04  0.7818609E-02  0.8333926E-01
       -1   -1    0    0    0  501  0.00000000000E+00  0.00000000000E+00  0.88506315892E+03  0.88506315893E+03  0.50400001928E-02 0. -1.
        1   -1    0    0  501    0  0.00000000000E+00  0.00000000000E+00 -0.20642540860E+04  0.20642540860E+04  0.50400001928E-02 0.  1.
    10030    2    1    2    0    0  0.00000000000E+00  0.00000000000E+00 -0.11791909271E+04  0.29493172449E+04  0.27033277583E+04 0.  0.
        4    1    3    3  502    0 -0.11260727012E+04 -0.25624609497E+03 -0.13558529874E+04  0.17810223822E+04  0.12699999809E+01 0.  1.
       -4    1    3    3    0  502  0.11260727012E+04  0.25624609497E+03  0.17666206037E+03  0.11682948627E+04  0.12699999809E+01 0. -1.
</event>
<event>
 5   0  0.1931119E-05  0.2722654E+04  0.7818609E-02  0.8327692E-01
        2   -1    0    0  501    0  0.00000000000E+00  0.00000000000E+00  0.16550547672E+04  0.16550547672E+04  0.25500000920E-02 0.  1.
       -2   -1    0    0    0  501  0.00000000000E+00  0.00000000000E+00 -0.11197278716E+04  0.11197278716E+04  0.25500000920E-02 0. -1.
    10030    2    1    2    0    0  0.00000000000E+00  0.00000000000E+00  0.53532689557E+03  0.27747826388E+04  0.27226538170E+04 0.  0.
        3    1    3    3  502    0  0.35989101109E+03  0.63002608054E+03  0.14415663122E+04  0.16138673566E+04  0.10100000352E+00 0.  1.
       -3    1    3    3    0  502 -0.35989101109E+03 -0.63002608054E+03 -0.90623941661E+03  0.11609152822E+04  0.10100000352E+00 0. -1.
</event>
<event>
 5   0  0.7754912E-06  0.2691922E+04  0.7818609E-02  0.8337631E-01
       -1   -1    0    0    0  501  0.00000000000E+00  0.00000000000E+00  0.13298414940E+04  0.13298414941E+04  0.50400001928E-02 0.  1.
        1   -1    0    0  501    0  0.00000000000E+00  0.00000000000E+00 -0.13622761888E+04  0.13622761888E+04  0.50400001928E-02 0. -1.
    10030    2    1    2    0    0  0.00000000000E+00  0.00000000000E+00 -0.32434694736E+02  0.26921176828E+04  0.26919222888E+04 0.  0.
        4    1    3    3  502    0  0.84871277417E+03  0.67967923327E+03 -0.80957976145E+03  0.13556172897E+04  0.12699999809E+01 0. -1.
       -4    1    3    3    0  502 -0.84871277417E+03 -0.67967923327E+03  0.77714506671E+03  0.13365003931E+04  0.12699999809E+01 0.  1.
</event>
<event>
 5   0  0.1878160E-05  0.2712191E+04  0.7818609E-02  0.8331060E-01
        2   -1    0    0  501    0  0.00000000000E+00  0.00000000000E+00  0.14059993083E+04  0.14059993083E+04  0.25500000920E-02 0. -1.
       -2   -1    0    0    0  501  0.00000000000E+00  0.00000000000E+00 -0.13079631803E+04  0.13079631803E+04  0.25500000920E-02 0.  1.
    10030    2    1    2    0    0  0.00000000000E+00  0.00000000000E+00  0.98036128014E+02  0.27139624886E+04  0.27121912372E+04 0.  0.
        1    1    3    3  502    0 -0.56650920049E+03  0.12312025516E+04  0.20520362451E+01  0.13552846963E+04  0.50400001928E-02 0. -1.
       -1    1    3    3    0  502  0.56650920049E+03 -0.12312025516E+04  0.95984091769E+02  0.13586777922E+04  0.50400001928E-02 0.  1.
</event>
<event>
 5   0  0.1788003E-05  0.2627859E+04  0.7818609E-02  0.8358799E-01
       -2   -1    0    0    0  501  0.00000000000E+00  0.00000000000E+00  0.76122707616E+03  0.76122707617E+03  0.25500000920E-02 0. -1.
        2   -1    0    0  501    0  0.00000000000E+00  0.00000000000E+00 -0.22679305827E+04  0.22679305827E+04  0.25500000920E-02 0.  1.
    10030    2    1    2    0    0  0.00000000000E+00  0.00000000000E+00 -0.15067035065E+04  0.30291576588E+04  0.26278585703E+04 0.  0.
        2    1    3    3  502    0 -0.55240127002E+03  0.87749131316E+02  0.61714335090E+03  0.83289434428E+03  0.25500000920E-02 0. -1.
       -2    1    3    3    0  502  0.55240127002E+03 -0.87749131316E+02 -0.21238468574E+04  0.21962633145E+04  0.25500000920E-02 0.  1.
</event>
<event>
 5   0  0.7348964E-06  0.2736300E+04  0.7818609E-02  0.8323322E-01
       -1   -1    0    0    0  501  0.00000000000E+00  0.00000000000E+00  0.69278333160E+03  0.69278333162E+03  0.50400001928E-02 0. -1.
        1   -1    0    0  501    0  0.00000000000E+00  0.00000000000E+00 -0.27019053213E+04  0.27019053213E+04  0.50400001928E-02 0.  1.
    10030    2    1    2    0    0  0.00000000000E+00  0.00000000000E+00 -0.20091219897E+04  0.33946886529E+04  0.27363004003E+04 0.  0.
        1    1    3    3  502    0  0.13463733228E+04 -0.33034819356E+01 -0.13061674903E+04  0.18758479550E+04  0.50400001928E-02 0.  1.
       -1    1    3    3    0  502 -0.13463733228E+04  0.33034819356E+01 -0.70295449934E+03  0.15188406979E+04  0.50400001928E-02 0. -1.
</event>
<event>
 5   0  0.6804685E-06  0.2654303E+04  0.7818609E-02  0.8349986E-01
        1   -1    0    0  501    0  0.00000000000E+00  0.00000000000E+00  0.11282752268E+04  0.11282752268E+04  0.50400001928E-02 0.  1.
       -1   -1    0    0    0  501  0.00000000000E+00  0.00000000000E+00 -0.15610824476E+04  0.15610824476E+04  0.50400001928E-02 0. -1.
    10030    2    1    2    0    0  0.00000000000E+00  0.00000000000E+00 -0.43280722075E+03  0.26893576744E+04  0.26543026600E+04 0.  0.
        2    1    3    3  502    0  0.10065154787E+04 -0.73981797724E+03  0.23776471844E+03  0.12715880267E+04  0.25500000920E-02 0. -1.
       -2    1    3    3    0  502 -0.10065154787E+04  0.73981797724E+03 -0.67057193918E+03  0.14177696477E+04  0.25500000920E-02 0.  1.
</event>
<event>
 5   0  0.1881699E-05  0.2717999E+04  0.7818609E-02  0.8329188E-01
       -2   -1    0    0    0  501  0.00000000000E+00  0.00000000000E+00  0.11918111250E+04  0.11918111250E+04  0.25500000920E-02 0.  1.
        2   -1    0    0  501    0  0.00000000000E+00  0.00000000000E+00 -0.15496413094E+04  0.15496413094E+04  0.25500000920E-02 0. -1.
    10030    2    1    2    0    0  0.00000000000E+00  0.00000000000E+00 -0.35783018434E+03  0.27414524344E+04  0.27179990819E+04 0.  0.
        4    1    3    3  502    0  0.13553201614E+04  0.29168409776E+02 -0.27531492003E+03  0.13833088787E+04  0.12699999809E+01 0.  1.
       -4    1    3    3    0  502 -0.13553201614E+04 -0.29168409776E+02 -0.82515264307E+02  0.13581435556E+04  0.12699999809E+01 0. -1.
</event>
<event>
 5   0  0.1881699E-05  0.2735080E+04  0.7818609E-02  0.8323712E-01
        2   -1    0    0  501    0  0.00000000000E+00  0.00000000000E+00  0.21959976294E+04  0.21959976294E+04  0.25500000920E-02 0.  1.
       -2   -1    0    0    0  501  0.00000000000E+00  0.00000000000E+00 -0.85162441318E+03  0.85162441318E+03  0.25500000920E-02 0. -1.
    10030    2    1    2    0    0  0.00000000000E+00  0.00000000000E+00  0.13443732162E+04  0.30476220426E+04  0.27350796643E+04 0.  0.
        4    1    3    3  502    0  0.17510183196E+03  0.97010271391E+03 -0.38396649649E+03  0.10579186218E+04  0.12699999809E+01 0. -1.
       -4    1    3    3    0  502 -0.17510183196E+03 -0.97010271391E+03  0.17283397127E+04  0.19897034207E+04  0.12699999809E+01 0.  1.
</event>
<event>
 5   0  0.7754912E-06  0.2655667E+04  0.7818609E-02  0.8349534E-01
        1   -1    0    0  501    0  0.00000000000E+00  0.00000000000E+00  0.99576324320E+03  0.99576324321E+03  0.50400001928E-02 0.  1.
       -1   -1    0    0    0  501  0.00000000000E+00  0.00000000000E+00 -0.17706441669E+04  0.17706441669E+04  0.50400001928E-02 0. -1.
    10030    2    1    2    0    0  0.00000000000E+00  0.00000000000E+00 -0.77488092373E+03  0.27664074102E+04  0.26556674327E+04 0.  0.
        4    1    3    3  502    0  0.76677644200E+03 -0.10300790211E+04 -0.35518876091E+02  0.12846291703E+04  0.12699999809E+01 0. -1.
       -4    1    3    3    0  502 -0.76677644200E+03  0.10300790211E+04 -0.73936204764E+03  0.14817782399E+04  0.12699999809E+01 0.  1.
</event>
<event>
 5   0  0.6804685E-06  0.2663958E+04  0.7818609E-02  0.8346795E-01
       -1   -1    0    0    0  501  0.00000000000E+00  0.00000000000E+00  0.93562821355E+03  0.93562821357E+03  0.50400001928E-02 0. -1.
        1   -1    0    0  501    0  0.00000000000E+00  0.00000000000E+00 -0.18962320792E+04  0.18962320792E+04  0.50400001928E-02 0.  1.
    10030    2    1    2    0    0  0.00000000000E+00  0.00000000000E+00 -0.96060386568E+03  0.28318602928E+04  0.26639581324E+04 0.  0.
        2    1    3    3  502    0  0.88332928609E+03 -0.93920273283E+03 -0.83573451345E+03  0.15364975034E+04  0.25500000920E-02 0. -1.
       -2    1    3    3    0  502 -0.88332928609E+03  0.93920273283E+03 -0.12486935223E+03  0.12953627894E+04  0.25500000920E-02 0.  1.
</event>
<event>
 5   0  0.1826851E-05  0.2651267E+04  0.7818609E-02  0.8350993E-01
        2   -1    0    0  501    0  0.00000000000E+00  0.00000000000E+00  0.17192624205E+04  0.17192624205E+04  0.25500000920E-02 0. -1.
       -2   -1    0    0    0  501  0.00000000000E+00  0.00000000000E+00 -0.10221268190E+04  0.10221268190E+04  0.25500000920E-02 0.  1.
    10030    2    1    2    0    0  0.00000000000E+00  0.00000000000E+00  0.69713560154E+03  0.27413892395E+04  0.26512670397E+04 0.  0.
        5    1    3    3  502    0 -0.30667210399E+03 -0.47220525698E+03 -0.89233327550E+03  0.10551333322E+04  0.46999998093E+01 0.  1.
       -5    1    3    3    0  502  0.30667210399E+03  0.47220525698E+03  0.15894688770E+04  0.16862559074E+04  0.46999998093E+01 0. -1.
</event>
<event>
 5   0  0.6175875E-06  0.2716948E+04  0.7818609E-02  0.8329527E-01
       -4   -1    0    0    0  501  0.00000000000E+00  0.00000000000E+00  0.17408404588E+04  0.17408409220E+04  0.12699999809E+01 0. -1.
        4   -1    0    0  501    0  0.00000000000E+00  0.00000000000E+00 -0.10600912348E+04  0.10600919955E+04  0.12699999809E+01 0.  1.
    10030    2    1    2    0    0  0.00000000000E+00  0.00000000000E+00  0.68074922399E+03  0.28009329175E+04  0.27169478653E+04 0.  0.
        1    1    3    3  502    0 -0.10269241153E+04  0.39298785686E+03  0.11628061149E+04  0.16003532907E+04  0.50400001928E-02 0. -1.
       -1    1    3    3    0  502  0.10269241153E+04 -0.39298785686E+03 -0.48205689091E+03  0.12005796268E+04  0.50400001928E-02 0.  1.
</event>
<event>
 5   0  0.7600052E-06  0.2722646E+04  0.7818609E-02  0.8327694E-01
       -1   -1    0    0    0  501  0.00000000000E+00  0.00000000000E+00  0.70891406944E+03  0.70891406945E+03  0.50400001928E-02 0. -1.
        1   -1    0    0  501    0  0.00000000000E+00  0.00000000000E+00 -0.26141395188E+04  0.26141395188E+04  0.50400001928E-02 0.  1.
    10030    2    1    2    0    0  0.00000000000E+00  0.00000000000E+00 -0.19052254493E+04  0.33230535882E+04  0.27226459809E+04 0.  0.
        5    1    3    3  502    0 -0.88543420322E+03  0.62756145991E+03  0.50410454814E+02  0.10864577388E+04  0.46999998093E+01 0. -1.
       -5    1    3    3    0  502  0.88543420322E+03 -0.62756145991E+03 -0.19556359041E+04  0.22365958494E+04  0.46999998093E+01 0.  1.
</event>
<event>
 5   0  0.1788003E-05  0.2487751E+04  0.7818609E-02  0.8407362E-01
        2   -1    0    0  501    0  0.00000000000E+00  0.00000000000E+00  0.14951099466E+04  0.14951099466E+04  0.25500000920E-02 0. -1.
       -2   -1    0    0    0  501  0.00000000000E+00  0.00000000000E+00 -0.10348575670E+04  0.10348575670E+04  0.25500000920E-02 0.  1.
    10030    2    1    2    0    0  0.00000000000E+00  0.00000000000E+00  0.46025237958E+03  0.25299675136E+04  0.24877506641E+04 0.  0.
        2    1    3    3  502    0  0.75689886950E+03 -0.78092485985E+03  0.84409838252E+03  0.13766777454E+04  0.25500000920E-02 0. -1.
       -2    1    3    3    0  502 -0.75689886950E+03  0.78092485985E+03 -0.38384600295E+03  0.11532897682E+04  0.25500000920E-02 0.  1.
</event>
<event>
 5   0  0.7754912E-06  0.2765809E+04  0.7818609E-02  0.8313962E-01
       -1   -1    0    0    0  501  0.00000000000E+00  0.00000000000E+00  0.95103409786E+03  0.95103409787E+03  0.50400001928E-02 0.  1.
        1   -1    0    0  501    0  0.00000000000E+00  0.00000000000E+00 -0.20108905869E+04  0.20108905869E+04  0.50400001928E-02 0. -1.
    10030    2    1    2    0    0  0.00000000000E+00  0.00000000000E+00 -0.10598564891E+04  0.29619246848E+04  0.27658094766E+04 0.  0.
        4    1    3    3  502    0  0.68781229273E+02  0.11503330538E+03  0.94406167950E+03  0.95352901710E+03  0.12699999809E+01 0.  1.
       -4    1    3    3    0  502 -0.68781229273E+02 -0.11503330538E+03 -0.20039181686E+04  0.20083956677E+04  0.12699999809E+01 0. -1.
</event>
<event>
 5   0  0.1931119E-05  0.2704229E+04  0.7818609E-02  0.8333634E-01
        2   -1    0    0  501    0  0.00000000000E+00  0.00000000000E+00  0.13998639677E+04  0.13998639677E+04  0.25500000920E-02 0. -1.
       -2   -1    0    0    0  501  0.00000000000E+00  0.00000000000E+00 -0.13059933368E+04  0.13059933368E+04  0.25500000920E-02 0.  1.
    10030    2    1    2    0    0  0.00000000000E+00  0.00000000000E+00  0.93870630900E+02  0.27058573044E+04  0.27042285511E+04 0.  0.
        3    1    3    3  502    0 -0.11699271396E+04  0.18474750194E+03 -0.60564754097E+03  0.13302894819E+04  0.10100000352E+00 0.  1.
       -3    1    3    3    0  502  0.11699271396E+04 -0.18474750194E+03  0.69951817187E+03  0.13755678226E+04  0.10100000352E+00 0. -1.
</event>
<event>
 5   0  0.6804685E-06  0.2686967E+04  0.7818609E-02  0.8339246E-01
        1   -1    0    0  501    0  0.00000000000E+00  0.00000000000E+00  0.18533762862E+04  0.18533762862E+04  0.50400001928E-02 0. -1.
       -1   -1    0    0    0  501  0.00000000000E+00  0.00000000000E+00 -0.97387046880E+03  0.97387046881E+03  0.50400001928E-02 0.  1.
    10030    2    1    2    0    0  0.00000000000E+00  0.00000000000E+00  0.87950581742E+03  0.28272467550E+04  0.26869673856E+04 0.  0.
        2    1    3    3  502    0 -0.56651186027E+03 -0.11594276153E+04  0.83308758237E+03  0.15359827482E+04  0.25500000920E-02 0. -1.
       -2    1    3    3    0  502  0.56651186027E+03  0.11594276153E+04  0.46418235056E+02  0.12912640069E+04  0.25500000920E-02 0.  1.
</event>
<event>
 5   0  0.1788003E-05  0.2716921E+04  0.7818609E-02  0.8329536E-01
        2   -1    0    0  501    0  0.00000000000E+00  0.00000000000E+00  0.11972817205E+04  0.11972817205E+04  0.25500000920E-02 0.  1.
       -2   -1    0    0    0  501  0.00000000000E+00  0.00000000000E+00 -0.15413372581E+04  0.15413372581E+04  0.25500000920E-02 0. -1.
    10030    2    1    2    0    0  0.00000000000E+00  0.00000000000E+00 -0.34405553761E+03  0.27386189787E+04  0.27169209958E+04 0.  0.
        2    1    3    3  502    0 -0.32487719784E+03 -0.40863171618E+03 -0.14361927586E+04  0.15281278458E+04  0.25500000920E-02 0. -1.
       -2    1    3    3    0  502  0.32487719784E+03  0.40863171618E+03  0.10921372210E+04  0.12104911329E+04  0.25500000920E-02 0.  1.
</event>
<event>
 5   0  0.7351590E-06  0.2713208E+04  0.7818609E-02  0.8330732E-01
       -1   -1    0    0    0  501  0.00000000000E+00  0.00000000000E+00  0.10477852433E+04  0.10477852433E+04  0.50400001928E-02 0.  1.
        1   -1    0    0  501    0  0.00000000000E+00  0.00000000000E+00 -0.17564419212E+04  0.17564419212E+04  0.50400001928E-02 0. -1.
    10030    2    1    2    0    0  0.00000000000E+00  0.00000000000E+00 -0.70865667788E+03  0.28042271645E+04  0.27132076410E+04 0.  0.
        3    1    3    3  502    0 -0.54123884954E+03  0.11927538202E+04 -0.71941001019E+03  0.14943734275E+04  0.10100000352E+00 0. -1.
       -3    1    3    3    0  502  0.54123884954E+03 -0.11927538202E+04  0.10753332305E+02  0.13098537370E+04  0.10100000352E+00 0.  1.
</event>
<event>
 5   0  0.1788003E-05  0.2761492E+04  0.7818609E-02  0.8315324E-01
       -2   -1    0    0    0  501  0.00000000000E+00  0.00000000000E+00  0.14362168988E+04  0.14362168988E+04  0.25500000920E-02 0.  1.
        2   -1    0    0  501    0  0.00000000000E+00  0.00000000000E+00 -0.13274172495E+04  0.13274172495E+04  0.25500000920E-02 0. -1.
    10030    2    1    2    0    0  0.00000000000E+00  0.00000000000E+00  0.10879964936E+03  0.27636341483E+04  0.27614916878E+04 0.  0.
        2    1    3    3  502    0 -0.13012373711E+04 -0.45333210525E+03  0.14239068546E+03  0.13852811270E+04  0.25500000920E-02 0. -1.
       -2    1    3    3    0  502  0.13012373711E+04  0.45333210525E+03 -0.33591036106E+02  0.13783530213E+04  0.25500000920E-02 0.  1.
</event>
<event>
 5   0  0.7600052E-06  0.2727128E+04  0.7818609E-02  0.8326256E-01
       -1   -1    0    0    0  501  0.00000000000E+00  0.00000000000E+00  0.11037291695E+04  0.11037291695E+04  0.50400001928E-02 0. -1.
        1   -1    0    0  501    0  0.00000000000E+00  0.00000000000E+00 -0.16845684957E+04  0.16845684958E+04  0.50400001928E-02 0.  1.
    10030    2    1    2    0    0  0.00000000000E+00  0.00000000000E+00 -0.58083932630E+03  0.27882976652E+04  0.27271284434E+04 0.  0.
        5    1    3    3  502    0  0.48608852777E+02  0.89057854987E+03 -0.13449570170E+04  0.16138229276E+04  0.46999998093E+01 0.  1.
       -5    1    3    3    0  502 -0.48608852777E+02 -0.89057854987E+03  0.76411769071E+03  0.11744747376E+04  0.46999998093E+01 0. -1.
</event>
<event>
 5   0  0.7754912E-06  0.2672492E+04  0.7818609E-02  0.8343986E-01
        1   -1    0    0  501    0  0.00000000000E+00  0.00000000000E+00  0.14954189807E+04  0.14954189807E+04  0.50400001928E-02 0.  1.
       -1   -1    0    0    0  501  0.00000000000E+00  0.00000000000E+00 -0.11940157869E+04  0.11940157869E+04  0.50400001928E-02 0. -1.
    10030    2    1    2    0    0  0.00000000000E+00  0.00000000000E+00  0.30140319380E+03  0.26894347676E+04  0.26724923730E+04 0.  0.
        4    1    3    3  502    0  0.79454858343E+03  0.10735554549E+04  0.19247974300E+03  0.13493994333E+04  0.12699999809E+01 0.  1.
       -4    1    3    3    0  502 -0.79454858343E+03 -0.10735554549E+04  0.10892345081E+03  0.13400353343E+04  0.12699999809E+01 0. -1.
</event>
<event>
 5   0  0.1931119E-05  0.2692798E+04  0.7818609E-02  0.8337346E-01
       -2   -1    0    0    0  501  0.00000000000E+00  0.00000000000E+00  0.12547875905E+04  0.12547875905E+04  0.25500000920E-02 0. -1.
        2   -1    0    0  501    0  0.00000000000E+00  0.00000000000E+00 -0.14446986923E+04  0.14446986923E+04  0.25500000920E-02 0.  1.
    10030    2    1    2    0    0  0.00000000000E+00  0.00000000000E+00 -0.18991110172E+03  0.26994862828E+04  0.26927977949E+04 0.  0.
        3    1    3    3  502    0 -0.97152101217E+03  0.47291629432E+03 -0.90024844634E+03  0.14063961653E+04  0.10100000352E+00 0.  1.
       -3    1    3    3    0  502  0.97152101217E+03 -0.47291629432E+03  0.71033734462E+03  0.12930901175E+04  0.10100000352E+00 0. -1.
</event>
<event>
 5   0  0.7351590E-06  0.2720699E+04  0.7818609E-02  0.8328320E-01
        1   -1    0    0  501    0  0.00000000000E+00  0.00000000000E+00  0.22221919105E+04  0.22221919105E+04  0.50400001928E-02 0.  1.
       -1   -1    0    0    0  501  0.00000000000E+00  0.00000000000E+00 -0.83275939546E+03  0.83275939548E+03  0.50400001928E-02 0. -1.
    10030    2    1    2    0    0  0.00000000000E+00  0.00000000000E+00  0.13894325150E+04  0.30549513060E+04  0.27206993160E+04 0.  0.
        3    1    3    3  502    0  0.10446084677E+04  0.30311814162E+03 -0.22263905034E+03  0.11102502491E+04  0.10100000352E+00 0. -1.
       -3    1    3    3    0  502 -0.10446084677E+04 -0.30311814162E+03  0.16120715654E+04  0.19447010569E+04  0.10100000352E+00 0.  1.
</event>
<event>
 5   0  0.6804685E-06  0.2702814E+04  0.7818609E-02  0.8334093E-01
        1   -1    0    0  501    0  0.00000000000E+00  0.00000000000E+00  0.15524676821E+04  0.15524676821E+04  0.50400001928E-02 0.  1.
       -1   -1    0    0    0  501  0.00000000000E+00  0.00000000000E+00 -0.11763856941E+04  0.11763856941E+04  0.50400001928E-02 0. -1.
    10030    2    1    2    0    0  0.00000000000E+00  0.00000000000E+00  0.37608198798E+03  0.27288533762E+04  0.27028139202E+04 0.  0.
        2    1    3    3  502    0 -0.73782864383E+02  0.53497509092E+03 -0.10627073331E+04  0.11920524882E+04  0.25500000920E-02 0. -1.
       -2    1    3    3    0  502  0.73782864383E+02 -0.53497509092E+03  0.14387893210E+04  0.15368008880E+04  0.25500000920E-02 0.  1.
</event>
<event>
 5   0  0.6804685E-06  0.2656574E+04  0.7818609E-02  0.8349234E-01
       -1   -1    0    0    0  501  0.00000000000E+00  0.00000000000E+00  0.13867523670E+04  0.13867523670E+04  0.50400001928E-02 0. -1.
        1   -1    0    0  501    0  0.00000000000E+00  0.00000000000E+00 -0.12722866940E+04  0.12722866940E+04  0.50400001928E-02 0.  1.
    10030    2    1    2    0    0  0.00000000000E+00  0.00000000000E+00  0.11446567301E+03  0.26590390610E+04  0.26565741732E+04 0.  0.
        2    1    3    3  502    0 -0.26992246160E+03 -0.23864877433E+03  0.13369085017E+04  0.13846067003E+04  0.25500000920E-02 0. -1.
       -2    1    3    3    0  502  0.26992246160E+03  0.23864877433E+03 -0.12224428286E+04  0.12744323607E+04  0.25500000920E-02 0.  1.
</event>
<event>
 5   0  0.1881699E-05  0.2692988E+04  0.7818609E-02  0.8337284E-01
       -2   -1    0    0    0  501  0.00000000000E+00  0.00000000000E+00  0.10278635024E+04  0.10278635024E+04  0.25500000920E-02 0.  1.
        2   -1    0    0  501    0  0.00000000000E+00  0.00000000000E+00 -0.17638972596E+04  0.17638972596E+04  0.25500000920E-02 0. -1.
    10030    2    1    2    0    0  0.00000000000E+00  0.00000000000E+00 -0.73603375716E+03  0.27917607620E+04  0.26929876458E+04 0.  0.
        4    1    3    3  502    0  0.36746015154E+03  0.36310216728E+03  0.92104273053E+03  0.10560262645E+04  0.12699999809E+01 0.  1.
       -4    1    3    3    0  502 -0.36746015154E+03 -0.36310216728E+03 -0.16570764877E+04  0.17357344975E+04  0.12699999809E+01 0. -1.
</event>
<event>
 5   0  0.7348964E-06  0.2699778E+04  0.7818609E-02  0.8335077E-01
       -1   -1    0    0    0  501  0.00000000000E+00  0.00000000000E+00  0.17475005187E+04  0.17475005187E+04  0.50400001928E-02 0. -1.
        1   -1    0    0  501    0  0.00000000000E+00  0.00000000000E+00 -0.10427470121E+04  0.10427470121E+04  0.50400001928E-02 0.  1.
    10030    2    1    2    0    0  0.00000000000E+00  0.00000000000E+00  0.70475350658E+03  0.27902475308E+04  0.26997784683E+04 0.  0.
        1    1    3    3  502    0 -0.11794768597E+04  0.41896793975E+03  0.87478621051E+03  0.15270725953E+04  0.50400001928E-02 0. -1.
       -1    1    3    3    0  502  0.11794768597E+04 -0.41896793975E+03 -0.17003270394E+03  0.12631749355E+04  0.50400001928E-02 0.  1.
</event>
<event>
 5   0  0.7348964E-06  0.2576444E+04  0.7818609E-02  0.8376247E-01
       -1   -1    0    0    0  501  0.00000000000E+00  0.00000000000E+00  0.16295976098E+04  0.16295976098E+04  0.50400001928E-02 0. -1.
        1   -1    0    0  501    0  0.00000000000E+00  0.00000000000E+00 -0.10183593390E+04  0.10183593390E+04  0.50400001928E-02 0.  1.
    10030    2    1    2    0    0  0.00000000000E+00  0.00000000000E+00  0.61123827080E+03  0.26479569489E+04  0.25764440183E+04 0.  0.
        1    1    3    3  502    0  0.10916773733E+04  0.76243679799E+02 -0.39291007764E+03  0.11627342410E+04  0.50400001928E-02 0. -1.
       -1    1    3    3    0  502 -0.10916773733E+04 -0.76243679799E+02  0.10041483484E+04  0.14852227078E+04  0.50400001928E-02 0.  1.
</event>
<event>
 5   0  0.1826851E-05  0.2670274E+04  0.7818609E-02  0.8344715E-01
        2   -1    0    0  501    0  0.00000000000E+00  0.00000000000E+00  0.12307830416E+04  0.12307830416E+04  0.25500000920E-02 0. -1.
       -2   -1    0    0    0  501  0.00000000000E+00  0.00000000000E+00 -0.14483388229E+04  0.14483388229E+04  0.25500000920E-02 0.  1.
    10030    2    1    2    0    0  0.00000000000E+00  0.00000000000E+00 -0.21755578132E+03  0.26791218645E+04  0.26702740397E+04 0.  0.
        5    1    3    3  502    0 -0.11480038771E+04  0.26889546585E+02  0.57460513067E+03  0.12840674032E+04  0.46999998093E+01 0. -1.
       -5    1    3    3    0  502  0.11480038771E+04 -0.26889546585E+02 -0.79216091199E+03  0.13950544614E+04  0.46999998093E+01 0.  1.
</event>
<event>
 5   0  0.1878160E-05  0.2716974E+04  0.7818609E-02  0.8329518E-01
       -2   -1    0    0    0  501  0.00000000000E+00  0.00000000000E+00  0.13051095788E+04  0.13051095788E+04  0.25500000920E-02 0. -1.
        2   -1    0    0  501    0  0.00000000000E+00  0.00000000000E+00 -0.14140479108E+04  0.14140479108E+04  0.25500000920E-02 0.  1.
    10030    2    1    2    0    0  0.00000000000E+00  0.00000000000E+00 -0.10893833203E+03  0.27191574897E+04  0.27169744006E+04 0.  0.
        1    1    3    3  502    0  0.10747408604E+04  0.72681052092E+03  0.34855282903E+03  0.13434323671E+04  0.50400001928E-02 0. -1.
       -1    1    3    3    0  502 -0.10747408604E+04 -0.72681052092E+03 -0.45749116106E+03  0.13757251226E+04  0.50400001928E-02 0.  1.
</event>
<event>
 5   0  0.1878160E-05  0.2836974E+04  0.7818609E-02  0.8291880E-01
       -2   -1    0    0    0  501  0.00000000000E+00  0.00000000000E+00  0.84562982365E+03  0.84562982365E+03  0.25500000920E-02 0. -1.
        2   -1    0    0  501    0  0.00000000000E+00  0.00000000000E+00 -0.23794168110E+04  0.23794168110E+04  0.25500000920E-02 0.  1.
    10030    2    1    2    0    0  0.00000000000E+00  0.00000000000E+00 -0.15337869874E+04  0.32250466347E+04  0.28369743166E+04 0.  0.
        1    1    3    3  502    0 -0.10099364566E+03 -0.12223506987E+04  0.43156682367E+02  0.12272748047E+04  0.50400001928E-02 0. -1.
       -1    1    3    3    0  502  0.10099364566E+03  0.12223506987E+04 -0.15769436697E+04  0.19977718300E+04  0.50400001928E-02 0.  1.
</event>
<event>
 5   0  0.7351590E-06  0.2665371E+04  0.7818609E-02  0.8346329E-01
       -1   -1    0    0    0  501  0.00000000000E+00  0.00000000000E+00  0.10906944357E+04  0.10906944357E+04  0.50400001928E-02 0.  1.
        1   -1    0    0  501    0  0.00000000000E+00  0.00000000000E+00 -0.16283663931E+04  0.16283663931E+04  0.50400001928E-02 0. -1.
    10030    2    1    2    0    0  0.00000000000E+00  0.00000000000E+00 -0.53767195743E+03  0.27190608289E+04  0.26653706416E+04 0.  0.
        3    1    3    3  502    0  0.15503639121E+02 -0.18336963509E+03 -0.16153426040E+04  0.16257910458E+04  0.10100000352E+00 0. -1.
       -3    1    3    3    0  502 -0.15503639121E+02  0.18336963509E+03  0.10776706466E+04  0.10932697831E+04  0.10100000352E+00 0.  1.
</event>
<event>
 5   0  0.1826851E-05  0.2008759E+04  0.7818609E-02  0.8602537E-01
        2   -1    0    0  501    0  0.00000000000E+00  0.00000000000E+00  0.21071464548E+04  0.21071464548E+04  0.25500000920E-02 0. -1.
       -2   -1    0    0    0  501  0.00000000000E+00  0.00000000000E+00 -0.47874119426E+03  0.47874119427E+03  0.25500000920E-02 0.  1.
    10030    2    1    2    0    0  0.00000000000E+00  0.00000000000E+00  0.16284052605E+04  0.25858876490E+04  0.20087586318E+04 0.  0.
        5    1    3    3  502    0  0.31984073092E+03 -0.65350112733E+03  0.17055113378E+04  0.18542256685E+04  0.46999998093E+01 0. -1.
       -5    1    3    3    0  502 -0.31984073092E+03  0.65350112733E+03 -0.77106077250E+02  0.73166198052E+03  0.46999998093E+01 0.  1.
</event>
<event>
 5   0  0.1788003E-05  0.2725861E+04  0.7818609E-02  0.8326663E-01
        2   -1    0    0  501    0  0.00000000000E+00  0.00000000000E+00  0.15665264190E+04  0.15665264190E+04  0.25500000920E-02 0. -1.
       -2   -1    0    0    0  501  0.00000000000E+00  0.00000000000E+00 -0.11857950205E+04  0.11857950205E+04  0.25500000920E-02 0.  1.
    10030    2    1    2    0    0  0.00000000000E+00  0.00000000000E+00  0.38073139854E+03  0.27523214395E+04  0.27258607647E+04 0.  0.
        2    1    3    3  502    0  0.64175266667E+03  0.10240363341E+04  0.82662737426E+03  0.14641754385E+04  0.25500000920E-02 0. -1.
       -2    1    3    3    0  502 -0.64175266667E+03 -0.10240363341E+04 -0.44589597572E+03  0.12881460010E+04  0.25500000920E-02 0.  1.
</event>
<event>
 5   0  0.7600052E-06  0.2859020E+04  0.7818609E-02  0.8285176E-01
        1   -1    0    0  501    0  0.00000000000E+00  0.00000000000E+00  0.18905536235E+04  0.18905536235E+04  0.50400001928E-02 0.  1.
       -1   -1    0    0    0  501  0.00000000000E+00  0.00000000000E+00 -0.10808994444E+04  0.10808994444E+04  0.50400001928E-02 0. -1.
    10030    2    1    2    0    0  0.00000000000E+00  0.00000000000E+00  0.80965417916E+03  0.29714530679E+04  0.28590196650E+04 0.  0.
        5    1    3    3  502    0 -0.76584863340E+03 -0.12133699613E+03 -0.84332904699E+03  0.11456320384E+04  0.46999998093E+01 0. -1.
       -5    1    3    3    0  502  0.76584863340E+03  0.12133699613E+03  0.16529832262E+04  0.18258210295E+04  0.46999998093E+01 0.  1.
</event>
<event>
 5   0  0.1878160E-05  0.2620254E+04  0.7818609E-02  0.8361354E-01
       -2   -1    0    0    0  501  0.00000000000E+00  0.00000000000E+00  0.70650214594E+03  0.70650214595E+03  0.25500000920E-02 0.  1.
        2   -1    0    0  501    0  0.00000000000E+00  0.00000000000E+00 -0.24294791886E+04  0.24294791887E+04  0.25500000920E-02 0. -1.
    10030    2    1    2    0    0  0.00000000000E+00  0.00000000000E+00 -0.17229770427E+04  0.31359813346E+04  0.26202536215E+04 0.  0.
        1    1    3    3  502    0 -0.75393495565E+03  0.10021180561E+04 -0.13152942054E+04  0.18173214802E+04  0.50400001928E-02 0. -1.
       -1    1    3    3    0  502  0.75393495565E+03 -0.10021180561E+04 -0.40768283731E+03  0.13186598544E+04  0.50400001928E-02 0.  1.
</event>
<event>
 5   0  0.1881699E-05  0.2707209E+04  0.7818609E-02  0.8332670E-01
        2   -1    0    0  501    0  0.00000000000E+00  0.00000000000E+00  0.19901349160E+04  0.19901349160E+04  0.25500000920E-02 0. -1.
       -2   -1    0    0    0  501  0.00000000000E+00  0.00000000000E+00 -0.92066369784E+03  0.92066369785E+03  0.25500000920E-02 0.  1.
    10030    2    1    2    0    0  0.00000000000E+00  0.00000000000E+00  0.10694712181E+04  0.29107986138E+04  0.27072088733E+04 0.  0.
        4    1    3    3  502    0  0.68037976155E+03  0.52203486052E+03 -0.59130841778E+03  0.10416737845E+04  0.12699999809E+01 0.  1.
       -4    1    3    3    0  502 -0.68037976155E+03 -0.52203486052E+03  0.16607796359E+04  0.18691248293E+04  0.12699999809E+01 0. -1.
</event>
<event>
 5   0  0.1878160E-05  0.2709223E+04  0.7818609E-02  0.8332019E-01
        2   -1    0    0  501    0  0.00000000000E+00  0.00000000000E+00  0.24788972339E+04  0.24788972339E+04  0.25500000920E-02 0. -1.
       -2   -1    0    0    0  501  0.00000000000E+00  0.00000000000E+00 -0.74023729691E+03  0.74023729691E+03  0.25500000920E-02 0.  1.
    10030    2    1    2    0    0  0.00000000000E+00  0.00000000000E+00  0.17386599370E+04  0.32191345309E+04  0.27092229054E+04 0.  0.
        1    1    3    3  502    0 -0.29414009810E+03 -0.10790110157E+04  0.17775081884E+04  0.21000758389E+04  0.50400001928E-02 0. -1.
       -1    1    3    3    0  502  0.29414009810E+03  0.10790110157E+04 -0.38848251344E+02  0.11190586920E+04  0.50400001928E-02 0.  1.
</event>
<event>
 5   0  0.1788003E-05  0.2248461E+04  0.7818609E-02  0.8498524E-01
        2   -1    0    0  501    0  0.00000000000E+00  0.00000000000E+00  0.12847242857E+04  0.12847242857E+04  0.25500000920E-02 0. -1.
       -2   -1    0    0    0  501  0.00000000000E+00  0.00000000000E+00 -0.98378667102E+03  0.98378667102E+03  0.25500000920E-02 0.  1.
    10030    2    1    2    0    0  0.00000000000E+00  0.00000000000E+00  0.30093761472E+03  0.22685109568E+04  0.22484613657E+04 0.  0.
        2    1    3    3  502    0  0.12526519461E+03  0.10312154290E+04  0.58418344817E+03  0.11917914797E+04  0.25500000920E-02 0. -1.
       -2    1    3    3    0  502 -0.12526519461E+03 -0.10312154290E+04 -0.28324583345E+03  0.10767194770E+04  0.25500000920E-02 0.  1.
</event>
<event>
 5   0  0.6804685E-06  0.2199349E+04  0.7818609E-02  0.8518699E-01
        1   -1    0    0  501    0  0.00000000000E+00  0.00000000000E+00  0.76457186684E+03  0.76457186685E+03  0.50400001928E-02 0. -1.
       -1   -1    0    0    0  501  0.00000000000E+00  0.00000000000E+00 -0.15816484072E+04  0.15816484072E+04  0.50400001928E-02 0.  1.
    10030    2    1    2    0    0  0.00000000000E+00  0.00000000000E+00 -0.81707654034E+03  0.23462202740E+04  0.21993488813E+04 0.  0.
        2    1    3    3  502    0  0.10732365924E+03  0.62519509157E+03 -0.13667988011E+04  0.15068265438E+04  0.25500000920E-02 0.  1.
       -2    1    3    3    0  502 -0.10732365924E+03 -0.62519509157E+03  0.54972226078E+03  0.83939373023E+03  0.25500000920E-02 0. -1.
</event>
<event>
 5   0  0.6804685E-06  0.2710317E+04  0.7818609E-02  0.8331665E-01
        1   -1    0    0  501    0  0.00000000000E+00  0.00000000000E+00  0.16059910249E+04  0.16059910250E+04  0.50400001928E-02 0. -1.
       -1   -1    0    0    0  501  0.00000000000E+00  0.00000000000E+00 -0.11435025829E+04  0.11435025829E+04  0.50400001928E-02 0.  1.
    10030    2    1    2    0    0  0.00000000000E+00  0.00000000000E+00  0.46248844203E+03  0.27494936079E+04  0.27103172399E+04 0.  0.
        2    1    3    3  502    0 -0.64318699573E+03  0.42249253119E+03 -0.90034579011E+03  0.11844036441E+04  0.25500000920E-02 0.  1.
       -2    1    3    3    0  502  0.64318699573E+03 -0.42249253119E+03  0.13628342321E+04  0.15650899638E+04  0.25500000920E-02 0. -1.
</event>
<event>
 5   0  0.1878160E-05  0.2619405E+04  0.7818609E-02  0.8361639E-01
        2   -1    0    0  501    0  0.00000000000E+00  0.00000000000E+00  0.19032235493E+04  0.19032235493E+04  0.25500000920E-02 0. -1.
       -2   -1    0    0    0  501  0.00000000000E+00  0.00000000000E+00 -0.90127150154E+03  0.90127150154E+03  0.25500000920E-02 0.  1.
    10030    2    1    2    0    0  0.00000000000E+00  0.00000000000E+00  0.10019520477E+04  0.28044950508E+04  0.26194053875E+04 0.  0.
        1    1    3    3  502    0 -0.47524526676E+03 -0.50860114547E+03  0.16887767341E+04  0.18266088926E+04  0.50400001928E-02 0. -1.
       -1    1    3    3    0  502  0.47524526676E+03  0.50860114547E+03 -0.68682468634E+03  0.97788615827E+03  0.50400001928E-02 0.  1.
</event>
<event>
 5   0  0.7351590E-06  0.2723148E+04  0.7818609E-02  0.8327533E-01
       -1   -1    0    0    0  501  0.00000000000E+00  0.00000000000E+00  0.13280526853E+04  0.13280526854E+04  0.50400001928E-02 0. -1.
        1   -1    0    0  501    0  0.00000000000E+00  0.00000000000E+00 -0.13959414463E+04  0.13959414463E+04  0.50400001928E-02 0.  1.
    10030    2    1    2    0    0  0.00000000000E+00  0.00000000000E+00 -0.67888760992E+02  0.27239941317E+04  0.27231480213E+04 0.  0.
        3    1    3    3  502    0  0.25051010394E+03 -0.23911768390E+03  0.12832605687E+04  0.13291690172E+04  0.10100000352E+00 0. -1.
       -3    1    3    3    0  502 -0.25051010394E+03  0.23911768390E+03 -0.13511493296E+04  0.13948251145E+04  0.10100000352E+00 0.  1.
</event>
<event>
 5   0  0.7600052E-06  0.2547300E+04  0.7818609E-02  0.8386326E-01
        1   -1    0    0  501    0  0.00000000000E+00  0.00000000000E+00  0.17640742884E+04  0.17640742884E+04  0.50400001928E-02 0. -1.
       -1   -1    0    0    0  501  0.00000000000E+00  0.00000000000E+00 -0.91956715387E+03  0.91956715389E+03  0.50400001928E-02 0.  1.
    10030    2    1    2    0    0  0.00000000000E+00  0.00000000000E+00  0.84450713448E+03  0.26836414422E+04  0.25473003534E+04 0.  0.
        5    1    3    3  502    0  0.14074493647E+03 -0.10979345981E+04 -0.24146068454E+03  0.11329584595E+04  0.46999998093E+01 0.  1.
       -5    1    3    3    0  502 -0.14074493647E+03  0.10979345981E+04  0.10859678190E+04  0.15506829827E+04  0.46999998093E+01 0. -1.
</event>
<event>
 5   0  0.1931119E-05  0.2693272E+04  0.7818609E-02  0.8337191E-01
       -2   -1    0    0    0  501  0.00000000000E+00  0.00000000000E+00  0.18360287334E+04  0.18360287334E+04  0.25500000920E-02 0.  1.
        2   -1    0    0  501    0  0.00000000000E+00  0.00000000000E+00 -0.98769063348E+03  0.98769063348E+03  0.25500000920E-02 0. -1.
    10030    2    1    2    0    0  0.00000000000E+00  0.00000000000E+00  0.84833809997E+03  0.28237193669E+04  0.26932719007E+04 0.  0.
        3    1    3    3  502    0  0.12559773467E+04 -0.44448943956E+03  0.62956167790E+03  0.14735663792E+04  0.10100000352E+00 0.  1.
       -3    1    3    3    0  502 -0.12559773467E+04  0.44448943956E+03  0.21877642206E+03  0.13501529878E+04  0.10100000352E+00 0. -1.
</event>
<event>
 5   0  0.7754912E-06  0.2694532E+04  0.7818609E-02  0.8336781E-01
       -1   -1    0    0    0  501  0.00000000000E+00  0.00000000000E+00  0.10819069238E+04  0.10819069238E+04  0.50400001928E-02 0. -1.
        1   -1    0    0  501    0  0.00000000000E+00  0.00000000000E+00 -0.16777095344E+04  0.16777095345E+04  0.50400001928E-02 0.  1.
    10030    2    1    2    0    0  0.00000000000E+00  0.00000000000E+00 -0.59580261067E+03  0.27596164582E+04  0.26945319159E+04 0.  0.
        4    1    3    3  502    0 -0.66917637941E+03  0.11477819943E+04 -0.52673371723E+03  0.14292132644E+04  0.12699999809E+01 0.  1.
       -4    1    3    3    0  502  0.66917637941E+03 -0.11477819943E+04 -0.69068893441E+02  0.13304031939E+04  0.12699999809E+01 0. -1.
</event>
<event>
 5   0  0.1788003E-05  0.2763891E+04  0.7818609E-02  0.8314567E-01
        2   -1    0    0  501    0  0.00000000000E+00  0.00000000000E+00  0.24659355298E+04  0.24659355298E+04  0.25500000920E-02 0.  1.
       -2   -1    0    0    0  501  0.00000000000E+00  0.00000000000E+00 -0.77446207878E+03  0.77446207878E+03  0.25500000920E-02 0. -1.
    10030    2    1    2    0    0  0.00000000000E+00  0.00000000000E+00  0.16914734511E+04  0.32403976086E+04  0.27638911387E+04 0.  0.
        2    1    3    3  502    0  0.31037053429E+02  0.11837717447E+04  0.16809418132E+04  0.20561722257E+04  0.25500000920E-02 0.  1.
       -2    1    3    3    0  502 -0.31037053429E+02 -0.11837717447E+04  0.10531637863E+02  0.11842253830E+04  0.25500000920E-02 0. -1.
</event>
<event>
 5   0  0.7348964E-06  0.2687215E+04  0.7818609E-02  0.8339165E-01
       -1   -1    0    0    0  501  0.00000000000E+00  0.00000000000E+00  0.10050326131E+04  0.10050326132E+04  0.50400001928E-02 0.  1.
        1   -1    0    0  501    0  0.00000000000E+00  0.00000000000E+00 -0.17962407654E+04  0.17962407654E+04  0.50400001928E-02 0. -1.
    10030    2    1    2    0    0  0.00000000000E+00  0.00000000000E+00 -0.79120815227E+03  0.28012733786E+04  0.26872145804E+04 0.  0.
        1    1    3    3  502    0  0.27879515184E+02  0.11080115744E+04 -0.11873227806E+04  0.16242543833E+04  0.50400001928E-02 0. -1.
       -1    1    3    3    0  502 -0.27879515184E+02 -0.11080115744E+04  0.39611462829E+03  0.11770189953E+04  0.50400001928E-02 0.  1.
</event>
<event>
 5   0  0.7348964E-06  0.2714342E+04  0.7818609E-02  0.8330367E-01
       -1   -1    0    0    0  501  0.00000000000E+00  0.00000000000E+00  0.21993486076E+04  0.21993486077E+04  0.50400001928E-02 0. -1.
        1   -1    0    0  501    0  0.00000000000E+00  0.00000000000E+00 -0.83748105735E+03  0.83748105736E+03  0.50400001928E-02 0.  1.
    10030    2    1    2    0    0  0.00000000000E+00  0.00000000000E+00  0.13618675503E+04  0.30368296650E+04  0.27143417599E+04 0.  0.
        1    1    3    3  502    0 -0.93531031084E+03  0.76698576667E+02  0.17778371602E+04  0.20103216204E+04  0.50400001928E-02 0. -1.
       -1    1    3    3    0  502  0.93531031084E+03 -0.76698576667E+02 -0.41596960992E+03  0.10265080446E+04  0.50400001928E-02 0.  1.
</event>
<event>
 5   0  0.1826851E-05  0.2692740E+04  0.7818609E-02  0.8337365E-01
        2   -1    0    0  501    0  0.00000000000E+00  0.00000000000E+00  0.20267480770E+04  0.20267480770E+04  0.25500000920E-02 0. -1.
       -2   -1    0    0    0  501  0.00000000000E+00  0.00000000000E+00 -0.89439410349E+03  0.89439410350E+03  0.25500000920E-02 0.  1.
    10030    2    1    2    0    0  0.00000000000E+00  0.00000000000E+00  0.11323539735E+04  0.29211421805E+04  0.26927395191E+04 0.  0.
        5    1    3    3  502    0  0.81376784017E+02  0.41301626624E+03 -0.82115886891E+03  0.92278307047E+03  0.46999998093E+01 0.  1.
       -5    1    3    3    0  502 -0.81376784017E+02 -0.41301626624E+03  0.19535128424E+04  0.19983591101E+04  0.46999998093E+01 0. -1.
</event>
<event>
 5   0  0.7351590E-06  0.2688820E+04  0.7818609E-02  0.8338642E-01
        1   -1    0    0  501    0  0.00000000000E+00  0.00000000000E+00  0.10710659043E+04  0.10710659043E+04  0.50400001928E-02 0.  1.
       -1   -1    0    0    0  501  0.00000000000E+00  0.00000000000E+00 -0.16875138543E+04  0.16875138543E+04  0.50400001928E-02 0. -1.
    10030    2    1    2    0    0  0.00000000000E+00  0.00000000000E+00 -0.61644794995E+03  0.27585797586E+04  0.26888202264E+04 0.  0.
        3    1    3    3  502    0  0.78072718602E+03  0.78229733250E+03  0.47708560756E+03  0.12038001257E+04  0.10100000352E+00 0. -1.
       -3    1    3    3    0  502 -0.78072718602E+03 -0.78229733250E+03 -0.10935335575E+04  0.15547796330E+04  0.10100000352E+00 0.  1.
</event>
<event>
 5   0  0.7600052E-06  0.2658451E+04  0.7818609E-02  0.8348614E-01
        1   -1    0    0  501    0  0.00000000000E+00  0.00000000000E+00  0.15648913724E+04  0.15648913724E+04  0.50400001928E-02 0.  1.
       -1   -1    0    0    0  501  0.00000000000E+00  0.00000000000E+00 -0.11290494745E+04  0.11290494745E+04  0.50400001928E-02 0. -1.
    10030    2    1    2    0    0  0.00000000000E+00  0.00000000000E+00  0.43584189790E+03  0.26939408469E+04  0.26584505123E+04 0.  0.
        5    1    3    3  502    0  0.11468107121E+04  0.64388667526E+02  0.89580361733E+03  0.14566423448E+04  0.46999998093E+01 0.  1.
       -5    1    3    3    0  502 -0.11468107121E+04 -0.64388667526E+02 -0.45996171943E+03  0.12372985021E+04  0.46999998093E+01 0. -1.
</event>
<event>
 5   0  0.1788003E-05  0.2735438E+04  0.7818609E-02  0.8323597E-01
       -2   -1    0    0    0  501  0.00000000000E+00  0.00000000000E+00  0.89432088843E+03  0.89432088843E+03  0.25500000920E-02 0. -1.
        2   -1    0    0  501    0  0.00000000000E+00  0.00000000000E+00 -0.20917050039E+04  0.20917050039E+04  0.25500000920E-02 0.  1.
    10030    2    1    2    0    0  0.00000000000E+00  0.00000000000E+00 -0.11973841155E+04  0.29860258923E+04  0.27354381568E+04 0.  0.
        2    1    3    3  502    0  0.32025411716E+03 -0.10707453725E+04  0.26194722940E+03  0.11479001277E+04  0.25500000920E-02 0. -1.
       -2    1    3    3    0  502 -0.32025411716E+03  0.10707453725E+04 -0.14593313449E+04  0.18381257646E+04  0.25500000920E-02 0.  1.
</event>
<event>
 5   0  0.1881699E-05  0.2693622E+04  0.7818609E-02  0.8337077E-01
        2   -1    0    0  501    0  0.00000000000E+00  0.00000000000E+00  0.11324496990E+04  0.11324496990E+04  0.25500000920E-02 0. -1.
       -2   -1    0    0    0  501  0.00000000000E+00  0.00000000000E+00 -0.16017486534E+04  0.16017486534E+04  0.25500000920E-02 0.  1.
    10030    2    1    2    0    0  0.00000000000E+00  0.00000000000E+00 -0.46929895439E+03  0.27341983525E+04  0.26936219338E+04 0.  0.
        4    1    3    3  502    0  0.55052335618E+03 -0.69192416385E+03 -0.12658580483E+04  0.15440962488E+04  0.12699999809E+01 0.  1.
       -4    1    3    3    0  502 -0.55052335618E+03  0.69192416385E+03  0.79655909390E+03  0.11901021037E+04  0.12699999809E+01 0. -1.
</event>
<event>
 5   0  0.7351590E-06  0.2733221E+04  0.7818609E-02  0.8324306E-01
       -1   -1    0    0    0  501  0.00000000000E+00  0.00000000000E+00  0.13847852607E+04  0.13847852607E+04  0.50400001928E-02 0. -1.
        1   -1    0    0  501    0  0.00000000000E+00  0.00000000000E+00 -0.13486740684E+04  0.13486740684E+04  0.50400001928E-02 0.  1.
    10030    2    1    2    0    0  0.00000000000E+00  0.00000000000E+00  0.36111192359E+02  0.27334593291E+04  0.27332207898E+04 0.  0.
        3    1    3    3  502    0 -0.11880118085E+04  0.35340236867E+03  0.59374345481E+03  0.13743349634E+04  0.10100000352E+00 0. -1.
       -3    1    3    3    0  502  0.11880118085E+04 -0.35340236867E+03 -0.55763226245E+03  0.13591243657E+04  0.10100000352E+00 0.  1.
</event>
<event>
 5   0  0.1788003E-05  0.2700215E+04  0.7818609E-02  0.8334935E-01
        2   -1    0    0  501    0  0.00000000000E+00  0.00000000000E+00  0.19871474566E+04  0.19871474566E+04  0.25500000920E-02 0.  1.
       -2   -1    0    0    0  501  0.00000000000E+00  0.00000000000E+00 -0.91728965511E+03  0.91728965511E+03  0.25500000920E-02 0. -1.
    10030    2    1    2    0    0  0.00000000000E+00  0.00000000000E+00  0.10698578015E+04  0.29044371117E+04  0.27002146619E+04 0.  0.
        2    1    3    3  502    0 -0.96568276700E+01  0.42484129218E+03 -0.84347838514E+03  0.94447824966E+03  0.25500000920E-02 0. -1.
       -2    1    3    3    0  502  0.96568276700E+01 -0.42484129218E+03  0.19133361866E+04  0.19599588620E+04  0.25500000920E-02 0.  1.
</event>
<event>
 5   0  0.1881699E-05  0.2696001E+04  0.7818609E-02  0.8336304E-01
       -2   -1    0    0    0  501  0.00000000000E+00  0.00000000000E+00  0.10272531185E+04  0.10272531185E+04  0.25500000920E-02 0. -1.
        2   -1    0    0  501    0  0.00000000000E+00  0.00000000000E+00 -0.17688976365E+04  0.17688976365E+04  0.25500000920E-02 0.  1.
    10030    2    1    2    0    0  0.00000000000E+00  0.00000000000E+00 -0.74164451809E+03  0.27961507550E+04  0.26960011969E+04 0.  0.
        4    1    3    3  502    0 -0.36664389329E+02  0.51997015710E+03  0.91849458825E+03  0.10560999779E+04  0.12699999809E+01 0. -1.
       -4    1    3    3    0  502  0.36664389329E+02 -0.51997015710E+03 -0.16601391063E+04  0.17400507771E+04  0.12699999809E+01 0.  1.
</event>
<event>
 5   0  0.1931119E-05  0.2689123E+04  0.7818609E-02  0.8338543E-01
        2   -1    0    0  501    0  0.00000000000E+00  0.00000000000E+00  0.15549617221E+04  0.15549617221E+04  0.25500000920E-02 0. -1.
       -2   -1    0    0    0  501  0.00000000000E+00  0.00000000000E+00 -0.11626300607E+04  0.11626300607E+04  0.25500000920E-02 0.  1.
    10030    2    1    2    0    0  0.00000000000E+00  0.00000000000E+00  0.39233166145E+03  0.27175917828E+04  0.26891227130E+04 0.  0.
        3    1    3    3  502    0  0.42658548908E+03  0.12549028130E+04 -0.32255797412E+02  0.13258192547E+04  0.10100000352E+00 0.  1.
       -3    1    3    3    0  502 -0.42658548908E+03 -0.12549028130E+04  0.42458745886E+03  0.13917725281E+04  0.10100000352E+00 0. -1.
</event>
<event>
 5   0  0.7600052E-06  0.2662764E+04  0.7818609E-02  0.8347189E-01
        1   -1    0    0  501    0  0.00000000000E+00  0.00000000000E+00  0.11812763950E+04  0.11812763950E+04  0.50400001928E-02 0. -1.
       -1   -1    0    0    0  501  0.00000000000E+00  0.00000000000E+00 -0.15005621147E+04  0.15005621147E+04  0.50400001928E-02 0.  1.
    10030    2    1    2    0    0  0.00000000000E+00  0.00000000000E+00 -0.31928571974E+03  0.26818385098E+04  0.26627644322E+04 0.  0.
        5    1    3    3  502    0 -0.55012520234E+03 -0.11450717565E+04 -0.56090541152E+03  0.13886914836E+04  0.46999998093E+01 0.  1.
       -5    1    3    3    0  502  0.55012520234E+03  0.11450717565E+04  0.24161969179E+03  0.12931470262E+04  0.46999998093E+01 0. -1.
</event>
<event>
 5   0  0.1788003E-05  0.2668919E+04  0.7818609E-02  0.8345161E-01
       -2   -1    0    0    0  501  0.00000000000E+00  0.00000000000E+00  0.83940647232E+03  0.83940647233E+03  0.25500000920E-02 0. -1.
        2   -1    0    0  501    0  0.00000000000E+00  0.00000000000E+00 -0.21214774422E+04  0.21214774422E+04  0.25500000920E-02 0.  1.
    10030    2    1    2    0    0  0.00000000000E+00  0.00000000000E+00 -0.12820709699E+04  0.29608839145E+04  0.26689188042E+04 0.  0.
        2    1    3    3  502    0 -0.12520142078E+04 -0.25144216680E+03 -0.21134139734E+03  0.12943832223E+04  0.25500000920E-02 0. -1.
       -2    1    3    3    0  502  0.12520142078E+04  0.25144216680E+03 -0.10707295725E+04  0.16665006923E+04  0.25500000920E-02 0.  1.
</event>
<event>
 5   0  0.6175875E-06  0.2692820E+04  0.7818609E-02  0.8337338E-01
        3   -1    0    0  501    0  0.00000000000E+00  0.00000000000E+00  0.10884924014E+04  0.10884924061E+04  0.10100000352E+00 0. -1.
       -3   -1    0    0    0  501  0.00000000000E+00  0.00000000000E+00 -0.16654414420E+04  0.16654414451E+04  0.10100000352E+00 0.  1.
    10030    2    1    2    0    0  0.00000000000E+00  0.00000000000E+00 -0.57694904060E+03  0.27539338512E+04  0.26928203545E+04 0.  0.
        5    1    3    3  502    0  0.37377350763E+03 -0.36620897526E+03  0.98023728690E+03  0.11111718486E+04  0.46999998093E+01 0. -1.
       -5    1    3    3    0  502 -0.37377350763E+03  0.36620897526E+03 -0.15571863275E+04  0.16427620026E+04  0.46999998093E+01 0.  1.
</event>
<event>
 5   0  0.7754912E-06  0.2724367E+04  0.7818609E-02  0.8327142E-01
       -1   -1    0    0    0  501  0.00000000000E+00  0.00000000000E+00  0.10254119888E+04  0.10254119889E+04  0.50400001928E-02 0. -1.
        1   -1    0    0  501    0  0.00000000000E+00  0.00000000000E+00 -0.18095592764E+04  0.18095592764E+04  0.50400001928E-02 0.  1.
    10030    2    1    2    0    0  0.00000000000E+00  0.00000000000E+00 -0.78414728753E+03  0.28349712652E+04  0.27243669184E+04 0.  0.
        4    1    3    3  502    0  0.11509215486E+03  0.17408011296E+03 -0.17928255110E+04  0.18049307509E+04  0.12699999809E+01 0.  1.
       -4    1    3    3    0  502 -0.11509215486E+03 -0.17408011296E+03  0.10086782234E+04  0.10300405143E+04  0.12699999809E+01 0. -1.
</event>
<event>
 5   0  0.1788003E-05  0.2697061E+04  0.7818609E-02  0.8335959E-01
       -2   -1    0    0    0  501  0.00000000000E+00  0.00000000000E+00  0.13206868977E+04  0.13206868977E+04  0.25500000920E-02 0. -1.
        2   -1    0    0  501    0  0.00000000000E+00  0.00000000000E+00 -0.13769611016E+04  0.13769611016E+04  0.25500000920E-02 0.  1.
    10030    2    1    2    0    0  0.00000000000E+00  0.00000000000E+00 -0.56274203891E+02  0.26976479993E+04  0.26970609823E+04 0.  0.
        2    1    3    3  502    0  0.62375550643E+03 -0.22255161852E+03  0.11468246350E+04  0.13243137461E+04  0.25500000920E-02 0. -1.
       -2    1    3    3    0  502 -0.62375550643E+03  0.22255161852E+03 -0.12030988389E+04  0.13733342532E+04  0.25500000920E-02 0.  1.
</event>
<event>
 5   0  0.7600052E-06  0.2731550E+04  0.7818609E-02  0.8324840E-01
       -1   -1    0    0    0  501  0.00000000000E+00  0.00000000000E+00  0.94856220863E+03  0.94856220865E+03  0.50400001928E-02 0. -1.
        1   -1    0    0  501    0  0.00000000000E+00  0.00000000000E+00 -0.19664940974E+04  0.19664940974E+04  0.50400001928E-02 0.  1.
    10030    2    1    2    0    0  0.00000000000E+00  0.00000000000E+00 -0.10179318888E+04  0.29150563061E+04  0.27315504640E+04 0.  0.
        5    1    3    3  502    0 -0.19269152429E+03 -0.67719621993E+03  0.73995176638E+03  0.10214085619E+04  0.46999998093E+01 0. -1.
       -5    1    3    3    0  502  0.19269152429E+03  0.67719621993E+03 -0.17578836552E+04  0.18936477442E+04  0.46999998093E+01 0.  1.
</event>
<event>
 5   0  0.7600052E-06  0.2616318E+04  0.7818609E-02  0.8362679E-01
        1   -1    0    0  501    0  0.00000000000E+00  0.00000000000E+00  0.13603070191E+04  0.13603070191E+04  0.50400001928E-02 0. -1.
       -1   -1    0    0    0  501  0.00000000000E+00  0.00000000000E+00 -0.12580098465E+04  0.12580098465E+04  0.50400001928E-02 0.  1.
    10030    2    1    2    0    0  0.00000000000E+00  0.00000000000E+00  0.10229717265E+03  0.26183168656E+04  0.26163177363E+04 0.  0.
        5    1    3    3  502    0  0.14378449310E+03 -0.12097565734E+04  0.52803403602E+03  0.13277902622E+04  0.46999998093E+01 0. -1.
       -5    1    3    3    0  502 -0.14378449310E+03  0.12097565734E+04 -0.42573686337E+03  0.12905266034E+04  0.46999998093E+01 0.  1.
</event>
<event>
 5   0  0.7351590E-06  0.2705760E+04  0.7818609E-02  0.8333138E-01
        1   -1    0    0  501    0  0.00000000000E+00  0.00000000000E+00  0.25501245503E+04  0.25501245503E+04  0.50400001928E-02 0. -1.
       -1   -1    0    0    0  501  0.00000000000E+00  0.00000000000E+00 -0.71772360805E+03  0.71772360807E+03  0.50400001928E-02 0.  1.
    10030    2    1    2    0    0  0.00000000000E+00  0.00000000000E+00  0.18324009422E+04  0.32678481583E+04  0.27057602209E+04 0.  0.
        3    1    3    3  502    0  0.98974386724E+03  0.86454824718E+03  0.52812753103E+03  0.14163175116E+04  0.10100000352E+00 0.  1.
       -3    1    3    3    0  502 -0.98974386724E+03 -0.86454824718E+03  0.13042734112E+04  0.18515306467E+04  0.10100000352E+00 0. -1.
</event>
<event>
 5   0  0.6804685E-06  0.2756969E+04  0.7818609E-02  0.8316754E-01
        1   -1    0    0  501    0  0.00000000000E+00  0.00000000000E+00  0.11945200806E+04  0.11945200806E+04  0.50400001928E-02 0.  1.
       -1   -1    0    0    0  501  0.00000000000E+00  0.00000000000E+00 -0.15907809525E+04  0.15907809525E+04  0.50400001928E-02 0. -1.
    10030    2    1    2    0    0  0.00000000000E+00  0.00000000000E+00 -0.39626087191E+03  0.27853010332E+04  0.27569691994E+04 0.  0.
        2    1    3    3  502    0 -0.57346093799E+03  0.56685742300E+03  0.93140878013E+03  0.12319525564E+04  0.25500000920E-02 0.  1.
       -2    1    3    3    0  502  0.57346093799E+03 -0.56685742300E+03 -0.13276696520E+04  0.15533484768E+04  0.25500000920E-02 0. -1.
</event>
<event>
 5   0  0.1826851E-05  0.2696942E+04  0.7818609E-02  0.8335998E-01
        2   -1    0    0  501    0  0.00000000000E+00  0.00000000000E+00  0.14986441734E+04  0.14986441734E+04  0.25500000920E-02 0. -1.
       -2   -1    0    0    0  501  0.00000000000E+00  0.00000000000E+00 -0.12133465205E+04  0.12133465205E+04  0.25500000920E-02 0.  1.
    10030    2    1    2    0    0  0.00000000000E+00  0.00000000000E+00  0.28529765291E+03  0.27119906940E+04  0.26969424861E+04 0.  0.
        5    1    3    3  502    0 -0.45386072633E+03  0.12562999044E+04 -0.42971480636E+02  0.13364683486E+04  0.46999998093E+01 0.  1.
       -5    1    3    3    0  502  0.45386072633E+03 -0.12562999044E+04  0.32826913354E+03  0.13755223454E+04  0.46999998093E+01 0. -1.
</event>
<event>
 5   0  0.7754912E-06  0.2716081E+04  0.7818609E-02  0.8329806E-01
        1   -1    0    0  501    0  0.00000000000E+00  0.00000000000E+00  0.21452606906E+04  0.21452606906E+04  0.50400001928E-02 0. -1.
       -1   -1    0    0    0  501  0.00000000000E+00  0.00000000000E+00 -0.85969716214E+03  0.85969716216E+03  0.50400001928E-02 0.  1.
    10030    2    1    2    0    0  0.00000000000E+00  0.00000000000E+00  0.12855635285E+04  0.30049578528E+04  0.27160813889E+04 0.  0.
        4    1    3    3  502    0  0.92760765074E+03 -0.16492505017E+03  0.17248747502E+04  0.19654136314E+04  0.12699999809E+01 0. -1.
       -4    1    3    3    0  502 -0.92760765074E+03  0.16492505017E+03 -0.43931122166E+03  0.10395442214E+04  0.12699999809E+01 0.  1.
</event>
<event>
 5   0  0.7600052E-06  0.2689706E+04  0.7818609E-02  0.8338353E-01
       -1   -1    0    0    0  501  0.00000000000E+00  0.00000000000E+00  0.11456448189E+04  0.11456448189E+04  0.50400001928E-02 0. -1.
        1   -1    0    0  501    0  0.00000000000E+00  0.00000000000E+00 -0.15787005026E+04  0.15787005027E+04  0.50400001928E-02 0.  1.
    10030    2    1    2    0    0  0.00000000000E+00  0.00000000000E+00 -0.43305568376E+03  0.27243453215E+04  0.26897063419E+04 0.  0.
        5    1    3    3  502    0 -0.96694735521E+03  0.11994523865E+03  0.72235843937E+03  0.12129294509E+04  0.46999998093E+01 0. -1.
       -5    1    3    3    0  502  0.96694735521E+03 -0.11994523865E+03 -0.11554141231E+04  0.15114158706E+04  0.46999998093E+01 0.  1.
</event>
<event>
 5   0  0.1788003E-05  0.2711136E+04  0.7818609E-02  0.8331401E-01
       -2   -1    0    0    0  501  0.00000000000E+00  0.00000000000E+00  0.16777862779E+04  0.16777862779E+04  0.25500000920E-02 0. -1.
        2   -1    0    0  501    0  0.00000000000E+00  0.00000000000E+00 -0.10952316979E+04  0.10952316979E+04  0.25500000920E-02 0.  1.
    10030    2    1    2    0    0  0.00000000000E+00  0.00000000000E+00  0.58255458002E+03  0.27730179758E+04  0.27111360821E+04 0.  0.
        2    1    3    3  502    0 -0.53275623206E+03  0.80030513370E+03 -0.68617494389E+03  0.11811661879E+04  0.25500000920E-02 0.  1.
       -2    1    3    3    0  502  0.53275623206E+03 -0.80030513370E+03  0.12687295239E+04  0.15918517879E+04  0.25500000920E-02 0. -1.
</event>
<event>
 5   0  0.6804685E-06  0.2615617E+04  0.7818609E-02  0.8362916E-01
       -1   -1    0    0    0  501  0.00000000000E+00  0.00000000000E+00  0.10316670433E+04  0.10316670433E+04  0.50400001928E-02 0.  1.
        1   -1    0    0  501    0  0.00000000000E+00  0.00000000000E+00 -0.16578635289E+04  0.16578635289E+04  0.50400001928E-02 0. -1.
    10030    2    1    2    0    0  0.00000000000E+00  0.00000000000E+00 -0.62619648552E+03  0.26895305722E+04  0.26156170707E+04 0.  0.
        2    1    3    3  502    0 -0.17780753131E+03 -0.24227352256E+03  0.99568188033E+03  0.10400453763E+04  0.25500000920E-02 0.  1.
       -2    1    3    3    0  502  0.17780753131E+03  0.24227352256E+03 -0.16218783659E+04  0.16494851959E+04  0.25500000920E-02 0. -1.
</event>
<event>
 5   0  0.1826851E-05  0.2698058E+04  0.7818609E-02  0.8335635E-01
        2   -1    0    0  501    0  0.00000000000E+00  0.00000000000E+00  0.15412174857E+04  0.15412174857E+04  0.25500000920E-02 0. -1.
       -2   -1    0    0    0  501  0.00000000000E+00  0.00000000000E+00 -0.11808063345E+04  0.11808063345E+04  0.25500000920E-02 0.  1.
    10030    2    1    2    0    0  0.00000000000E+00  0.00000000000E+00  0.36041115119E+03  0.27220238201E+04  0.26980580942E+04 0.  0.
        5    1    3    3  502    0  0.35341699276E+03  0.19787751246E+03  0.14784137150E+04  0.15329019158E+04  0.46999998093E+01 0. -1.
       -5    1    3    3    0  502 -0.35341699276E+03 -0.19787751246E+03 -0.11180025638E+04  0.11891219044E+04  0.46999998093E+01 0.  1.
</event>
<event>
 5   0  0.7348964E-06  0.2697699E+04  0.7818609E-02  0.8335752E-01
        1   -1    0    0  501    0  0.00000000000E+00  0.00000000000E+00  0.17336763244E+04  0.17336763244E+04  0.50400001928E-02 0.  1.
       -1   -1    0    0    0  501  0.00000000000E+00  0.00000000000E+00 -0.10494432324E+04  0.10494432324E+04  0.50400001928E-02 0. -1.
    10030    2    1    2    0    0  0.00000000000E+00  0.00000000000E+00  0.68423309194E+03  0.27831195568E+04  0.26976989349E+04 0.  0.
        1    1    3    3  502    0 -0.44555152503E+03 -0.65396321296E+03  0.14690466430E+04  0.16686168178E+04  0.50400001928E-02 0.  1.
       -1    1    3    3    0  502  0.44555152503E+03  0.65396321296E+03 -0.78481355104E+03  0.11145027390E+04  0.50400001928E-02 0. -1.
</event>
<event>
 5   0  0.1931119E-05  0.2700812E+04  0.7818609E-02  0.8334742E-01
        2   -1    0    0  501    0  0.00000000000E+00  0.00000000000E+00  0.15766917254E+04  0.15766917254E+04  0.25500000920E-02 0.  1.
       -2   -1    0    0    0  501  0.00000000000E+00  0.00000000000E+00 -0.11565964655E+04  0.11565964655E+04  0.25500000920E-02 0. -1.
    10030    2    1    2    0    0  0.00000000000E+00  0.00000000000E+00  0.42009525995E+03  0.27332881909E+04  0.27008117867E+04 0.  0.
        3    1    3    3  502    0 -0.12513373923E+03 -0.37744656719E+03  0.15160974205E+04  0.15673786276E+04  0.10100000352E+00 0.  1.
       -3    1    3    3    0  502  0.12513373923E+03  0.37744656719E+03 -0.10960021605E+04  0.11659095633E+04  0.10100000352E+00 0. -1.
</event>
<event>
 5   0  0.1826851E-05  0.2697222E+04  0.7818609E-02  0.8335907E-01
       -2   -1    0    0    0  501  0.00000000000E+00  0.00000000000E+00  0.10790996236E+04  0.10790996236E+04  0.25500000920E-02 0. -1.
        2   -1    0    0  501    0  0.00000000000E+00  0.00000000000E+00 -0.16854342397E+04  0.16854342397E+04  0.25500000920E-02 0.  1.
    10030    2    1    2    0    0  0.00000000000E+00  0.00000000000E+00 -0.60633461607E+03  0.27645338633E+04  0.26972218697E+04 0.  0.
        5    1    3    3  502    0 -0.62777038725E+03  0.41836556884E+03  0.84258683749E+03  0.11309730664E+04  0.46999998093E+01 0. -1.
       -5    1    3    3    0  502  0.62777038725E+03 -0.41836556884E+03 -0.14489214536E+04  0.16335607968E+04  0.46999998093E+01 0.  1.
</event>
<event>
 5   0  0.7348964E-06  0.2707594E+04  0.7818609E-02  0.8332545E-01
        1   -1    0    0  501    0  0.00000000000E+00  0.00000000000E+00  0.99290558494E+03  0.99290558496E+03  0.50400001928E-02 0. -1.
       -1   -1    0    0    0  501  0.00000000000E+00  0.00000000000E+00 -0.18458609700E+04  0.18458609700E+04  0.50400001928E-02 0.  1.
    10030    2    1    2    0    0  0.00000000000E+00  0.00000000000E+00 -0.85295538504E+03  0.28387665549E+04  0.27075935191E+04 0.  0.
        1    1    3    3  502    0  0.98282834899E+02 -0.82611970854E+03  0.69326712637E+03  0.10829370236E+04  0.50400001928E-02 0. -1.
       -1    1    3    3    0  502 -0.98282834899E+02  0.82611970854E+03 -0.15462225114E+04  0.17558295314E+04  0.50400001928E-02 0.  1.
</event>
<event>
 5   0  0.1788003E-05  0.2705493E+04  0.7818609E-02  0.8333225E-01
        2   -1    0    0  501    0  0.00000000000E+00  0.00000000000E+00  0.20681614747E+04  0.20681614747E+04  0.25500000920E-02 0.  1.
       -2   -1    0    0    0  501  0.00000000000E+00  0.00000000000E+00 -0.88480689766E+03  0.88480689766E+03  0.25500000920E-02 0. -1.
    10030    2    1    2    0    0  0.00000000000E+00  0.00000000000E+00  0.11833545770E+04  0.29529683723E+04  0.27054933290E+04 0.  0.
        2    1    3    3  502    0 -0.73127069949E+03  0.86555895273E+03  0.13981663263E+04  0.17996716958E+04  0.25500000920E-02 0.  1.
       -2    1    3    3    0  502  0.73127069949E+03 -0.86555895273E+03 -0.21481174926E+03  0.11532966766E+04  0.25500000920E-02 0. -1.
</event>
<event>
 5   0  0.1826851E-05  0.2680787E+04  0.7818609E-02  0.8341266E-01
        2   -1    0    0  501    0  0.00000000000E+00  0.00000000000E+00  0.17987687269E+04  0.17987687269E+04  0.25500000920E-02 0. -1.
       -2   -1    0    0    0  501  0.00000000000E+00  0.00000000000E+00 -0.99882472485E+03  0.99882472485E+03  0.25500000920E-02 0.  1.
    10030    2    1    2    0    0  0.00000000000E+00  0.00000000000E+00  0.79994400202E+03  0.27975934517E+04  0.26807869581E+04 0.  0.
        5    1    3    3  502    0  0.63867734049E+03 -0.86914447711E+03  0.12304556070E+04  0.16362652469E+04  0.46999998093E+01 0.  1.
       -5    1    3    3    0  502 -0.63867734049E+03  0.86914447711E+03 -0.43051160498E+03  0.11613282048E+04  0.46999998093E+01 0. -1.
</event>
<event>
 5   0  0.6804685E-06  0.2690546E+04  0.7818609E-02  0.8338079E-01
        1   -1    0    0  501    0  0.00000000000E+00  0.00000000000E+00  0.20617876855E+04  0.20617876855E+04  0.50400001928E-02 0.  1.
       -1   -1    0    0    0  501  0.00000000000E+00  0.00000000000E+00 -0.87776214231E+03  0.87776214233E+03  0.50400001928E-02 0. -1.
    10030    2    1    2    0    0  0.00000000000E+00  0.00000000000E+00  0.11840255432E+04  0.29395498278E+04  0.26905458003E+04 0.  0.
        2    1    3    3  502    0 -0.15324018848E+03 -0.51979194883E+03  0.19372638570E+04  0.20116305518E+04  0.25500000920E-02 0.  1.
       -2    1    3    3    0  502  0.15324018848E+03  0.51979194883E+03 -0.75323831379E+03  0.92791927602E+03  0.25500000920E-02 0. -1.
</event>
<event>
 5   0  0.1826851E-05  0.2646884E+04  0.7818609E-02  0.8352448E-01
        2   -1    0    0  501    0  0.00000000000E+00  0.00000000000E+00  0.14463216819E+04  0.14463216819E+04  0.25500000920E-02 0.  1.
       -2   -1    0    0    0  501  0.00000000000E+00  0.00000000000E+00 -0.12110018588E+04  0.12110018588E+04  0.25500000920E-02 0. -1.
    10030    2    1    2    0    0  0.00000000000E+00  0.00000000000E+00  0.23531982314E+03  0.26573235407E+04  0.26468836357E+04 0.  0.
        5    1    3    3  502    0  0.11007604567E+04 -0.50412911018E+03 -0.41891649750E+03  0.12811451380E+04  0.46999998093E+01 0. -1.
       -5    1    3    3    0  502 -0.11007604567E+04  0.50412911018E+03  0.65423632064E+03  0.13761784027E+04  0.46999998093E+01 0.  1.
</event>
<event>
 5   0  0.7754912E-06  0.2704076E+04  0.7818609E-02  0.8333684E-01
        1   -1    0    0  501    0  0.00000000000E+00  0.00000000000E+00  0.15496537357E+04  0.15496537357E+04  0.50400001928E-02 0.  1.
       -1   -1    0    0    0  501  0.00000000000E+00  0.00000000000E+00 -0.11796223147E+04  0.11796223147E+04  0.50400001928E-02 0. -1.
    10030    2    1    2    0    0  0.00000000000E+00  0.00000000000E+00  0.37003142101E+03  0.27292760503E+04  0.27040755364E+04 0.  0.
        4    1    3    3  502    0 -0.49835176034E+03 -0.89466913038E+03 -0.70594367223E+03  0.12438430010E+04  0.12699999809E+01 0. -1.
       -4    1    3    3    0  502  0.49835176034E+03  0.89466913038E+03  0.10759750932E+04  0.14854330493E+04  0.12699999809E+01 0.  1.
</event>
<event>
 5   0  0.7600052E-06  0.2495286E+04  0.7818609E-02  0.8404667E-01
        1   -1    0    0  501    0  0.00000000000E+00  0.00000000000E+00  0.11650865734E+04  0.11650865734E+04  0.50400001928E-02 0.  1.
       -1   -1    0    0    0  501  0.00000000000E+00  0.00000000000E+00 -0.13360493161E+04  0.13360493161E+04  0.50400001928E-02 0. -1.
    10030    2    1    2    0    0  0.00000000000E+00  0.00000000000E+00 -0.17096274275E+03  0.25011358896E+04  0.24952860515E+04 0.  0.
        5    1    3    3  502    0 -0.41862391963E+03 -0.12061568948E+03 -0.12573230532E+04  0.13306680580E+04  0.46999998093E+01 0. -1.
       -5    1    3    3    0  502  0.41862391963E+03  0.12061568948E+03  0.10863603104E+04  0.11704678315E+04  0.46999998093E+01 0.  1.
</event>
<event>
 5   0  0.7600052E-06  0.2698235E+04  0.7818609E-02  0.8335578E-01
        1   -1    0    0  501    0  0.00000000000E+00  0.00000000000E+00  0.10940917765E+04  0.10940917765E+04  0.50400001928E-02 0. -1.
       -1   -1    0    0    0  501  0.00000000000E+00  0.00000000000E+00 -0.16635876084E+04  0.16635876084E+04  0.50400001928E-02 0.  1.
    10030    2    1    2    0    0  0.00000000000E+00  0.00000000000E+00 -0.56949583189E+03  0.27576793849E+04  0.26982346242E+04 0.  0.
        5    1    3    3  502    0  0.98876818858E+02  0.10493497122E+04  0.57593567342E+03  0.12010975955E+04  0.46999998093E+01 0. -1.
       -5    1    3    3    0  502 -0.98876818858E+02 -0.10493497122E+04 -0.11454315053E+04  0.15565817894E+04  0.46999998093E+01 0.  1.
</event>
<event>
 5   0  0.1931119E-05  0.2711021E+04  0.7818609E-02  0.8331438E-01
        2   -1    0    0  501    0  0.00000000000E+00  0.00000000000E+00  0.70082281793E+03  0.70082281794E+03  0.25500000920E-02 0.  1.
       -2   -1    0    0    0  501  0.00000000000E+00  0.00000000000E+00 -0.26217879919E+04  0.26217879919E+04  0.25500000920E-02 0. -1.
    10030    2    1    2    0    0  0.00000000000E+00  0.00000000000E+00 -0.19209651740E+04  0.33226108099E+04  0.27110210981E+04 0.  0.
        3    1    3    3  502    0 -0.73575888771E+03  0.26075911396E+03  0.39770125230E+03  0.87607234441E+03  0.10100000352E+00 0.  1.
       -3    1    3    3    0  502  0.73575888771E+03 -0.26075911396E+03 -0.23186664263E+04  0.24465384655E+04  0.10100000352E+00 0. -1.
</event>
<event>
 5   0  0.7600052E-06  0.2272656E+04  0.7818609E-02  0.8488781E-01
       -1   -1    0    0    0  501  0.00000000000E+00  0.00000000000E+00  0.19260933983E+04  0.19260933983E+04  0.50400001928E-02 0. -1.
        1   -1    0    0  501    0  0.00000000000E+00  0.00000000000E+00 -0.67039374545E+03  0.67039374547E+03  0.50400001928E-02 0.  1.
    10030    2    1    2    0    0  0.00000000000E+00  0.00000000000E+00  0.12556996528E+04  0.25964871438E+04  0.22726556865E+04 0.  0.
        5    1    3    3  502    0  0.95555342666E+03 -0.47030653845E+03  0.17523286850E+03  0.10793513050E+04  0.46999998093E+01 0. -1.
       -5    1    3    3    0  502 -0.95555342666E+03  0.47030653845E+03  0.10804667844E+04  0.15171358388E+04  0.46999998093E+01 0.  1.
</event>
<event>
 5   0  0.7600052E-06  0.2315839E+04  0.7818609E-02  0.8471702E-01
       -1   -1    0    0    0  501  0.00000000000E+00  0.00000000000E+00  0.12878294526E+04  0.12878294526E+04  0.50400001928E-02 0. -1.
        1   -1    0    0  501    0  0.00000000000E+00  0.00000000000E+00 -0.10411138844E+04  0.10411138844E+04  0.50400001928E-02 0.  1.
    10030    2    1    2    0    0  0.00000000000E+00  0.00000000000E+00  0.24671556819E+03  0.23289433370E+04  0.23158386160E+04 0.  0.
        5    1    3    3  502    0  0.74742506950E+02 -0.79314806529E+03  0.96840124041E+03  0.12539909682E+04  0.46999998093E+01 0. -1.
       -5    1    3    3    0  502 -0.74742506950E+02  0.79314806529E+03 -0.72168567222E+03  0.10749523689E+04  0.46999998093E+01 0.  1.
</event>
<event>
 5   0  0.1931119E-05  0.2713321E+04  0.7818609E-02  0.8330696E-01
       -2   -1    0    0    0  501  0.00000000000E+00  0.00000000000E+00  0.70984091076E+03  0.70984091076E+03  0.25500000920E-02 0. -1.
        2   -1    0    0  501    0  0.00000000000E+00  0.00000000000E+00 -0.25928740706E+04  0.25928740706E+04  0.25500000920E-02 0.  1.
    10030    2    1    2    0    0  0.00000000000E+00  0.00000000000E+00 -0.18830331598E+04  0.33027149813E+04  0.27133212797E+04 0.  0.
        3    1    3    3  502    0  0.25295049773E+03  0.10514208988E+03 -0.25588606351E+04  0.25734814111E+04  0.10100000352E+00 0.  1.
       -3    1    3    3    0  502 -0.25295049773E+03 -0.10514208988E+03  0.67582747528E+03  0.72923357020E+03  0.10100000352E+00 0. -1.
</event>
<event>
 5   0  0.1878160E-05  0.2703484E+04  0.7818609E-02  0.8333876E-01
        2   -1    0    0  501    0  0.00000000000E+00  0.00000000000E+00  0.14751103151E+04  0.14751103151E+04  0.25500000920E-02 0.  1.
       -2   -1    0    0    0  501  0.00000000000E+00  0.00000000000E+00 -0.12386910661E+04  0.12386910661E+04  0.25500000920E-02 0. -1.
    10030    2    1    2    0    0  0.00000000000E+00  0.00000000000E+00  0.23641924900E+03  0.27138013813E+04  0.27034836555E+04 0.  0.
        1    1    3    3  502    0 -0.73740775694E+03 -0.54259577761E+03 -0.88008348942E+03  0.12699320164E+04  0.50400001928E-02 0. -1.
       -1    1    3    3    0  502  0.73740775694E+03  0.54259577761E+03  0.11165027384E+04  0.14438693649E+04  0.50400001928E-02 0.  1.
</event>
<event>
 5   0  0.1881699E-05  0.2700126E+04  0.7818609E-02  0.8334964E-01
       -2   -1    0    0    0  501  0.00000000000E+00  0.00000000000E+00  0.11223297028E+04  0.11223297028E+04  0.25500000920E-02 0. -1.
        2   -1    0    0  501    0  0.00000000000E+00  0.00000000000E+00 -0.16240062960E+04  0.16240062960E+04  0.25500000920E-02 0.  1.
    10030    2    1    2    0    0  0.00000000000E+00  0.00000000000E+00 -0.50167659321E+03  0.27463359988E+04  0.27001262959E+04 0.  0.
        4    1    3    3  502    0  0.95447195368E+03  0.16999010066E+03  0.70479179927E+03  0.11986018680E+04  0.12699999809E+01 0. -1.
       -4    1    3    3    0  502 -0.95447195368E+03 -0.16999010066E+03 -0.12064683925E+04  0.15477341308E+04  0.12699999809E+01 0.  1.
</event>
<event>
 5   0  0.6804685E-06  0.2776661E+04  0.7818609E-02  0.8310551E-01
       -1   -1    0    0    0  501  0.00000000000E+00  0.00000000000E+00  0.87824456228E+03  0.87824456230E+03  0.50400001928E-02 0. -1.
        1   -1    0    0  501    0  0.00000000000E+00  0.00000000000E+00 -0.21946753485E+04  0.21946753485E+04  0.50400001928E-02 0.  1.
    10030    2    1    2    0    0  0.00000000000E+00  0.00000000000E+00 -0.13164307862E+04  0.30729199108E+04  0.27766610818E+04 0.  0.
        2    1    3    3  502    0  0.11205108841E+04 -0.38886318984E+03 -0.14568041411E+04  0.18785732691E+04  0.25500000920E-02 0.  1.
       -2    1    3    3    0  502 -0.11205108841E+04  0.38886318984E+03  0.14037335493E+03  0.11943466417E+04  0.25500000920E-02 0. -1.
</event>
<event>
 5   0  0.1826851E-05  0.2737941E+04  0.7818609E-02  0.8322798E-01
       -2   -1    0    0    0  501  0.00000000000E+00  0.00000000000E+00  0.15748270790E+04  0.15748270790E+04  0.25500000920E-02 0.  1.
        2   -1    0    0  501    0  0.00000000000E+00  0.00000000000E+00 -0.11900232463E+04  0.11900232463E+04  0.25500000920E-02 0. -1.
    10030    2    1    2    0    0  0.00000000000E+00  0.00000000000E+00  0.38480383265E+03  0.27648503253E+04  0.27379414406E+04 0.  0.
        5    1    3    3  502    0 -0.12069848136E+04 -0.44528196379E+03  0.66494363035E+03  0.14481921451E+04  0.46999998093E+01 0.  1.
       -5    1    3    3    0  502  0.12069848136E+04  0.44528196379E+03 -0.28013979770E+03  0.13166581803E+04  0.46999998093E+01 0. -1.
</event>
<event>
 5   0  0.7754912E-06  0.2746289E+04  0.7818609E-02  0.8320140E-01
        1   -1    0    0  501    0  0.00000000000E+00  0.00000000000E+00  0.19438907816E+04  0.19438907816E+04  0.50400001928E-02 0. -1.
       -1   -1    0    0    0  501  0.00000000000E+00  0.00000000000E+00 -0.96997508390E+03  0.96997508392E+03  0.50400001928E-02 0.  1.
    10030    2    1    2    0    0  0.00000000000E+00  0.00000000000E+00  0.97391569772E+03  0.29138658655E+04  0.27462888588E+04 0.  0.
        4    1    3    3  502    0  0.12643385063E+04 -0.17995177237E+03 -0.48399286536E+02  0.12779978884E+04  0.12699999809E+01 0.  1.
       -4    1    3    3    0  502 -0.12643385063E+04  0.17995177237E+03  0.10223149843E+04  0.16358679772E+04  0.12699999809E+01 0. -1.
</event>
<event>
 5   0  0.1878160E-05  0.2686479E+04  0.7818609E-02  0.8339405E-01
       -2   -1    0    0    0  501  0.00000000000E+00  0.00000000000E+00  0.87024110963E+03  0.87024110964E+03  0.25500000920E-02 0. -1.
        2   -1    0    0  501    0  0.00000000000E+00  0.00000000000E+00 -0.20733248213E+04  0.20733248213E+04  0.25500000920E-02 0.  1.
    10030    2    1    2    0    0  0.00000000000E+00  0.00000000000E+00 -0.12030837117E+04  0.29435659310E+04  0.26864791033E+04 0.  0.
        1    1    3    3  502    0 -0.12021163911E+04  0.48772051561E+03 -0.98321147961E+03  0.16277776054E+04  0.50400001928E-02 0.  1.
       -1    1    3    3    0  502  0.12021163911E+04 -0.48772051561E+03 -0.21987223207E+03  0.13157883255E+04  0.50400001928E-02 0. -1.
</event>
<event>
 5   0  0.6175875E-06  0.2418208E+04  0.7818609E-02  0.8432718E-01
        4   -1    0    0  501    0  0.00000000000E+00  0.00000000000E+00  0.15723162376E+04  0.15723167505E+04  0.12699999809E+01 0.  1.
       -4   -1    0    0    0  501  0.00000000000E+00  0.00000000000E+00 -0.92979408463E+03  0.92979495198E+03  0.12699999809E+01 0. -1.
    10030    2    1    2    0    0  0.00000000000E+00  0.00000000000E+00  0.64252215292E+03  0.25021117024E+04  0.24182076533E+04 0.  0.
        4    1    3    3  502    0 -0.63957499407E+03  0.62106881108E+03  0.11663922765E+04  0.14680787434E+04  0.12699999809E+01 0.  1.
       -4    1    3    3    0  502  0.63957499407E+03 -0.62106881108E+03 -0.52387012359E+03  0.10340329591E+04  0.12699999809E+01 0. -1.
</event>
<event>
 5   0  0.1788003E-05  0.2576754E+04  0.7818609E-02  0.8376140E-01
        2   -1    0    0  501    0  0.00000000000E+00  0.00000000000E+00  0.30217263403E+04  0.30217263403E+04  0.25500000920E-02 0.  1.
       -2   -1    0    0    0  501  0.00000000000E+00  0.00000000000E+00 -0.54932699966E+03  0.54932699966E+03  0.25500000920E-02 0. -1.
    10030    2    1    2    0    0  0.00000000000E+00  0.00000000000E+00  0.24723993406E+04  0.35710533400E+04  0.25767544426E+04 0.  0.
        2    1    3    3  502    0 -0.10607065652E+03  0.12809247360E+04  0.13593529959E+04  0.18707912046E+04  0.25500000920E-02 0.  1.
       -2    1    3    3    0  502  0.10607065652E+03 -0.12809247360E+04  0.11130463447E+04  0.17002621354E+04  0.25500000920E-02 0. -1.
</event>
<event>
 5   0  0.7348964E-06  0.2633715E+04  0.7818609E-02  0.8356838E-01
       -1   -1    0    0    0  501  0.00000000000E+00  0.00000000000E+00  0.14705492760E+04  0.14705492760E+04  0.50400001928E-02 0. -1.
        1   -1    0    0  501    0  0.00000000000E+00  0.00000000000E+00 -0.11792284984E+04  0.11792284984E+04  0.50400001928E-02 0.  1.
    10030    2    1    2    0    0  0.00000000000E+00  0.00000000000E+00  0.29132077754E+03  0.26497777744E+04  0.26337149539E+04 0.  0.
        1    1    3    3  502    0 -0.43686829373E+03 -0.60690833168E+03 -0.94488864843E+03  0.12049921938E+04  0.50400001928E-02 0.  1.
       -1    1    3    3    0  502  0.43686829373E+03  0.60690833168E+03  0.12362094260E+04  0.14447855806E+04  0.50400001928E-02 0. -1.
</event>
<event>
 5   0  0.7754912E-06  0.2726663E+04  0.7818609E-02  0.8326405E-01
       -1   -1    0    0    0  501  0.00000000000E+00  0.00000000000E+00  0.91235958824E+03  0.91235958825E+03  0.50400001928E-02 0. -1.
        1   -1    0    0  501    0  0.00000000000E+00  0.00000000000E+00 -0.20372149738E+04  0.20372149738E+04  0.50400001928E-02 0.  1.
    10030    2    1    2    0    0  0.00000000000E+00  0.00000000000E+00 -0.11248553856E+04  0.29495745621E+04  0.27266628796E+04 0.  0.
        4    1    3    3  502    0  0.10827083464E+04 -0.62744264470E+03  0.22848797516E+02  0.12515851214E+04  0.12699999809E+01 0. -1.
       -4    1    3    3    0  502 -0.10827083464E+04  0.62744264470E+03 -0.11477041831E+04  0.16979894407E+04  0.12699999809E+01 0.  1.
</event>
<event>
 5   0  0.1788003E-05  0.2692956E+04  0.7818609E-02  0.8337294E-01
        2   -1    0    0  501    0  0.00000000000E+00  0.00000000000E+00  0.19404236286E+04  0.19404236286E+04  0.25500000920E-02 0. -1.
       -2   -1    0    0    0  501  0.00000000000E+00  0.00000000000E+00 -0.93433392065E+03  0.93433392065E+03  0.25500000920E-02 0.  1.
    10030    2    1    2    0    0  0.00000000000E+00  0.00000000000E+00  0.10060897079E+04  0.28747575492E+04  0.26929564546E+04 0.  0.
        2    1    3    3  502    0  0.79895025170E+03  0.25142074030E+02  0.16597300745E+04  0.18421882501E+04  0.25500000920E-02 0. -1.
       -2    1    3    3    0  502 -0.79895025170E+03 -0.25142074030E+02 -0.65364036661E+03  0.10325692991E+04  0.25500000920E-02 0.  1.
</event>
<event>
 5   0  0.1826851E-05  0.2691667E+04  0.7818609E-02  0.8337714E-01
       -2   -1    0    0    0  501  0.00000000000E+00  0.00000000000E+00  0.11806906226E+04  0.11806906226E+04  0.25500000920E-02 0. -1.
        2   -1    0    0  501    0  0.00000000000E+00  0.00000000000E+00 -0.15340747207E+04  0.15340747207E+04  0.25500000920E-02 0.  1.
    10030    2    1    2    0    0  0.00000000000E+00  0.00000000000E+00 -0.35338409814E+03  0.27147653433E+04  0.26916668717E+04 0.  0.
        5    1    3    3  502    0  0.10920662468E+04  0.74507444779E+03 -0.43084843108E+03  0.13904664975E+04  0.46999998093E+01 0. -1.
       -5    1    3    3    0  502 -0.10920662468E+04 -0.74507444779E+03  0.77464332934E+02  0.13242988458E+04  0.46999998093E+01 0.  1.
</event>
<event>
 5   0  0.7348964E-06  0.2692624E+04  0.7818609E-02  0.8337402E-01
       -1   -1    0    0    0  501  0.00000000000E+00  0.00000000000E+00  0.10472417365E+04  0.10472417365E+04  0.50400001928E-02 0. -1.
        1   -1    0    0  501    0  0.00000000000E+00  0.00000000000E+00 -0.17307900507E+04  0.17307900508E+04  0.50400001928E-02 0.  1.
    10030    2    1    2    0    0  0.00000000000E+00  0.00000000000E+00 -0.68354831428E+03  0.27780317872E+04  0.26926236857E+04 0.  0.
        1    1    3    3  502    0 -0.12387006401E+03  0.49664718256E+03 -0.16264835739E+04  0.17051249317E+04  0.50400001928E-02 0.  1.
       -1    1    3    3    0  502  0.12387006401E+03 -0.49664718256E+03  0.94293525961E+03  0.10729068555E+04  0.50400001928E-02 0. -1.
</event>
<event>
 5   0  0.6804685E-06  0.2651680E+04  0.7818609E-02  0.8350855E-01
       -1   -1    0    0    0  501  0.00000000000E+00  0.00000000000E+00  0.21521848430E+04  0.21521848430E+04  0.50400001928E-02 0.  1.
        1   -1    0    0  501    0  0.00000000000E+00  0.00000000000E+00 -0.81677557641E+03  0.81677557642E+03  0.50400001928E-02 0. -1.
    10030    2    1    2    0    0  0.00000000000E+00  0.00000000000E+00  0.13354092665E+04  0.29689604194E+04  0.26516802339E+04 0.  0.
        2    1    3    3  502    0 -0.11405047541E+04 -0.30281428642E+03  0.13445199218E+04  0.17889050859E+04  0.25500000920E-02 0.  1.
       -2    1    3    3    0  502  0.11405047541E+04  0.30281428642E+03 -0.91106552725E+01  0.11800553335E+04  0.25500000920E-02 0. -1.
</event>
<event>
 5   0  0.1881699E-05  0.2700315E+04  0.7818609E-02  0.8334903E-01
        2   -1    0    0  501    0  0.00000000000E+00  0.00000000000E+00  0.16789557024E+04  0.16789557025E+04  0.25500000920E-02 0.  1.
       -2   -1    0    0    0  501  0.00000000000E+00  0.00000000000E+00 -0.10857493566E+04  0.10857493566E+04  0.25500000920E-02 0. -1.
    10030    2    1    2    0    0  0.00000000000E+00  0.00000000000E+00  0.59320634588E+03  0.27647050590E+04  0.27003148510E+04 0.  0.
        4    1    3    3  502    0 -0.11030767157E+03  0.13033027306E+04 -0.46282147955E+02  0.13087816625E+04  0.12699999809E+01 0.  1.
       -4    1    3    3    0  502  0.11030767157E+03 -0.13033027306E+04  0.63948849383E+03  0.14559233965E+04  0.12699999809E+01 0. -1.
</event>
<event>
 5   0  0.6175875E-06  0.2693793E+04  0.7818609E-02  0.8337022E-01
        3   -1    0    0  501    0  0.00000000000E+00  0.00000000000E+00  0.12997982501E+04  0.12997982541E+04  0.10100000352E+00 0.  1.
       -3   -1    0    0    0  501  0.00000000000E+00  0.00000000000E+00 -0.13957013760E+04  0.13957013796E+04  0.10100000352E+00 0. -1.
    10030    2    1    2    0    0  0.00000000000E+00  0.00000000000E+00 -0.95903125824E+02  0.26954996337E+04  0.26937930258E+04 0.  0.
        3    1    3    3  502    0  0.13277319849E+04  0.92299663219E+02  0.15891294480E+03  0.13403897888E+04  0.10100000352E+00 0.  1.
       -3    1    3    3    0  502 -0.13277319849E+04 -0.92299663219E+02 -0.25481607063E+03  0.13551098449E+04  0.10100000352E+00 0. -1.
</event>
<event>
 5   0  0.1881699E-05  0.2759523E+04  0.7818609E-02  0.8315946E-01
       -2   -1    0    0    0  501  0.00000000000E+00  0.00000000000E+00  0.22266827981E+04  0.22266827981E+04  0.25500000920E-02 0. -1.
        2   -1    0    0  501    0  0.00000000000E+00  0.00000000000E+00 -0.85496785406E+03  0.85496785406E+03  0.25500000920E-02 0.  1.
    10030    2    1    2    0    0  0.00000000000E+00  0.00000000000E+00  0.13717149440E+04  0.30816506522E+04  0.27595233020E+04 0.  0.
        4    1    3    3  502    0 -0.85546983002E+03 -0.63262608958E+03  0.16668654052E+04  0.19774949535E+04  0.12699999809E+01 0. -1.
       -4    1    3    3    0  502  0.85546983002E+03  0.63262608958E+03 -0.29515046112E+03  0.11041556987E+04  0.12699999809E+01 0.  1.
</event>
<event>
 5   0  0.1881699E-05  0.2871929E+04  0.7818609E-02  0.8281279E-01
       -2   -1    0    0    0  501  0.00000000000E+00  0.00000000000E+00  0.12355171432E+04  0.12355171432E+04  0.25500000920E-02 0. -1.
        2   -1    0    0  501    0  0.00000000000E+00  0.00000000000E+00 -0.16689319515E+04  0.16689319515E+04  0.25500000920E-02 0.  1.
    10030    2    1    2    0    0  0.00000000000E+00  0.00000000000E+00 -0.43341480830E+03  0.29044490947E+04  0.28719289942E+04 0.  0.
        4    1    3    3  502    0  0.76375040546E+01 -0.81706817401E+03 -0.14108974085E+04  0.16304268897E+04  0.12699999809E+01 0.  1.
       -4    1    3    3    0  502 -0.76375040546E+01  0.81706817401E+03  0.97748260017E+03  0.12740222051E+04  0.12699999809E+01 0. -1.
</event>
<event>
 5   0  0.1826851E-05  0.2693353E+04  0.7818609E-02  0.8337165E-01
       -2   -1    0    0    0  501  0.00000000000E+00  0.00000000000E+00  0.78671558939E+03  0.78671558939E+03  0.25500000920E-02 0. -1.
        2   -1    0    0  501    0  0.00000000000E+00  0.00000000000E+00 -0.23052002119E+04  0.23052002119E+04  0.25500000920E-02 0.  1.
    10030    2    1    2    0    0  0.00000000000E+00  0.00000000000E+00 -0.15184846225E+04  0.30919158012E+04  0.26933525156E+04 0.  0.
        5    1    3    3  502    0  0.97998471551E+03 -0.80771625206E+03 -0.12735826972E+04  0.17985579121E+04  0.46999998093E+01 0.  1.
       -5    1    3    3    0  502 -0.97998471551E+03  0.80771625206E+03 -0.24490192526E+03  0.12933578892E+04  0.46999998093E+01 0. -1.
</event>
<event>
 5   0  0.6804685E-06  0.2718779E+04  0.7818609E-02  0.8328938E-01
        1   -1    0    0  501    0  0.00000000000E+00  0.00000000000E+00  0.17086158088E+04  0.17086158088E+04  0.50400001928E-02 0.  1.
       -1   -1    0    0    0  501  0.00000000000E+00  0.00000000000E+00 -0.10815418071E+04  0.10815418071E+04  0.50400001928E-02 0. -1.
    10030    2    1    2    0    0  0.00000000000E+00  0.00000000000E+00  0.62707400170E+03  0.27901576160E+04  0.27187787182E+04 0.  0.
        2    1    3    3  502    0 -0.60678851334E+03 -0.11280186396E+04  0.78081636814E+03  0.15000975141E+04  0.25500000920E-02 0.  1.
       -2    1    3    3    0  502  0.60678851334E+03  0.11280186396E+04 -0.15374236645E+03  0.12900601018E+04  0.25500000920E-02 0. -1.
</event>
<event>
 5   0  0.7348964E-06  0.2586752E+04  0.7818609E-02  0.8372715E-01
       -1   -1    0    0    0  501  0.00000000000E+00  0.00000000000E+00  0.10262160356E+04  0.10262160356E+04  0.50400001928E-02 0. -1.
        1   -1    0    0  501    0  0.00000000000E+00  0.00000000000E+00 -0.16300865377E+04  0.16300865377E+04  0.50400001928E-02 0.  1.
    10030    2    1    2    0    0  0.00000000000E+00  0.00000000000E+00 -0.60387050210E+03  0.26563025733E+04  0.25867515879E+04 0.  0.
        1    1    3    3  502    0 -0.36041235923E+03 -0.41023823458E+03  0.90203424935E+03  0.10544469000E+04  0.50400001928E-02 0. -1.
       -1    1    3    3    0  502  0.36041235923E+03  0.41023823458E+03 -0.15059047515E+04  0.16018556734E+04  0.50400001928E-02 0.  1.
</event>
<event>
 5   0  0.6175875E-06  0.2651738E+04  0.7818609E-02  0.8350836E-01
        3   -1    0    0  501    0  0.00000000000E+00  0.00000000000E+00  0.22221950641E+04  0.22221950664E+04  0.10100000352E+00 0.  1.
       -3   -1    0    0    0  501  0.00000000000E+00  0.00000000000E+00 -0.79107729616E+03  0.79107730261E+03  0.10100000352E+00 0. -1.
    10030    2    1    2    0    0  0.00000000000E+00  0.00000000000E+00  0.14311177679E+04  0.30132723690E+04  0.26517376009E+04 0.  0.
        4    1    3    3  502    0  0.92057488957E+03  0.37871263647E+03 -0.27965926026E+03  0.10339691983E+04  0.12699999809E+01 0. -1.
       -4    1    3    3    0  502 -0.92057488957E+03 -0.37871263647E+03  0.17107770282E+04  0.19793031706E+04  0.12699999809E+01 0.  1.
</event>
<event>
 5   0  0.1878160E-05  0.2716922E+04  0.7818609E-02  0.8329535E-01
        2   -1    0    0  501    0  0.00000000000E+00  0.00000000000E+00  0.19246417351E+04  0.19246417351E+04  0.25500000920E-02 0. -1.
       -2   -1    0    0    0  501  0.00000000000E+00  0.00000000000E+00 -0.95883619916E+03  0.95883619917E+03  0.25500000920E-02 0.  1.
    10030    2    1    2    0    0  0.00000000000E+00  0.00000000000E+00  0.96580553596E+03  0.28834779343E+04  0.27169219099E+04 0.  0.
        1    1    3    3  502    0  0.79888400161E+03 -0.10714174497E+04  0.74127106985E+03  0.15282780501E+04  0.50400001928E-02 0.  1.
       -1    1    3    3    0  502 -0.79888400161E+03  0.10714174497E+04  0.22453446610E+03  0.13551998841E+04  0.50400001928E-02 0. -1.
</event>
<event>
 5   0  0.6175875E-06  0.2721988E+04  0.7818609E-02  0.8327906E-01
       -4   -1    0    0    0  501  0.00000000000E+00  0.00000000000E+00  0.14501768317E+04  0.14501773878E+04  0.12699999809E+01 0. -1.
        4   -1    0    0  501    0  0.00000000000E+00  0.00000000000E+00 -0.12772943027E+04  0.12772949341E+04  0.12699999809E+01 0.  1.
    10030    2    1    2    0    0  0.00000000000E+00  0.00000000000E+00  0.17288252900E+03  0.27274723219E+04  0.27219876741E+04 0.  0.
        2    1    3    3  502    0 -0.48918308423E+03 -0.45718637646E+03  0.12737273918E+04  0.14389930303E+04  0.25500000920E-02 0. -1.
       -2    1    3    3    0  502  0.48918308423E+03  0.45718637646E+03 -0.11008448628E+04  0.12884792915E+04  0.25500000920E-02 0.  1.
</event>
<event>
 5   0  0.1881699E-05  0.2687518E+04  0.7818609E-02  0.8339066E-01
       -2   -1    0    0    0  501  0.00000000000E+00  0.00000000000E+00  0.86943715755E+03  0.86943715755E+03  0.25500000920E-02 0.  1.
        2   -1    0    0  501    0  0.00000000000E+00  0.00000000000E+00 -0.20768466081E+04  0.20768466081E+04  0.25500000920E-02 0. -1.
    10030    2    1    2    0    0  0.00000000000E+00  0.00000000000E+00 -0.12074094506E+04  0.29462837657E+04  0.26875175249E+04 0.  0.
        4    1    3    3  502    0  0.99612151110E+03  0.79604902802E+03 -0.10684748900E+04  0.16636082241E+04  0.12699999809E+01 0. -1.
       -4    1    3    3    0  502 -0.99612151110E+03 -0.79604902802E+03 -0.13893456056E+03  0.12826755416E+04  0.12699999809E+01 0.  1.
</event>
<event>
 5   0  0.7600052E-06  0.2722854E+04  0.7818609E-02  0.8327627E-01
       -1   -1    0    0    0  501  0.00000000000E+00  0.00000000000E+00  0.11060821385E+04  0.11060821385E+04  0.50400001928E-02 0. -1.
        1   -1    0    0  501    0  0.00000000000E+00  0.00000000000E+00 -0.16757198500E+04  0.16757198500E+04  0.50400001928E-02 0.  1.
    10030    2    1    2    0    0  0.00000000000E+00  0.00000000000E+00 -0.56963771148E+03  0.27818019886E+04  0.27228542343E+04 0.  0.
        5    1    3    3  502    0  0.75979961439E+03  0.32847910663E+03  0.81944539044E+03  0.11647775820E+04  0.46999998093E+01 0. -1.
       -5    1    3    3    0  502 -0.75979961439E+03 -0.32847910663E+03 -0.13890831019E+04  0.16170244066E+04  0.46999998093E+01 0.  1.
</event>
<event>
 5   0  0.7351590E-06  0.2734820E+04  0.7818609E-02  0.8323795E-01
       -1   -1    0    0    0  501  0.00000000000E+00  0.00000000000E+00  0.79843497257E+03  0.79843497258E+03  0.50400001928E-02 0.  1.
        1   -1    0    0  501    0  0.00000000000E+00  0.00000000000E+00 -0.23418431449E+04  0.23418431449E+04  0.50400001928E-02 0. -1.
    10030    2    1    2    0    0  0.00000000000E+00  0.00000000000E+00 -0.15434081723E+04  0.31402781175E+04  0.27348195313E+04 0.  0.
        3    1    3    3  502    0 -0.24905016198E+02  0.13307881333E+04 -0.11315178778E+04  0.17469831234E+04  0.10100000352E+00 0. -1.
       -3    1    3    3    0  502  0.24905016198E+02 -0.13307881333E+04 -0.41189029453E+03  0.13932949941E+04  0.10100000352E+00 0.  1.
</event>
<event>
 5   0  0.6804685E-06  0.2623050E+04  0.7818609E-02  0.8360413E-01
       -1   -1    0    0    0  501  0.00000000000E+00  0.00000000000E+00  0.97477737940E+03  0.97477737941E+03  0.50400001928E-02 0.  1.
        1   -1    0    0  501    0  0.00000000000E+00  0.00000000000E+00 -0.17646061237E+04  0.17646061237E+04  0.50400001928E-02 0. -1.
    10030    2    1    2    0    0  0.00000000000E+00  0.00000000000E+00 -0.78982874429E+03  0.27393835031E+04  0.26230502343E+04 0.  0.
        2    1    3    3  502    0 -0.17385804248E+03 -0.44789484455E+03  0.87956186320E+03  0.10022302539E+04  0.25500000920E-02 0.  1.
       -2    1    3    3    0  502  0.17385804248E+03  0.44789484455E+03 -0.16693906075E+04  0.17371532492E+04  0.25500000920E-02 0. -1.
</event>
<event>
 5   0  0.6804685E-06  0.1978967E+04  0.7818609E-02  0.8616518E-01
        1   -1    0    0  501    0  0.00000000000E+00  0.00000000000E+00  0.11116014784E+04  0.11116014784E+04  0.50400001928E-02 0. -1.
       -1   -1    0    0    0  501  0.00000000000E+00  0.00000000000E+00 -0.88078107237E+03  0.88078107238E+03  0.50400001928E-02 0.  1.
    10030    2    1    2    0    0  0.00000000000E+00  0.00000000000E+00  0.23082040602E+03  0.19923825508E+04  0.19789669448E+04 0.  0.
        2    1    3    3  502    0 -0.61964153930E+03 -0.42938998484E+03 -0.52982928501E+03  0.92143934557E+03  0.25500000920E-02 0.  1.
       -2    1    3    3    0  502  0.61964153930E+03  0.42938998484E+03  0.76064969103E+03  0.10709432052E+04  0.25500000920E-02 0. -1.
</event>
<event>
 5   0  0.7600052E-06  0.2764977E+04  0.7818609E-02  0.8314225E-01
        1   -1    0    0  501    0  0.00000000000E+00  0.00000000000E+00  0.19404155943E+04  0.19404155943E+04  0.50400001928E-02 0.  1.
       -1   -1    0    0    0  501  0.00000000000E+00  0.00000000000E+00 -0.98498207072E+03  0.98498207074E+03  0.50400001928E-02 0. -1.
    10030    2    1    2    0    0  0.00000000000E+00  0.00000000000E+00  0.95543352354E+03  0.29253976650E+04  0.27649770850E+04 0.  0.
        5    1    3    3  502    0 -0.13532711585E+04 -0.43529539676E+01  0.17866835257E+03  0.13650297605E+04  0.46999998093E+01 0. -1.
       -5    1    3    3    0  502  0.13532711585E+04  0.43529539676E+01  0.77676517097E+03  0.15603679046E+04  0.46999998093E+01 0.  1.
</event>
<event>
 5   0  0.1878160E-05  0.2708016E+04  0.7818609E-02  0.8332409E-01
        2   -1    0    0  501    0  0.00000000000E+00  0.00000000000E+00  0.17586878468E+04  0.17586878468E+04  0.25500000920E-02 0.  1.
       -2   -1    0    0    0  501  0.00000000000E+00  0.00000000000E+00 -0.10424466817E+04  0.10424466817E+04  0.25500000920E-02 0. -1.
    10030    2    1    2    0    0  0.00000000000E+00  0.00000000000E+00  0.71624116510E+03  0.28011345286E+04  0.27080164772E+04 0.  0.
        1    1    3    3  502    0 -0.11707498513E+04 -0.15780402141E+03 -0.32628116900E+03  0.12255679192E+04  0.50400001928E-02 0. -1.
       -1    1    3    3    0  502  0.11707498513E+04  0.15780402141E+03  0.10425223341E+04  0.15755666094E+04  0.50400001928E-02 0.  1.
</event>
<event>
 5   0  0.7754912E-06  0.2697739E+04  0.7818609E-02  0.8335739E-01
       -1   -1    0    0    0  501  0.00000000000E+00  0.00000000000E+00  0.17730852425E+04  0.17730852426E+04  0.50400001928E-02 0. -1.
        1   -1    0    0  501    0  0.00000000000E+00  0.00000000000E+00 -0.10261484813E+04  0.10261484814E+04  0.50400001928E-02 0.  1.
    10030    2    1    2    0    0  0.00000000000E+00  0.00000000000E+00  0.74693676120E+03  0.27992337239E+04  0.26977388524E+04 0.  0.
        4    1    3    3  502    0 -0.10711457531E+04 -0.58676730243E+03 -0.22060818474E+03  0.12410957560E+04  0.12699999809E+01 0. -1.
       -4    1    3    3    0  502  0.10711457531E+04  0.58676730243E+03  0.96754494594E+03  0.15581379679E+04  0.12699999809E+01 0.  1.
</event>
<event>
 5   0  0.7348964E-06  0.2748651E+04  0.7818609E-02  0.8319390E-01
        1   -1    0    0  501    0  0.00000000000E+00  0.00000000000E+00  0.11052412270E+04  0.11052412270E+04  0.50400001928E-02 0. -1.
       -1   -1    0    0    0  501  0.00000000000E+00  0.00000000000E+00 -0.17089217843E+04  0.17089217843E+04  0.50400001928E-02 0.  1.
    10030    2    1    2    0    0  0.00000000000E+00  0.00000000000E+00 -0.60368055729E+03  0.28141630113E+04  0.27486511672E+04 0.  0.
        1    1    3    3  502    0 -0.43682794904E+03 -0.87130072873E+03 -0.12938437726E+04  0.16198812687E+04  0.50400001928E-02 0.  1.
       -1    1    3    3    0  502  0.43682794904E+03  0.87130072873E+03  0.69016321529E+03  0.11942817426E+04  0.50400001928E-02 0. -1.
</event>
<event>
 5   0  0.1881699E-05  0.2651985E+04  0.7818609E-02  0.8350754E-01
        2   -1    0    0  501    0  0.00000000000E+00  0.00000000000E+00  0.18538693363E+04  0.18538693363E+04  0.25500000920E-02 0.  1.
       -2   -1    0    0    0  501  0.00000000000E+00  0.00000000000E+00 -0.94842508224E+03  0.94842508224E+03  0.25500000920E-02 0. -1.
    10030    2    1    2    0    0  0.00000000000E+00  0.00000000000E+00  0.90544425402E+03  0.28022944185E+04  0.26519850510E+04 0.  0.
        4    1    3    3  502    0  0.39745459804E+03  0.49644794923E+03 -0.77676438592E+03  0.10038900577E+04  0.12699999809E+01 0. -1.
       -4    1    3    3    0  502 -0.39745459804E+03 -0.49644794923E+03  0.16822086399E+04  0.17984043608E+04  0.12699999809E+01 0.  1.
</event>
<event>
 5   0  0.7600052E-06  0.2581052E+04  0.7818609E-02  0.8374666E-01
       -1   -1    0    0    0  501  0.00000000000E+00  0.00000000000E+00  0.92436658837E+03  0.92436658839E+03  0.50400001928E-02 0.  1.
        1   -1    0    0  501    0  0.00000000000E+00  0.00000000000E+00 -0.18017276552E+04  0.18017276552E+04  0.50400001928E-02 0. -1.
    10030    2    1    2    0    0  0.00000000000E+00  0.00000000000E+00 -0.87736106681E+03  0.27260942436E+04  0.25810516042E+04 0.  0.
        5    1    3    3  502    0  0.40772685670E+03  0.10984357670E+04 -0.10100347098E+04  0.15469306801E+04  0.46999998093E+01 0. -1.
       -5    1    3    3    0  502 -0.40772685670E+03 -0.10984357670E+04  0.13267364296E+03  0.11791635635E+04  0.46999998093E+01 0.  1.
</event>
<event>
 5   0  0.6175875E-06  0.2690478E+04  0.7818609E-02  0.8338101E-01
        3   -1    0    0  501    0  0.00000000000E+00  0.00000000000E+00  0.15753804151E+04  0.15753804183E+04  0.10100000352E+00 0. -1.
       -3   -1    0    0    0  501  0.00000000000E+00  0.00000000000E+00 -0.11487178911E+04  0.11487178955E+04  0.10100000352E+00 0.  1.
    10030    2    1    2    0    0  0.00000000000E+00  0.00000000000E+00  0.42666252400E+03  0.27240983139E+04  0.26904777855E+04 0.  0.
        2    1    3    3  502    0 -0.85642847707E+03  0.92184667872E+03 -0.26842609819E+03  0.12865937998E+04  0.25500000920E-02 0.  1.
       -2    1    3    3    0  502  0.85642847707E+03 -0.92184667872E+03  0.69508862219E+03  0.14375045141E+04  0.25500000920E-02 0. -1.
</event>
<event>
 5   0  0.6804685E-06  0.2672122E+04  0.7818609E-02  0.8344107E-01
       -1   -1    0    0    0  501  0.00000000000E+00  0.00000000000E+00  0.16476613830E+04  0.16476613830E+04  0.50400001928E-02 0.  1.
        1   -1    0    0  501    0  0.00000000000E+00  0.00000000000E+00 -0.10833895240E+04  0.10833895240E+04  0.50400001928E-02 0. -1.
    10030    2    1    2    0    0  0.00000000000E+00  0.00000000000E+00  0.56427185894E+03  0.27310509070E+04  0.26721220642E+04 0.  0.
        2    1    3    3  502    0  0.34730367557E+03 -0.12198294113E+04  0.71146573070E+03  0.14542307663E+04  0.25500000920E-02 0.  1.
       -2    1    3    3    0  502 -0.34730367557E+03  0.12198294113E+04 -0.14719387176E+03  0.12768201407E+04  0.25500000920E-02 0. -1.
</event>
<event>
 5   0  0.1878160E-05  0.2602517E+04  0.7818609E-02  0.8367347E-01
        2   -1    0    0  501    0  0.00000000000E+00  0.00000000000E+00  0.12987061618E+04  0.12987061618E+04  0.25500000920E-02 0. -1.
       -2   -1    0    0    0  501  0.00000000000E+00  0.00000000000E+00 -0.13038158722E+04  0.13038158722E+04  0.25500000920E-02 0.  1.
    10030    2    1    2    0    0  0.00000000000E+00  0.00000000000E+00 -0.51097104258E+01  0.26025220340E+04  0.26025170179E+04 0.  0.
        1    1    3    3  502    0 -0.23016022081E+02 -0.12357107477E+04  0.40458585374E+03  0.13004616497E+04  0.50400001928E-02 0. -1.
       -1    1    3    3    0  502  0.23016022081E+02  0.12357107477E+04 -0.40969556417E+03  0.13020603844E+04  0.50400001928E-02 0.  1.
</event>
<event>
 5   0  0.7754912E-06  0.2692328E+04  0.7818609E-02  0.8337498E-01
        1   -1    0    0  501    0  0.00000000000E+00  0.00000000000E+00  0.11774936793E+04  0.11774936793E+04  0.50400001928E-02 0. -1.
       -1   -1    0    0    0  501  0.00000000000E+00  0.00000000000E+00 -0.15389960340E+04  0.15389960340E+04  0.50400001928E-02 0.  1.
    10030    2    1    2    0    0  0.00000000000E+00  0.00000000000E+00 -0.36150235463E+03  0.27164897133E+04  0.26923284365E+04 0.  0.
        4    1    3    3  502    0  0.13344872376E+04 -0.16524966342E+03 -0.11699510120E+03  0.13497603881E+04  0.12699999809E+01 0.  1.
       -4    1    3    3    0  502 -0.13344872376E+04  0.16524966342E+03 -0.24450725343E+03  0.13667293252E+04  0.12699999809E+01 0. -1.
</event>
<event>
 5   0  0.1878160E-05  0.2709499E+04  0.7818609E-02  0.8331929E-01
       -2   -1    0    0    0  501  0.00000000000E+00  0.00000000000E+00  0.90338295803E+03  0.90338295803E+03  0.25500000920E-02 0.  1.
        2   -1    0    0  501    0  0.00000000000E+00  0.00000000000E+00 -0.20316376526E+04  0.20316376526E+04  0.25500000920E-02 0. -1.
    10030    2    1    2    0    0  0.00000000000E+00  0.00000000000E+00 -0.11282546946E+04  0.29350206107E+04  0.27094994610E+04 0.  0.
        1    1    3    3  502    0 -0.68915182738E+03 -0.53144650811E+03  0.56054930582E+03  0.10351720420E+04  0.50400001928E-02 0.  1.
       -1    1    3    3    0  502  0.68915182738E+03  0.53144650811E+03 -0.16888040004E+04  0.18998485687E+04  0.50400001928E-02 0. -1.
</event>
<event>
 5   0  0.1931119E-05  0.2673860E+04  0.7818609E-02  0.8343537E-01
        2   -1    0    0  501    0  0.00000000000E+00  0.00000000000E+00  0.15068446812E+04  0.15068446812E+04  0.25500000920E-02 0. -1.
       -2   -1    0    0    0  501  0.00000000000E+00  0.00000000000E+00 -0.11861752108E+04  0.11861752108E+04  0.25500000920E-02 0.  1.
    10030    2    1    2    0    0  0.00000000000E+00  0.00000000000E+00  0.32066947045E+03  0.26930198920E+04  0.26738599868E+04 0.  0.
        3    1    3    3  502    0  0.37073312170E+03 -0.67599039212E+03  0.12603955754E+04  0.14774989254E+04  0.10100000352E+00 0. -1.
       -3    1    3    3    0  502 -0.37073312170E+03  0.67599039212E+03 -0.93972610494E+03  0.12155209666E+04  0.10100000352E+00 0.  1.
</event>
<event>
 5   0  0.1931119E-05  0.2700371E+04  0.7818609E-02  0.8334885E-01
       -2   -1    0    0    0  501  0.00000000000E+00  0.00000000000E+00  0.14869753632E+04  0.14869753632E+04  0.25500000920E-02 0.  1.
        2   -1    0    0  501    0  0.00000000000E+00  0.00000000000E+00 -0.12259791893E+04  0.12259791893E+04  0.25500000920E-02 0. -1.
    10030    2    1    2    0    0  0.00000000000E+00  0.00000000000E+00  0.26099617399E+03  0.27129545525E+04  0.27003709747E+04 0.  0.
        3    1    3    3  502    0  0.98290440557E+03  0.59259078876E+03 -0.58396696538E+03  0.12877431189E+04  0.10100000352E+00 0. -1.
       -3    1    3    3    0  502 -0.98290440557E+03 -0.59259078876E+03  0.84496313937E+03  0.14252114336E+04  0.10100000352E+00 0.  1.
</event>
<event>
 5   0  0.7348964E-06  0.2690022E+04  0.7818609E-02  0.8338250E-01
       -1   -1    0    0    0  501  0.00000000000E+00  0.00000000000E+00  0.11903264210E+04  0.11903264210E+04  0.50400001928E-02 0.  1.
        1   -1    0    0  501    0  0.00000000000E+00  0.00000000000E+00 -0.15197966384E+04  0.15197966384E+04  0.50400001928E-02 0. -1.
    10030    2    1    2    0    0  0.00000000000E+00  0.00000000000E+00 -0.32947021739E+03  0.27101230594E+04  0.26900216306E+04 0.  0.
        1    1    3    3  502    0 -0.54941355102E+03  0.16782247381E+03 -0.13899785480E+04  0.15040146264E+04  0.50400001928E-02 0. -1.
       -1    1    3    3    0  502  0.54941355102E+03 -0.16782247381E+03  0.10605083306E+04  0.12061084329E+04  0.50400001928E-02 0.  1.
</event>
<event>
 5   0  0.7600052E-06  0.2704636E+04  0.7818609E-02  0.8333502E-01
        1   -1    0    0  501    0  0.00000000000E+00  0.00000000000E+00  0.20783617111E+04  0.20783617111E+04  0.50400001928E-02 0. -1.
       -1   -1    0    0    0  501  0.00000000000E+00  0.00000000000E+00 -0.87990646624E+03  0.87990646626E+03  0.50400001928E-02 0.  1.
    10030    2    1    2    0    0  0.00000000000E+00  0.00000000000E+00  0.11984552448E+04  0.29582681773E+04  0.27046359524E+04 0.  0.
        5    1    3    3  502    0 -0.32885177598E+03  0.37540250984E+03 -0.77548552659E+03  0.92220953525E+03  0.46999998093E+01 0.  1.
       -5    1    3    3    0  502  0.32885177598E+03 -0.37540250984E+03  0.19739407714E+04  0.20360586421E+04  0.46999998093E+01 0. -1.
</event>
<event>
 5   0  0.1931119E-05  0.2716374E+04  0.7818609E-02  0.8329712E-01
       -2   -1    0    0    0  501  0.00000000000E+00  0.00000000000E+00  0.17466094357E+04  0.17466094357E+04  0.25500000920E-02 0. -1.
        2   -1    0    0  501    0  0.00000000000E+00  0.00000000000E+00 -0.10561448517E+04  0.10561448517E+04  0.25500000920E-02 0.  1.
    10030    2    1    2    0    0  0.00000000000E+00  0.00000000000E+00  0.69046458402E+03  0.28027542874E+04  0.27163744686E+04 0.  0.
        3    1    3    3  502    0 -0.73940250066E+03 -0.85202648444E+03  0.11255944411E+04  0.15936210479E+04  0.10100000352E+00 0. -1.
       -3    1    3    3    0  502  0.73940250066E+03  0.85202648444E+03 -0.43512985712E+03  0.12091332395E+04  0.10100000352E+00 0.  1.
</event>
<event>
 5   0  0.7600052E-06  0.2713459E+04  0.7818609E-02  0.8330651E-01
        1   -1    0    0  501    0  0.00000000000E+00  0.00000000000E+00  0.16408244399E+04  0.16408244399E+04  0.50400001928E-02 0.  1.
       -1   -1    0    0    0  501  0.00000000000E+00  0.00000000000E+00 -0.11218236166E+04  0.11218236166E+04  0.50400001928E-02 0. -1.
    10030    2    1    2    0    0  0.00000000000E+00  0.00000000000E+00  0.51900082333E+03  0.27626480565E+04  0.27134594947E+04 0.  0.
        5    1    3    3  502    0  0.71719672522E+03 -0.50682202671E+03  0.13123909784E+04  0.15791237696E+04  0.46999998093E+01 0.  1.
       -5    1    3    3    0  502 -0.71719672522E+03  0.50682202671E+03 -0.79339015510E+03  0.11835242869E+04  0.46999998093E+01 0. -1.
</event>
<event>
 5   0  0.1788003E-05  0.2699451E+04  0.7818609E-02  0.8335183E-01
       -2   -1    0    0    0  501  0.00000000000E+00  0.00000000000E+00  0.12455863065E+04  0.12455863065E+04  0.25500000920E-02 0. -1.
        2   -1    0    0  501    0  0.00000000000E+00  0.00000000000E+00 -0.14625712138E+04  0.14625712138E+04  0.25500000920E-02 0.  1.
    10030    2    1    2    0    0  0.00000000000E+00  0.00000000000E+00 -0.21698490729E+03  0.27081575204E+04  0.26994508155E+04 0.  0.
        2    1    3    3  502    0 -0.69170860021E+03 -0.23484115506E+03 -0.12471189965E+04  0.14453085993E+04  0.25500000920E-02 0.  1.
       -2    1    3    3    0  502  0.69170860021E+03  0.23484115506E+03  0.10301340892E+04  0.12628489211E+04  0.25500000920E-02 0. -1.
</event>
<event>
 5   0  0.7351590E-06  0.2696751E+04  0.7818609E-02  0.8336060E-01
       -1   -1    0    0    0  501  0.00000000000E+00  0.00000000000E+00  0.11435476578E+04  0.11435476578E+04  0.50400001928E-02 0.  1.
        1   -1    0    0  501    0  0.00000000000E+00  0.00000000000E+00 -0.15898908924E+04  0.15898908924E+04  0.50400001928E-02 0. -1.
    10030    2    1    2    0    0  0.00000000000E+00  0.00000000000E+00 -0.44634323461E+03  0.27334385502E+04  0.26967506419E+04 0.  0.
        3    1    3    3  502    0 -0.49194729613E+03 -0.38346365112E+03  0.98852439110E+03  0.11688614100E+04  0.10100000352E+00 0.  1.
       -3    1    3    3    0  502  0.49194729613E+03  0.38346365112E+03 -0.14348676257E+04  0.15645771401E+04  0.10100000352E+00 0. -1.
</event>
<event>
 5   0  0.7351590E-06  0.2672220E+04  0.7818609E-02  0.8344075E-01
        1   -1    0    0  501    0  0.00000000000E+00  0.00000000000E+00  0.12428868048E+04  0.12428868048E+04  0.50400001928E-02 0.  1.
       -1   -1    0    0    0  501  0.00000000000E+00  0.00000000000E+00 -0.14363254881E+04  0.14363254881E+04  0.50400001928E-02 0. -1.
    10030    2    1    2    0    0  0.00000000000E+00  0.00000000000E+00 -0.19343868330E+03  0.26792122929E+04  0.26722200483E+04 0.  0.
        3    1    3    3  502    0 -0.66495828301E+03  0.85751364681E+02  0.10620154183E+04  0.12559456889E+04  0.10100000352E+00 0.  1.
       -3    1    3    3    0  502  0.66495828301E+03 -0.85751364681E+02 -0.12554541016E+04  0.14232666040E+04  0.10100000352E+00 0. -1.
</event>
<event>
 5   0  0.7754912E-06  0.2721768E+04  0.7818609E-02  0.8327977E-01
        1   -1    0    0  501    0  0.00000000000E+00  0.00000000000E+00  0.95911737407E+03  0.95911737408E+03  0.50400001928E-02 0.  1.
       -1   -1    0    0    0  501  0.00000000000E+00  0.00000000000E+00 -0.19309469131E+04  0.19309469131E+04  0.50400001928E-02 0. -1.
    10030    2    1    2    0    0  0.00000000000E+00  0.00000000000E+00 -0.97182953900E+03  0.28900642872E+04  0.27217676115E+04 0.  0.
        4    1    3    3  502    0 -0.30602950657E+03  0.81151657309E+03  0.62763934673E+03  0.10705820705E+04  0.12699999809E+01 0.  1.
       -4    1    3    3    0  502  0.30602950657E+03 -0.81151657309E+03 -0.15994688857E+04  0.18194822166E+04  0.12699999809E+01 0. -1.
</event>
<event>
 5   0  0.1881699E-05  0.2447243E+04  0.7818609E-02  0.8422025E-01
       -2   -1    0    0    0  501  0.00000000000E+00  0.00000000000E+00  0.79252174440E+03  0.79252174441E+03  0.25500000920E-02 0.  1.
        2   -1    0    0  501    0  0.00000000000E+00  0.00000000000E+00 -0.18892217769E+04  0.18892217769E+04  0.25500000920E-02 0. -1.
    10030    2    1    2    0    0  0.00000000000E+00  0.00000000000E+00 -0.10967000325E+04  0.26817435213E+04  0.24472428063E+04 0.  0.
        4    1    3    3  502    0  0.26864832014E+03 -0.11797800424E+04 -0.74800289694E+03  0.14225198821E+04  0.12699999809E+01 0. -1.
       -4    1    3    3    0  502 -0.26864832014E+03  0.11797800424E+04 -0.34869713559E+03  0.12592236392E+04  0.12699999809E+01 0.  1.
</event>
<event>
 5   0  0.7351590E-06  0.2688787E+04  0.7818609E-02  0.8338652E-01
        1   -1    0    0  501    0  0.00000000000E+00  0.00000000000E+00  0.11020585122E+04  0.11020585123E+04  0.50400001928E-02 0. -1.
       -1   -1    0    0    0  501  0.00000000000E+00  0.00000000000E+00 -0.16400158029E+04  0.16400158029E+04  0.50400001928E-02 0.  1.
    10030    2    1    2    0    0  0.00000000000E+00  0.00000000000E+00 -0.53795729068E+03  0.27420743152E+04  0.26887866229E+04 0.  0.
        3    1    3    3  502    0 -0.81589520109E+03  0.10672859956E+04 -0.21688807638E+03  0.13608177040E+04  0.10100000352E+00 0.  1.
       -3    1    3    3    0  502  0.81589520109E+03 -0.10672859956E+04 -0.32106921431E+03  0.13812566112E+04  0.10100000352E+00 0. -1.
</event>
<event>
 5   0  0.7600052E-06  0.2716407E+04  0.7818609E-02  0.8329701E-01
       -1   -1    0    0    0  501  0.00000000000E+00  0.00000000000E+00  0.13683550874E+04  0.13683550874E+04  0.50400001928E-02 0. -1.
        1   -1    0    0  501    0  0.00000000000E+00  0.00000000000E+00 -0.13481270838E+04  0.13481270838E+04  0.50400001928E-02 0.  1.
    10030    2    1    2    0    0  0.00000000000E+00  0.00000000000E+00  0.20228003672E+02  0.27164821712E+04  0.27164068573E+04 0.  0.
        5    1    3    3  502    0  0.62900906149E+03  0.86263891526E+03 -0.82949022271E+03  0.13519890595E+04  0.46999998093E+01 0.  1.
       -5    1    3    3    0  502 -0.62900906149E+03 -0.86263891526E+03  0.84971822639E+03  0.13644931117E+04  0.46999998093E+01 0. -1.
</event>
<event>
 5   0  0.7754912E-06  0.2691606E+04  0.7818609E-02  0.8337734E-01
        1   -1    0    0  501    0  0.00000000000E+00  0.00000000000E+00  0.15482772032E+04  0.15482772032E+04  0.50400001928E-02 0.  1.
       -1   -1    0    0    0  501  0.00000000000E+00  0.00000000000E+00 -0.11698074459E+04  0.11698074459E+04  0.50400001928E-02 0. -1.
    10030    2    1    2    0    0  0.00000000000E+00  0.00000000000E+00  0.37846975738E+03  0.27180846491E+04  0.26916063610E+04 0.  0.
        4    1    3    3  502    0 -0.23087717660E+03  0.53000984455E+03  0.14164967775E+04  0.15299279198E+04  0.12699999809E+01 0.  1.
       -4    1    3    3    0  502  0.23087717660E+03 -0.53000984455E+03 -0.10380270202E+04  0.11881567293E+04  0.12699999809E+01 0. -1.
</event>
<event>
 5   0  0.1788003E-05  0.2715096E+04  0.7818609E-02  0.8330123E-01
       -2   -1    0    0    0  501  0.00000000000E+00  0.00000000000E+00  0.11198162443E+04  0.11198162443E+04  0.25500000920E-02 0. -1.
        2   -1    0    0  501    0  0.00000000000E+00  0.00000000000E+00 -0.16457491822E+04  0.16457491822E+04  0.25500000920E-02 0.  1.
    10030    2    1    2    0    0  0.00000000000E+00  0.00000000000E+00 -0.52593293789E+03  0.27655654265E+04  0.27150960707E+04 0.  0.
        2    1    3    3  502    0  0.10485566088E+03  0.12828562810E+04 -0.70252215652E+03  0.14663738704E+04  0.25500000920E-02 0.  1.
       -2    1    3    3    0  502 -0.10485566088E+03 -0.12828562810E+04  0.17658921862E+03  0.12991915561E+04  0.25500000920E-02 0. -1.
</event>
<event>
 5   0  0.1881699E-05  0.2735182E+04  0.7818609E-02  0.8323679E-01
        2   -1    0    0  501    0  0.00000000000E+00  0.00000000000E+00  0.14513387873E+04  0.14513387873E+04  0.25500000920E-02 0.  1.
       -2   -1    0    0    0  501  0.00000000000E+00  0.00000000000E+00 -0.12886761101E+04  0.12886761101E+04  0.25500000920E-02 0. -1.
    10030    2    1    2    0    0  0.00000000000E+00  0.00000000000E+00  0.16266267724E+03  0.27400148975E+04  0.27351823507E+04 0.  0.
        4    1    3    3  502    0  0.33593277691E+03  0.82938902481E+03  0.11173573067E+04  0.14315117704E+04  0.12699999809E+01 0.  1.
       -4    1    3    3    0  502 -0.33593277691E+03 -0.82938902481E+03 -0.95469462946E+03  0.13085031270E+04  0.12699999809E+01 0. -1.
</event>
<event>
 5   0  0.1881699E-05  0.2254037E+04  0.7818609E-02  0.8496267E-01
       -2   -1    0    0    0  501  0.00000000000E+00  0.00000000000E+00  0.90535487377E+03  0.90535487378E+03  0.25500000920E-02 0. -1.
        2   -1    0    0  501    0  0.00000000000E+00  0.00000000000E+00 -0.14029538220E+04  0.14029538220E+04  0.25500000920E-02 0.  1.
    10030    2    1    2    0    0  0.00000000000E+00  0.00000000000E+00 -0.49759894822E+03  0.23083086958E+04  0.22540373381E+04 0.  0.
        4    1    3    3  502    0 -0.59623665901E+03 -0.95483253707E+03 -0.19302588222E+03  0.11421313110E+04  0.12699999809E+01 0. -1.
       -4    1    3    3    0  502  0.59623665901E+03  0.95483253707E+03 -0.30457306601E+03  0.11661773848E+04  0.12699999809E+01 0.  1.
</event>
<event>
 5   0  0.7754912E-06  0.2707172E+04  0.7818609E-02  0.8332682E-01
       -1   -1    0    0    0  501  0.00000000000E+00  0.00000000000E+00  0.99038771526E+03  0.99038771528E+03  0.50400001928E-02 0.  1.
        1   -1    0    0  501    0  0.00000000000E+00  0.00000000000E+00 -0.18499769380E+04  0.18499769380E+04  0.50400001928E-02 0. -1.
    10030    2    1    2    0    0  0.00000000000E+00  0.00000000000E+00 -0.85958922276E+03  0.28403646533E+04  0.27071715372E+04 0.  0.
        4    1    3    3  502    0  0.68168497476E+02  0.13305314547E+04 -0.17879242889E+03  0.13442206818E+04  0.12699999809E+01 0.  1.
       -4    1    3    3    0  502 -0.68168497476E+02 -0.13305314547E+04 -0.68079679386E+03  0.14961439715E+04  0.12699999809E+01 0. -1.
</event>
<event>
 5   0  0.1788003E-05  0.2693269E+04  0.7818609E-02  0.8337192E-01
        2   -1    0    0  501    0  0.00000000000E+00  0.00000000000E+00  0.22015592627E+04  0.22015592627E+04  0.25500000920E-02 0.  1.
       -2   -1    0    0    0  501  0.00000000000E+00  0.00000000000E+00 -0.82370005987E+03  0.82370005988E+03  0.25500000920E-02 0. -1.
    10030    2    1    2    0    0  0.00000000000E+00  0.00000000000E+00  0.13778592028E+04  0.30252593226E+04  0.26932690148E+04 0.  0.
        2    1    3    3  502    0  0.69551842823E+03  0.28296305520E+03  0.19445842532E+04  0.20845195831E+04  0.25500000920E-02 0.  1.
       -2    1    3    3    0  502 -0.69551842823E+03 -0.28296305520E+03 -0.56672505039E+03  0.94073973944E+03  0.25500000920E-02 0. -1.
</event>
<event>
 5   0  0.1881699E-05  0.2704507E+04  0.7818609E-02  0.8333544E-01
       -2   -1    0    0    0  501  0.00000000000E+00  0.00000000000E+00  0.14089416549E+04  0.14089416549E+04  0.25500000920E-02 0.  1.
        2   -1    0    0  501    0  0.00000000000E+00  0.00000000000E+00 -0.12978464928E+04  0.12978464929E+04  0.25500000920E-02 0. -1.
    10030    2    1    2    0    0  0.00000000000E+00  0.00000000000E+00  0.11109516200E+03  0.27067881477E+04  0.27045073380E+04 0.  0.
        4    1    3    3  502    0 -0.67068425423E+03 -0.11572957871E+04 -0.14320857872E+03  0.13452364913E+04  0.12699999809E+01 0. -1.
       -4    1    3    3    0  502  0.67068425423E+03  0.11572957871E+04  0.25430374072E+03  0.13615516564E+04  0.12699999809E+01 0.  1.
</event>
<event>
 5   0  0.1826851E-05  0.2734294E+04  0.7818609E-02  0.8323963E-01
        2   -1    0    0  501    0  0.00000000000E+00  0.00000000000E+00  0.13250353074E+04  0.13250353074E+04  0.25500000920E-02 0.  1.
       -2   -1    0    0    0  501  0.00000000000E+00  0.00000000000E+00 -0.14105973418E+04  0.14105973418E+04  0.25500000920E-02 0. -1.
    10030    2    1    2    0    0  0.00000000000E+00  0.00000000000E+00 -0.85562034344E+02  0.27356326492E+04  0.27342942654E+04 0.  0.
        5    1    3    3  502    0  0.22939670037E+03 -0.14735142128E+03 -0.13831135541E+04  0.14097377349E+04  0.46999998093E+01 0. -1.
       -5    1    3    3    0  502 -0.22939670037E+03  0.14735142128E+03  0.12975515198E+04  0.13258949144E+04  0.46999998093E+01 0.  1.
</event>
<event>
 5   0  0.6804685E-06  0.2595543E+04  0.7818609E-02  0.8369717E-01
       -1   -1    0    0    0  501  0.00000000000E+00  0.00000000000E+00  0.10451830097E+04  0.10451830098E+04  0.50400001928E-02 0.  1.
        1   -1    0    0  501    0  0.00000000000E+00  0.00000000000E+00 -0.16114033705E+04  0.16114033705E+04  0.50400001928E-02 0. -1.
    10030    2    1    2    0    0  0.00000000000E+00  0.00000000000E+00 -0.56622036074E+03  0.26565863802E+04  0.25955434303E+04 0.  0.
        2    1    3    3  502    0 -0.79370070469E+03  0.10087357449E+04 -0.47919560711E+03  0.13700865088E+04  0.25500000920E-02 0.  1.
       -2    1    3    3    0  502  0.79370070469E+03 -0.10087357449E+04 -0.87024753626E+02  0.12864998715E+04  0.25500000920E-02 0. -1.
</event>
<event>
 5   0  0.1826851E-05  0.2686731E+04  0.7818609E-02  0.8339323E-01
        2   -1    0    0  501    0  0.00000000000E+00  0.00000000000E+00  0.18319441991E+04  0.18319441991E+04  0.25500000920E-02 0.  1.
       -2   -1    0    0    0  501  0.00000000000E+00  0.00000000000E+00 -0.98509063520E+03  0.98509063520E+03  0.25500000920E-02 0. -1.
    10030    2    1    2    0    0  0.00000000000E+00  0.00000000000E+00  0.84685356393E+03  0.28170348343E+04  0.26867311550E+04 0.  0.
        5    1    3    3  502    0 -0.10018544791E+04 -0.85130643117E+03  0.71280859799E+03  0.14955110245E+04  0.46999998093E+01 0.  1.
       -5    1    3    3    0  502  0.10018544791E+04  0.85130643117E+03  0.13404496594E+03  0.13215238098E+04  0.46999998093E+01 0. -1.
</event>
<event>
 5   0  0.6175875E-06  0.2696932E+04  0.7818609E-02  0.8336001E-01
        3   -1    0    0  501    0  0.00000000000E+00  0.00000000000E+00  0.14702385761E+04  0.14702385795E+04  0.10100000352E+00 0.  1.
       -3   -1    0    0    0  501  0.00000000000E+00  0.00000000000E+00 -0.12367791537E+04  0.12367791578E+04  0.10100000352E+00 0. -1.
    10030    2    1    2    0    0  0.00000000000E+00  0.00000000000E+00  0.23345942233E+03  0.27070177374E+04  0.26969319103E+04 0.  0.
        4    1    3    3  502    0  0.10957149853E+04  0.35247487160E+02 -0.67139782671E+03  0.12855389411E+04  0.12699999809E+01 0. -1.
       -4    1    3    3    0  502 -0.10957149853E+04 -0.35247487160E+02  0.90485724904E+03  0.14214787963E+04  0.12699999809E+01 0.  1.
</event>
<event>
 5   0  0.6804685E-06  0.2708208E+04  0.7818609E-02  0.8332347E-01
        1   -1    0    0  501    0  0.00000000000E+00  0.00000000000E+00  0.15466905957E+04  0.15466905957E+04  0.50400001928E-02 0. -1.
       -1   -1    0    0    0  501  0.00000000000E+00  0.00000000000E+00 -0.11854970863E+04  0.11854970863E+04  0.50400001928E-02 0.  1.
    10030    2    1    2    0    0  0.00000000000E+00  0.00000000000E+00  0.36119350935E+03  0.27321876820E+04  0.27082076690E+04 0.  0.
        2    1    3    3  502    0 -0.61780874413E+03  0.10646261044E+04 -0.38874128102E+03  0.12908277074E+04  0.25500000920E-02 0.  1.
       -2    1    3    3    0  502  0.61780874413E+03 -0.10646261044E+04  0.74993479037E+03  0.14413599746E+04  0.25500000920E-02 0. -1.
</event>
<event>
 5   0  0.1878160E-05  0.2689605E+04  0.7818609E-02  0.8338386E-01
        2   -1    0    0  501    0  0.00000000000E+00  0.00000000000E+00  0.15431339226E+04  0.15431339226E+04  0.25500000920E-02 0. -1.
       -2   -1    0    0    0  501  0.00000000000E+00  0.00000000000E+00 -0.11719614253E+04  0.11719614253E+04  0.25500000920E-02 0.  1.
    10030    2    1    2    0    0  0.00000000000E+00  0.00000000000E+00  0.37117249736E+03  0.27150953479E+04  0.26896047526E+04 0.  0.
        1    1    3    3  502    0 -0.58102703152E+03 -0.87667572891E+03 -0.66041408810E+03  0.12418935191E+04  0.50400001928E-02 0.  1.
       -1    1    3    3    0  502  0.58102703152E+03  0.87667572891E+03  0.10315865855E+04  0.14732018288E+04  0.50400001928E-02 0. -1.
</event>
<event>
 5   0  0.7754912E-06  0.2730496E+04  0.7818609E-02  0.8325178E-01
       -1   -1    0    0    0  501  0.00000000000E+00  0.00000000000E+00  0.17712716239E+04  0.17712716239E+04  0.50400001928E-02 0. -1.
        1   -1    0    0  501    0  0.00000000000E+00  0.00000000000E+00 -0.10522957189E+04  0.10522957190E+04  0.50400001928E-02 0.  1.
    10030    2    1    2    0    0  0.00000000000E+00  0.00000000000E+00  0.71897590499E+03  0.28235673429E+04  0.27304955938E+04 0.  0.
        4    1    3    3  502    0 -0.40067788617E+03 -0.25003466843E+03  0.16841032463E+04  0.17490756018E+04  0.12699999809E+01 0. -1.
       -4    1    3    3    0  502  0.40067788617E+03  0.25003466843E+03 -0.96512734127E+03  0.10744917411E+04  0.12699999809E+01 0.  1.
</event>
<event>
 5   0  0.1931119E-05  0.2691845E+04  0.7818609E-02  0.8337656E-01
        2   -1    0    0  501    0  0.00000000000E+00  0.00000000000E+00  0.20812842052E+04  0.20812842052E+04  0.25500000920E-02 0. -1.
       -2   -1    0    0    0  501  0.00000000000E+00  0.00000000000E+00 -0.87037995136E+03  0.87037995137E+03  0.25500000920E-02 0.  1.
    10030    2    1    2    0    0  0.00000000000E+00  0.00000000000E+00  0.12109042538E+04  0.29516641565E+04  0.26918454973E+04 0.  0.
        3    1    3    3  502    0 -0.12789829738E+04  0.22924494894E+03  0.99026267180E+03  0.16336985228E+04  0.10100000352E+00 0. -1.
       -3    1    3    3    0  502  0.12789829738E+04 -0.22924494894E+03  0.22064158202E+03  0.13179656338E+04  0.10100000352E+00 0.  1.
</event>
<event>
 5   0  0.7600052E-06  0.2691930E+04  0.7818609E-02  0.8337628E-01
        1   -1    0    0  501    0  0.00000000000E+00  0.00000000000E+00  0.12960606039E+04  0.12960606040E+04  0.50400001928E-02 0. -1.
       -1   -1    0    0    0  501  0.00000000000E+00  0.00000000000E+00 -0.13977910764E+04  0.13977910764E+04  0.50400001928E-02 0.  1.
    10030    2    1    2    0    0  0.00000000000E+00  0.00000000000E+00 -0.10173047243E+03  0.26938516803E+04  0.26919301229E+04 0.  0.
        5    1    3    3  502    0 -0.87307011608E+03 -0.10072569897E+04  0.13576664606E+03  0.13398778836E+04  0.46999998093E+01 0.  1.
       -5    1    3    3    0  502  0.87307011608E+03  0.10072569897E+04 -0.23749711849E+03  0.13539737967E+04  0.46999998093E+01 0. -1.
</event>
<event>
 5   0  0.7351590E-06  0.2500325E+04  0.7818609E-02  0.8402870E-01
        1   -1    0    0  501    0  0.00000000000E+00  0.00000000000E+00  0.14281374133E+04  0.14281374133E+04  0.50400001928E-02 0. -1.
       -1   -1    0    0    0  501  0.00000000000E+00  0.00000000000E+00 -0.10943671533E+04  0.10943671533E+04  0.50400001928E-02 0.  1.
    10030    2    1    2    0    0  0.00000000000E+00  0.00000000000E+00  0.33377026002E+03  0.25225045666E+04  0.25003253193E+04 0.  0.
        3    1    3    3  502    0  0.40727670700E+03 -0.65124119885E+03 -0.82823014850E+03  0.11295816058E+04  0.10100000352E+00 0.  1.
       -3    1    3    3    0  502 -0.40727670700E+03  0.65124119885E+03  0.11620004085E+04  0.13929229608E+04  0.10100000352E+00 0. -1.
</event>
<event>
 5   0  0.1788003E-05  0.2667303E+04  0.7818609E-02  0.8345693E-01
        2   -1    0    0  501    0  0.00000000000E+00  0.00000000000E+00  0.23875102693E+04  0.23875102693E+04  0.25500000920E-02 0. -1.
       -2   -1    0    0    0  501  0.00000000000E+00  0.00000000000E+00 -0.74497110669E+03  0.74497110669E+03  0.25500000920E-02 0.  1.
    10030    2    1    2    0    0  0.00000000000E+00  0.00000000000E+00  0.16425391626E+04  0.31324813760E+04  0.26673028831E+04 0.  0.
        2    1    3    3  502    0  0.33990599845E+03  0.11114844894E+04  0.53233038990E+02  0.11635151974E+04  0.25500000920E-02 0.  1.
       -2    1    3    3    0  502 -0.33990599845E+03 -0.11114844894E+04  0.15893061237E+04  0.19689661787E+04  0.25500000920E-02 0. -1.
</event>
<event>
 5   0  0.1826851E-05  0.2671521E+04  0.7818609E-02  0.8344305E-01
       -2   -1    0    0    0  501  0.00000000000E+00  0.00000000000E+00  0.87542037154E+03  0.87542037154E+03  0.25500000920E-02 0.  1.
        2   -1    0    0  501    0  0.00000000000E+00  0.00000000000E+00 -0.20381704924E+04  0.20381704924E+04  0.25500000920E-02 0. -1.
    10030    2    1    2    0    0  0.00000000000E+00  0.00000000000E+00 -0.11627501208E+04  0.29135908639E+04  0.26715208924E+04 0.  0.
        5    1    3    3  502    0  0.42561334677E+03 -0.45035675745E+03  0.70917618972E+03  0.94176477318E+03  0.46999998093E+01 0.  1.
       -5    1    3    3    0  502 -0.42561334677E+03  0.45035675745E+03 -0.18719263105E+04  0.19718260907E+04  0.46999998093E+01 0. -1.
</event>
<event>
 5   0  0.7754912E-06  0.2611366E+04  0.7818609E-02  0.8364351E-01
       -1   -1    0    0    0  501  0.00000000000E+00  0.00000000000E+00  0.81379952165E+03  0.81379952167E+03  0.50400001928E-02 0.  1.
        1   -1    0    0  501    0  0.00000000000E+00  0.00000000000E+00 -0.20948747447E+04  0.20948747447E+04  0.50400001928E-02 0. -1.
    10030    2    1    2    0    0  0.00000000000E+00  0.00000000000E+00 -0.12810752230E+04  0.29086742663E+04  0.26113659760E+04 0.  0.
        4    1    3    3  502    0  0.59170330621E+03  0.97589388839E+03 -0.13470434127E+04  0.17655053816E+04  0.12699999809E+01 0. -1.
       -4    1    3    3    0  502 -0.59170330621E+03 -0.97589388839E+03  0.65968189699E+02  0.11431688847E+04  0.12699999809E+01 0.  1.
</event>
<event>
 5   0  0.1881699E-05  0.2675610E+04  0.7818609E-02  0.8342962E-01
       -2   -1    0    0    0  501  0.00000000000E+00  0.00000000000E+00  0.12958550896E+04  0.12958550896E+04  0.25500000920E-02 0.  1.
        2   -1    0    0  501    0  0.00000000000E+00  0.00000000000E+00 -0.13811134015E+04  0.13811134016E+04  0.25500000920E-02 0. -1.
    10030    2    1    2    0    0  0.00000000000E+00  0.00000000000E+00 -0.85258311936E+02  0.26769684912E+04  0.26756104580E+04 0.  0.
        4    1    3    3  502    0 -0.22852089947E+03 -0.12264906766E+03 -0.13557192393E+04  0.13803046272E+04  0.12699999809E+01 0. -1.
       -4    1    3    3    0  502  0.22852089947E+03  0.12264906766E+03  0.12704609273E+04  0.12966638639E+04  0.12699999809E+01 0.  1.
</event>
<event>
 5   0  0.7600052E-06  0.2721337E+04  0.7818609E-02  0.8328115E-01
       -1   -1    0    0    0  501  0.00000000000E+00  0.00000000000E+00  0.13478969400E+04  0.13478969400E+04  0.50400001928E-02 0. -1.
        1   -1    0    0  501    0  0.00000000000E+00  0.00000000000E+00 -0.13735606091E+04  0.13735606091E+04  0.50400001928E-02 0.  1.
    10030    2    1    2    0    0  0.00000000000E+00  0.00000000000E+00 -0.25663669134E+02  0.27214575491E+04  0.27213365407E+04 0.  0.
        5    1    3    3  502    0 -0.49653019139E+03 -0.14701806054E+03  0.12454925737E+04  0.13488626254E+04  0.46999998093E+01 0. -1.
       -5    1    3    3    0  502  0.49653019139E+03  0.14701806054E+03 -0.12711562428E+04  0.13725949237E+04  0.46999998093E+01 0.  1.
</event>
<event>
 5   0  0.1788003E-05  0.2749161E+04  0.7818609E-02  0.8319228E-01
        2   -1    0    0  501    0  0.00000000000E+00  0.00000000000E+00  0.17633692377E+04  0.17633692377E+04  0.25500000920E-02 0.  1.
       -2   -1    0    0    0  501  0.00000000000E+00  0.00000000000E+00 -0.10715122911E+04  0.10715122911E+04  0.25500000920E-02 0. -1.
    10030    2    1    2    0    0  0.00000000000E+00  0.00000000000E+00  0.69185694657E+03  0.28348815288E+04  0.27491611899E+04 0.  0.
        2    1    3    3  502    0  0.12545624645E+04 -0.42658322852E+03  0.72279862948E+03  0.15094164723E+04  0.25500000920E-02 0. -1.
       -2    1    3    3    0  502 -0.12545624645E+04  0.42658322852E+03 -0.30941682917E+02  0.13254650565E+04  0.25500000920E-02 0.  1.
</event>
<event>
 5   0  0.1931119E-05  0.2712761E+04  0.7818609E-02  0.8330876E-01
       -2   -1    0    0    0  501  0.00000000000E+00  0.00000000000E+00  0.17689984010E+04  0.17689984010E+04  0.25500000920E-02 0.  1.
        2   -1    0    0  501    0  0.00000000000E+00  0.00000000000E+00 -0.10400057364E+04  0.10400057364E+04  0.25500000920E-02 0. -1.
    10030    2    1    2    0    0  0.00000000000E+00  0.00000000000E+00  0.72899266453E+03  0.28090041374E+04  0.27127613126E+04 0.  0.
        3    1    3    3  502    0 -0.11742190817E+04 -0.67702176379E+03  0.31149894203E+03  0.13907481877E+04  0.10100000352E+00 0.  1.
       -3    1    3    3    0  502  0.11742190817E+04  0.67702176379E+03  0.41749372250E+03  0.14182559497E+04  0.10100000352E+00 0. -1.
</event>
<event>
 5   0  0.6804685E-06  0.2686929E+04  0.7818609E-02  0.8339258E-01
        1   -1    0    0  501    0  0.00000000000E+00  0.00000000000E+00  0.16225589273E+04  0.16225589273E+04  0.50400001928E-02 0. -1.
       -1   -1    0    0    0  501  0.00000000000E+00  0.00000000000E+00 -0.11123769594E+04  0.11123769594E+04  0.50400001928E-02 0.  1.
    10030    2    1    2    0    0  0.00000000000E+00  0.00000000000E+00  0.51018196793E+03  0.27349358867E+04  0.26869292257E+04 0.  0.
        2    1    3    3  502    0 -0.10309976540E+04  0.69394805313E+03 -0.26429750244E+03  0.12705798805E+04  0.25500000920E-02 0.  1.
       -2    1    3    3    0  502  0.10309976540E+04 -0.69394805313E+03  0.77447947037E+03  0.14643560062E+04  0.25500000920E-02 0. -1.
</event>
<event>
 5   0  0.7600052E-06  0.2703725E+04  0.7818609E-02  0.8333797E-01
        1   -1    0    0  501    0  0.00000000000E+00  0.00000000000E+00  0.13881640545E+04  0.13881640545E+04  0.50400001928E-02 0.  1.
       -1   -1    0    0    0  501  0.00000000000E+00  0.00000000000E+00 -0.13165104350E+04  0.13165104351E+04  0.50400001928E-02 0. -1.
    10030    2    1    2    0    0  0.00000000000E+00  0.00000000000E+00  0.71653619454E+02  0.27046744896E+04  0.27037251808E+04 0.  0.
        5    1    3    3  502    0 -0.45820641666E+03 -0.56230538188E+03 -0.11053497422E+04  0.13221046121E+04  0.46999998093E+01 0. -1.
       -5    1    3    3    0  502  0.45820641666E+03  0.56230538188E+03  0.11770033616E+04  0.13825698775E+04  0.46999998093E+01 0.  1.
</event>
<event>
 5   0  0.1931119E-05  0.1991153E+04  0.7818609E-02  0.8610768E-01
        2   -1    0    0  501    0  0.00000000000E+00  0.00000000000E+00  0.95774616196E+03  0.95774616197E+03  0.25500000920E-02 0. -1.
       -2   -1    0    0    0  501  0.00000000000E+00  0.00000000000E+00 -0.10349013934E+04  0.10349013934E+04  0.25500000920E-02 0.  1.
    10030    2    1    2    0    0  0.00000000000E+00  0.00000000000E+00 -0.77155231403E+02  0.19926475553E+04  0.19911532714E+04 0.  0.
        3    1    3    3  502    0 -0.67671187530E+03  0.48358220357E+02 -0.76775007798E+03  0.10245573054E+04  0.10100000352E+00 0.  1.
       -3    1    3    3    0  502  0.67671187530E+03 -0.48358220357E+02  0.69059484658E+03  0.96809024991E+03  0.10100000352E+00 0. -1.
</event>
<event>
 5   0  0.1931119E-05  0.2658804E+04  0.7818609E-02  0.8348497E-01
       -2   -1    0    0    0  501  0.00000000000E+00  0.00000000000E+00  0.10690002724E+04  0.10690002724E+04  0.25500000920E-02 0. -1.
        2   -1    0    0  501    0  0.00000000000E+00  0.00000000000E+00 -0.16532362715E+04  0.16532362715E+04  0.25500000920E-02 0.  1.
    10030    2    1    2    0    0  0.00000000000E+00  0.00000000000E+00 -0.58423599906E+03  0.27222365439E+04  0.26588042610E+04 0.  0.
        3    1    3    3  502    0 -0.67559121252E+03 -0.97437830405E+03 -0.90768835194E+03  0.14932296274E+04  0.10100000352E+00 0.  1.
       -3    1    3    3    0  502  0.67559121252E+03  0.97437830405E+03  0.32345235288E+03  0.12290069164E+04  0.10100000352E+00 0. -1.
</event>
<event>
 5   0  0.1788003E-05  0.2676470E+04  0.7818609E-02  0.8342680E-01
       -2   -1    0    0    0  501  0.00000000000E+00  0.00000000000E+00  0.93560845091E+03  0.93560845092E+03  0.25500000920E-02 0.  1.
        2   -1    0    0  501    0  0.00000000000E+00  0.00000000000E+00 -0.19141269502E+04  0.19141269502E+04  0.25500000920E-02 0. -1.
    10030    2    1    2    0    0  0.00000000000E+00  0.00000000000E+00 -0.97851849932E+03  0.28497354011E+04  0.26764703255E+04 0.  0.
        2    1    3    3  502    0  0.75721108332E+03 -0.12506422305E+03 -0.16565249064E+04  0.18256736976E+04  0.25500000920E-02 0. -1.
       -2    1    3    3    0  502 -0.75721108332E+03  0.12506422305E+03  0.67800640709E+03  0.10240617035E+04  0.25500000920E-02 0.  1.
</event>
<event>
 5   0  0.7348964E-06  0.2672575E+04  0.7818609E-02  0.8343959E-01
        1   -1    0    0  501    0  0.00000000000E+00  0.00000000000E+00  0.11300221477E+04  0.11300221477E+04  0.50400001928E-02 0. -1.
       -1   -1    0    0    0  501  0.00000000000E+00  0.00000000000E+00 -0.15802032265E+04  0.15802032265E+04  0.50400001928E-02 0.  1.
    10030    2    1    2    0    0  0.00000000000E+00  0.00000000000E+00 -0.45018107880E+03  0.27102253742E+04  0.26725752702E+04 0.  0.
        1    1    3    3  502    0  0.23657934040E+03  0.17771778405E+03  0.10963831810E+04  0.11356097370E+04  0.50400001928E-02 0. -1.
       -1    1    3    3    0  502 -0.23657934040E+03 -0.17771778405E+03 -0.15465642598E+04  0.15746156372E+04  0.50400001928E-02 0.  1.
</event>
<event>
 5   0  0.1881699E-05  0.2652564E+04  0.7818609E-02  0.8350562E-01
       -2   -1    0    0    0  501  0.00000000000E+00  0.00000000000E+00  0.12931977125E+04  0.12931977125E+04  0.25500000920E-02 0. -1.
        2   -1    0    0  501    0  0.00000000000E+00  0.00000000000E+00 -0.13602126540E+04  0.13602126540E+04  0.25500000920E-02 0.  1.
    10030    2    1    2    0    0  0.00000000000E+00  0.00000000000E+00 -0.67014941532E+02  0.26534103665E+04  0.26525639616E+04 0.  0.
        4    1    3    3  502    0 -0.10095431996E+04 -0.85151435218E+03 -0.15507038476E+03  0.13297753950E+04  0.12699999809E+01 0.  1.
       -4    1    3    3    0  502  0.10095431996E+04  0.85151435218E+03  0.88055443232E+02  0.13236349715E+04  0.12699999809E+01 0. -1.
</event>
<event>
 5   0  0.1931119E-05  0.2662028E+04  0.7818609E-02  0.8347432E-01
        2   -1    0    0  501    0  0.00000000000E+00  0.00000000000E+00  0.14712387689E+04  0.14712387689E+04  0.25500000920E-02 0.  1.
       -2   -1    0    0    0  501  0.00000000000E+00  0.00000000000E+00 -0.12041540371E+04  0.12041540371E+04  0.25500000920E-02 0. -1.
    10030    2    1    2    0    0  0.00000000000E+00  0.00000000000E+00  0.26708473178E+03  0.26753928060E+04  0.26620278759E+04 0.  0.
        3    1    3    3  502    0  0.28633008334E+02 -0.32040229734E+03  0.14315841727E+04  0.14672800466E+04  0.10100000352E+00 0.  1.
       -3    1    3    3    0  502 -0.28633008334E+02  0.32040229734E+03 -0.11644994409E+04  0.12081127594E+04  0.10100000352E+00 0. -1.
</event>
<event>
 5   0  0.6804685E-06  0.2762889E+04  0.7818609E-02  0.8314883E-01
        1   -1    0    0  501    0  0.00000000000E+00  0.00000000000E+00  0.21897248515E+04  0.21897248515E+04  0.50400001928E-02 0. -1.
       -1   -1    0    0    0  501  0.00000000000E+00  0.00000000000E+00 -0.87152015389E+03  0.87152015390E+03  0.50400001928E-02 0.  1.
    10030    2    1    2    0    0  0.00000000000E+00  0.00000000000E+00  0.13182046976E+04  0.30612450054E+04  0.27628893134E+04 0.  0.
        2    1    3    3  502    0 -0.31699978960E+03 -0.13428778258E+04  0.58412169394E+03  0.14983350343E+04  0.25500000920E-02 0.  1.
       -2    1    3    3    0  502  0.31699978960E+03  0.13428778258E+04  0.73408300367E+03  0.15629099711E+04  0.25500000920E-02 0. -1.
</event>
<event>
 5   0  0.7348964E-06  0.2130198E+04  0.7818609E-02  0.8548056E-01
       -1   -1    0    0    0  501  0.00000000000E+00  0.00000000000E+00  0.14464336591E+04  0.14464336591E+04  0.50400001928E-02 0.  1.
        1   -1    0    0  501    0  0.00000000000E+00  0.00000000000E+00 -0.78429845460E+03  0.78429845462E+03  0.50400001928E-02 0. -1.
    10030    2    1    2    0    0  0.00000000000E+00  0.00000000000E+00  0.66213520450E+03  0.22307321137E+04  0.21301978157E+04 0.  0.
        1    1    3    3  502    0  0.30091369977E+03  0.18062109860E+03 -0.72200779735E+03  0.80278782716E+03  0.50400001928E-02 0. -1.
       -1    1    3    3    0  502 -0.30091369977E+03 -0.18062109860E+03  0.13841430018E+04  0.14279442866E+04  0.50400001928E-02 0.  1.
</event>
<event>
 5   0  0.1878160E-05  0.2573719E+04  0.7818609E-02  0.8377183E-01
        2   -1    0    0  501    0  0.00000000000E+00  0.00000000000E+00  0.22400617273E+04  0.22400617273E+04  0.25500000920E-02 0. -1.
       -2   -1    0    0    0  501  0.00000000000E+00  0.00000000000E+00 -0.73926889240E+03  0.73926889240E+03  0.25500000920E-02 0.  1.
    10030    2    1    2    0    0  0.00000000000E+00  0.00000000000E+00  0.15007928349E+04  0.29793306197E+04  0.25737194502E+04 0.  0.
        1    1    3    3  502    0  0.78215854115E+03  0.23071440191E+03 -0.40198386816E+03  0.90917113297E+03  0.50400001928E-02 0.  1.
       -1    1    3    3    0  502 -0.78215854115E+03 -0.23071440191E+03  0.19027767030E+04  0.20701594867E+04  0.50400001928E-02 0. -1.
</event>
<event>
 5   0  0.7600052E-06  0.2710829E+04  0.7818609E-02  0.8331500E-01
        1   -1    0    0  501    0  0.00000000000E+00  0.00000000000E+00  0.33026968340E+04  0.33026968340E+04  0.50400001928E-02 0.  1.
       -1   -1    0    0    0  501  0.00000000000E+00  0.00000000000E+00 -0.55625702033E+03  0.55625702035E+03  0.50400001928E-02 0. -1.
    10030    2    1    2    0    0  0.00000000000E+00  0.00000000000E+00  0.27464398137E+04  0.38589538544E+04  0.27108288769E+04 0.  0.
        5    1    3    3  502    0 -0.11914329070E+03  0.13402618533E+04  0.11409211122E+04  0.17641485293E+04  0.46999998093E+01 0. -1.
       -5    1    3    3    0  502  0.11914329070E+03 -0.13402618533E+04  0.16055187015E+04  0.20948053251E+04  0.46999998093E+01 0.  1.
</event>
<event>
 5   0  0.7348964E-06  0.2694269E+04  0.7818609E-02  0.8336867E-01
       -1   -1    0    0    0  501  0.00000000000E+00  0.00000000000E+00  0.68301387913E+03  0.68301387915E+03  0.50400001928E-02 0.  1.
        1   -1    0    0  501    0  0.00000000000E+00  0.00000000000E+00 -0.26570053183E+04  0.26570053183E+04  0.50400001928E-02 0. -1.
    10030    2    1    2    0    0  0.00000000000E+00  0.00000000000E+00 -0.19739914392E+04  0.33400191974E+04  0.26942691100E+04 0.  0.
        1    1    3    3  502    0 -0.30312750133E+03 -0.13115826902E+04 -0.10506440176E+04  0.17076265069E+04  0.50400001928E-02 0. -1.
       -1    1    3    3    0  502  0.30312750133E+03  0.13115826902E+04 -0.92334742150E+03  0.16323926905E+04  0.50400001928E-02 0.  1.
</event>
<event>
 5   0  0.1931119E-05  0.2672377E+04  0.7818609E-02  0.8344024E-01
        2   -1    0    0  501    0  0.00000000000E+00  0.00000000000E+00  0.23912975157E+04  0.23912975157E+04  0.25500000920E-02 0. -1.
       -2   -1    0    0    0  501  0.00000000000E+00  0.00000000000E+00 -0.74662358172E+03  0.74662358172E+03  0.25500000920E-02 0.  1.
    10030    2    1    2    0    0  0.00000000000E+00  0.00000000000E+00  0.16446739340E+04  0.31379210975E+04  0.26723765574E+04 0.  0.
        3    1    3    3  502    0 -0.97607506324E+03 -0.25998698294E+03 -0.20472994895E+03  0.10306454883E+04  0.10100000352E+00 0.  1.
       -3    1    3    3    0  502  0.97607506324E+03  0.25998698294E+03  0.18494038830E+04  0.21072756091E+04  0.10100000352E+00 0. -1.
</event>
<event>
 5   0  0.7348964E-06  0.2719748E+04  0.7818609E-02  0.8328626E-01
       -1   -1    0    0    0  501  0.00000000000E+00  0.00000000000E+00  0.10939679266E+04  0.10939679267E+04  0.50400001928E-02 0.  1.
        1   -1    0    0  501    0  0.00000000000E+00  0.00000000000E+00 -0.16904125771E+04  0.16904125771E+04  0.50400001928E-02 0. -1.
    10030    2    1    2    0    0  0.00000000000E+00  0.00000000000E+00 -0.59644465047E+03  0.27843805038E+04  0.27197478870E+04 0.  0.
        1    1    3    3  502    0 -0.42644884134E+03  0.56339814722E+03 -0.14877204814E+04  0.16469937211E+04  0.50400001928E-02 0. -1.
       -1    1    3    3    0  502  0.42644884134E+03 -0.56339814722E+03  0.89127583092E+03  0.11373867827E+04  0.50400001928E-02 0.  1.
</event>
<event>
 5   0  0.7348964E-06  0.2697174E+04  0.7818609E-02  0.8335923E-01
        1   -1    0    0  501    0  0.00000000000E+00  0.00000000000E+00  0.11748055417E+04  0.11748055417E+04  0.50400001928E-02 0. -1.
       -1   -1    0    0    0  501  0.00000000000E+00  0.00000000000E+00 -0.15480747188E+04  0.15480747188E+04  0.50400001928E-02 0.  1.
    10030    2    1    2    0    0  0.00000000000E+00  0.00000000000E+00 -0.37326917714E+03  0.27228802606E+04  0.26971738978E+04 0.  0.
        1    1    3    3  502    0 -0.67520289792E+02  0.13269741118E+04  0.46362585378E+02  0.13294994443E+04  0.50400001928E-02 0.  1.
       -1    1    3    3    0  502  0.67520289792E+02 -0.13269741118E+04 -0.41963176252E+03  0.13933808163E+04  0.50400001928E-02 0. -1.
</event>
<event>
 5   0  0.6804685E-06  0.2731723E+04  0.7818609E-02  0.8324785E-01
       -1   -1    0    0    0  501  0.00000000000E+00  0.00000000000E+00  0.11322509747E+04  0.11322509747E+04  0.50400001928E-02 0.  1.
        1   -1    0    0  501    0  0.00000000000E+00  0.00000000000E+00 -0.16476714543E+04  0.16476714543E+04  0.50400001928E-02 0. -1.
    10030    2    1    2    0    0  0.00000000000E+00  0.00000000000E+00 -0.51542047965E+03  0.27799224290E+04  0.27317229802E+04 0.  0.
        2    1    3    3  502    0  0.73695692774E+03  0.69498317562E+03  0.67468218493E+03  0.12170879912E+04  0.25500000920E-02 0. -1.
       -2    1    3    3    0  502 -0.73695692774E+03 -0.69498317562E+03 -0.11901026646E+04  0.15628344378E+04  0.25500000920E-02 0.  1.
</event>
<event>
 5   0  0.1878160E-05  0.2689353E+04  0.7818609E-02  0.8338468E-01
        2   -1    0    0  501    0  0.00000000000E+00  0.00000000000E+00  0.22624603271E+04  0.22624603271E+04  0.25500000920E-02 0.  1.
       -2   -1    0    0    0  501  0.00000000000E+00  0.00000000000E+00 -0.79919834935E+03  0.79919834936E+03  0.25500000920E-02 0. -1.
    10030    2    1    2    0    0  0.00000000000E+00  0.00000000000E+00  0.14632619777E+04  0.30616586764E+04  0.26893527540E+04 0.  0.
        1    1    3    3  502    0 -0.11680836854E+04  0.62734930379E+03  0.98662032704E+03  0.16526966796E+04  0.50400001928E-02 0.  1.
       -1    1    3    3    0  502  0.11680836854E+04 -0.62734930379E+03  0.47664165067E+03  0.14089619968E+04  0.50400001928E-02 0. -1.
</event>
<event>
 5   0  0.1931119E-05  0.2696619E+04  0.7818609E-02  0.8336103E-01
       -2   -1    0    0    0  501  0.00000000000E+00  0.00000000000E+00  0.12490003813E+04  0.12490003813E+04  0.25500000920E-02 0. -1.
        2   -1    0    0  501    0  0.00000000000E+00  0.00000000000E+00 -0.14555144474E+04  0.14555144474E+04  0.25500000920E-02 0.  1.
    10030    2    1    2    0    0  0.00000000000E+00  0.00000000000E+00 -0.20651406610E+03  0.27045148287E+04  0.26966186974E+04 0.  0.
        3    1    3    3  502    0  0.99591973357E+01  0.58994624438E+03  0.11126469796E+04  0.12594121916E+04  0.10100000352E+00 0. -1.
       -3    1    3    3    0  502 -0.99591973357E+01 -0.58994624438E+03 -0.13191610457E+04  0.14451026371E+04  0.10100000352E+00 0.  1.
</event>
<event>
 5   0  0.1788003E-05  0.2674532E+04  0.7818609E-02  0.8343316E-01
        2   -1    0    0  501    0  0.00000000000E+00  0.00000000000E+00  0.30491376372E+04  0.30491376372E+04  0.25500000920E-02 0.  1.
       -2   -1    0    0    0  501  0.00000000000E+00  0.00000000000E+00 -0.58648729381E+03  0.58648729382E+03  0.25500000920E-02 0. -1.
    10030    2    1    2    0    0  0.00000000000E+00  0.00000000000E+00  0.24626503434E+04  0.36356249310E+04  0.26745320947E+04 0.  0.
        2    1    3    3  502    0  0.88548976225E+03  0.46673179274E+03  0.24367472683E+04  0.26343249487E+04  0.25500000920E-02 0.  1.
       -2    1    3    3    0  502 -0.88548976225E+03 -0.46673179274E+03  0.25903075069E+02  0.10012999824E+04  0.25500000920E-02 0. -1.
</event>
<event>
 5   0  0.1881699E-05  0.2938290E+04  0.7818609E-02  0.8261575E-01
        2   -1    0    0  501    0  0.00000000000E+00  0.00000000000E+00  0.17826182501E+04  0.17826182501E+04  0.25500000920E-02 0. -1.
       -2   -1    0    0    0  501  0.00000000000E+00  0.00000000000E+00 -0.12107958580E+04  0.12107958580E+04  0.25500000920E-02 0.  1.
    10030    2    1    2    0    0  0.00000000000E+00  0.00000000000E+00  0.57182239208E+03  0.29934141081E+04  0.29382898384E+04 0.  0.
        4    1    3    3  502    0  0.34754829841E+03  0.13689185634E+04 -0.12622418170E+03  0.14179781415E+04  0.12699999809E+01 0. -1.
       -4    1    3    3    0  502 -0.34754829841E+03 -0.13689185634E+04  0.69804657378E+03  0.15754359666E+04  0.12699999809E+01 0.  1.
</event>
<event>
 5   0  0.1931119E-05  0.2709685E+04  0.7818609E-02  0.8331869E-01
       -2   -1    0    0    0  501  0.00000000000E+00  0.00000000000E+00  0.11331695292E+04  0.11331695292E+04  0.25500000920E-02 0. -1.
        2   -1    0    0  501    0  0.00000000000E+00  0.00000000000E+00 -0.16198800968E+04  0.16198800968E+04  0.25500000920E-02 0.  1.
    10030    2    1    2    0    0  0.00000000000E+00  0.00000000000E+00 -0.48671056764E+03  0.27530496259E+04  0.27096854183E+04 0.  0.
        3    1    3    3  502    0 -0.62380973450E+03  0.11814058782E+04 -0.47221627640E+03  0.14169850584E+04  0.10100000352E+00 0.  1.
       -3    1    3    3    0  502  0.62380973450E+03 -0.11814058782E+04 -0.14494291245E+02  0.13360645675E+04  0.10100000352E+00 0. -1.
</event>
<event>
 5   0  0.7348964E-06  0.2702744E+04  0.7818609E-02  0.8334115E-01
        1   -1    0    0  501    0  0.00000000000E+00  0.00000000000E+00  0.12728008325E+04  0.12728008325E+04  0.50400001928E-02 0.  1.
       -1   -1    0    0    0  501  0.00000000000E+00  0.00000000000E+00 -0.14347938971E+04  0.14347938971E+04  0.50400001928E-02 0. -1.
    10030    2    1    2    0    0  0.00000000000E+00  0.00000000000E+00 -0.16199306463E+03  0.27075947296E+04  0.27027444324E+04 0.  0.
        1    1    3    3  502    0 -0.19405190533E+03  0.76264850463E+03 -0.11815662471E+04  0.14196435045E+04  0.50400001928E-02 0. -1.
       -1    1    3    3    0  502  0.19405190533E+03 -0.76264850463E+03  0.10195731825E+04  0.12879512251E+04  0.50400001928E-02 0.  1.
</event>
<event>
 5   0  0.1881699E-05  0.2706251E+04  0.7818609E-02  0.8332980E-01
        2   -1    0    0  501    0  0.00000000000E+00  0.00000000000E+00  0.97079466836E+03  0.97079466836E+03  0.25500000920E-02 0. -1.
       -2   -1    0    0    0  501  0.00000000000E+00  0.00000000000E+00 -0.18860304236E+04  0.18860304236E+04  0.25500000920E-02 0.  1.
    10030    2    1    2    0    0  0.00000000000E+00  0.00000000000E+00 -0.91523575521E+03  0.28568250919E+04  0.27062507493E+04 0.  0.
        4    1    3    3  502    0  0.44765334562E+03 -0.11102992033E+04  0.20817923686E+03  0.12151123595E+04  0.12699999809E+01 0. -1.
       -4    1    3    3    0  502 -0.44765334562E+03  0.11102992033E+04 -0.11234149921E+04  0.16417127325E+04  0.12699999809E+01 0.  1.
</event>
<event>
 5   0  0.1788003E-05  0.2634692E+04  0.7818609E-02  0.8356512E-01
        2   -1    0    0  501    0  0.00000000000E+00  0.00000000000E+00  0.16996033879E+04  0.16996033879E+04  0.25500000920E-02 0.  1.
       -2   -1    0    0    0  501  0.00000000000E+00  0.00000000000E+00 -0.10210621103E+04  0.10210621104E+04  0.25500000920E-02 0. -1.
    10030    2    1    2    0    0  0.00000000000E+00  0.00000000000E+00  0.67854127755E+03  0.27206654983E+04  0.26346921050E+04 0.  0.
        2    1    3    3  502    0 -0.18921710918E+03  0.62735767575E+03  0.15193743299E+04  0.16546537771E+04  0.25500000920E-02 0.  1.
       -2    1    3    3    0  502  0.18921710918E+03 -0.62735767575E+03 -0.84083305234E+03  0.10660117212E+04  0.25500000920E-02 0. -1.
</event>
<event>
 5   0  0.6804685E-06  0.2754105E+04  0.7818609E-02  0.8317660E-01
        1   -1    0    0  501    0  0.00000000000E+00  0.00000000000E+00  0.14579542578E+04  0.14579542578E+04  0.50400001928E-02 0.  1.
       -1   -1    0    0    0  501  0.00000000000E+00  0.00000000000E+00 -0.13006399237E+04  0.13006399237E+04  0.50400001928E-02 0. -1.
    10030    2    1    2    0    0  0.00000000000E+00  0.00000000000E+00  0.15731433415E+03  0.27585941815E+04  0.27541049469E+04 0.  0.
        2    1    3    3  502    0 -0.10333681622E+04 -0.74090470324E+03 -0.45086700217E+03  0.13490999191E+04  0.25500000920E-02 0. -1.
       -2    1    3    3    0  502  0.10333681622E+04  0.74090470324E+03  0.60818133632E+03  0.14094942624E+04  0.25500000920E-02 0.  1.
</event>
<event>
 5   0  0.6804685E-06  0.2571930E+04  0.7818609E-02  0.8377799E-01
       -1   -1    0    0    0  501  0.00000000000E+00  0.00000000000E+00  0.13095423400E+04  0.13095423400E+04  0.50400001928E-02 0.  1.
        1   -1    0    0  501    0  0.00000000000E+00  0.00000000000E+00 -0.12628119949E+04  0.12628119949E+04  0.50400001928E-02 0. -1.
    10030    2    1    2    0    0  0.00000000000E+00  0.00000000000E+00  0.46730345075E+02  0.25723543349E+04  0.25719298395E+04 0.  0.
        2    1    3    3  502    0  0.93353422408E+03  0.75791084385E+03 -0.43255080347E+03  0.12778948284E+04  0.25500000920E-02 0.  1.
       -2    1    3    3    0  502 -0.93353422408E+03 -0.75791084385E+03  0.47928114855E+03  0.12944595066E+04  0.25500000920E-02 0. -1.
</event>
<event>
 5   0  0.1878160E-05  0.2754569E+04  0.7818609E-02  0.8317513E-01
       -2   -1    0    0    0  501  0.00000000000E+00  0.00000000000E+00  0.76080465479E+03  0.76080465479E+03  0.25500000920E-02 0.  1.
        2   -1    0    0  501    0  0.00000000000E+00  0.00000000000E+00 -0.24932986322E+04  0.24932986322E+04  0.25500000920E-02 0. -1.
    10030    2    1    2    0    0  0.00000000000E+00  0.00000000000E+00 -0.17324939774E+04  0.32541032870E+04  0.27545694438E+04 0.  0.
        1    1    3    3  502    0  0.93563342053E+03  0.93176322981E+03 -0.13288174012E+04  0.18733254655E+04  0.50400001928E-02 0.  1.
       -1    1    3    3    0  502 -0.93563342053E+03 -0.93176322981E+03 -0.40367657621E+03  0.13807778215E+04  0.50400001928E-02 0. -1.
</event>
<event>
 5   0  0.7348964E-06  0.2712994E+04  0.7818609E-02  0.8330801E-01
       -1   -1    0    0    0  501  0.00000000000E+00  0.00000000000E+00  0.11434988226E+04  0.11434988226E+04  0.50400001928E-02 0. -1.
        1   -1    0    0  501    0  0.00000000000E+00  0.00000000000E+00 -0.16091699360E+04  0.16091699360E+04  0.50400001928E-02 0.  1.
    10030    2    1    2    0    0  0.00000000000E+00  0.00000000000E+00 -0.46567111340E+03  0.27526687586E+04  0.27129938645E+04 0.  0.
        1    1    3    3  502    0 -0.10491589673E+04 -0.23707289092E+03 -0.10714490656E+04  0.15182032784E+04  0.50400001928E-02 0.  1.
       -1    1    3    3    0  502  0.10491589673E+04  0.23707289092E+03  0.60577795224E+03  0.12344654802E+04  0.50400001928E-02 0. -1.
</event>
<event>
 5   0  0.7600052E-06  0.2708277E+04  0.7818609E-02  0.8332324E-01
       -1   -1    0    0    0  501  0.00000000000E+00  0.00000000000E+00  0.10029467036E+04  0.10029467036E+04  0.50400001928E-02 0.  1.
        1   -1    0    0  501    0  0.00000000000E+00  0.00000000000E+00 -0.18283031284E+04  0.18283031284E+04  0.50400001928E-02 0. -1.
    10030    2    1    2    0    0  0.00000000000E+00  0.00000000000E+00 -0.82535642479E+03  0.28312498320E+04  0.27082766445E+04 0.  0.
        5    1    3    3  502    0  0.49265516887E+03  0.19519193847E+03  0.89004229663E+03  0.10358602165E+04  0.46999998093E+01 0.  1.
       -5    1    3    3    0  502 -0.49265516887E+03 -0.19519193847E+03 -0.17153987214E+04  0.17953896156E+04  0.46999998093E+01 0. -1.
</event>
<event>
 5   0  0.7348964E-06  0.2093995E+04  0.7818609E-02  0.8563893E-01
       -1   -1    0    0    0  501  0.00000000000E+00  0.00000000000E+00  0.80699246366E+03  0.80699246367E+03  0.50400001928E-02 0. -1.
        1   -1    0    0  501    0  0.00000000000E+00  0.00000000000E+00 -0.13583818411E+04  0.13583818411E+04  0.50400001928E-02 0.  1.
    10030    2    1    2    0    0  0.00000000000E+00  0.00000000000E+00 -0.55138937743E+03  0.21653743048E+04  0.20939951371E+04 0.  0.
        1    1    3    3  502    0  0.61851834681E+03 -0.83890488458E+03 -0.17292096315E+03  0.10565169238E+04  0.50400001928E-02 0.  1.
       -1    1    3    3    0  502 -0.61851834681E+03  0.83890488458E+03 -0.37846841427E+03  0.11088573810E+04  0.50400001928E-02 0. -1.
</event>
<event>
 5   0  0.7351590E-06  0.2609725E+04  0.7818609E-02  0.8364905E-01
       -1   -1    0    0    0  501  0.00000000000E+00  0.00000000000E+00  0.10109151361E+04  0.10109151361E+04  0.50400001928E-02 0.  1.
        1   -1    0    0  501    0  0.00000000000E+00  0.00000000000E+00 -0.16842816139E+04  0.16842816139E+04  0.50400001928E-02 0. -1.
    10030    2    1    2    0    0  0.00000000000E+00  0.00000000000E+00 -0.67336647782E+03  0.26951967500E+04  0.26097247187E+04 0.  0.
        3    1    3    3  502    0 -0.39396868254E+02 -0.67897325901E+03  0.81339053256E+03  0.10602645747E+04  0.10100000352E+00 0.  1.
       -3    1    3    3    0  502  0.39396868254E+02  0.67897325901E+03 -0.14867570104E+04  0.16349321753E+04  0.10100000352E+00 0. -1.
</event>
<event>
 5   0  0.1931119E-05  0.2683594E+04  0.7818609E-02  0.8340348E-01
       -2   -1    0    0    0  501  0.00000000000E+00  0.00000000000E+00  0.11678127515E+04  0.11678127515E+04  0.25500000920E-02 0.  1.
        2   -1    0    0  501    0  0.00000000000E+00  0.00000000000E+00 -0.15417024102E+04  0.15417024102E+04  0.25500000920E-02 0. -1.
    10030    2    1    2    0    0  0.00000000000E+00  0.00000000000E+00 -0.37388965866E+03  0.27095151618E+04  0.26835944058E+04 0.  0.
        3    1    3    3  502    0  0.33155061082E+03  0.76623979758E+03  0.87361552804E+03  0.12084094240E+04  0.10100000352E+00 0.  1.
       -3    1    3    3    0  502 -0.33155061082E+03 -0.76623979758E+03 -0.12475051867E+04  0.15011057378E+04  0.10100000352E+00 0. -1.
</event>
<event>
 5   0  0.1878160E-05  0.2804616E+04  0.7818609E-02  0.8301837E-01
       -2   -1    0    0    0  501  0.00000000000E+00  0.00000000000E+00  0.15219938046E+04  0.15219938046E+04  0.25500000920E-02 0.  1.
        2   -1    0    0  501    0  0.00000000000E+00  0.00000000000E+00 -0.12920342578E+04  0.12920342578E+04  0.25500000920E-02 0. -1.
    10030    2    1    2    0    0  0.00000000000E+00  0.00000000000E+00  0.22995954675E+03  0.28140280624E+04  0.28046162916E+04 0.  0.
        1    1    3    3  502    0  0.43912244748E+03  0.72889574509E+03  0.12333280155E+04  0.14984043263E+04  0.50400001928E-02 0.  1.
       -1    1    3    3    0  502 -0.43912244748E+03 -0.72889574509E+03 -0.10033684687E+04  0.13156237362E+04  0.50400001928E-02 0. -1.
</event>
<event>
 5   0  0.1881699E-05  0.2646096E+04  0.7818609E-02  0.8352710E-01
        2   -1    0    0  501    0  0.00000000000E+00  0.00000000000E+00  0.81682320316E+03  0.81682320316E+03  0.25500000920E-02 0. -1.
       -2   -1    0    0    0  501  0.00000000000E+00  0.00000000000E+00 -0.21430050497E+04  0.21430050497E+04  0.25500000920E-02 0.  1.
    10030    2    1    2    0    0  0.00000000000E+00  0.00000000000E+00 -0.13261818465E+04  0.29598282528E+04  0.26460961805E+04 0.  0.
        4    1    3    3  502    0  0.13690382833E+02 -0.13164119292E+04 -0.51585269074E+03  0.14139425043E+04  0.12699999809E+01 0.  1.
       -4    1    3    3    0  502 -0.13690382833E+02  0.13164119292E+04 -0.81032915576E+03  0.15458857485E+04  0.12699999809E+01 0. -1.
</event>
<event>
 5   0  0.6804685E-06  0.2675337E+04  0.7818609E-02  0.8343052E-01
        1   -1    0    0  501    0  0.00000000000E+00  0.00000000000E+00  0.30749095855E+04  0.30749095855E+04  0.50400001928E-02 0.  1.
       -1   -1    0    0    0  501  0.00000000000E+00  0.00000000000E+00 -0.58192164017E+03  0.58192164019E+03  0.50400001928E-02 0. -1.
    10030    2    1    2    0    0  0.00000000000E+00  0.00000000000E+00  0.24929879453E+04  0.36568312257E+04  0.26753365616E+04 0.  0.
        2    1    3    3  502    0 -0.31592895548E+03 -0.16166817688E+03  0.30093870794E+04  0.30302406337E+04  0.25500000920E-02 0.  1.
       -2    1    3    3    0  502  0.31592895548E+03  0.16166817688E+03 -0.51639913407E+03  0.62659059202E+03  0.25500000920E-02 0. -1.
</event>
<event>
 5   0  0.1826851E-05  0.2753262E+04  0.7818609E-02  0.8317927E-01
       -2   -1    0    0    0  501  0.00000000000E+00  0.00000000000E+00  0.16520394740E+04  0.16520394740E+04  0.25500000920E-02 0.  1.
        2   -1    0    0  501    0  0.00000000000E+00  0.00000000000E+00 -0.11471356376E+04  0.11471356376E+04  0.25500000920E-02 0. -1.
    10030    2    1    2    0    0  0.00000000000E+00  0.00000000000E+00  0.50490383636E+03  0.27991751116E+04  0.27532623234E+04 0.  0.
        5    1    3    3  502    0 -0.10582910434E+04  0.78909199796E+03 -0.14450126101E+03  0.13279867538E+04  0.46999998093E+01 0. -1.
       -5    1    3    3    0  502  0.10582910434E+04 -0.78909199796E+03  0.64940509736E+03  0.14711883579E+04  0.46999998093E+01 0.  1.
</event>
<event>
 5   0  0.1826851E-05  0.2670990E+04  0.7818609E-02  0.8344480E-01
        2   -1    0    0  501    0  0.00000000000E+00  0.00000000000E+00  0.17829232800E+04  0.17829232800E+04  0.25500000920E-02 0.  1.
       -2   -1    0    0    0  501  0.00000000000E+00  0.00000000000E+00 -0.10003495518E+04  0.10003495518E+04  0.25500000920E-02 0. -1.
    10030    2    1    2    0    0  0.00000000000E+00  0.00000000000E+00  0.78257372822E+03  0.27832728318E+04  0.26709897072E+04 0.  0.
        5    1    3    3  502    0 -0.11825496262E+04 -0.31839008331E+03  0.94634067095E+03  0.15477010755E+04  0.46999998093E+01 0.  1.
       -5    1    3    3    0  502  0.11825496262E+04  0.31839008331E+03 -0.16376694273E+03  0.12355717563E+04  0.46999998093E+01 0. -1.
</event>
<event>
 5   0  0.1931119E-05  0.2705479E+04  0.7818609E-02  0.8333229E-01
       -2   -1    0    0    0  501  0.00000000000E+00  0.00000000000E+00  0.20019829126E+04  0.20019829126E+04  0.25500000920E-02 0. -1.
        2   -1    0    0  501    0  0.00000000000E+00  0.00000000000E+00 -0.91404613976E+03  0.91404613977E+03  0.25500000920E-02 0.  1.
    10030    2    1    2    0    0  0.00000000000E+00  0.00000000000E+00  0.10879367728E+04  0.29160290524E+04  0.27054794423E+04 0.  0.
        3    1    3    3  502    0  0.11137395121E+04  0.64459538240E+03  0.94390900588E+02  0.12902823568E+04  0.10100000352E+00 0.  1.
       -3    1    3    3    0  502 -0.11137395121E+04 -0.64459538240E+03  0.99354587223E+03  0.16257466956E+04  0.10100000352E+00 0. -1.
</event>
<event>
 5   0  0.1826851E-05  0.2705891E+04  0.7818609E-02  0.8333096E-01
       -2   -1    0    0    0  501  0.00000000000E+00  0.00000000000E+00  0.10675296375E+04  0.10675296375E+04  0.25500000920E-02 0.  1.
        2   -1    0    0  501    0  0.00000000000E+00  0.00000000000E+00 -0.17146707155E+04  0.17146707155E+04  0.25500000920E-02 0. -1.
    10030    2    1    2    0    0  0.00000000000E+00  0.00000000000E+00 -0.64714107800E+03  0.27822003530E+04  0.27058912080E+04 0.  0.
        5    1    3    3  502    0 -0.11460456601E+03  0.61876110770E+03  0.90788658109E+03  0.11046626857E+04  0.46999998093E+01 0.  1.
       -5    1    3    3    0  502  0.11460456601E+03 -0.61876110770E+03 -0.15550276591E+04  0.16775376674E+04  0.46999998093E+01 0. -1.
</event>
<event>
 5   0  0.1788003E-05  0.2154998E+04  0.7818609E-02  0.8537396E-01
        2   -1    0    0  501    0  0.00000000000E+00  0.00000000000E+00  0.11991734520E+04  0.11991734520E+04  0.25500000920E-02 0. -1.
       -2   -1    0    0    0  501  0.00000000000E+00  0.00000000000E+00 -0.96816984408E+03  0.96816984408E+03  0.25500000920E-02 0.  1.
    10030    2    1    2    0    0  0.00000000000E+00  0.00000000000E+00  0.23100360797E+03  0.21673432961E+04  0.21549975166E+04 0.  0.
        2    1    3    3  502    0  0.24214488230E+02 -0.48796687789E+03 -0.85036745943E+03  0.98072566573E+03  0.25500000920E-02 0.  1.
       -2    1    3    3    0  502 -0.24214488230E+02  0.48796687789E+03  0.10813710674E+04  0.11866176304E+04  0.25500000920E-02 0. -1.
</event>
<event>
 5   0  0.1826851E-05  0.2953968E+04  0.7818609E-02  0.8256999E-01
        2   -1    0    0  501    0  0.00000000000E+00  0.00000000000E+00  0.15770951086E+04  0.15770951086E+04  0.25500000920E-02 0.  1.
       -2   -1    0    0    0  501  0.00000000000E+00  0.00000000000E+00 -0.13832280695E+04  0.13832280695E+04  0.25500000920E-02 0. -1.
    10030    2    1    2    0    0  0.00000000000E+00  0.00000000000E+00  0.19386703914E+03  0.29603231781E+04  0.29539683292E+04 0.  0.
        5    1    3    3  502    0  0.35706829769E+02  0.13737784288E+04  0.63931681877E+03  0.15156814421E+04  0.46999998093E+01 0.  1.
       -5    1    3    3    0  502 -0.35706829769E+02 -0.13737784288E+04 -0.44544977963E+03  0.14446417360E+04  0.46999998093E+01 0. -1.
</event>
<event>
 5   0  0.1788003E-05  0.2675819E+04  0.7818609E-02  0.8342894E-01
        2   -1    0    0  501    0  0.00000000000E+00  0.00000000000E+00  0.66046929630E+03  0.66046929631E+03  0.25500000920E-02 0.  1.
       -2   -1    0    0    0  501  0.00000000000E+00  0.00000000000E+00 -0.27101967086E+04  0.27101967086E+04  0.25500000920E-02 0. -1.
    10030    2    1    2    0    0  0.00000000000E+00  0.00000000000E+00 -0.20497274123E+04  0.33706660049E+04  0.26758189124E+04 0.  0.
        2    1    3    3  502    0 -0.96687794476E+03  0.90610883685E+03 -0.12575308480E+04  0.18268196457E+04  0.25500000920E-02 0. -1.
       -2    1    3    3    0  502  0.96687794476E+03 -0.90610883685E+03 -0.79219656430E+03  0.15438463592E+04  0.25500000920E-02 0.  1.
</event>
<event>
 5   0  0.1881699E-05  0.2707691E+04  0.7818609E-02  0.8332514E-01
        2   -1    0    0  501    0  0.00000000000E+00  0.00000000000E+00  0.17467235601E+04  0.17467235601E+04  0.25500000920E-02 0. -1.
       -2   -1    0    0    0  501  0.00000000000E+00  0.00000000000E+00 -0.10493347164E+04  0.10493347164E+04  0.25500000920E-02 0.  1.
    10030    2    1    2    0    0  0.00000000000E+00  0.00000000000E+00  0.69738884375E+03  0.27960582765E+04  0.27076910248E+04 0.  0.
        4    1    3    3  502    0 -0.67236622579E+03 -0.23637718377E+03 -0.83993404723E+03  0.11015631308E+04  0.12699999809E+01 0.  1.
       -4    1    3    3    0  502  0.67236622579E+03  0.23637718377E+03  0.15373228910E+04  0.16944951456E+04  0.12699999809E+01 0. -1.
</event>
<event>
 5   0  0.1878160E-05  0.2695103E+04  0.7818609E-02  0.8336596E-01
       -2   -1    0    0    0  501  0.00000000000E+00  0.00000000000E+00  0.12872820997E+04  0.12872820997E+04  0.25500000920E-02 0. -1.
        2   -1    0    0  501    0  0.00000000000E+00  0.00000000000E+00 -0.14106424090E+04  0.14106424090E+04  0.25500000920E-02 0.  1.
    10030    2    1    2    0    0  0.00000000000E+00  0.00000000000E+00 -0.12336030928E+03  0.26979245086E+04  0.26951027603E+04 0.  0.
        1    1    3    3  502    0 -0.62777875578E+03  0.53764348889E+03  0.10037311221E+04  0.13002472276E+04  0.50400001928E-02 0. -1.
       -1    1    3    3    0  502  0.62777875578E+03 -0.53764348889E+03 -0.11270914313E+04  0.13976772811E+04  0.50400001928E-02 0.  1.
</event>
<event>
 5   0  0.7348964E-06  0.3031806E+04  0.7818609E-02  0.8234706E-01
        1   -1    0    0  501    0  0.00000000000E+00  0.00000000000E+00  0.18294393421E+04  0.18294393421E+04  0.50400001928E-02 0. -1.
       -1   -1    0    0    0  501  0.00000000000E+00  0.00000000000E+00 -0.12561017730E+04  0.12561017730E+04  0.50400001928E-02 0.  1.
    10030    2    1    2    0    0  0.00000000000E+00  0.00000000000E+00  0.57333756912E+03  0.30855411151E+04  0.30318060632E+04 0.  0.
        1    1    3    3  502    0 -0.27285660654E+03  0.74606545074E+03 -0.10272979895E+04  0.12986167810E+04  0.50400001928E-02 0.  1.
       -1    1    3    3    0  502  0.27285660654E+03 -0.74606545074E+03  0.16006355586E+04  0.17869243342E+04  0.50400001928E-02 0. -1.
</event>
<event>
 5   0  0.7600052E-06  0.2450184E+04  0.7818609E-02  0.8420951E-01
        1   -1    0    0  501    0  0.00000000000E+00  0.00000000000E+00  0.22290159748E+04  0.22290159748E+04  0.50400001928E-02 0.  1.
       -1   -1    0    0    0  501  0.00000000000E+00  0.00000000000E+00 -0.67332408566E+03  0.67332408568E+03  0.50400001928E-02 0. -1.
    10030    2    1    2    0    0  0.00000000000E+00  0.00000000000E+00  0.15556918892E+04  0.29023400605E+04  0.24501837835E+04 0.  0.
        5    1    3    3  502    0 -0.11065541798E+04 -0.50424848645E+03  0.95393790364E+03  0.15455576026E+04  0.46999998093E+01 0.  1.
       -5    1    3    3    0  502  0.11065541798E+04  0.50424848645E+03  0.60175398552E+03  0.13567824579E+04  0.46999998093E+01 0. -1.
</event>
<event>
 5   0  0.6804685E-06  0.2668596E+04  0.7818609E-02  0.8345267E-01
        1   -1    0    0  501    0  0.00000000000E+00  0.00000000000E+00  0.16870728680E+04  0.16870728680E+04  0.50400001928E-02 0.  1.
       -1   -1    0    0    0  501  0.00000000000E+00  0.00000000000E+00 -0.10552900027E+04  0.10552900027E+04  0.50400001928E-02 0. -1.
    10030    2    1    2    0    0  0.00000000000E+00  0.00000000000E+00  0.63178286529E+03  0.27423628707E+04  0.26685959840E+04 0.  0.
        2    1    3    3  502    0 -0.46991289532E+02 -0.67299091181E+03 -0.86711497256E+03  0.10986415814E+04  0.25500000920E-02 0. -1.
       -2    1    3    3    0  502  0.46991289532E+02  0.67299091181E+03  0.14988978378E+04  0.16437212893E+04  0.25500000920E-02 0.  1.
</event>
<event>
 5   0  0.6175875E-06  0.2712660E+04  0.7818609E-02  0.8330909E-01
        3   -1    0    0  501    0  0.00000000000E+00  0.00000000000E+00  0.15380815285E+04  0.15380815318E+04  0.10100000352E+00 0. -1.
       -3   -1    0    0    0  501  0.00000000000E+00  0.00000000000E+00 -0.11960557513E+04  0.11960557556E+04  0.10100000352E+00 0.  1.
    10030    2    1    2    0    0  0.00000000000E+00  0.00000000000E+00  0.34202577715E+03  0.27341372874E+04  0.27126601471E+04 0.  0.
        2    1    3    3  502    0 -0.47025438200E+03 -0.24513573089E+03 -0.10872299818E+04  0.12096692704E+04  0.25500000920E-02 0.  1.
       -2    1    3    3    0  502  0.47025438200E+03  0.24513573089E+03  0.14292557589E+04  0.15244680170E+04  0.25500000920E-02 0. -1.
</event>
<event>
 5   0  0.1878160E-05  0.2706100E+04  0.7818609E-02  0.8333028E-01
       -2   -1    0    0    0  501  0.00000000000E+00  0.00000000000E+00  0.11145238953E+04  0.11145238953E+04  0.25500000920E-02 0. -1.
        2   -1    0    0  501    0  0.00000000000E+00  0.00000000000E+00 -0.16426250559E+04  0.16426250559E+04  0.25500000920E-02 0.  1.
    10030    2    1    2    0    0  0.00000000000E+00  0.00000000000E+00 -0.52810116058E+03  0.27571489511E+04  0.27061004237E+04 0.  0.
        1    1    3    3  502    0 -0.12809420742E+04 -0.23991987174E+03 -0.63474180658E+03  0.14495762496E+04  0.50400001928E-02 0.  1.
       -1    1    3    3    0  502  0.12809420742E+04  0.23991987174E+03  0.10664064600E+03  0.13075727015E+04  0.50400001928E-02 0. -1.
</event>
<event>
 5   0  0.1881699E-05  0.2738551E+04  0.7818609E-02  0.8322604E-01
        2   -1    0    0  501    0  0.00000000000E+00  0.00000000000E+00  0.34961443064E+04  0.34961443064E+04  0.25500000920E-02 0. -1.
       -2   -1    0    0    0  501  0.00000000000E+00  0.00000000000E+00 -0.53628099350E+03  0.53628099351E+03  0.25500000920E-02 0.  1.
    10030    2    1    2    0    0  0.00000000000E+00  0.00000000000E+00  0.29598633129E+04  0.40324252999E+04  0.27385512536E+04 0.  0.
        4    1    3    3  502    0 -0.75659187165E+03 -0.62378631212E+03  0.28871764885E+04  0.30491523924E+04  0.12699999809E+01 0. -1.
       -4    1    3    3    0  502  0.75659187165E+03  0.62378631212E+03  0.72686824472E+02  0.98327290758E+03  0.12699999809E+01 0.  1.
</event>
<event>
 5   0  0.7754912E-06  0.2600036E+04  0.7818609E-02  0.8368189E-01
        1   -1    0    0  501    0  0.00000000000E+00  0.00000000000E+00  0.29962781553E+04  0.29962781553E+04  0.50400001928E-02 0.  1.
       -1   -1    0    0    0  501  0.00000000000E+00  0.00000000000E+00 -0.56404863868E+03  0.56404863870E+03  0.50400001928E-02 0. -1.
    10030    2    1    2    0    0  0.00000000000E+00  0.00000000000E+00  0.24322295166E+04  0.35603267940E+04  0.26000358572E+04 0.  0.
        4    1    3    3  502    0  0.98043558483E+03  0.64509836216E+03  0.45046135190E+03  0.12571089353E+04  0.12699999809E+01 0.  1.
       -4    1    3    3    0  502 -0.98043558483E+03 -0.64509836216E+03  0.19817681647E+04  0.23032178586E+04  0.12699999809E+01 0. -1.
</event>
<event>
 5   0  0.6804685E-06  0.2676781E+04  0.7818609E-02  0.8342578E-01
        1   -1    0    0  501    0  0.00000000000E+00  0.00000000000E+00  0.15673798340E+04  0.15673798340E+04  0.50400001928E-02 0. -1.
       -1   -1    0    0    0  501  0.00000000000E+00  0.00000000000E+00 -0.11428556807E+04  0.11428556807E+04  0.50400001928E-02 0.  1.
    10030    2    1    2    0    0  0.00000000000E+00  0.00000000000E+00  0.42452415335E+03  0.27102355147E+04  0.26767808629E+04 0.  0.
        2    1    3    3  502    0  0.10060895412E+04  0.50803923432E+02  0.11044629301E+04  0.14948697493E+04  0.25500000920E-02 0. -1.
       -2    1    3    3    0  502 -0.10060895412E+04 -0.50803923432E+02 -0.67993877673E+03  0.12153657654E+04  0.25500000920E-02 0.  1.
</event>
<event>
 5   0  0.6804685E-06  0.2775417E+04  0.7818609E-02  0.8310941E-01
       -1   -1    0    0    0  501  0.00000000000E+00  0.00000000000E+00  0.65419905013E+03  0.65419905015E+03  0.50400001928E-02 0.  1.
        1   -1    0    0  501    0  0.00000000000E+00  0.00000000000E+00 -0.29436517858E+04  0.29436517858E+04  0.50400001928E-02 0. -1.
    10030    2    1    2    0    0  0.00000000000E+00  0.00000000000E+00 -0.22894527357E+04  0.35978508359E+04  0.27754165109E+04 0.  0.
        2    1    3    3  502    0 -0.90912962362E+03 -0.10082093787E+04 -0.77186265794E+03  0.15616577047E+04  0.25500000920E-02 0.  1.
       -2    1    3    3    0  502  0.90912962362E+03  0.10082093787E+04 -0.15175900777E+04  0.20361931313E+04  0.25500000920E-02 0. -1.
</event>
<event>
 5   0  0.1788003E-05  0.2705003E+04  0.7818609E-02  0.8333384E-01
       -2   -1    0    0    0  501  0.00000000000E+00  0.00000000000E+00  0.13613150502E+04  0.13613150502E+04  0.25500000920E-02 0.  1.
        2   -1    0    0  501    0  0.00000000000E+00  0.00000000000E+00 -0.13437448475E+04  0.13437448475E+04  0.25500000920E-02 0. -1.
    10030    2    1    2    0    0  0.00000000000E+00  0.00000000000E+00  0.17570202709E+02  0.27050598977E+04  0.27050028351E+04 0.  0.
        2    1    3    3  502    0 -0.57434828976E+03 -0.93715286915E+03  0.79691886687E+03  0.13576491220E+04  0.25500000920E-02 0.  1.
       -2    1    3    3    0  502  0.57434828976E+03  0.93715286915E+03 -0.77934866416E+03  0.13474107757E+04  0.25500000920E-02 0. -1.
</event>
<event>
 5   0  0.7348964E-06  0.2709260E+04  0.7818609E-02  0.8332007E-01
        1   -1    0    0  501    0  0.00000000000E+00  0.00000000000E+00  0.14487719334E+04  0.14487719334E+04  0.50400001928E-02 0. -1.
       -1   -1    0    0    0  501  0.00000000000E+00  0.00000000000E+00 -0.12666051036E+04  0.12666051036E+04  0.50400001928E-02 0.  1.
    10030    2    1    2    0    0  0.00000000000E+00  0.00000000000E+00  0.18216682979E+03  0.27153770370E+04  0.27092596220E+04 0.  0.
        1    1    3    3  502    0  0.52821910105E+03  0.58929527947E+03  0.11929919039E+04  0.14316123874E+04  0.50400001928E-02 0. -1.
       -1    1    3    3    0  502 -0.52821910105E+03 -0.58929527947E+03 -0.10108250741E+04  0.12837646496E+04  0.50400001928E-02 0.  1.
</event>
<event>
 5   0  0.7754912E-06  0.2629663E+04  0.7818609E-02  0.8358195E-01
       -1   -1    0    0    0  501  0.00000000000E+00  0.00000000000E+00  0.15308326682E+04  0.15308326683E+04  0.50400001928E-02 0.  1.
        1   -1    0    0  501    0  0.00000000000E+00  0.00000000000E+00 -0.11293083324E+04  0.11293083324E+04  0.50400001928E-02 0. -1.
    10030    2    1    2    0    0  0.00000000000E+00  0.00000000000E+00  0.40152433587E+03  0.26601410006E+04  0.26296631630E+04 0.  0.
        4    1    3    3  502    0  0.36672172575E+03 -0.11982246388E+04  0.60356476974E+03  0.13908699268E+04  0.12699999809E+01 0. -1.
       -4    1    3    3    0  502 -0.36672172575E+03  0.11982246388E+04 -0.20204043387E+03  0.12692710738E+04  0.12699999809E+01 0.  1.
</event>
<event>
 5   0  0.7351590E-06  0.2715361E+04  0.7818609E-02  0.8330038E-01
       -1   -1    0    0    0  501  0.00000000000E+00  0.00000000000E+00  0.10529282664E+04  0.10529282664E+04  0.50400001928E-02 0.  1.
        1   -1    0    0  501    0  0.00000000000E+00  0.00000000000E+00 -0.17506382696E+04  0.17506382696E+04  0.50400001928E-02 0. -1.
    10030    2    1    2    0    0  0.00000000000E+00  0.00000000000E+00 -0.69771000314E+03  0.28035665360E+04  0.27153611313E+04 0.  0.
        3    1    3    3  502    0  0.79013757769E+03  0.10455049443E+04  0.17492805784E+02  0.13106120664E+04  0.10100000352E+00 0.  1.
       -3    1    3    3    0  502 -0.79013757769E+03 -0.10455049443E+04 -0.71520280892E+03  0.14929544696E+04  0.10100000352E+00 0. -1.
</event>
<event>
 5   0  0.7754912E-06  0.2660409E+04  0.7818609E-02  0.8347966E-01
        1   -1    0    0  501    0  0.00000000000E+00  0.00000000000E+00  0.14302207680E+04  0.14302207680E+04  0.50400001928E-02 0.  1.
       -1   -1    0    0    0  501  0.00000000000E+00  0.00000000000E+00 -0.12371822034E+04  0.12371822034E+04  0.50400001928E-02 0. -1.
    10030    2    1    2    0    0  0.00000000000E+00  0.00000000000E+00  0.19303856464E+03  0.26674029714E+04  0.26604087514E+04 0.  0.
        4    1    3    3  502    0  0.56912073452E+03 -0.46529237068E+03  0.12080576283E+04  0.14141429372E+04  0.12699999809E+01 0.  1.
       -4    1    3    3    0  502 -0.56912073452E+03  0.46529237068E+03 -0.10150190637E+04  0.12532600342E+04  0.12699999809E+01 0. -1.
</event>
<event>
 5   0  0.1881699E-05  0.2727442E+04  0.7818609E-02  0.8326155E-01
        2   -1    0    0  501    0  0.00000000000E+00  0.00000000000E+00  0.22489428672E+04  0.22489428672E+04  0.25500000920E-02 0.  1.
       -2   -1    0    0    0  501  0.00000000000E+00  0.00000000000E+00 -0.82693766180E+03  0.82693766181E+03  0.25500000920E-02 0. -1.
    10030    2    1    2    0    0  0.00000000000E+00  0.00000000000E+00  0.14220052054E+04  0.30758805291E+04  0.27274424329E+04 0.  0.
        4    1    3    3  502    0 -0.77167200728E+03 -0.25149245241E+03  0.19469124272E+04  0.21093116775E+04  0.12699999809E+01 0.  1.
       -4    1    3    3    0  502  0.77167200728E+03  0.25149245241E+03 -0.52490722181E+03  0.96656885158E+03  0.12699999809E+01 0. -1.
</event>
<event>
 5   0  0.1788003E-05  0.2698143E+04  0.7818609E-02  0.8335608E-01
        2   -1    0    0  501    0  0.00000000000E+00  0.00000000000E+00  0.10081385457E+04  0.10081385457E+04  0.25500000920E-02 0.  1.
       -2   -1    0    0    0  501  0.00000000000E+00  0.00000000000E+00 -0.18053019085E+04  0.18053019085E+04  0.25500000920E-02 0. -1.
    10030    2    1    2    0    0  0.00000000000E+00  0.00000000000E+00 -0.79716336280E+03  0.28134404542E+04  0.26981433918E+04 0.  0.
        2    1    3    3  502    0 -0.11322322670E+04  0.29388599251E+03 -0.10993686158E+04  0.16052819803E+04  0.25500000920E-02 0.  1.
       -2    1    3    3    0  502  0.11322322670E+04 -0.29388599251E+03  0.30220525296E+03  0.12081584739E+04  0.25500000920E-02 0. -1.
</event>
<event>
 5   0  0.1826851E-05  0.2703488E+04  0.7818609E-02  0.8333874E-01
       -2   -1    0    0    0  501  0.00000000000E+00  0.00000000000E+00  0.74296621222E+03  0.74296621223E+03  0.25500000920E-02 0. -1.
        2   -1    0    0  501    0  0.00000000000E+00  0.00000000000E+00 -0.24593468803E+04  0.24593468803E+04  0.25500000920E-02 0.  1.
    10030    2    1    2    0    0  0.00000000000E+00  0.00000000000E+00 -0.17163806681E+04  0.32023130925E+04  0.27034878481E+04 0.  0.
        5    1    3    3  502    0  0.78997400533E+02  0.13492758452E+04 -0.83439224606E+03  0.15884012107E+04  0.46999998093E+01 0. -1.
       -5    1    3    3    0  502 -0.78997400533E+02 -0.13492758452E+04 -0.88198842203E+03  0.16139118819E+04  0.46999998093E+01 0.  1.
</event>
<event>
 5   0  0.1931119E-05  0.2269376E+04  0.7818609E-02  0.8490094E-01
        2   -1    0    0  501    0  0.00000000000E+00  0.00000000000E+00  0.29854715457E+04  0.29854715457E+04  0.25500000920E-02 0.  1.
       -2   -1    0    0    0  501  0.00000000000E+00  0.00000000000E+00 -0.43126082057E+03  0.43126082058E+03  0.25500000920E-02 0. -1.
    10030    2    1    2    0    0  0.00000000000E+00  0.00000000000E+00  0.25542107252E+04  0.34167323663E+04  0.22693760452E+04 0.  0.
        3    1    3    3  502    0  0.10799027620E+04 -0.22707319761E+03  0.87943583140E+03  0.14110845489E+04  0.10100000352E+00 0.  1.
       -3    1    3    3    0  502 -0.10799027620E+04  0.22707319761E+03  0.16747748938E+04  0.20056478174E+04  0.10100000352E+00 0. -1.
</event>
<event>
 5   0  0.1878160E-05  0.2643395E+04  0.7818609E-02  0.8353609E-01
       -2   -1    0    0    0  501  0.00000000000E+00  0.00000000000E+00  0.10657489473E+04  0.10657489473E+04  0.25500000920E-02 0.  1.
        2   -1    0    0  501    0  0.00000000000E+00  0.00000000000E+00 -0.16391138931E+04  0.16391138931E+04  0.25500000920E-02 0. -1.
    10030    2    1    2    0    0  0.00000000000E+00  0.00000000000E+00 -0.57336494576E+03  0.27048628405E+04  0.26433947160E+04 0.  0.
        1    1    3    3  502    0  0.32882363854E+03 -0.73661126124E+03 -0.13580062751E+04  0.15795259348E+04  0.50400001928E-02 0. -1.
       -1    1    3    3    0  502 -0.32882363854E+03  0.73661126124E+03  0.78464132936E+03  0.11253369056E+04  0.50400001928E-02 0.  1.
</event>
<event>
 5   0  0.7351590E-06  0.2420412E+04  0.7818609E-02  0.8431901E-01
        1   -1    0    0  501    0  0.00000000000E+00  0.00000000000E+00  0.82924130431E+03  0.82924130432E+03  0.50400001928E-02 0. -1.
       -1   -1    0    0    0  501  0.00000000000E+00  0.00000000000E+00 -0.17661909231E+04  0.17661909231E+04  0.50400001928E-02 0.  1.
    10030    2    1    2    0    0  0.00000000000E+00  0.00000000000E+00 -0.93694961879E+03  0.25954322274E+04  0.24204119193E+04 0.  0.
        3    1    3    3  502    0 -0.15944119084E+02  0.59618154873E+03  0.66072010246E+03  0.89007736629E+03  0.10100000352E+00 0. -1.
       -3    1    3    3    0  502  0.15944119084E+02 -0.59618154873E+03 -0.15976697212E+04  0.17053548611E+04  0.10100000352E+00 0.  1.
</event>
<event>
 5   0  0.7351590E-06  0.2695949E+04  0.7818609E-02  0.8336321E-01
        1   -1    0    0  501    0  0.00000000000E+00  0.00000000000E+00  0.15731067525E+04  0.15731067526E+04  0.50400001928E-02 0. -1.
       -1   -1    0    0    0  501  0.00000000000E+00  0.00000000000E+00 -0.11550614260E+04  0.11550614260E+04  0.50400001928E-02 0.  1.
    10030    2    1    2    0    0  0.00000000000E+00  0.00000000000E+00  0.41804532659E+03  0.27281681785E+04  0.26959487597E+04 0.  0.
        3    1    3    3  502    0 -0.45935358396E+03  0.31314435771E+03  0.14516927080E+04  0.15545021173E+04  0.10100000352E+00 0. -1.
       -3    1    3    3    0  502  0.45935358396E+03 -0.31314435771E+03 -0.10336473815E+04  0.11736660612E+04  0.10100000352E+00 0.  1.
</event>
<event>
 5   0  0.1826851E-05  0.2697233E+04  0.7818609E-02  0.8335903E-01
        2   -1    0    0  501    0  0.00000000000E+00  0.00000000000E+00  0.13228921510E+04  0.13228921510E+04  0.25500000920E-02 0. -1.
       -2   -1    0    0    0  501  0.00000000000E+00  0.00000000000E+00 -0.13748415322E+04  0.13748415322E+04  0.25500000920E-02 0.  1.
    10030    2    1    2    0    0  0.00000000000E+00  0.00000000000E+00 -0.51949381144E+02  0.26977336832E+04  0.26972334507E+04 0.  0.
        5    1    3    3  502    0 -0.13298010786E+04  0.45497191812E+02 -0.24579734047E+03  0.13530998950E+04  0.46999998093E+01 0.  1.
       -5    1    3    3    0  502  0.13298010786E+04 -0.45497191812E+02  0.19384795932E+03  0.13446337883E+04  0.46999998093E+01 0. -1.
</event>
<event>
 5   0  0.7754912E-06  0.2634387E+04  0.7818609E-02  0.8356614E-01
       -1   -1    0    0    0  501  0.00000000000E+00  0.00000000000E+00  0.85984502655E+03  0.85984502656E+03  0.50400001928E-02 0. -1.
        1   -1    0    0  501    0  0.00000000000E+00  0.00000000000E+00 -0.20178044550E+04  0.20178044550E+04  0.50400001928E-02 0.  1.
    10030    2    1    2    0    0  0.00000000000E+00  0.00000000000E+00 -0.11579594284E+04  0.28776494815E+04  0.26343873103E+04 0.  0.
        4    1    3    3  502    0 -0.79114764395E+03 -0.54022794482E+03  0.40850912019E+03  0.10414615408E+04  0.12699999809E+01 0. -1.
       -4    1    3    3    0  502  0.79114764395E+03  0.54022794482E+03 -0.15664685486E+04  0.18361879407E+04  0.12699999809E+01 0.  1.
</event>
<event>
 5   0  0.1878160E-05  0.2718542E+04  0.7818609E-02  0.8329014E-01
       -2   -1    0    0    0  501  0.00000000000E+00  0.00000000000E+00  0.12523937134E+04  0.12523937134E+04  0.25500000920E-02 0. -1.
        2   -1    0    0  501    0  0.00000000000E+00  0.00000000000E+00 -0.14752686474E+04  0.14752686474E+04  0.25500000920E-02 0.  1.
    10030    2    1    2    0    0  0.00000000000E+00  0.00000000000E+00 -0.22287493396E+03  0.27276623608E+04  0.27185416528E+04 0.  0.
        1    1    3    3  502    0  0.57213645594E+03  0.10560260158E+03 -0.13440235139E+04  0.14645447210E+04  0.50400001928E-02 0.  1.
       -1    1    3    3    0  502 -0.57213645594E+03 -0.10560260158E+03  0.11211485800E+04  0.12631176398E+04  0.50400001928E-02 0. -1.
</event>
<event>
 5   0  0.1931119E-05  0.2665719E+04  0.7818609E-02  0.8346214E-01
        2   -1    0    0  501    0  0.00000000000E+00  0.00000000000E+00  0.13688121247E+04  0.13688121247E+04  0.25500000920E-02 0. -1.
       -2   -1    0    0    0  501  0.00000000000E+00  0.00000000000E+00 -0.12978514760E+04  0.12978514760E+04  0.25500000920E-02 0.  1.
    10030    2    1    2    0    0  0.00000000000E+00  0.00000000000E+00  0.70960648705E+02  0.26666636007E+04  0.26657192924E+04 0.  0.
        3    1    3    3  502    0  0.74753551958E+03 -0.81067883968E+03  0.78441454769E+03  0.13532611451E+04  0.10100000352E+00 0. -1.
       -3    1    3    3    0  502 -0.74753551958E+03  0.81067883968E+03 -0.71345389898E+03  0.13134024556E+04  0.10100000352E+00 0.  1.
</event>
<event>
 5   0  0.7351590E-06  0.2690388E+04  0.7818609E-02  0.8338130E-01
       -1   -1    0    0    0  501  0.00000000000E+00  0.00000000000E+00  0.16037124657E+04  0.16037124657E+04  0.50400001928E-02 0.  1.
        1   -1    0    0  501    0  0.00000000000E+00  0.00000000000E+00 -0.11283488955E+04  0.11283488956E+04  0.50400001928E-02 0. -1.
    10030    2    1    2    0    0  0.00000000000E+00  0.00000000000E+00  0.47536357014E+03  0.27320613612E+04  0.26903882169E+04 0.  0.
        3    1    3    3  502    0 -0.11982502093E+04 -0.61043973372E+03  0.20389562304E+03  0.13601520752E+04  0.10100000352E+00 0.  1.
       -3    1    3    3    0  502  0.11982502093E+04  0.61043973372E+03  0.27146794710E+03  0.13719092860E+04  0.10100000352E+00 0. -1.
</event>
<event>
 5   0  0.1931119E-05  0.2643279E+04  0.7818609E-02  0.8353647E-01
        2   -1    0    0  501    0  0.00000000000E+00  0.00000000000E+00  0.16310009364E+04  0.16310009364E+04  0.25500000920E-02 0. -1.
       -2   -1    0    0    0  501  0.00000000000E+00  0.00000000000E+00 -0.10709568354E+04  0.10709568354E+04  0.25500000920E-02 0.  1.
    10030    2    1    2    0    0  0.00000000000E+00  0.00000000000E+00  0.56004410099E+03  0.27019577718E+04  0.26432794793E+04 0.  0.
        3    1    3    3  502    0  0.76290055012E+03  0.10771532113E+04  0.21179226435E+03  0.13368366629E+04  0.10100000352E+00 0.  1.
       -3    1    3    3    0  502 -0.76290055012E+03 -0.10771532113E+04  0.34825183664E+03  0.13651211089E+04  0.10100000352E+00 0. -1.
</event>
<event>
 5   0  0.1878160E-05  0.2714821E+04  0.7818609E-02  0.8330212E-01
       -2   -1    0    0    0  501  0.00000000000E+00  0.00000000000E+00  0.95820047396E+03  0.95820047397E+03  0.25500000920E-02 0.  1.
        2   -1    0    0  501    0  0.00000000000E+00  0.00000000000E+00 -0.19229415878E+04  0.19229415878E+04  0.25500000920E-02 0. -1.
    10030    2    1    2    0    0  0.00000000000E+00  0.00000000000E+00 -0.96474111383E+03  0.28811420618E+04  0.27148212028E+04 0.  0.
        1    1    3    3  502    0 -0.12822480156E+03  0.22872103183E+03 -0.18958087495E+04  0.19138562445E+04  0.50400001928E-02 0. -1.
       -1    1    3    3    0  502  0.12822480156E+03 -0.22872103183E+03  0.93106763562E+03  0.96728581725E+03  0.50400001928E-02 0.  1.
</event>
<event>
 5   0  0.6804685E-06  0.2619703E+04  0.7818609E-02  0.8361539E-01
       -1   -1    0    0    0  501  0.00000000000E+00  0.00000000000E+00  0.11221725082E+04  0.11221725082E+04  0.50400001928E-02 0. -1.
        1   -1    0    0  501    0  0.00000000000E+00  0.00000000000E+00 -0.15289188678E+04  0.15289188679E+04  0.50400001928E-02 0.  1.
    10030    2    1    2    0    0  0.00000000000E+00  0.00000000000E+00 -0.40674635968E+03  0.26510913760E+04  0.26197028234E+04 0.  0.
        2    1    3    3  502    0  0.10583740915E+03  0.53811720557E+03 -0.14071376841E+04  0.15102344673E+04  0.25500000920E-02 0.  1.
       -2    1    3    3    0  502 -0.10583740915E+03 -0.53811720557E+03  0.10003913245E+04  0.11408569087E+04  0.25500000920E-02 0. -1.
</event>
<event>
 5   0  0.1881699E-05  0.2721658E+04  0.7818609E-02  0.8328012E-01
       -2   -1    0    0    0  501  0.00000000000E+00  0.00000000000E+00  0.70256467925E+03  0.70256467926E+03  0.25500000920E-02 0.  1.
        2   -1    0    0  501    0  0.00000000000E+00  0.00000000000E+00 -0.26358503649E+04  0.26358503649E+04  0.25500000920E-02 0. -1.
    10030    2    1    2    0    0  0.00000000000E+00  0.00000000000E+00 -0.19332856857E+04  0.33384150442E+04  0.27216578523E+04 0.  0.
        4    1    3    3  502    0  0.87820663569E+03 -0.70574680777E+03 -0.19028356843E+04  0.22113594701E+04  0.12699999809E+01 0. -1.
       -4    1    3    3    0  502 -0.87820663569E+03  0.70574680777E+03 -0.30450001402E+02  0.11270555741E+04  0.12699999809E+01 0.  1.
</event>
<event>
 5   0  0.1788003E-05  0.2572497E+04  0.7818609E-02  0.8377604E-01
        2   -1    0    0  501    0  0.00000000000E+00  0.00000000000E+00  0.18844755449E+04  0.18844755449E+04  0.25500000920E-02 0.  1.
       -2   -1    0    0    0  501  0.00000000000E+00  0.00000000000E+00 -0.87792903468E+03  0.87792903469E+03  0.25500000920E-02 0. -1.
    10030    2    1    2    0    0  0.00000000000E+00  0.00000000000E+00  0.10065465102E+04  0.27624045796E+04  0.25724974605E+04 0.  0.
        2    1    3    3  502    0  0.68268026083E+03 -0.10060186997E+04  0.52383260653E+02  0.12169100084E+04  0.25500000920E-02 0. -1.
       -2    1    3    3    0  502 -0.68268026083E+03  0.10060186997E+04  0.95416324957E+03  0.15454945712E+04  0.25500000920E-02 0.  1.
</event>
<event>
 5   0  0.7351590E-06  0.2741324E+04  0.7818609E-02  0.8321720E-01
       -1   -1    0    0    0  501  0.00000000000E+00  0.00000000000E+00  0.15164115681E+04  0.15164115681E+04  0.50400001928E-02 0.  1.
        1   -1    0    0  501    0  0.00000000000E+00  0.00000000000E+00 -0.12389210978E+04  0.12389210979E+04  0.50400001928E-02 0. -1.
    10030    2    1    2    0    0  0.00000000000E+00  0.00000000000E+00  0.27749047021E+03  0.27553326659E+04  0.27413239755E+04 0.  0.
        3    1    3    3  502    0 -0.12515160798E+04  0.55795337133E+03  0.17222931535E+03  0.13810385258E+04  0.10100000352E+00 0.  1.
       -3    1    3    3    0  502  0.12515160798E+04 -0.55795337133E+03  0.10526115485E+03  0.13742941401E+04  0.10100000352E+00 0. -1.
</event>
<event>
 5   0  0.7754912E-06  0.2687026E+04  0.7818609E-02  0.8339227E-01
        1   -1    0    0  501    0  0.00000000000E+00  0.00000000000E+00  0.53389505032E+03  0.53389505035E+03  0.50400001928E-02 0. -1.
       -1   -1    0    0    0  501  0.00000000000E+00  0.00000000000E+00 -0.33808661380E+04  0.33808661380E+04  0.50400001928E-02 0.  1.
    10030    2    1    2    0    0  0.00000000000E+00  0.00000000000E+00 -0.28469710876E+04  0.39147611883E+04  0.26870263839E+04 0.  0.
        4    1    3    3  502    0 -0.12479768169E+04 -0.19272227603E+03 -0.75514854945E+03  0.14713391709E+04  0.12699999809E+01 0. -1.
       -4    1    3    3    0  502  0.12479768169E+04  0.19272227603E+03 -0.20918225382E+04  0.24434220174E+04  0.12699999809E+01 0.  1.
</event>
<event>
 5   0  0.7600052E-06  0.2679838E+04  0.7818609E-02  0.8341577E-01
       -1   -1    0    0    0  501  0.00000000000E+00  0.00000000000E+00  0.10622969027E+04  0.10622969027E+04  0.50400001928E-02 0. -1.
        1   -1    0    0  501    0  0.00000000000E+00  0.00000000000E+00 -0.16900952021E+04  0.16900952021E+04  0.50400001928E-02 0.  1.
    10030    2    1    2    0    0  0.00000000000E+00  0.00000000000E+00 -0.62779829941E+03  0.27523921049E+04  0.26798379791E+04 0.  0.
        5    1    3    3  502    0 -0.39438682270E+03 -0.11223625228E+04 -0.94713192977E+03  0.15206313100E+04  0.46999998093E+01 0.  1.
       -5    1    3    3    0  502  0.39438682270E+03  0.11223625228E+04  0.31933363036E+03  0.12317607949E+04  0.46999998093E+01 0. -1.
</event>
<event>
 5   0  0.7754912E-06  0.2936202E+04  0.7818609E-02  0.8262187E-01
        1   -1    0    0  501    0  0.00000000000E+00  0.00000000000E+00  0.18387999917E+04  0.18387999917E+04  0.50400001928E-02 0. -1.
       -1   -1    0    0    0  501  0.00000000000E+00  0.00000000000E+00 -0.11721343561E+04  0.11721343561E+04  0.50400001928E-02 0.  1.
    10030    2    1    2    0    0  0.00000000000E+00  0.00000000000E+00  0.66666563562E+03  0.30109343478E+04  0.29362020668E+04 0.  0.
        4    1    3    3  502    0 -0.23081983641E+03  0.82961471365E+03  0.15526209997E+04  0.17754357076E+04  0.12699999809E+01 0. -1.
       -4    1    3    3    0  502  0.23081983641E+03 -0.82961471365E+03 -0.88595536413E+03  0.12354986403E+04  0.12699999809E+01 0.  1.
</event>
<event>
 5   0  0.7348964E-06  0.2682190E+04  0.7818609E-02  0.8340807E-01
        1   -1    0    0  501    0  0.00000000000E+00  0.00000000000E+00  0.20477379323E+04  0.20477379323E+04  0.50400001928E-02 0.  1.
       -1   -1    0    0    0  501  0.00000000000E+00  0.00000000000E+00 -0.87830346800E+03  0.87830346801E+03  0.50400001928E-02 0. -1.
    10030    2    1    2    0    0  0.00000000000E+00  0.00000000000E+00  0.11694344643E+04  0.29260414004E+04  0.26821896484E+04 0.  0.
        1    1    3    3  502    0 -0.43897043500E+03 -0.20419084340E+03 -0.77964497860E+03  0.91773375006E+03  0.50400001928E-02 0. -1.
       -1    1    3    3    0  502  0.43897043500E+03  0.20419084340E+03  0.19490794429E+04  0.20083076503E+04  0.50400001928E-02 0.  1.
</event>
<event>
 5   0  0.1826851E-05  0.2125395E+04  0.7818609E-02  0.8550138E-01
       -2   -1    0    0    0  501  0.00000000000E+00  0.00000000000E+00  0.63832257818E+03  0.63832257819E+03  0.25500000920E-02 0. -1.
        2   -1    0    0  501    0  0.00000000000E+00  0.00000000000E+00 -0.17692088762E+04  0.17692088762E+04  0.25500000920E-02 0.  1.
    10030    2    1    2    0    0  0.00000000000E+00  0.00000000000E+00 -0.11308862980E+04  0.24075314544E+04  0.21253949950E+04 0.  0.
        5    1    3    3  502    0 -0.43509111603E+03 -0.89155413998E+03 -0.99697428554E+03  0.14064682292E+04  0.46999998093E+01 0.  1.
       -5    1    3    3    0  502  0.43509111603E+03  0.89155413998E+03 -0.13391201250E+03  0.10010632252E+04  0.46999998093E+01 0. -1.
</event>
<event>
 5   0  0.7754912E-06  0.2855693E+04  0.7818609E-02  0.8286183E-01
        1   -1    0    0  501    0  0.00000000000E+00  0.00000000000E+00  0.25825915448E+04  0.25825915448E+04  0.50400001928E-02 0.  1.
       -1   -1    0    0    0  501  0.00000000000E+00  0.00000000000E+00 -0.78941875633E+03  0.78941875634E+03  0.50400001928E-02 0. -1.
    10030    2    1    2    0    0  0.00000000000E+00  0.00000000000E+00  0.17931727884E+04  0.33720103011E+04  0.28556934047E+04 0.  0.
        4    1    3    3  502    0  0.10073887023E+04  0.10055878349E+04  0.10296859594E+04  0.17567850406E+04  0.12699999809E+01 0.  1.
       -4    1    3    3    0  502 -0.10073887023E+04 -0.10055878349E+04  0.76348682901E+03  0.16152252605E+04  0.12699999809E+01 0. -1.
</event>
<event>
 5   0  0.6804685E-06  0.2736893E+04  0.7818609E-02  0.8323133E-01
       -1   -1    0    0    0  501  0.00000000000E+00  0.00000000000E+00  0.87886983763E+03  0.87886983764E+03  0.50400001928E-02 0.  1.
        1   -1    0    0  501    0  0.00000000000E+00  0.00000000000E+00 -0.21307425902E+04  0.21307425902E+04  0.50400001928E-02 0. -1.
    10030    2    1    2    0    0  0.00000000000E+00  0.00000000000E+00 -0.12518727526E+04  0.30096124279E+04  0.27368926865E+04 0.  0.
        2    1    3    3  502    0  0.94804001891E+03  0.95180857017E+03 -0.91253275822E+03  0.16240183086E+04  0.25500000920E-02 0.  1.
       -2    1    3    3    0  502 -0.94804001891E+03 -0.95180857017E+03 -0.33933999439E+03  0.13855941193E+04  0.25500000920E-02 0. -1.
</event>
<event>
 5   0  0.1931119E-05  0.2043535E+04  0.7818609E-02  0.8586533E-01
        2   -1    0    0  501    0  0.00000000000E+00  0.00000000000E+00  0.19417067536E+04  0.19417067536E+04  0.25500000920E-02 0.  1.
       -2   -1    0    0    0  501  0.00000000000E+00  0.00000000000E+00 -0.53767590823E+03  0.53767590823E+03  0.25500000920E-02 0. -1.
    10030    2    1    2    0    0  0.00000000000E+00  0.00000000000E+00  0.14040308454E+04  0.24793826618E+04  0.20435351157E+04 0.  0.
        3    1    3    3  502    0 -0.10221478254E+03 -0.99653919874E+03  0.45793565023E+03  0.11014732436E+04  0.10100000352E+00 0.  1.
       -3    1    3    3    0  502  0.10221478254E+03  0.99653919874E+03  0.94609519517E+03  0.13779094183E+04  0.10100000352E+00 0. -1.
</event>
<event>
 5   0  0.1931119E-05  0.2704620E+04  0.7818609E-02  0.8333508E-01
       -2   -1    0    0    0  501  0.00000000000E+00  0.00000000000E+00  0.13525780473E+04  0.13525780473E+04  0.25500000920E-02 0.  1.
        2   -1    0    0  501    0  0.00000000000E+00  0.00000000000E+00 -0.13520416876E+04  0.13520416876E+04  0.25500000920E-02 0. -1.
    10030    2    1    2    0    0  0.00000000000E+00  0.00000000000E+00  0.53635973297E+00  0.27046197350E+04  0.27046196818E+04 0.  0.
        3    1    3    3  502    0  0.57091452969E+03 -0.28380376626E+03  0.11928510799E+04  0.13525463715E+04  0.10100000352E+00 0.  1.
       -3    1    3    3    0  502 -0.57091452969E+03  0.28380376626E+03 -0.11923147202E+04  0.13520733635E+04  0.10100000352E+00 0. -1.
</event>
<event>
 5   0  0.7600052E-06  0.2718305E+04  0.7818609E-02  0.8329090E-01
       -1   -1    0    0    0  501  0.00000000000E+00  0.00000000000E+00  0.13870861271E+04  0.13870861271E+04  0.50400001928E-02 0. -1.
        1   -1    0    0  501    0  0.00000000000E+00  0.00000000000E+00 -0.13317817591E+04  0.13317817591E+04  0.50400001928E-02 0.  1.
    10030    2    1    2    0    0  0.00000000000E+00  0.00000000000E+00  0.55304368015E+02  0.27188678862E+04  0.27183053562E+04 0.  0.
        5    1    3    3  502    0  0.40225285953E+03  0.77951598529E+03 -0.10107444243E+04  0.13383119649E+04  0.46999998093E+01 0.  1.
       -5    1    3    3    0  502 -0.40225285953E+03 -0.77951598529E+03  0.10660487923E+04  0.13805559213E+04  0.46999998093E+01 0. -1.
</event>
<event>
 5   0  0.1826851E-05  0.2517774E+04  0.7818609E-02  0.8396681E-01
        2   -1    0    0  501    0  0.00000000000E+00  0.00000000000E+00  0.13567132057E+04  0.13567132057E+04  0.25500000920E-02 0. -1.
       -2   -1    0    0    0  501  0.00000000000E+00  0.00000000000E+00 -0.11681145938E+04  0.11681145938E+04  0.25500000920E-02 0.  1.
    10030    2    1    2    0    0  0.00000000000E+00  0.00000000000E+00  0.18859861189E+03  0.25248277995E+04  0.25177740131E+04 0.  0.
        5    1    3    3  502    0  0.49018403604E+03 -0.63170957224E+03  0.10693592625E+04  0.13352485518E+04  0.46999998093E+01 0. -1.
       -5    1    3    3    0  502 -0.49018403604E+03  0.63170957224E+03 -0.88076065064E+03  0.11895792477E+04  0.46999998093E+01 0.  1.
</event>
<event>
 5   0  0.1931119E-05  0.2702047E+04  0.7818609E-02  0.8334341E-01
        2   -1    0    0  501    0  0.00000000000E+00  0.00000000000E+00  0.18187302130E+04  0.18187302130E+04  0.25500000920E-02 0. -1.
       -2   -1    0    0    0  501  0.00000000000E+00  0.00000000000E+00 -0.10035926983E+04  0.10035926983E+04  0.25500000920E-02 0.  1.
    10030    2    1    2    0    0  0.00000000000E+00  0.00000000000E+00  0.81513751474E+03  0.28223229113E+04  0.27020468996E+04 0.  0.
        3    1    3    3  502    0  0.12908598673E+04  0.34856714687E+03  0.20544511896E+03  0.13527845209E+04  0.10100000352E+00 0.  1.
       -3    1    3    3    0  502 -0.12908598673E+04 -0.34856714687E+03  0.60969239578E+03  0.14695383903E+04  0.10100000352E+00 0. -1.
</event>
<event>
 5   0  0.7351590E-06  0.2631018E+04  0.7818609E-02  0.8357741E-01
       -1   -1    0    0    0  501  0.00000000000E+00  0.00000000000E+00  0.11905149648E+04  0.11905149648E+04  0.50400001928E-02 0. -1.
        1   -1    0    0  501    0  0.00000000000E+00  0.00000000000E+00 -0.14536260122E+04  0.14536260122E+04  0.50400001928E-02 0.  1.
    10030    2    1    2    0    0  0.00000000000E+00  0.00000000000E+00 -0.26311104746E+03  0.26441409770E+04  0.26310176896E+04 0.  0.
        3    1    3    3  502    0  0.56878440027E+03 -0.77689501955E+03 -0.10323980912E+04  0.14117108041E+04  0.10100000352E+00 0.  1.
       -3    1    3    3    0  502 -0.56878440027E+03  0.77689501955E+03  0.76928704374E+03  0.12324301730E+04  0.10100000352E+00 0. -1.
</event>
<event>
 5   0  0.7351590E-06  0.2686049E+04  0.7818609E-02  0.8339546E-01
        1   -1    0    0  501    0  0.00000000000E+00  0.00000000000E+00  0.18370961194E+04  0.18370961194E+04  0.50400001928E-02 0. -1.
       -1   -1    0    0    0  501  0.00000000000E+00  0.00000000000E+00 -0.98182947045E+03  0.98182947047E+03  0.50400001928E-02 0.  1.
    10030    2    1    2    0    0  0.00000000000E+00  0.00000000000E+00  0.85526664893E+03  0.28189255899E+04  0.26860492252E+04 0.  0.
        3    1    3    3  502    0 -0.25624852208E+03  0.77776004979E+03  0.15447837125E+04  0.17484080556E+04  0.10100000352E+00 0. -1.
       -3    1    3    3    0  502  0.25624852208E+03 -0.77776004979E+03 -0.68951706356E+03  0.10705175343E+04  0.10100000352E+00 0.  1.
</event>
<event>
 5   0  0.7754912E-06  0.2702589E+04  0.7818609E-02  0.8334165E-01
        1   -1    0    0  501    0  0.00000000000E+00  0.00000000000E+00  0.14996488819E+04  0.14996488819E+04  0.50400001928E-02 0. -1.
       -1   -1    0    0    0  501  0.00000000000E+00  0.00000000000E+00 -0.12176160630E+04  0.12176160630E+04  0.50400001928E-02 0.  1.
    10030    2    1    2    0    0  0.00000000000E+00  0.00000000000E+00  0.28203281897E+03  0.27172649449E+04  0.27025888089E+04 0.  0.
        4    1    3    3  502    0 -0.49379610654E+02 -0.13147086137E+04 -0.16903763860E+03  0.13264510625E+04  0.12699999809E+01 0.  1.
       -4    1    3    3    0  502  0.49379610654E+02  0.13147086137E+04  0.45107045757E+03  0.13908138824E+04  0.12699999809E+01 0. -1.
</event>
<event>
 5   0  0.1878160E-05  0.2543181E+04  0.7818609E-02  0.8387762E-01
        2   -1    0    0  501    0  0.00000000000E+00  0.00000000000E+00  0.15149917934E+04  0.15149917934E+04  0.25500000920E-02 0. -1.
       -2   -1    0    0    0  501  0.00000000000E+00  0.00000000000E+00 -0.10672941091E+04  0.10672941091E+04  0.25500000920E-02 0.  1.
    10030    2    1    2    0    0  0.00000000000E+00  0.00000000000E+00  0.44769768433E+03  0.25822859025E+04  0.25431805413E+04 0.  0.
        1    1    3    3  502    0  0.10228112392E+04  0.49172294608E+02  0.98935190947E+03  0.14238602271E+04  0.50400001928E-02 0. -1.
       -1    1    3    3    0  502 -0.10228112392E+04 -0.49172294608E+02 -0.54165422514E+03  0.11584256753E+04  0.50400001928E-02 0.  1.
</event>
<event>
 5   0  0.6175875E-06  0.2278469E+04  0.7818609E-02  0.8486459E-01
        4   -1    0    0  501    0  0.00000000000E+00  0.00000000000E+00  0.13304444070E+04  0.13304450131E+04  0.12699999809E+01 0. -1.
       -4   -1    0    0    0  501  0.00000000000E+00  0.00000000000E+00 -0.97550384201E+03  0.97550466871E+03  0.12699999809E+01 0.  1.
    10030    2    1    2    0    0  0.00000000000E+00  0.00000000000E+00  0.35494056497E+03  0.23059496818E+04  0.22784690322E+04 0.  0.
        5    1    3    3  502    0  0.25718855874E+03  0.60150597222E+03 -0.76645109220E+03  0.10076828648E+04  0.46999998093E+01 0.  1.
       -5    1    3    3    0  502 -0.25718855874E+03 -0.60150597222E+03  0.11213916572E+04  0.12982668170E+04  0.46999998093E+01 0. -1.
</event>
<event>
 5   0  0.1788003E-05  0.2742773E+04  0.7818609E-02  0.8321259E-01
       -2   -1    0    0    0  501  0.00000000000E+00  0.00000000000E+00  0.79740441875E+03  0.79740441876E+03  0.25500000920E-02 0.  1.
        2   -1    0    0  501    0  0.00000000000E+00  0.00000000000E+00 -0.23585283626E+04  0.23585283626E+04  0.25500000920E-02 0. -1.
    10030    2    1    2    0    0  0.00000000000E+00  0.00000000000E+00 -0.15611239439E+04  0.31559327814E+04  0.27427730042E+04 0.  0.
        2    1    3    3  502    0 -0.11165766832E+04 -0.33503429157E+03  0.50536031804E+02  0.11668527570E+04  0.25500000920E-02 0.  1.
       -2    1    3    3    0  502  0.11165766832E+04  0.33503429157E+03 -0.16116599757E+04  0.19890800243E+04  0.25500000920E-02 0. -1.
</event>
<event>
 5   0  0.1931119E-05  0.2705894E+04  0.7818609E-02  0.8333095E-01
        2   -1    0    0  501    0  0.00000000000E+00  0.00000000000E+00  0.17303434670E+04  0.17303434670E+04  0.25500000920E-02 0. -1.
       -2   -1    0    0    0  501  0.00000000000E+00  0.00000000000E+00 -0.10578626098E+04  0.10578626098E+04  0.25500000920E-02 0.  1.
    10030    2    1    2    0    0  0.00000000000E+00  0.00000000000E+00  0.67248085726E+03  0.27882060768E+04  0.27058940525E+04 0.  0.
        3    1    3    3  502    0 -0.43848115520E+02 -0.46716441229E+03 -0.97133735095E+03  0.10787314332E+04  0.10100000352E+00 0.  1.
       -3    1    3    3    0  502  0.43848115520E+02  0.46716441229E+03  0.16438182082E+04  0.17094746436E+04  0.10100000352E+00 0. -1.
</event>
<event>
 5   0  0.6804685E-06  0.2660807E+04  0.7818609E-02  0.8347835E-01
        1   -1    0    0  501    0  0.00000000000E+00  0.00000000000E+00  0.23526564698E+04  0.23526564698E+04  0.50400001928E-02 0. -1.
       -1   -1    0    0    0  501  0.00000000000E+00  0.00000000000E+00 -0.75232982002E+03  0.75232982004E+03  0.50400001928E-02 0.  1.
    10030    2    1    2    0    0  0.00000000000E+00  0.00000000000E+00  0.16003266498E+04  0.31049862899E+04  0.26608071096E+04 0.  0.
        2    1    3    3  502    0 -0.11980023774E+04  0.23036447936E+03  0.18081248037E+03  0.12332763853E+04  0.25500000920E-02 0.  1.
       -2    1    3    3    0  502  0.11980023774E+04 -0.23036447936E+03  0.14195141694E+04  0.18717099046E+04  0.25500000920E-02 0. -1.
</event>
<event>
 5   0  0.7348964E-06  0.3053426E+04  0.7818609E-02  0.8228637E-01
        1   -1    0    0  501    0  0.00000000000E+00  0.00000000000E+00  0.12841326850E+04  0.12841326850E+04  0.50400001928E-02 0. -1.
       -1   -1    0    0    0  501  0.00000000000E+00  0.00000000000E+00 -0.18151180484E+04  0.18151180484E+04  0.50400001928E-02 0.  1.
    10030    2    1    2    0    0  0.00000000000E+00  0.00000000000E+00 -0.53098536348E+03  0.30992507334E+04  0.30534258878E+04 0.  0.
        1    1    3    3  502    0  0.17020809049E+03 -0.10861990177E+04 -0.13406600514E+04  0.17338305781E+04  0.50400001928E-02 0.  1.
       -1    1    3    3    0  502 -0.17020809049E+03  0.10861990177E+04  0.80967468794E+03  0.13654201553E+04  0.50400001928E-02 0. -1.
</event>
<event>
 5   0  0.1931119E-05  0.2707723E+04  0.7818609E-02  0.8332504E-01
       -2   -1    0    0    0  501  0.00000000000E+00  0.00000000000E+00  0.67613954211E+03  0.67613954211E+03  0.25500000920E-02 0.  1.
        2   -1    0    0  501    0  0.00000000000E+00  0.00000000000E+00 -0.27108912017E+04  0.27108912017E+04  0.25500000920E-02 0. -1.
    10030    2    1    2    0    0  0.00000000000E+00  0.00000000000E+00 -0.20347516596E+04  0.33870307438E+04  0.27077228335E+04 0.  0.
        3    1    3    3  502    0  0.12002137951E+04 -0.62381554856E+03 -0.94571752072E+03  0.16504667921E+04  0.10100000352E+00 0. -1.
       -3    1    3    3    0  502 -0.12002137951E+04  0.62381554856E+03 -0.10890341389E+04  0.17365639517E+04  0.10100000352E+00 0.  1.
</event>
<event>
 5   0  0.1826851E-05  0.2736787E+04  0.7818609E-02  0.8323167E-01
        2   -1    0    0  501    0  0.00000000000E+00  0.00000000000E+00  0.11191233277E+04  0.11191233277E+04  0.25500000920E-02 0.  1.
       -2   -1    0    0    0  501  0.00000000000E+00  0.00000000000E+00 -0.16731853132E+04  0.16731853132E+04  0.25500000920E-02 0. -1.
    10030    2    1    2    0    0  0.00000000000E+00  0.00000000000E+00 -0.55406198552E+03  0.27923086410E+04  0.27367869597E+04 0.  0.
        5    1    3    3  502    0  0.69000360643E+02  0.34988146575E+03  0.10708685918E+04  0.11286982416E+04  0.46999998093E+01 0.  1.
       -5    1    3    3    0  502 -0.69000360643E+02 -0.34988146575E+03 -0.16249305773E+04  0.16636103993E+04  0.46999998093E+01 0. -1.
</event>
<event>
 5   0  0.7351590E-06  0.2577067E+04  0.7818609E-02  0.8376033E-01
       -1   -1    0    0    0  501  0.00000000000E+00  0.00000000000E+00  0.77035518087E+03  0.77035518089E+03  0.50400001928E-02 0.  1.
        1   -1    0    0  501    0  0.00000000000E+00  0.00000000000E+00 -0.21552629227E+04  0.21552629227E+04  0.50400001928E-02 0. -1.
    10030    2    1    2    0    0  0.00000000000E+00  0.00000000000E+00 -0.13849077419E+04  0.29256181036E+04  0.25770665174E+04 0.  0.
        3    1    3    3  502    0  0.47067984504E+03 -0.24027394234E+03  0.64167018302E+03  0.83127114582E+03  0.10100000352E+00 0.  1.
       -3    1    3    3    0  502 -0.47067984504E+03  0.24027394234E+03 -0.20265779249E+04  0.20943469578E+04  0.10100000352E+00 0. -1.
</event>
<event>
 5   0  0.7754912E-06  0.2676664E+04  0.7818609E-02  0.8342617E-01
        1   -1    0    0  501    0  0.00000000000E+00  0.00000000000E+00  0.24948060876E+04  0.24948060876E+04  0.50400001928E-02 0. -1.
       -1   -1    0    0    0  501  0.00000000000E+00  0.00000000000E+00 -0.71794450662E+03  0.71794450664E+03  0.50400001928E-02 0.  1.
    10030    2    1    2    0    0  0.00000000000E+00  0.00000000000E+00  0.17768615809E+04  0.32127505942E+04  0.26766638382E+04 0.  0.
        4    1    3    3  502    0  0.73136133943E+03 -0.32252157506E+03 -0.39997034833E+03  0.89380505013E+03  0.12699999809E+01 0.  1.
       -4    1    3    3    0  502 -0.73136133943E+03  0.32252157506E+03  0.21768319293E+04  0.23189455441E+04  0.12699999809E+01 0. -1.
</event>
<event>
 5   0  0.6804685E-06  0.2739492E+04  0.7818609E-02  0.8322304E-01
        1   -1    0    0  501    0  0.00000000000E+00  0.00000000000E+00  0.24760723570E+04  0.24760723570E+04  0.50400001928E-02 0. -1.
       -1   -1    0    0    0  501  0.00000000000E+00  0.00000000000E+00 -0.75773407310E+03  0.75773407312E+03  0.50400001928E-02 0.  1.
    10030    2    1    2    0    0  0.00000000000E+00  0.00000000000E+00  0.17183382839E+04  0.32338064301E+04  0.27394922102E+04 0.  0.
        2    1    3    3  502    0 -0.76346886931E+03 -0.11234720489E+02  0.22015498437E+04  0.23302001304E+04  0.25500000920E-02 0. -1.
       -2    1    3    3    0  502  0.76346886931E+03  0.11234720489E+02 -0.48321155982E+03  0.90360629972E+03  0.25500000920E-02 0.  1.
</event>
<event>
 5   0  0.1881699E-05  0.2714255E+04  0.7818609E-02  0.8330394E-01
       -2   -1    0    0    0  501  0.00000000000E+00  0.00000000000E+00  0.13817528007E+04  0.13817528007E+04  0.25500000920E-02 0.  1.
        2   -1    0    0  501    0  0.00000000000E+00  0.00000000000E+00 -0.13329415188E+04  0.13329415188E+04  0.25500000920E-02 0. -1.
    10030    2    1    2    0    0  0.00000000000E+00  0.00000000000E+00  0.48811281885E+02  0.27146943195E+04  0.27142554609E+04 0.  0.
        4    1    3    3  502    0  0.47491380324E+03  0.24379717820E+03  0.12723308597E+04  0.13797853507E+04  0.12699999809E+01 0.  1.
       -4    1    3    3    0  502 -0.47491380324E+03 -0.24379717820E+03 -0.12235195779E+04  0.13349089688E+04  0.12699999809E+01 0. -1.
</event>
<event>
 5   0  0.7600052E-06  0.2565143E+04  0.7818609E-02  0.8380139E-01
        1   -1    0    0  501    0  0.00000000000E+00  0.00000000000E+00  0.77629912616E+03  0.77629912618E+03  0.50400001928E-02 0.  1.
       -1   -1    0    0    0  501  0.00000000000E+00  0.00000000000E+00 -0.21190156634E+04  0.21190156634E+04  0.50400001928E-02 0. -1.
    10030    2    1    2    0    0  0.00000000000E+00  0.00000000000E+00 -0.13427165373E+04  0.28953147896E+04  0.25651432770E+04 0.  0.
        5    1    3    3  502    0  0.29663876823E+03  0.11913471384E+04 -0.10901484494E+04  0.16418734101E+04  0.46999998093E+01 0.  1.
       -5    1    3    3    0  502 -0.29663876823E+03 -0.11913471384E+04 -0.25256808786E+03  0.12534413795E+04  0.46999998093E+01 0. -1.
</event>
<event>
 5   0  0.1826851E-05  0.2675099E+04  0.7818609E-02  0.8343130E-01
        2   -1    0    0  501    0  0.00000000000E+00  0.00000000000E+00  0.75584345992E+03  0.75584345993E+03  0.25500000920E-02 0. -1.
       -2   -1    0    0    0  501  0.00000000000E+00  0.00000000000E+00 -0.23669438302E+04  0.23669438302E+04  0.25500000920E-02 0.  1.
    10030    2    1    2    0    0  0.00000000000E+00  0.00000000000E+00 -0.16111003703E+04  0.31227872902E+04  0.26750992610E+04 0.  0.
        5    1    3    3  502    0 -0.69791559712E+03  0.30353187752E+03 -0.20895327838E+04  0.22238226381E+04  0.46999998093E+01 0.  1.
       -5    1    3    3    0  502  0.69791559712E+03 -0.30353187752E+03  0.47843241346E+03  0.89896465204E+03  0.46999998093E+01 0. -1.
</event>
<event>
 5   0  0.6804685E-06  0.2709960E+04  0.7818609E-02  0.8331781E-01
       -1   -1    0    0    0  501  0.00000000000E+00  0.00000000000E+00  0.12395167127E+04  0.12395167127E+04  0.50400001928E-02 0.  1.
        1   -1    0    0  501    0  0.00000000000E+00  0.00000000000E+00 -0.14811984263E+04  0.14811984263E+04  0.50400001928E-02 0. -1.
    10030    2    1    2    0    0  0.00000000000E+00  0.00000000000E+00 -0.24168171360E+03  0.27207151390E+04  0.27099595600E+04 0.  0.
        2    1    3    3  502    0 -0.10610216142E+04  0.72513330668E+03  0.31026417069E+03  0.13220624168E+04  0.25500000920E-02 0.  1.
       -2    1    3    3    0  502  0.10610216142E+04 -0.72513330668E+03 -0.55194588429E+03  0.13986527222E+04  0.25500000920E-02 0. -1.
</event>
<event>
 5   0  0.1878160E-05  0.2675365E+04  0.7818609E-02  0.8343043E-01
       -2   -1    0    0    0  501  0.00000000000E+00  0.00000000000E+00  0.11007005437E+04  0.11007005437E+04  0.25500000920E-02 0.  1.
        2   -1    0    0  501    0  0.00000000000E+00  0.00000000000E+00 -0.16256864770E+04  0.16256864770E+04  0.25500000920E-02 0. -1.
    10030    2    1    2    0    0  0.00000000000E+00  0.00000000000E+00 -0.52498593329E+03  0.27263870207E+04  0.26753646399E+04 0.  0.
        1    1    3    3  502    0 -0.15769307572E+03 -0.35202793146E+03 -0.15677808375E+04  0.16145363189E+04  0.50400001928E-02 0. -1.
       -1    1    3    3    0  502  0.15769307572E+03  0.35202793146E+03  0.10427949042E+04  0.11118507017E+04  0.50400001928E-02 0.  1.
</event>
<event>
 5   0  0.7600052E-06  0.2700063E+04  0.7818609E-02  0.8334984E-01
        1   -1    0    0  501    0  0.00000000000E+00  0.00000000000E+00  0.25658784127E+04  0.25658784128E+04  0.50400001928E-02 0.  1.
       -1   -1    0    0    0  501  0.00000000000E+00  0.00000000000E+00 -0.71031631351E+03  0.71031631353E+03  0.50400001928E-02 0. -1.
    10030    2    1    2    0    0  0.00000000000E+00  0.00000000000E+00  0.18555620992E+04  0.32761947263E+04  0.27000631808E+04 0.  0.
        5    1    3    3  502    0 -0.24212283059E+03  0.18302994800E+03 -0.66837013709E+03  0.73407367281E+03  0.46999998093E+01 0. -1.
       -5    1    3    3    0  502  0.24212283059E+03 -0.18302994800E+03  0.25239322363E+04  0.25421210535E+04  0.46999998093E+01 0.  1.
</event>
<event>
 5   0  0.6804685E-06  0.2537207E+04  0.7818609E-02  0.8389849E-01
        1   -1    0    0  501    0  0.00000000000E+00  0.00000000000E+00  0.90624818066E+03  0.90624818067E+03  0.50400001928E-02 0.  1.
       -1   -1    0    0    0  501  0.00000000000E+00  0.00000000000E+00 -0.17758439752E+04  0.17758439753E+04  0.50400001928E-02 0. -1.
    10030    2    1    2    0    0  0.00000000000E+00  0.00000000000E+00 -0.86959579459E+03  0.26820921559E+04  0.25372074190E+04 0.  0.
        2    1    3    3  502    0 -0.68542289499E+03  0.78568683805E+03 -0.11987316668E+04  0.15887309280E+04  0.25500000920E-02 0. -1.
       -2    1    3    3    0  502  0.68542289499E+03 -0.78568683805E+03  0.32913587220E+03  0.10933612280E+04  0.25500000920E-02 0.  1.
</event>
<event>
 5   0  0.1788003E-05  0.2704800E+04  0.7818609E-02  0.8333449E-01
       -2   -1    0    0    0  501  0.00000000000E+00  0.00000000000E+00  0.12252080744E+04  0.12252080744E+04  0.25500000920E-02 0.  1.
        2   -1    0    0  501    0  0.00000000000E+00  0.00000000000E+00 -0.14927962671E+04  0.14927962671E+04  0.25500000920E-02 0. -1.
    10030    2    1    2    0    0  0.00000000000E+00  0.00000000000E+00 -0.26758819270E+03  0.27180043415E+04  0.27048002070E+04 0.  0.
        2    1    3    3  502    0  0.92103482482E+03 -0.18138582906E+03 -0.11120866361E+04  0.14553153108E+04  0.25500000920E-02 0. -1.
       -2    1    3    3    0  502 -0.92103482482E+03  0.18138582906E+03  0.84449844340E+03  0.12626890308E+04  0.25500000920E-02 0.  1.
</event>
<event>
 5   0  0.1788003E-05  0.1983074E+04  0.7818609E-02  0.8614575E-01
        2   -1    0    0  501    0  0.00000000000E+00  0.00000000000E+00  0.21470135877E+04  0.21470135877E+04  0.25500000920E-02 0. -1.
       -2   -1    0    0    0  501  0.00000000000E+00  0.00000000000E+00 -0.45791296230E+03  0.45791296231E+03  0.25500000920E-02 0.  1.
    10030    2    1    2    0    0  0.00000000000E+00  0.00000000000E+00  0.16891006254E+04  0.26049265501E+04  0.19830737274E+04 0.  0.
        2    1    3    3  502    0  0.87842947363E+03 -0.42670967693E+03  0.10698814609E+04  0.14485737223E+04  0.25500000920E-02 0.  1.
       -2    1    3    3    0  502 -0.87842947363E+03  0.42670967693E+03  0.61921916452E+03  0.11563528277E+04  0.25500000920E-02 0. -1.
</event>
<event>
 5   0  0.1881699E-05  0.2703360E+04  0.7818609E-02  0.8333916E-01
       -2   -1    0    0    0  501  0.00000000000E+00  0.00000000000E+00  0.88403740990E+03  0.88403740991E+03  0.25500000920E-02 0. -1.
        2   -1    0    0  501    0  0.00000000000E+00  0.00000000000E+00 -0.20666983420E+04  0.20666983420E+04  0.25500000920E-02 0.  1.
    10030    2    1    2    0    0  0.00000000000E+00  0.00000000000E+00 -0.11826609321E+04  0.29507357519E+04  0.27033598719E+04 0.  0.
        4    1    3    3  502    0  0.57397045923E+03  0.11421837367E+04 -0.10708626703E+04  0.16675653654E+04  0.12699999809E+01 0.  1.
       -4    1    3    3    0  502 -0.57397045923E+03 -0.11421837367E+04 -0.11179826184E+03  0.12831703865E+04  0.12699999809E+01 0. -1.
</event>
<event>
 5   0  0.1788003E-05  0.2719963E+04  0.7818609E-02  0.8328557E-01
        2   -1    0    0  501    0  0.00000000000E+00  0.00000000000E+00  0.10503979397E+04  0.10503979397E+04  0.25500000920E-02 0. -1.
       -2   -1    0    0    0  501  0.00000000000E+00  0.00000000000E+00 -0.17608085222E+04  0.17608085222E+04  0.25500000920E-02 0.  1.
    10030    2    1    2    0    0  0.00000000000E+00  0.00000000000E+00 -0.71041058250E+03  0.28112064619E+04  0.27199629733E+04 0.  0.
        2    1    3    3  502    0 -0.54024780225E+02 -0.78687914010E+03 -0.15002753060E+04  0.16949700445E+04  0.25500000920E-02 0.  1.
       -2    1    3    3    0  502  0.54024780225E+02  0.78687914010E+03  0.78986472353E+03  0.11162364174E+04  0.25500000920E-02 0. -1.
</event>
<event>
 5   0  0.1788003E-05  0.2657228E+04  0.7818609E-02  0.8349018E-01
       -2   -1    0    0    0  501  0.00000000000E+00  0.00000000000E+00  0.16919130629E+04  0.16919130629E+04  0.25500000920E-02 0.  1.
        2   -1    0    0  501    0  0.00000000000E+00  0.00000000000E+00 -0.10433252884E+04  0.10433252884E+04  0.25500000920E-02 0. -1.
    10030    2    1    2    0    0  0.00000000000E+00  0.00000000000E+00  0.64858777447E+03  0.27352383514E+04  0.26572283939E+04 0.  0.
        2    1    3    3  502    0  0.17046999017E+03  0.11960140898E+04  0.89343275855E+03  0.15025750612E+04  0.25500000920E-02 0.  1.
       -2    1    3    3    0  502 -0.17046999017E+03 -0.11960140898E+04 -0.24484498407E+03  0.12326632901E+04  0.25500000920E-02 0. -1.
</event>
<event>
 5   0  0.1931119E-05  0.2668361E+04  0.7818609E-02  0.8345344E-01
        2   -1    0    0  501    0  0.00000000000E+00  0.00000000000E+00  0.11543237113E+04  0.11543237113E+04  0.25500000920E-02 0. -1.
       -2   -1    0    0    0  501  0.00000000000E+00  0.00000000000E+00 -0.15420609425E+04  0.15420609425E+04  0.25500000920E-02 0.  1.
    10030    2    1    2    0    0  0.00000000000E+00  0.00000000000E+00 -0.38773723112E+03  0.26963846538E+04  0.26683609278E+04 0.  0.
        3    1    3    3  502    0  0.73185249618E+03  0.73568708624E+03 -0.10412420258E+04  0.14700437176E+04  0.10100000352E+00 0.  1.
       -3    1    3    3    0  502 -0.73185249618E+03 -0.73568708624E+03  0.65350479468E+03  0.12263409362E+04  0.10100000352E+00 0. -1.
</event>
<event>
 5   0  0.7754912E-06  0.2692088E+04  0.7818609E-02  0.8337577E-01
       -1   -1    0    0    0  501  0.00000000000E+00  0.00000000000E+00  0.12475952037E+04  0.12475952037E+04  0.50400001928E-02 0. -1.
        1   -1    0    0  501    0  0.00000000000E+00  0.00000000000E+00 -0.14522613568E+04  0.14522613568E+04  0.50400001928E-02 0.  1.
    10030    2    1    2    0    0  0.00000000000E+00  0.00000000000E+00 -0.20466615313E+03  0.26998565606E+04  0.26920878911E+04 0.  0.
        4    1    3    3  502    0  0.21913021544E+03 -0.34972874076E+03  0.11825762709E+04  0.12525240488E+04  0.12699999809E+01 0. -1.
       -4    1    3    3    0  502 -0.21913021544E+03  0.34972874076E+03 -0.13872424241E+04  0.14473325117E+04  0.12699999809E+01 0.  1.
</event>
<event>
 5   0  0.7348964E-06  0.2943196E+04  0.7818609E-02  0.8260140E-01
        1   -1    0    0  501    0  0.00000000000E+00  0.00000000000E+00  0.92860622194E+03  0.92860622195E+03  0.50400001928E-02 0. -1.
       -1   -1    0    0    0  501  0.00000000000E+00  0.00000000000E+00 -0.23320979079E+04  0.23320979079E+04  0.50400001928E-02 0.  1.
    10030    2    1    2    0    0  0.00000000000E+00  0.00000000000E+00 -0.14034916860E+04  0.32607041299E+04  0.29431959687E+04 0.  0.
        1    1    3    3  502    0  0.32275281408E+03 -0.13119364327E+04 -0.55505803966E+02  0.13521935796E+04  0.50400001928E-02 0. -1.
       -1    1    3    3    0  502 -0.32275281408E+03  0.13119364327E+04 -0.13479858820E+04  0.19085105503E+04  0.50400001928E-02 0.  1.
</event>
<event>
 5   0  0.7351590E-06  0.2606345E+04  0.7818609E-02  0.8366049E-01
       -1   -1    0    0    0  501  0.00000000000E+00  0.00000000000E+00  0.10775130200E+04  0.10775130200E+04  0.50400001928E-02 0. -1.
        1   -1    0    0  501    0  0.00000000000E+00  0.00000000000E+00 -0.15760907311E+04  0.15760907311E+04  0.50400001928E-02 0.  1.
    10030    2    1    2    0    0  0.00000000000E+00  0.00000000000E+00 -0.49857771108E+03  0.26536037512E+04  0.26063447842E+04 0.  0.
        3    1    3    3  502    0  0.82133417533E+03 -0.75775197248E+03 -0.93187832251E+03  0.14550515790E+04  0.10100000352E+00 0.  1.
       -3    1    3    3    0  502 -0.82133417533E+03  0.75775197248E+03  0.43330061143E+03  0.11985521722E+04  0.10100000352E+00 0. -1.
</event>
<event>
 5   0  0.6804685E-06  0.2696002E+04  0.7818609E-02  0.8336303E-01
        1   -1    0    0  501    0  0.00000000000E+00  0.00000000000E+00  0.12046390022E+04  0.12046390022E+04  0.50400001928E-02 0.  1.
       -1   -1    0    0    0  501  0.00000000000E+00  0.00000000000E+00 -0.15084237255E+04  0.15084237255E+04  0.50400001928E-02 0. -1.
    10030    2    1    2    0    0  0.00000000000E+00  0.00000000000E+00 -0.30378472332E+03  0.27130627276E+04  0.26960015219E+04 0.  0.
        2    1    3    3  502    0 -0.81933408151E+03  0.39754178231E+03  0.84825739566E+03  0.12445434565E+04  0.25500000920E-02 0.  1.
       -2    1    3    3    0  502  0.81933408151E+03 -0.39754178231E+03 -0.11520421190E+04  0.14685192711E+04  0.25500000920E-02 0. -1.
</event>
<event>
 5   0  0.7351590E-06  0.2557234E+04  0.7818609E-02  0.8382875E-01
       -1   -1    0    0    0  501  0.00000000000E+00  0.00000000000E+00  0.89849901484E+03  0.89849901485E+03  0.50400001928E-02 0.  1.
        1   -1    0    0  501    0  0.00000000000E+00  0.00000000000E+00 -0.18195477295E+04  0.18195477295E+04  0.50400001928E-02 0. -1.
    10030    2    1    2    0    0  0.00000000000E+00  0.00000000000E+00 -0.92104871470E+03  0.27180467444E+04  0.25572343205E+04 0.  0.
        3    1    3    3  502    0 -0.66442131430E+03 -0.10136688707E+04 -0.89342224363E+03  0.15057169648E+04  0.10100000352E+00 0. -1.
       -3    1    3    3    0  502  0.66442131430E+03  0.10136688707E+04 -0.27626471067E+02  0.12123297796E+04  0.10100000352E+00 0.  1.
</event>
<event>
 5   0  0.1881699E-05  0.2604968E+04  0.7818609E-02  0.8366516E-01
       -2   -1    0    0    0  501  0.00000000000E+00  0.00000000000E+00  0.69154590701E+03  0.69154590702E+03  0.25500000920E-02 0.  1.
        2   -1    0    0  501    0  0.00000000000E+00  0.00000000000E+00 -0.24531488287E+04  0.24531488287E+04  0.25500000920E-02 0. -1.
    10030    2    1    2    0    0  0.00000000000E+00  0.00000000000E+00 -0.17616029217E+04  0.31446947357E+04  0.26049683544E+04 0.  0.
        4    1    3    3  502    0  0.39669118216E+03 -0.87905327400E+02  0.61308096493E+03  0.73550059351E+03  0.12699999809E+01 0.  1.
       -4    1    3    3    0  502 -0.39669118216E+03  0.87905327400E+02 -0.23746838866E+04  0.24091941422E+04  0.12699999809E+01 0. -1.
</event>
<event>
 5   0  0.1881699E-05  0.2769520E+04  0.7818609E-02  0.8312794E-01
        2   -1    0    0  501    0  0.00000000000E+00  0.00000000000E+00  0.22001130976E+04  0.22001130976E+04  0.25500000920E-02 0. -1.
       -2   -1    0    0    0  501  0.00000000000E+00  0.00000000000E+00 -0.87157318926E+03  0.87157318926E+03  0.25500000920E-02 0.  1.
    10030    2    1    2    0    0  0.00000000000E+00  0.00000000000E+00  0.13285399084E+04  0.30716862869E+04  0.27695195174E+04 0.  0.
        4    1    3    3  502    0 -0.80471154817E+03 -0.98315618240E+03  0.53354528352E+02  0.12716151436E+04  0.12699999809E+01 0.  1.
       -4    1    3    3    0  502  0.80471154817E+03  0.98315618240E+03  0.12751853800E+04  0.18000711433E+04  0.12699999809E+01 0. -1.
</event>
<event>
 5   0  0.1788003E-05  0.2706542E+04  0.7818609E-02  0.8332886E-01
       -2   -1    0    0    0  501  0.00000000000E+00  0.00000000000E+00  0.14550049517E+04  0.14550049517E+04  0.25500000920E-02 0. -1.
        2   -1    0    0  501    0  0.00000000000E+00  0.00000000000E+00 -0.12586501301E+04  0.12586501301E+04  0.25500000920E-02 0.  1.
    10030    2    1    2    0    0  0.00000000000E+00  0.00000000000E+00  0.19635482160E+03  0.27136550817E+04  0.27065418317E+04 0.  0.
        2    1    3    3  502    0  0.12958408639E+04  0.42308902532E+02  0.48694457184E+03  0.13849579791E+04  0.25500000920E-02 0. -1.
       -2    1    3    3    0  502 -0.12958408639E+04 -0.42308902532E+02 -0.29058975024E+03  0.13286971027E+04  0.25500000920E-02 0.  1.
</event>
<event>
 5   0  0.7754912E-06  0.2672683E+04  0.7818609E-02  0.8343923E-01
        1   -1    0    0  501    0  0.00000000000E+00  0.00000000000E+00  0.16573610154E+04  0.16573610154E+04  0.50400001928E-02 0.  1.
       -1   -1    0    0    0  501  0.00000000000E+00  0.00000000000E+00 -0.10775014441E+04  0.10775014441E+04  0.50400001928E-02 0. -1.
    10030    2    1    2    0    0  0.00000000000E+00  0.00000000000E+00  0.57985957134E+03  0.27348624595E+04  0.26726832117E+04 0.  0.
        4    1    3    3  502    0 -0.77631153414E+03  0.10656521925E+04  0.66836762994E+02  0.13201299024E+04  0.12699999809E+01 0. -1.
       -4    1    3    3    0  502  0.77631153414E+03 -0.10656521925E+04  0.51302280834E+03  0.14147325571E+04  0.12699999809E+01 0.  1.
</event>
<event>
 5   0  0.7351590E-06  0.2742325E+04  0.7818609E-02  0.8321401E-01
        1   -1    0    0  501    0  0.00000000000E+00  0.00000000000E+00  0.15045893043E+04  0.15045893043E+04  0.50400001928E-02 0.  1.
       -1   -1    0    0    0  501  0.00000000000E+00  0.00000000000E+00 -0.12495678208E+04  0.12495678208E+04  0.50400001928E-02 0. -1.
    10030    2    1    2    0    0  0.00000000000E+00  0.00000000000E+00  0.25502148345E+03  0.27541571251E+04  0.27423248372E+04 0.  0.
        3    1    3    3  502    0 -0.73105520556E+03 -0.93501727335E+03  0.81704965384E+03  0.14409264943E+04  0.10100000352E+00 0. -1.
       -3    1    3    3    0  502  0.73105520556E+03  0.93501727335E+03 -0.56202817038E+03  0.13132306307E+04  0.10100000352E+00 0.  1.
</event>
<event>
 5   0  0.7754912E-06  0.2090310E+04  0.7818609E-02  0.8565524E-01
        1   -1    0    0  501    0  0.00000000000E+00  0.00000000000E+00  0.15870618354E+04  0.15870618354E+04  0.50400001928E-02 0.  1.
       -1   -1    0    0    0  501  0.00000000000E+00  0.00000000000E+00 -0.68828408530E+03  0.68828408531E+03  0.50400001928E-02 0. -1.
    10030    2    1    2    0    0  0.00000000000E+00  0.00000000000E+00  0.89877775007E+03  0.22753459207E+04  0.20903104111E+04 0.  0.
        4    1    3    3  502    0  0.56314706563E+03  0.34741920690E+03 -0.43124585544E+03  0.78981600616E+03  0.12699999809E+01 0. -1.
       -4    1    3    3    0  502 -0.56314706563E+03 -0.34741920690E+03  0.13300236055E+04  0.14855299145E+04  0.12699999809E+01 0.  1.
</event>
<event>
 5   0  0.7754912E-06  0.2705811E+04  0.7818609E-02  0.8333122E-01
        1   -1    0    0  501    0  0.00000000000E+00  0.00000000000E+00  0.10998410017E+04  0.10998410018E+04  0.50400001928E-02 0.  1.
       -1   -1    0    0    0  501  0.00000000000E+00  0.00000000000E+00 -0.16641981840E+04  0.16641981840E+04  0.50400001928E-02 0. -1.
    10030    2    1    2    0    0  0.00000000000E+00  0.00000000000E+00 -0.56435718229E+03  0.27640391858E+04  0.27058110783E+04 0.  0.
        4    1    3    3  502    0  0.96569851409E+03  0.67340535695E+03  0.39872643295E+03  0.12429934739E+04  0.12699999809E+01 0. -1.
       -4    1    3    3    0  502 -0.96569851409E+03 -0.67340535695E+03 -0.96308361524E+03  0.15210457119E+04  0.12699999809E+01 0.  1.
</event>
<event>
 5   0  0.1878160E-05  0.2693292E+04  0.7818609E-02  0.8337185E-01
        2   -1    0    0  501    0  0.00000000000E+00  0.00000000000E+00  0.19395575970E+04  0.19395575970E+04  0.25500000920E-02 0.  1.
       -2   -1    0    0    0  501  0.00000000000E+00  0.00000000000E+00 -0.93498395184E+03  0.93498395184E+03  0.25500000920E-02 0. -1.
    10030    2    1    2    0    0  0.00000000000E+00  0.00000000000E+00  0.10045736451E+04  0.28745415488E+04  0.26932918348E+04 0.  0.
        1    1    3    3  502    0 -0.85168712002E+02 -0.65156157386E+03  0.17568345494E+04  0.18757008898E+04  0.50400001928E-02 0.  1.
       -1    1    3    3    0  502  0.85168712002E+02  0.65156157386E+03 -0.75226090425E+03  0.99884065902E+03  0.50400001928E-02 0. -1.
</event>
<event>
 5   0  0.1788003E-05  0.2702944E+04  0.7818609E-02  0.8334050E-01
        2   -1    0    0  501    0  0.00000000000E+00  0.00000000000E+00  0.19694004726E+04  0.19694004726E+04  0.25500000920E-02 0. -1.
       -2   -1    0    0    0  501  0.00000000000E+00  0.00000000000E+00 -0.92742793792E+03  0.92742793792E+03  0.25500000920E-02 0.  1.
    10030    2    1    2    0    0  0.00000000000E+00  0.00000000000E+00  0.10419725347E+04  0.28968284105E+04  0.27029443348E+04 0.  0.
        2    1    3    3  502    0 -0.35171572680E+03 -0.93088325998E+03  0.15010366250E+04  0.18009326877E+04  0.25500000920E-02 0. -1.
       -2    1    3    3    0  502  0.35171572680E+03  0.93088325998E+03 -0.45906409031E+03  0.10958957228E+04  0.25500000920E-02 0.  1.
</event>
<event>
 5   0  0.1931119E-05  0.2844684E+04  0.7818609E-02  0.8289529E-01
        2   -1    0    0  501    0  0.00000000000E+00  0.00000000000E+00  0.19598365657E+04  0.19598365657E+04  0.25500000920E-02 0. -1.
       -2   -1    0    0    0  501  0.00000000000E+00  0.00000000000E+00 -0.10322578183E+04  0.10322578183E+04  0.25500000920E-02 0.  1.
    10030    2    1    2    0    0  0.00000000000E+00  0.00000000000E+00  0.92757874739E+03  0.29920943840E+04  0.28446838964E+04 0.  0.
        3    1    3    3  502    0 -0.13590680156E+04 -0.37372536398E+03  0.66424337252E+03  0.15581899072E+04  0.10100000352E+00 0.  1.
       -3    1    3    3    0  502  0.13590680156E+04  0.37372536398E+03  0.26333537487E+03  0.14339044768E+04  0.10100000352E+00 0. -1.
</event>
<event>
 5   0  0.1826851E-05  0.2696608E+04  0.7818609E-02  0.8336106E-01
       -2   -1    0    0    0  501  0.00000000000E+00  0.00000000000E+00  0.10329897164E+04  0.10329897164E+04  0.25500000920E-02 0. -1.
        2   -1    0    0  501    0  0.00000000000E+00  0.00000000000E+00 -0.17598661344E+04  0.17598661344E+04  0.25500000920E-02 0.  1.
    10030    2    1    2    0    0  0.00000000000E+00  0.00000000000E+00 -0.72687641792E+03  0.27928558508E+04  0.26966079575E+04 0.  0.
        5    1    3    3  502    0 -0.54152117716E+03 -0.11280604369E+03  0.91005523948E+03  0.10649849847E+04  0.46999998093E+01 0. -1.
       -5    1    3    3    0  502  0.54152117716E+03  0.11280604369E+03 -0.16369316574E+04  0.17278708661E+04  0.46999998093E+01 0.  1.
</event>
<event>
 5   0  0.7600052E-06  0.2610442E+04  0.7818609E-02  0.8364663E-01
        1   -1    0    0  501    0  0.00000000000E+00  0.00000000000E+00  0.21429214114E+04  0.21429214114E+04  0.50400001928E-02 0. -1.
       -1   -1    0    0    0  501  0.00000000000E+00  0.00000000000E+00 -0.79499037526E+03  0.79499037528E+03  0.50400001928E-02 0.  1.
    10030    2    1    2    0    0  0.00000000000E+00  0.00000000000E+00  0.13479310362E+04  0.29379117867E+04  0.26104420293E+04 0.  0.
        5    1    3    3  502    0  0.92509557587E+03 -0.21354397548E+03  0.16819637924E+04  0.19314313715E+04  0.46999998093E+01 0. -1.
       -5    1    3    3    0  502 -0.92509557587E+03  0.21354397548E+03 -0.33403275622E+03  0.10064804152E+04  0.46999998093E+01 0.  1.
</event>
<event>
 5   0  0.6804685E-06  0.2753006E+04  0.7818609E-02  0.8318008E-01
        1   -1    0    0  501    0  0.00000000000E+00  0.00000000000E+00  0.12732053028E+04  0.12732053028E+04  0.50400001928E-02 0.  1.
       -1   -1    0    0    0  501  0.00000000000E+00  0.00000000000E+00 -0.14881813659E+04  0.14881813659E+04  0.50400001928E-02 0. -1.
    10030    2    1    2    0    0  0.00000000000E+00  0.00000000000E+00 -0.21497606309E+03  0.27613866687E+04  0.27530059256E+04 0.  0.
        2    1    3    3  502    0 -0.81361870273E+03 -0.87655017076E+03 -0.79106454920E+03  0.14339102888E+04  0.25500000920E-02 0. -1.
       -2    1    3    3    0  502  0.81361870273E+03  0.87655017076E+03  0.57608848611E+03  0.13274763799E+04  0.25500000920E-02 0.  1.
</event>
<event>
 5   0  0.7600052E-06  0.2753423E+04  0.7818609E-02  0.8317876E-01
        1   -1    0    0  501    0  0.00000000000E+00  0.00000000000E+00  0.24439434751E+04  0.24439434751E+04  0.50400001928E-02 0. -1.
       -1   -1    0    0    0  501  0.00000000000E+00  0.00000000000E+00 -0.77552301233E+03  0.77552301235E+03  0.50400001928E-02 0.  1.
    10030    2    1    2    0    0  0.00000000000E+00  0.00000000000E+00  0.16684204628E+04  0.32194664874E+04  0.27534228922E+04 0.  0.
        5    1    3    3  502    0 -0.42420122734E+03  0.98922120736E+03  0.18378731350E+04  0.21298603308E+04  0.46999998093E+01 0. -1.
       -5    1    3    3    0  502  0.42420122734E+03 -0.98922120736E+03 -0.16945267228E+03  0.10896061566E+04  0.46999998093E+01 0.  1.
</event>
<event>
 5   0  0.1788003E-05  0.2517887E+04  0.7818609E-02  0.8396641E-01
       -2   -1    0    0    0  501  0.00000000000E+00  0.00000000000E+00  0.55675863264E+03  0.55675863265E+03  0.25500000920E-02 0.  1.
        2   -1    0    0  501    0  0.00000000000E+00  0.00000000000E+00 -0.28467258842E+04  0.28467258842E+04  0.25500000920E-02 0. -1.
    10030    2    1    2    0    0  0.00000000000E+00  0.00000000000E+00 -0.22899672516E+04  0.34034845169E+04  0.25178873770E+04 0.  0.
        2    1    3    3  502    0  0.12279793714E+03  0.11303525059E+04 -0.18756180882E+04  0.21933352078E+04  0.25500000920E-02 0. -1.
       -2    1    3    3    0  502 -0.12279793714E+03 -0.11303525059E+04 -0.41434916337E+03  0.12101493091E+04  0.25500000920E-02 0.  1.
</event>
<event>
 5   0  0.1878160E-05  0.2750065E+04  0.7818609E-02  0.8318941E-01
       -2   -1    0    0    0  501  0.00000000000E+00  0.00000000000E+00  0.15386417147E+04  0.15386417147E+04  0.25500000920E-02 0. -1.
        2   -1    0    0  501    0  0.00000000000E+00  0.00000000000E+00 -0.12288205765E+04  0.12288205765E+04  0.25500000920E-02 0.  1.
    10030    2    1    2    0    0  0.00000000000E+00  0.00000000000E+00  0.30982113819E+03  0.27674622912E+04  0.27500651621E+04 0.  0.
        1    1    3    3  502    0  0.31999651589E+03  0.10930107699E+04  0.93026785700E+03  0.14705334403E+04  0.50400001928E-02 0. -1.
       -1    1    3    3    0  502 -0.31999651589E+03 -0.10930107699E+04 -0.62044671881E+03  0.12969288509E+04  0.50400001928E-02 0.  1.
</event>
<event>
 5   0  0.1878160E-05  0.2653101E+04  0.7818609E-02  0.8350384E-01
        2   -1    0    0  501    0  0.00000000000E+00  0.00000000000E+00  0.84544567056E+03  0.84544567056E+03  0.25500000920E-02 0. -1.
       -2   -1    0    0    0  501  0.00000000000E+00  0.00000000000E+00 -0.20814302329E+04  0.20814302329E+04  0.25500000920E-02 0.  1.
    10030    2    1    2    0    0  0.00000000000E+00  0.00000000000E+00 -0.12359845623E+04  0.29268759034E+04  0.26531009622E+04 0.  0.
        1    1    3    3  502    0 -0.81080379611E+02 -0.12803824427E+04 -0.99011752258E+03  0.16205819745E+04  0.50400001928E-02 0. -1.
       -1    1    3    3    0  502  0.81080379611E+02  0.12803824427E+04 -0.24586703973E+03  0.13062939289E+04  0.50400001928E-02 0.  1.
</event>
<event>
 5   0  0.1931119E-05  0.2663898E+04  0.7818609E-02  0.8346815E-01
       -2   -1    0    0    0  501  0.00000000000E+00  0.00000000000E+00  0.12691442745E+04  0.12691442745E+04  0.25500000920E-02 0.  1.
        2   -1    0    0  501    0  0.00000000000E+00  0.00000000000E+00 -0.13978620587E+04  0.13978620587E+04  0.25500000920E-02 0. -1.
    10030    2    1    2    0    0  0.00000000000E+00  0.00000000000E+00 -0.12871778425E+03  0.26670063332E+04  0.26638983676E+04 0.  0.
        3    1    3    3  502    0  0.92568313422E+03  0.90621055042E+03 -0.37452962838E+03  0.13484729435E+04  0.10100000352E+00 0. -1.
       -3    1    3    3    0  502 -0.92568313422E+03 -0.90621055042E+03  0.24581184413E+03  0.13185333896E+04  0.10100000352E+00 0.  1.
</event>
<event>
 5   0  0.7754912E-06  0.2695986E+04  0.7818609E-02  0.8336308E-01
       -1   -1    0    0    0  501  0.00000000000E+00  0.00000000000E+00  0.11060235835E+04  0.11060235835E+04  0.50400001928E-02 0.  1.
        1   -1    0    0  501    0  0.00000000000E+00  0.00000000000E+00 -0.16428993960E+04  0.16428993960E+04  0.50400001928E-02 0. -1.
    10030    2    1    2    0    0  0.00000000000E+00  0.00000000000E+00 -0.53687581248E+03  0.27489229795E+04  0.26959862591E+04 0.  0.
        4    1    3    3  502    0  0.17238517189E+03 -0.70856043676E+03  0.88753785154E+03  0.11486947335E+04  0.12699999809E+01 0.  1.
       -4    1    3    3    0  502 -0.17238517189E+03  0.70856043676E+03 -0.14244136640E+04  0.16002282460E+04  0.12699999809E+01 0. -1.
</event>
<event>
 5   0  0.1931119E-05  0.2643989E+04  0.7818609E-02  0.8353411E-01
        2   -1    0    0  501    0  0.00000000000E+00  0.00000000000E+00  0.23193970584E+04  0.23193970584E+04  0.25500000920E-02 0. -1.
       -2   -1    0    0    0  501  0.00000000000E+00  0.00000000000E+00 -0.75350146537E+03  0.75350146537E+03  0.25500000920E-02 0.  1.
    10030    2    1    2    0    0  0.00000000000E+00  0.00000000000E+00  0.15658955930E+04  0.30728985237E+04  0.26439887158E+04 0.  0.
        3    1    3    3  502    0  0.17475232557E+03 -0.76836784516E+03  0.20166228324E+04  0.21651085837E+04  0.10100000352E+00 0. -1.
       -3    1    3    3    0  502 -0.17475232557E+03  0.76836784516E+03 -0.45072723939E+03  0.90778994007E+03  0.10100000352E+00 0.  1.
</event>
<event>
 5   0  0.6804685E-06  0.2699141E+04  0.7818609E-02  0.8335284E-01
        1   -1    0    0  501    0  0.00000000000E+00  0.00000000000E+00  0.18615338216E+04  0.18615338216E+04  0.50400001928E-02 0.  1.
       -1   -1    0    0    0  501  0.00000000000E+00  0.00000000000E+00 -0.97840886329E+03  0.97840886330E+03  0.50400001928E-02 0. -1.
    10030    2    1    2    0    0  0.00000000000E+00  0.00000000000E+00  0.88312495835E+03  0.28399426849E+04  0.26991414861E+04 0.  0.
        2    1    3    3  502    0  0.44481416822E+03 -0.53856351255E+03 -0.77341766523E+03  0.10421541087E+04  0.25500000920E-02 0. -1.
       -2    1    3    3    0  502 -0.44481416822E+03  0.53856351255E+03  0.16565426236E+04  0.17977885763E+04  0.25500000920E-02 0.  1.
</event>
<event>
 5   0  0.6175875E-06  0.2616863E+04  0.7818609E-02  0.8362496E-01
        4   -1    0    0  501    0  0.00000000000E+00  0.00000000000E+00  0.11053213240E+04  0.11053220536E+04  0.12699999809E+01 0. -1.
       -4   -1    0    0    0  501  0.00000000000E+00  0.00000000000E+00 -0.15488634736E+04  0.15488639942E+04  0.12699999809E+01 0.  1.
    10030    2    1    2    0    0  0.00000000000E+00  0.00000000000E+00 -0.44354214957E+03  0.26541860478E+04  0.26168633778E+04 0.  0.
        3    1    3    3  502    0 -0.75292992541E+03  0.10400522527E+03  0.85844116358E+03  0.11465783013E+04  0.10100000352E+00 0. -1.
       -3    1    3    3    0  502  0.75292992541E+03 -0.10400522527E+03 -0.13019833132E+04  0.15076077465E+04  0.10100000352E+00 0.  1.
</event>
<event>
 5   0  0.1931119E-05  0.2692487E+04  0.7818609E-02  0.8337447E-01
       -2   -1    0    0    0  501  0.00000000000E+00  0.00000000000E+00  0.11648574788E+04  0.11648574788E+04  0.25500000920E-02 0. -1.
        2   -1    0    0  501    0  0.00000000000E+00  0.00000000000E+00 -0.15558739545E+04  0.15558739545E+04  0.25500000920E-02 0.  1.
    10030    2    1    2    0    0  0.00000000000E+00  0.00000000000E+00 -0.39101647569E+03  0.27207314334E+04  0.26924868892E+04 0.  0.
        3    1    3    3  502    0 -0.42248035879E+03  0.11284753109E+04 -0.80216027975E+03  0.14475521771E+04  0.10100000352E+00 0.  1.
       -3    1    3    3    0  502  0.42248035879E+03 -0.11284753109E+04  0.41114380406E+03  0.12731792563E+04  0.10100000352E+00 0. -1.
</event>
<event>
 5   0  0.6804685E-06  0.2661872E+04  0.7818609E-02  0.8347483E-01
       -1   -1    0    0    0  501  0.00000000000E+00  0.00000000000E+00  0.10755446031E+04  0.10755446032E+04  0.50400001928E-02 0. -1.
        1   -1    0    0  501    0  0.00000000000E+00  0.00000000000E+00 -0.16469708753E+04  0.16469708753E+04  0.50400001928E-02 0.  1.
    10030    2    1    2    0    0  0.00000000000E+00  0.00000000000E+00 -0.57142627217E+03  0.27225154785E+04  0.26618720003E+04 0.  0.
        2    1    3    3  502    0  0.62314756711E+03  0.88588491765E+03 -0.10768242503E+04  0.15273033241E+04  0.25500000920E-02 0.  1.
       -2    1    3    3    0  502 -0.62314756711E+03 -0.88588491765E+03  0.50539797812E+03  0.11952121544E+04  0.25500000920E-02 0. -1.
</event>
<event>
 5   0  0.6804685E-06  0.2616011E+04  0.7818609E-02  0.8362783E-01
       -1   -1    0    0    0  501  0.00000000000E+00  0.00000000000E+00  0.96630824616E+03  0.96630824617E+03  0.50400001928E-02 0.  1.
        1   -1    0    0  501    0  0.00000000000E+00  0.00000000000E+00 -0.17705302343E+04  0.17705302343E+04  0.50400001928E-02 0. -1.
    10030    2    1    2    0    0  0.00000000000E+00  0.00000000000E+00 -0.80422198815E+03  0.27368384805E+04  0.26160106770E+04 0.  0.
        2    1    3    3  502    0 -0.53706005243E+03 -0.36045862872E+03  0.78728724286E+03  0.10189136989E+04  0.25500000920E-02 0.  1.
       -2    1    3    3    0  502  0.53706005243E+03  0.36045862872E+03 -0.15915092310E+04  0.17179247816E+04  0.25500000920E-02 0. -1.
</event>
<event>
 5   0  0.6175875E-06  0.2721836E+04  0.7818609E-02  0.8327955E-01
       -3   -1    0    0    0  501  0.00000000000E+00  0.00000000000E+00  0.66474517752E+03  0.66474518520E+03  0.10100000352E+00 0. -1.
        3   -1    0    0  501    0  0.00000000000E+00  0.00000000000E+00 -0.27861764926E+04  0.27861764944E+04  0.10100000352E+00 0.  1.
    10030    2    1    2    0    0  0.00000000000E+00  0.00000000000E+00 -0.21214313150E+04  0.34509216796E+04  0.27218357067E+04 0.  0.
        4    1    3    3  502    0 -0.48012658887E+03 -0.87595230642E+03  0.11113906448E+03  0.10050708876E+04  0.12699999809E+01 0. -1.
       -4    1    3    3    0  502  0.48012658887E+03  0.87595230642E+03 -0.22325703795E+04  0.24458507920E+04  0.12699999809E+01 0.  1.
</event>
<event>
 5   0  0.1788003E-05  0.2683010E+04  0.7818609E-02  0.8340539E-01
       -2   -1    0    0    0  501  0.00000000000E+00  0.00000000000E+00  0.10610749770E+04  0.10610749770E+04  0.25500000920E-02 0. -1.
        2   -1    0    0  501    0  0.00000000000E+00  0.00000000000E+00 -0.16960489582E+04  0.16960489582E+04  0.25500000920E-02 0.  1.
    10030    2    1    2    0    0  0.00000000000E+00  0.00000000000E+00 -0.63497398121E+03  0.27571239352E+04  0.26830095857E+04 0.  0.
        2    1    3    3  502    0 -0.11168220758E+04 -0.53440028480E+03  0.21326830229E+03  0.12563274184E+04  0.25500000920E-02 0. -1.
       -2    1    3    3    0  502  0.11168220758E+04  0.53440028480E+03 -0.84824228350E+03  0.15007965168E+04  0.25500000920E-02 0.  1.
</event>
<event>
 5   0  0.1788003E-05  0.2686738E+04  0.7818609E-02  0.8339321E-01
       -2   -1    0    0    0  501  0.00000000000E+00  0.00000000000E+00  0.91276776727E+03  0.91276776728E+03  0.25500000920E-02 0.  1.
        2   -1    0    0  501    0  0.00000000000E+00  0.00000000000E+00 -0.19771082608E+04  0.19771082608E+04  0.25500000920E-02 0. -1.
    10030    2    1    2    0    0  0.00000000000E+00  0.00000000000E+00 -0.10643404936E+04  0.28898760281E+04  0.26867383147E+04 0.  0.
        2    1    3    3  502    0 -0.62608760182E+03 -0.18049060570E+03 -0.17957588019E+04  0.19103173083E+04  0.25500000920E-02 0. -1.
       -2    1    3    3    0  502  0.62608760182E+03  0.18049060570E+03  0.73141830829E+03  0.97955871983E+03  0.25500000920E-02 0.  1.
</event>
<event>
 5   0  0.7351590E-06  0.2741532E+04  0.7818609E-02  0.8321654E-01
        1   -1    0    0  501    0  0.00000000000E+00  0.00000000000E+00  0.12908332916E+04  0.12908332916E+04  0.50400001928E-02 0. -1.
       -1   -1    0    0    0  501  0.00000000000E+00  0.00000000000E+00 -0.14556489111E+04  0.14556489111E+04  0.50400001928E-02 0.  1.
    10030    2    1    2    0    0  0.00000000000E+00  0.00000000000E+00 -0.16481561947E+03  0.27464822028E+04  0.27415324732E+04 0.  0.
        3    1    3    3  502    0  0.63932985483E+03 -0.11871604651E+04 -0.32964769831E+03  0.13880778971E+04  0.10100000352E+00 0. -1.
       -3    1    3    3    0  502 -0.63932985483E+03  0.11871604651E+04  0.16483207883E+03  0.13584043057E+04  0.10100000352E+00 0.  1.
</event>
<event>
 5   0  0.1881699E-05  0.2634524E+04  0.7818609E-02  0.8356568E-01
       -2   -1    0    0    0  501  0.00000000000E+00  0.00000000000E+00  0.60825228486E+03  0.60825228486E+03  0.25500000920E-02 0.  1.
        2   -1    0    0  501    0  0.00000000000E+00  0.00000000000E+00 -0.28527302545E+04  0.28527302545E+04  0.25500000920E-02 0. -1.
    10030    2    1    2    0    0  0.00000000000E+00  0.00000000000E+00 -0.22444779697E+04  0.34609825394E+04  0.26345243938E+04 0.  0.
        4    1    3    3  502    0  0.23968921651E+03 -0.64630613608E+03 -0.25968760131E+04  0.26868065026E+04  0.12699999809E+01 0. -1.
       -4    1    3    3    0  502 -0.23968921651E+03  0.64630613608E+03  0.35239804343E+03  0.77417603680E+03  0.12699999809E+01 0.  1.
</event>
<event>
 5   0  0.7348964E-06  0.2677061E+04  0.7818609E-02  0.8342486E-01
       -1   -1    0    0    0  501  0.00000000000E+00  0.00000000000E+00  0.16295274761E+04  0.16295274761E+04  0.50400001928E-02 0. -1.
        1   -1    0    0  501    0  0.00000000000E+00  0.00000000000E+00 -0.10994993649E+04  0.10994993649E+04  0.50400001928E-02 0.  1.
    10030    2    1    2    0    0  0.00000000000E+00  0.00000000000E+00  0.53002811122E+03  0.27290268410E+04  0.26770613927E+04 0.  0.
        1    1    3    3  502    0  0.82439546554E+02 -0.97913000902E+03 -0.66157008490E+03  0.11845534309E+04  0.50400001928E-02 0.  1.
       -1    1    3    3    0  502 -0.82439546554E+02  0.97913000902E+03  0.11915981961E+04  0.15444734101E+04  0.50400001928E-02 0. -1.
</event>
<event>
 5   0  0.1788003E-05  0.2663947E+04  0.7818609E-02  0.8346799E-01
       -2   -1    0    0    0  501  0.00000000000E+00  0.00000000000E+00  0.53201067918E+03  0.53201067918E+03  0.25500000920E-02 0. -1.
        2   -1    0    0  501    0  0.00000000000E+00  0.00000000000E+00 -0.33348080632E+04  0.33348080632E+04  0.25500000920E-02 0.  1.
    10030    2    1    2    0    0  0.00000000000E+00  0.00000000000E+00 -0.28027973841E+04  0.38668187424E+04  0.26639470735E+04 0.  0.
        2    1    3    3  502    0 -0.57283800264E+03 -0.97800897440E+03 -0.38583217659E+03  0.11972933641E+04  0.25500000920E-02 0. -1.
       -2    1    3    3    0  502  0.57283800264E+03  0.97800897440E+03 -0.24169652075E+04  0.26695253783E+04  0.25500000920E-02 0.  1.
</event>
<event>
 5   0  0.7600052E-06  0.2837113E+04  0.7818609E-02  0.8291838E-01
        1   -1    0    0  501    0  0.00000000000E+00  0.00000000000E+00  0.14597156772E+04  0.14597156772E+04  0.50400001928E-02 0. -1.
       -1   -1    0    0    0  501  0.00000000000E+00  0.00000000000E+00 -0.13785577205E+04  0.13785577206E+04  0.50400001928E-02 0.  1.
    10030    2    1    2    0    0  0.00000000000E+00  0.00000000000E+00  0.81157956613E+02  0.28382733977E+04  0.28371128399E+04 0.  0.
        5    1    3    3  502    0  0.22742971271E+03  0.11409466054E+04  0.85257398141E+03  0.14423549890E+04  0.46999998093E+01 0. -1.
       -5    1    3    3    0  502 -0.22742971271E+03 -0.11409466054E+04 -0.77141602479E+03  0.13959184087E+04  0.46999998093E+01 0.  1.
</event>
<event>
 5   0  0.1878160E-05  0.2713063E+04  0.7818609E-02  0.8330779E-01
        2   -1    0    0  501    0  0.00000000000E+00  0.00000000000E+00  0.14618911451E+04  0.14618911451E+04  0.25500000920E-02 0. -1.
       -2   -1    0    0    0  501  0.00000000000E+00  0.00000000000E+00 -0.12587651055E+04  0.12587651055E+04  0.25500000920E-02 0.  1.
    10030    2    1    2    0    0  0.00000000000E+00  0.00000000000E+00  0.20312603968E+03  0.27206562506E+04  0.27130628902E+04 0.  0.
        1    1    3    3  502    0  0.12557822349E+03  0.11993358598E+04 -0.52146577713E+03  0.13138123730E+04  0.50400001928E-02 0.  1.
       -1    1    3    3    0  502 -0.12557822349E+03 -0.11993358598E+04  0.72459181681E+03  0.14068438776E+04  0.50400001928E-02 0. -1.
</event>
<event>
 5   0  0.6175875E-06  0.2722612E+04  0.7818609E-02  0.8327705E-01
        4   -1    0    0  501    0  0.00000000000E+00  0.00000000000E+00  0.17512975809E+04  0.17512980414E+04  0.12699999809E+01 0.  1.
       -4   -1    0    0    0  501  0.00000000000E+00  0.00000000000E+00 -0.10581592163E+04  0.10581599784E+04  0.12699999809E+01 0. -1.
    10030    2    1    2    0    0  0.00000000000E+00  0.00000000000E+00  0.69313836456E+03  0.28094580198E+04  0.27226115354E+04 0.  0.
        5    1    3    3  502    0  0.69072567453E+02  0.48071673023E+03 -0.96571641255E+03  0.10809671012E+04  0.46999998093E+01 0. -1.
       -5    1    3    3    0  502 -0.69072567453E+02 -0.48071673023E+03  0.16588547771E+04  0.17284909187E+04  0.46999998093E+01 0.  1.
</event>
<event>
 5   0  0.7348964E-06  0.2715499E+04  0.7818609E-02  0.8329994E-01
       -1   -1    0    0    0  501  0.00000000000E+00  0.00000000000E+00  0.13549083843E+04  0.13549083843E+04  0.50400001928E-02 0. -1.
        1   -1    0    0  501    0  0.00000000000E+00  0.00000000000E+00 -0.13605961980E+04  0.13605961980E+04  0.50400001928E-02 0.  1.
    10030    2    1    2    0    0  0.00000000000E+00  0.00000000000E+00 -0.56878136998E+01  0.27155045822E+04  0.27154986255E+04 0.  0.
        1    1    3    3  502    0  0.10743083665E+04  0.27086827840E+03  0.78199863022E+03  0.13561083837E+04  0.50400001928E-02 0. -1.
       -1    1    3    3    0  502 -0.10743083665E+04 -0.27086827840E+03 -0.78768644392E+03  0.13593961985E+04  0.50400001928E-02 0.  1.
</event>
<event>
 5   0  0.7754912E-06  0.2685561E+04  0.7818609E-02  0.8339705E-01
        1   -1    0    0  501    0  0.00000000000E+00  0.00000000000E+00  0.13867686018E+04  0.13867686018E+04  0.50400001928E-02 0.  1.
       -1   -1    0    0    0  501  0.00000000000E+00  0.00000000000E+00 -0.13001872463E+04  0.13001872463E+04  0.50400001928E-02 0. -1.
    10030    2    1    2    0    0  0.00000000000E+00  0.00000000000E+00  0.86581355461E+02  0.26869558482E+04  0.26855605372E+04 0.  0.
        4    1    3    3  502    0  0.30221826366E+03  0.10481965545E+04 -0.74006268648E+03  0.13182360519E+04  0.12699999809E+01 0. -1.
       -4    1    3    3    0  502 -0.30221826366E+03 -0.10481965545E+04  0.82664404194E+03  0.13687197963E+04  0.12699999809E+01 0.  1.
</event>
<event>
 5   0  0.7754912E-06  0.2732184E+04  0.7818609E-02  0.8324637E-01
       -1   -1    0    0    0  501  0.00000000000E+00  0.00000000000E+00  0.18683962477E+04  0.18683962477E+04  0.50400001928E-02 0. -1.
        1   -1    0    0  501    0  0.00000000000E+00  0.00000000000E+00 -0.99882863688E+03  0.99882863689E+03  0.50400001928E-02 0.  1.
    10030    2    1    2    0    0  0.00000000000E+00  0.00000000000E+00  0.86956761078E+03  0.28672248846E+04  0.27321842377E+04 0.  0.
        4    1    3    3  502    0 -0.40366392165E+03 -0.17055729867E+03  0.17926337387E+04  0.18454191089E+04  0.12699999809E+01 0. -1.
       -4    1    3    3    0  502  0.40366392165E+03  0.17055729867E+03 -0.92306612787E+03  0.10218057756E+04  0.12699999809E+01 0.  1.
</event>
<event>
 5   0  0.1788003E-05  0.2623811E+04  0.7818609E-02  0.8360158E-01
        2   -1    0    0  501    0  0.00000000000E+00  0.00000000000E+00  0.23404605232E+04  0.23404605232E+04  0.25500000920E-02 0.  1.
       -2   -1    0    0    0  501  0.00000000000E+00  0.00000000000E+00 -0.73536649229E+03  0.73536649229E+03  0.25500000920E-02 0. -1.
    10030    2    1    2    0    0  0.00000000000E+00  0.00000000000E+00  0.16050940309E+04  0.30758270155E+04  0.26238111558E+04 0.  0.
        2    1    3    3  502    0 -0.16979209186E+02  0.12452927781E+04  0.31912929599E+03  0.12856461039E+04  0.25500000920E-02 0.  1.
       -2    1    3    3    0  502  0.16979209186E+02 -0.12452927781E+04  0.12859647349E+04  0.17901809116E+04  0.25500000920E-02 0. -1.
</event>
<event>
 5   0  0.1788003E-05  0.2704577E+04  0.7818609E-02  0.8333521E-01
       -2   -1    0    0    0  501  0.00000000000E+00  0.00000000000E+00  0.15091379039E+04  0.15091379039E+04  0.25500000920E-02 0. -1.
        2   -1    0    0  501    0  0.00000000000E+00  0.00000000000E+00 -0.12117411939E+04  0.12117411939E+04  0.25500000920E-02 0.  1.
    10030    2    1    2    0    0  0.00000000000E+00  0.00000000000E+00  0.29739671002E+03  0.27208790979E+04  0.27045772797E+04 0.  0.
        2    1    3    3  502    0 -0.75626870695E+03  0.13901023588E+03 -0.97039966469E+03  0.12381202333E+04  0.25500000920E-02 0.  1.
       -2    1    3    3    0  502  0.75626870695E+03 -0.13901023588E+03  0.12677963747E+04  0.14827588646E+04  0.25500000920E-02 0. -1.
</event>
<event>
 5   0  0.1881699E-05  0.2704945E+04  0.7818609E-02  0.8333402E-01
       -2   -1    0    0    0  501  0.00000000000E+00  0.00000000000E+00  0.16800228659E+04  0.16800228659E+04  0.25500000920E-02 0.  1.
        2   -1    0    0  501    0  0.00000000000E+00  0.00000000000E+00 -0.10887837435E+04  0.10887837435E+04  0.25500000920E-02 0. -1.
    10030    2    1    2    0    0  0.00000000000E+00  0.00000000000E+00  0.59123912238E+03  0.27688066094E+04  0.27049447943E+04 0.  0.
        4    1    3    3  502    0 -0.12506203174E+04  0.48495976768E+03  0.47274484133E+03  0.14222258795E+04  0.12699999809E+01 0. -1.
       -4    1    3    3    0  502  0.12506203174E+04 -0.48495976768E+03  0.11849428106E+03  0.13465807299E+04  0.12699999809E+01 0.  1.
</event>
<event>
 5   0  0.1826851E-05  0.2626718E+04  0.7818609E-02  0.8359182E-01
        2   -1    0    0  501    0  0.00000000000E+00  0.00000000000E+00  0.15232810496E+04  0.15232810496E+04  0.25500000920E-02 0. -1.
       -2   -1    0    0    0  501  0.00000000000E+00  0.00000000000E+00 -0.11323657430E+04  0.11323657430E+04  0.25500000920E-02 0.  1.
    10030    2    1    2    0    0  0.00000000000E+00  0.00000000000E+00  0.39091530661E+03  0.26556467926E+04  0.26267175543E+04 0.  0.
        5    1    3    3  502    0  0.70812411317E+03  0.24795812731E+03 -0.89435960856E+03  0.11674006133E+04  0.46999998093E+01 0.  1.
       -5    1    3    3    0  502 -0.70812411317E+03 -0.24795812731E+03  0.12852749152E+04  0.14882461793E+04  0.46999998093E+01 0. -1.
</event>
<event>
 5   0  0.1788003E-05  0.2800419E+04  0.7818609E-02  0.8303138E-01
        2   -1    0    0  501    0  0.00000000000E+00  0.00000000000E+00  0.15757919773E+04  0.15757919773E+04  0.25500000920E-02 0.  1.
       -2   -1    0    0    0  501  0.00000000000E+00  0.00000000000E+00 -0.12441908439E+04  0.12441908439E+04  0.25500000920E-02 0. -1.
    10030    2    1    2    0    0  0.00000000000E+00  0.00000000000E+00  0.33160113345E+03  0.28199828212E+04  0.28004185045E+04 0.  0.
        2    1    3    3  502    0 -0.17902565174E+03 -0.44725572871E+03  0.14897090793E+04  0.15656695091E+04  0.25500000920E-02 0.  1.
       -2    1    3    3    0  502  0.17902565174E+03  0.44725572871E+03 -0.11581079458E+04  0.12543133121E+04  0.25500000920E-02 0. -1.
</event>
<event>
 5   0  0.1878160E-05  0.2001098E+04  0.7818609E-02  0.8606108E-01
        2   -1    0    0  501    0  0.00000000000E+00  0.00000000000E+00  0.14173821685E+04  0.14173821685E+04  0.25500000920E-02 0. -1.
       -2   -1    0    0    0  501  0.00000000000E+00  0.00000000000E+00 -0.70630062097E+03  0.70630062098E+03  0.25500000920E-02 0.  1.
    10030    2    1    2    0    0  0.00000000000E+00  0.00000000000E+00  0.71108154755E+03  0.21236827895E+04  0.20010976046E+04 0.  0.
        1    1    3    3  502    0 -0.32747235673E+02  0.55072746468E+03  0.12413740800E+04  0.13584486477E+04  0.50400001928E-02 0. -1.
       -1    1    3    3    0  502  0.32747235673E+02 -0.55072746468E+03 -0.53029253247E+03  0.76523414182E+03  0.50400001928E-02 0.  1.
</event>
<event>
 5   0  0.1881699E-05  0.2709140E+04  0.7818609E-02  0.8332045E-01
       -2   -1    0    0    0  501  0.00000000000E+00  0.00000000000E+00  0.81043700648E+03  0.81043700649E+03  0.25500000920E-02 0.  1.
        2   -1    0    0  501    0  0.00000000000E+00  0.00000000000E+00 -0.22640380260E+04  0.22640380260E+04  0.25500000920E-02 0. -1.
    10030    2    1    2    0    0  0.00000000000E+00  0.00000000000E+00 -0.14536010195E+04  0.30744750325E+04  0.27091402329E+04 0.  0.
        4    1    3    3  502    0 -0.37722316620E+03  0.75447244470E+03  0.47600017316E+03  0.96855756910E+03  0.12699999809E+01 0.  1.
       -4    1    3    3    0  502  0.37722316620E+03 -0.75447244470E+03 -0.19296011927E+04  0.21059174634E+04  0.12699999809E+01 0. -1.
</event>
<event>
 5   0  0.1881699E-05  0.2663299E+04  0.7818609E-02  0.8347012E-01
        2   -1    0    0  501    0  0.00000000000E+00  0.00000000000E+00  0.14115043254E+04  0.14115043254E+04  0.25500000920E-02 0.  1.
       -2   -1    0    0    0  501  0.00000000000E+00  0.00000000000E+00 -0.12563126906E+04  0.12563126906E+04  0.25500000920E-02 0. -1.
    10030    2    1    2    0    0  0.00000000000E+00  0.00000000000E+00  0.15519163474E+03  0.26678170160E+04  0.26632993049E+04 0.  0.
        4    1    3    3  502    0 -0.17100370495E+03 -0.38506499376E+03 -0.11877856360E+04  0.12602990306E+04  0.12699999809E+01 0. -1.
       -4    1    3    3    0  502  0.17100370495E+03  0.38506499376E+03  0.13429772708E+04  0.14075179854E+04  0.12699999809E+01 0.  1.
</event>
<event>
 5   0  0.1826851E-05  0.2689547E+04  0.7818609E-02  0.8338405E-01
       -2   -1    0    0    0  501  0.00000000000E+00  0.00000000000E+00  0.13183375107E+04  0.13183375107E+04  0.25500000920E-02 0.  1.
        2   -1    0    0  501    0  0.00000000000E+00  0.00000000000E+00 -0.13717393344E+04  0.13717393344E+04  0.25500000920E-02 0. -1.
    10030    2    1    2    0    0  0.00000000000E+00  0.00000000000E+00 -0.53401823720E+02  0.26900768450E+04  0.26895467420E+04 0.  0.
        5    1    3    3  502    0 -0.11993382292E+04  0.37503137822E+03  0.45228031670E+03  0.13355299688E+04  0.46999998093E+01 0. -1.
       -5    1    3    3    0  502  0.11993382292E+04 -0.37503137822E+03 -0.50568214042E+03  0.13545468762E+04  0.46999998093E+01 0.  1.
</event>
<event>
 5   0  0.7754912E-06  0.2701721E+04  0.7818609E-02  0.8334447E-01
        1   -1    0    0  501    0  0.00000000000E+00  0.00000000000E+00  0.22460499324E+04  0.22460499324E+04  0.50400001928E-02 0.  1.
       -1   -1    0    0    0  501  0.00000000000E+00  0.00000000000E+00 -0.81245942337E+03  0.81245942338E+03  0.50400001928E-02 0. -1.
    10030    2    1    2    0    0  0.00000000000E+00  0.00000000000E+00  0.14335905090E+04  0.30585093558E+04  0.27017212535E+04 0.  0.
        4    1    3    3  502    0  0.57387394201E+03 -0.26307430416E+03 -0.63519073891E+03  0.89554914914E+03  0.12699999809E+01 0. -1.
       -4    1    3    3    0  502 -0.57387394201E+03  0.26307430416E+03  0.20687812479E+04  0.21629602067E+04  0.12699999809E+01 0.  1.
</event>
<event>
 5   0  0.1826851E-05  0.2700286E+04  0.7818609E-02  0.8334912E-01
       -2   -1    0    0    0  501  0.00000000000E+00  0.00000000000E+00  0.13692906517E+04  0.13692906517E+04  0.25500000920E-02 0.  1.
        2   -1    0    0  501    0  0.00000000000E+00  0.00000000000E+00 -0.13312628786E+04  0.13312628786E+04  0.25500000920E-02 0. -1.
    10030    2    1    2    0    0  0.00000000000E+00  0.00000000000E+00  0.38027773048E+02  0.27005535303E+04  0.27002857734E+04 0.  0.
        5    1    3    3  502    0 -0.69202460836E+03 -0.94493646472E+03  0.69069104206E+03  0.13597349692E+04  0.46999998093E+01 0.  1.
       -5    1    3    3    0  502  0.69202460836E+03  0.94493646472E+03 -0.65266326902E+03  0.13408185610E+04  0.46999998093E+01 0. -1.
</event>
<event>
 5   0  0.1931119E-05  0.2723853E+04  0.7818609E-02  0.8327307E-01
        2   -1    0    0  501    0  0.00000000000E+00  0.00000000000E+00  0.14031922844E+04  0.14031922844E+04  0.25500000920E-02 0.  1.
       -2   -1    0    0    0  501  0.00000000000E+00  0.00000000000E+00 -0.13218739233E+04  0.13218739233E+04  0.25500000920E-02 0. -1.
    10030    2    1    2    0    0  0.00000000000E+00  0.00000000000E+00  0.81318361097E+02  0.27250662078E+04  0.27238526320E+04 0.  0.
        3    1    3    3  502    0 -0.12160425330E+04 -0.17110042603E+02 -0.57263195447E+03  0.13442319596E+04  0.10100000352E+00 0. -1.
       -3    1    3    3    0  502  0.12160425330E+04  0.17110042603E+02  0.65395031557E+03  0.13808342482E+04  0.10100000352E+00 0.  1.
</event>
<event>
 5   0  0.6804685E-06  0.2718995E+04  0.7818609E-02  0.8328868E-01
       -1   -1    0    0    0  501  0.00000000000E+00  0.00000000000E+00  0.13706392340E+04  0.13706392341E+04  0.50400001928E-02 0. -1.
        1   -1    0    0  501    0  0.00000000000E+00  0.00000000000E+00 -0.13484465775E+04  0.13484465775E+04  0.50400001928E-02 0.  1.
    10030    2    1    2    0    0  0.00000000000E+00  0.00000000000E+00  0.22192656544E+02  0.27190858116E+04  0.27189952440E+04 0.  0.
        2    1    3    3  502    0 -0.71545989793E+03 -0.13498206533E+03  0.11592333297E+04  0.13689137796E+04  0.25500000920E-02 0. -1.
       -2    1    3    3    0  502  0.71545989793E+03  0.13498206533E+03 -0.11370406731E+04  0.13501720319E+04  0.25500000920E-02 0.  1.
</event>
<event>
 5   0  0.7348964E-06  0.2377688E+04  0.7818609E-02  0.8447904E-01
       -1   -1    0    0    0  501  0.00000000000E+00  0.00000000000E+00  0.58466001001E+03  0.58466001003E+03  0.50400001928E-02 0. -1.
        1   -1    0    0  501    0  0.00000000000E+00  0.00000000000E+00 -0.24173889041E+04  0.24173889041E+04  0.50400001928E-02 0.  1.
    10030    2    1    2    0    0  0.00000000000E+00  0.00000000000E+00 -0.18327288941E+04  0.30020489142E+04  0.23776884749E+04 0.  0.
        1    1    3    3  502    0  0.83532551575E+03 -0.62556653326E+03 -0.19740938948E+03  0.10621076555E+04  0.50400001928E-02 0. -1.
       -1    1    3    3    0  502 -0.83532551575E+03  0.62556653326E+03 -0.16353195046E+04  0.19399412587E+04  0.50400001928E-02 0.  1.
</event>
<event>
 5   0  0.7600052E-06  0.2764854E+04  0.7818609E-02  0.8314263E-01
       -1   -1    0    0    0  501  0.00000000000E+00  0.00000000000E+00  0.11459083552E+04  0.11459083552E+04  0.50400001928E-02 0.  1.
        1   -1    0    0  501    0  0.00000000000E+00  0.00000000000E+00 -0.16677641801E+04  0.16677641802E+04  0.50400001928E-02 0. -1.
    10030    2    1    2    0    0  0.00000000000E+00  0.00000000000E+00 -0.52185582497E+03  0.28136725353E+04  0.27648543604E+04 0.  0.
        5    1    3    3  502    0  0.11572695486E+04 -0.11886742357E+03 -0.10208936960E+04  0.15477881965E+04  0.46999998093E+01 0. -1.
       -5    1    3    3    0  502 -0.11572695486E+04  0.11886742357E+03  0.49903787106E+03  0.12658843389E+04  0.46999998093E+01 0.  1.
</event>
<event>
 5   0  0.7600052E-06  0.2671542E+04  0.7818609E-02  0.8344298E-01
        1   -1    0    0  501    0  0.00000000000E+00  0.00000000000E+00  0.85035789364E+03  0.85035789366E+03  0.50400001928E-02 0. -1.
       -1   -1    0    0    0  501  0.00000000000E+00  0.00000000000E+00 -0.20982747565E+04  0.20982747565E+04  0.50400001928E-02 0.  1.
    10030    2    1    2    0    0  0.00000000000E+00  0.00000000000E+00 -0.12479168628E+04  0.29486326501E+04  0.26715422529E+04 0.  0.
        5    1    3    3  502    0  0.63886395043E+03  0.48635035248E+03 -0.18021903001E+04  0.19729662390E+04  0.46999998093E+01 0.  1.
       -5    1    3    3    0  502 -0.63886395043E+03 -0.48635035248E+03  0.55427343727E+03  0.97566641112E+03  0.46999998093E+01 0. -1.
</event>
<event>
 5   0  0.1878160E-05  0.2691790E+04  0.7818609E-02  0.8337674E-01
        2   -1    0    0  501    0  0.00000000000E+00  0.00000000000E+00  0.10914860280E+04  0.10914860280E+04  0.25500000920E-02 0. -1.
       -2   -1    0    0    0  501  0.00000000000E+00  0.00000000000E+00 -0.16596028644E+04  0.16596028644E+04  0.25500000920E-02 0.  1.
    10030    2    1    2    0    0  0.00000000000E+00  0.00000000000E+00 -0.56811683638E+03  0.27510888924E+04  0.26917899907E+04 0.  0.
        1    1    3    3  502    0  0.96265596210E+03 -0.13978307528E+03 -0.12347038704E+04  0.15718585996E+04  0.50400001928E-02 0.  1.
       -1    1    3    3    0  502 -0.96265596210E+03  0.13978307528E+03  0.66658703405E+03  0.11792302928E+04  0.50400001928E-02 0. -1.
</event>
<event>
 5   0  0.1878160E-05  0.2605570E+04  0.7818609E-02  0.8366312E-01
        2   -1    0    0  501    0  0.00000000000E+00  0.00000000000E+00  0.23679138619E+04  0.23679138619E+04  0.25500000920E-02 0.  1.
       -2   -1    0    0    0  501  0.00000000000E+00  0.00000000000E+00 -0.71676955835E+03  0.71676955836E+03  0.25500000920E-02 0. -1.
    10030    2    1    2    0    0  0.00000000000E+00  0.00000000000E+00  0.16511443036E+04  0.30846834203E+04  0.26055698594E+04 0.  0.
        1    1    3    3  502    0 -0.97103008377E+03  0.75072049467E+03  0.30848884962E+03  0.12655615572E+04  0.50400001928E-02 0.  1.
       -1    1    3    3    0  502  0.97103008377E+03 -0.75072049467E+03  0.13426554540E+04  0.18191218631E+04  0.50400001928E-02 0. -1.
</event>
<event>
 5   0  0.7348964E-06  0.2834668E+04  0.7818609E-02  0.8292586E-01
       -1   -1    0    0    0  501  0.00000000000E+00  0.00000000000E+00  0.12333376842E+04  0.12333376842E+04  0.50400001928E-02 0. -1.
        1   -1    0    0  501    0  0.00000000000E+00  0.00000000000E+00 -0.16287796472E+04  0.16287796472E+04  0.50400001928E-02 0.  1.
    10030    2    1    2    0    0  0.00000000000E+00  0.00000000000E+00 -0.39544196301E+03  0.28621173315E+04  0.28346677536E+04 0.  0.
        1    1    3    3  502    0 -0.56054512773E+02  0.58823579821E+03 -0.14984786200E+04  0.16107767186E+04  0.50400001928E-02 0.  1.
       -1    1    3    3    0  502  0.56054512773E+02 -0.58823579821E+03  0.11030366570E+04  0.12513406128E+04  0.50400001928E-02 0. -1.
</event>
<event>
 5   0  0.1788003E-05  0.2697609E+04  0.7818609E-02  0.8335781E-01
        2   -1    0    0  501    0  0.00000000000E+00  0.00000000000E+00  0.25360088460E+04  0.25360088460E+04  0.25500000920E-02 0.  1.
       -2   -1    0    0    0  501  0.00000000000E+00  0.00000000000E+00 -0.71737665208E+03  0.71737665209E+03  0.25500000920E-02 0. -1.
    10030    2    1    2    0    0  0.00000000000E+00  0.00000000000E+00  0.18186321940E+04  0.32533854981E+04  0.26976089677E+04 0.  0.
        2    1    3    3  502    0 -0.32325573144E+03  0.63408916393E+03 -0.47247044873E+03  0.85427844445E+03  0.25500000920E-02 0. -1.
       -2    1    3    3    0  502  0.32325573144E+03 -0.63408916393E+03  0.22911026427E+04  0.23991070537E+04  0.25500000920E-02 0.  1.
</event>
<event>
 5   0  0.1826851E-05  0.2728695E+04  0.7818609E-02  0.8325754E-01
       -2   -1    0    0    0  501  0.00000000000E+00  0.00000000000E+00  0.10645832748E+04  0.10645832748E+04  0.25500000920E-02 0. -1.
        2   -1    0    0  501    0  0.00000000000E+00  0.00000000000E+00 -0.17485190183E+04  0.17485190183E+04  0.25500000920E-02 0.  1.
    10030    2    1    2    0    0  0.00000000000E+00  0.00000000000E+00 -0.68393574349E+03  0.28131022932E+04  0.27286950014E+04 0.  0.
        5    1    3    3  502    0  0.61923345027E+01 -0.11639328346E+04 -0.10757751106E+04  0.15849580964E+04  0.46999998093E+01 0.  1.
       -5    1    3    3    0  502 -0.61923345027E+01  0.11639328346E+04  0.39183936715E+03  0.12281441968E+04  0.46999998093E+01 0. -1.
</event>
<event>
 5   0  0.1826851E-05  0.2744701E+04  0.7818609E-02  0.8320645E-01
        2   -1    0    0  501    0  0.00000000000E+00  0.00000000000E+00  0.14939074293E+04  0.14939074293E+04  0.25500000920E-02 0. -1.
       -2   -1    0    0    0  501  0.00000000000E+00  0.00000000000E+00 -0.12606840569E+04  0.12606840569E+04  0.25500000920E-02 0.  1.
    10030    2    1    2    0    0  0.00000000000E+00  0.00000000000E+00  0.23322337242E+03  0.27545914863E+04  0.27447005510E+04 0.  0.
        5    1    3    3  502    0  0.95973378217E+03 -0.93277374804E+03  0.42129654904E+03  0.14030925379E+04  0.46999998093E+01 0. -1.
       -5    1    3    3    0  502 -0.95973378217E+03  0.93277374804E+03 -0.18807317663E+03  0.13514989484E+04  0.46999998093E+01 0.  1.
</event>
<event>
 5   0  0.7348964E-06  0.2707347E+04  0.7818609E-02  0.8332625E-01
        1   -1    0    0  501    0  0.00000000000E+00  0.00000000000E+00  0.14405504021E+04  0.14405504021E+04  0.50400001928E-02 0. -1.
       -1   -1    0    0    0  501  0.00000000000E+00  0.00000000000E+00 -0.12720363264E+04  0.12720363265E+04  0.50400001928E-02 0.  1.
    10030    2    1    2    0    0  0.00000000000E+00  0.00000000000E+00  0.16851407563E+03  0.27125867285E+04  0.27073473671E+04 0.  0.
        1    1    3    3  502    0  0.33035121606E+03  0.39394527684E+03  0.13389214671E+04  0.14342369059E+04  0.50400001928E-02 0. -1.
       -1    1    3    3    0  502 -0.33035121606E+03 -0.39394527684E+03 -0.11704073915E+04  0.12783498227E+04  0.50400001928E-02 0.  1.
</event>
<event>
 5   0  0.7754912E-06  0.2705186E+04  0.7818609E-02  0.8333324E-01
       -1   -1    0    0    0  501  0.00000000000E+00  0.00000000000E+00  0.70025456918E+03  0.70025456920E+03  0.50400001928E-02 0.  1.
        1   -1    0    0  501    0  0.00000000000E+00  0.00000000000E+00 -0.26126319446E+04  0.26126319446E+04  0.50400001928E-02 0. -1.
    10030    2    1    2    0    0  0.00000000000E+00  0.00000000000E+00 -0.19123773754E+04  0.33128865138E+04  0.27051857288E+04 0.  0.
        4    1    3    3  502    0  0.26014186260E+02  0.73961626499E+03 -0.23426861451E+04  0.24568046208E+04  0.12699999809E+01 0. -1.
       -4    1    3    3    0  502 -0.26014186260E+02 -0.73961626499E+03  0.43030876972E+03  0.85608189300E+03  0.12699999809E+01 0.  1.
</event>
<event>
 5   0  0.1931119E-05  0.2737444E+04  0.7818609E-02  0.8322957E-01
        2   -1    0    0  501    0  0.00000000000E+00  0.00000000000E+00  0.14756058209E+04  0.14756058209E+04  0.25500000920E-02 0. -1.
       -2   -1    0    0    0  501  0.00000000000E+00  0.00000000000E+00 -0.12695806431E+04  0.12695806431E+04  0.25500000920E-02 0.  1.
    10030    2    1    2    0    0  0.00000000000E+00  0.00000000000E+00  0.20602517780E+03  0.27451864639E+04  0.27374444922E+04 0.  0.
        3    1    3    3  502    0 -0.73069925068E+03  0.60242305658E+03 -0.88799561018E+03  0.12982184516E+04  0.10100000352E+00 0.  1.
       -3    1    3    3    0  502  0.73069925068E+03 -0.60242305658E+03  0.10940207880E+04  0.14469680124E+04  0.10100000352E+00 0. -1.
</event>
<event>
 5   0  0.1878160E-05  0.2739082E+04  0.7818609E-02  0.8322434E-01
        2   -1    0    0  501    0  0.00000000000E+00  0.00000000000E+00  0.20753990118E+04  0.20753990118E+04  0.25500000920E-02 0.  1.
       -2   -1    0    0    0  501  0.00000000000E+00  0.00000000000E+00 -0.90375055341E+03  0.90375055342E+03  0.25500000920E-02 0. -1.
    10030    2    1    2    0    0  0.00000000000E+00  0.00000000000E+00  0.11716484583E+04  0.29791495652E+04  0.27390823321E+04 0.  0.
        1    1    3    3  502    0  0.18711210559E+03 -0.10792106800E+04 -0.30838702040E+03  0.11378968258E+04  0.50400001928E-02 0. -1.
       -1    1    3    3    0  502 -0.18711210559E+03  0.10792106800E+04  0.14800354787E+04  0.18412527394E+04  0.50400001928E-02 0.  1.
</event>
<event>
 5   0  0.1826851E-05  0.2666870E+04  0.7818609E-02  0.8345835E-01
       -2   -1    0    0    0  501  0.00000000000E+00  0.00000000000E+00  0.13510973183E+04  0.13510973183E+04  0.25500000920E-02 0. -1.
        2   -1    0    0  501    0  0.00000000000E+00  0.00000000000E+00 -0.13160036985E+04  0.13160036985E+04  0.25500000920E-02 0.  1.
    10030    2    1    2    0    0  0.00000000000E+00  0.00000000000E+00  0.35093619853E+02  0.26671010168E+04  0.26668701265E+04 0.  0.
        5    1    3    3  502    0 -0.12828180090E+02  0.29316920503E+03 -0.12833018393E+04  0.13164339884E+04  0.46999998093E+01 0.  1.
       -5    1    3    3    0  502  0.12828180090E+02 -0.29316920503E+03  0.13183954592E+04  0.13506670284E+04  0.46999998093E+01 0. -1.
</event>
<event>
 5   0  0.6804685E-06  0.2702284E+04  0.7818609E-02  0.8334264E-01
        1   -1    0    0  501    0  0.00000000000E+00  0.00000000000E+00  0.24556349631E+04  0.24556349631E+04  0.50400001928E-02 0. -1.
       -1   -1    0    0    0  501  0.00000000000E+00  0.00000000000E+00 -0.74342655739E+03  0.74342655741E+03  0.50400001928E-02 0.  1.
    10030    2    1    2    0    0  0.00000000000E+00  0.00000000000E+00  0.17122084057E+04  0.31990615205E+04  0.27022836615E+04 0.  0.
        2    1    3    3  502    0  0.21542950666E+03 -0.12244927214E+04  0.14822987245E+04  0.19346839033E+04  0.25500000920E-02 0. -1.
       -2    1    3    3    0  502 -0.21542950666E+03  0.12244927214E+04  0.22990968116E+03  0.12643776171E+04  0.25500000920E-02 0.  1.
</event>
<event>
 5   0  0.1931119E-05  0.2597252E+04  0.7818609E-02  0.8369135E-01
       -2   -1    0    0    0  501  0.00000000000E+00  0.00000000000E+00  0.89195335762E+03  0.89195335763E+03  0.25500000920E-02 0. -1.
        2   -1    0    0  501    0  0.00000000000E+00  0.00000000000E+00 -0.18907145006E+04  0.18907145006E+04  0.25500000920E-02 0.  1.
    10030    2    1    2    0    0  0.00000000000E+00  0.00000000000E+00 -0.99876114302E+03  0.27826678583E+04  0.25972517376E+04 0.  0.
        3    1    3    3  502    0 -0.11986700679E+04  0.49656038079E+03 -0.44024033090E+03  0.13701071866E+04  0.10100000352E+00 0. -1.
       -3    1    3    3    0  502  0.11986700679E+04 -0.49656038079E+03 -0.55852081211E+03  0.14125606717E+04  0.10100000352E+00 0.  1.
</event>
<event>
 5   0  0.1881699E-05  0.2692964E+04  0.7818609E-02  0.8337292E-01
        2   -1    0    0  501    0  0.00000000000E+00  0.00000000000E+00  0.14387104720E+04  0.14387104720E+04  0.25500000920E-02 0.  1.
       -2   -1    0    0    0  501  0.00000000000E+00  0.00000000000E+00 -0.12601655318E+04  0.12601655318E+04  0.25500000920E-02 0. -1.
    10030    2    1    2    0    0  0.00000000000E+00  0.00000000000E+00  0.17854494016E+03  0.26988760038E+04  0.26929636812E+04 0.  0.
        4    1    3    3  502    0  0.85072627125E+03 -0.50383892314E+03  0.10052938698E+04  0.14100376685E+04  0.12699999809E+01 0.  1.
       -4    1    3    3    0  502 -0.85072627125E+03  0.50383892314E+03 -0.82674892964E+03  0.12888383353E+04  0.12699999809E+01 0. -1.
</event>
<event>
 5   0  0.6175875E-06  0.2067849E+04  0.7818609E-02  0.8575540E-01
        3   -1    0    0  501    0  0.00000000000E+00  0.00000000000E+00  0.13315632369E+04  0.13315632407E+04  0.10100000352E+00 0.  1.
       -3   -1    0    0    0  501  0.00000000000E+00  0.00000000000E+00 -0.80281541901E+03  0.80281542537E+03  0.10100000352E+00 0. -1.
    10030    2    1    2    0    0  0.00000000000E+00  0.00000000000E+00  0.52874781785E+03  0.21343786661E+04  0.20678486490E+04 0.  0.
        5    1    3    3  502    0  0.91594753598E+03  0.39959417573E+03  0.53812770849E+03  0.11350061298E+04  0.46999998093E+01 0.  1.
       -5    1    3    3    0  502 -0.91594753598E+03 -0.39959417573E+03 -0.93798906461E+01  0.99937253629E+03  0.46999998093E+01 0. -1.
</event>
<event>
 5   0  0.1931119E-05  0.2602794E+04  0.7818609E-02  0.8367253E-01
        2   -1    0    0  501    0  0.00000000000E+00  0.00000000000E+00  0.16292170562E+04  0.16292170562E+04  0.25500000920E-02 0.  1.
       -2   -1    0    0    0  501  0.00000000000E+00  0.00000000000E+00 -0.10395387216E+04  0.10395387217E+04  0.25500000920E-02 0. -1.
    10030    2    1    2    0    0  0.00000000000E+00  0.00000000000E+00  0.58967833456E+03  0.26687557779E+04  0.26027940494E+04 0.  0.
        3    1    3    3  502    0  0.69335296623E+03  0.91920970677E+02  0.14201247827E+04  0.15830168064E+04  0.10100000352E+00 0.  1.
       -3    1    3    3    0  502 -0.69335296623E+03 -0.91920970677E+02 -0.83044644818E+03  0.10857389715E+04  0.10100000352E+00 0. -1.
</event>
<event>
 5   0  0.1881699E-05  0.2690027E+04  0.7818609E-02  0.8338248E-01
       -2   -1    0    0    0  501  0.00000000000E+00  0.00000000000E+00  0.17878264145E+04  0.17878264145E+04  0.25500000920E-02 0.  1.
        2   -1    0    0  501    0  0.00000000000E+00  0.00000000000E+00 -0.10118776689E+04  0.10118776689E+04  0.25500000920E-02 0. -1.
    10030    2    1    2    0    0  0.00000000000E+00  0.00000000000E+00  0.77594874556E+03  0.27997040834E+04  0.26900272301E+04 0.  0.
        4    1    3    3  502    0  0.97474725114E+03 -0.89433181468E+03  0.13496106443E+03  0.13297284310E+04  0.12699999809E+01 0. -1.
       -4    1    3    3    0  502 -0.97474725114E+03  0.89433181468E+03  0.64098768112E+03  0.14699756524E+04  0.12699999809E+01 0.  1.
</event>
<event>
 5   0  0.1878160E-05  0.2697511E+04  0.7818609E-02  0.8335813E-01
       -2   -1    0    0    0  501  0.00000000000E+00  0.00000000000E+00  0.77914183408E+03  0.77914183409E+03  0.25500000920E-02 0.  1.
        2   -1    0    0  501    0  0.00000000000E+00  0.00000000000E+00 -0.23348009395E+04  0.23348009395E+04  0.25500000920E-02 0. -1.
    10030    2    1    2    0    0  0.00000000000E+00  0.00000000000E+00 -0.15556591054E+04  0.31139427736E+04  0.26975107683E+04 0.  0.
        1    1    3    3  502    0 -0.11334025126E+04  0.51580777405E+03 -0.13759727466E+04  0.18557909135E+04  0.50400001928E-02 0. -1.
       -1    1    3    3    0  502  0.11334025126E+04 -0.51580777405E+03 -0.17968635877E+03  0.12581518600E+04  0.50400001928E-02 0.  1.
</event>
<event>
 5   0  0.7754912E-06  0.2773016E+04  0.7818609E-02  0.8311695E-01
        1   -1    0    0  501    0  0.00000000000E+00  0.00000000000E+00  0.22433404262E+04  0.22433404262E+04  0.50400001928E-02 0.  1.
       -1   -1    0    0    0  501  0.00000000000E+00  0.00000000000E+00 -0.85693859294E+03  0.85693859296E+03  0.50400001928E-02 0. -1.
    10030    2    1    2    0    0  0.00000000000E+00  0.00000000000E+00  0.13864018333E+04  0.31002790192E+04  0.27730163998E+04 0.  0.
        4    1    3    3  502    0  0.23236675905E+03 -0.12389752753E+04  0.13387037275E+04  0.18387994253E+04  0.12699999809E+01 0.  1.
       -4    1    3    3    0  502 -0.23236675905E+03  0.12389752753E+04  0.47698105747E+02  0.12614795939E+04  0.12699999809E+01 0. -1.
</event>
<event>
 5   0  0.1931119E-05  0.2694429E+04  0.7818609E-02  0.8336815E-01
        2   -1    0    0  501    0  0.00000000000E+00  0.00000000000E+00  0.15476041739E+04  0.15476041739E+04  0.25500000920E-02 0.  1.
       -2   -1    0    0    0  501  0.00000000000E+00  0.00000000000E+00 -0.11727723463E+04  0.11727723463E+04  0.25500000920E-02 0. -1.
    10030    2    1    2    0    0  0.00000000000E+00  0.00000000000E+00  0.37483182763E+03  0.27203765202E+04  0.26944293482E+04 0.  0.
        3    1    3    3  502    0 -0.18367216965E+03 -0.89378295481E+02  0.15318788847E+04  0.15454374375E+04  0.10100000352E+00 0.  1.
       -3    1    3    3    0  502  0.18367216965E+03  0.89378295481E+02 -0.11570470571E+04  0.11749390827E+04  0.10100000352E+00 0. -1.
</event>
<event>
 5   0  0.1826851E-05  0.2695754E+04  0.7818609E-02  0.8336384E-01
        2   -1    0    0  501    0  0.00000000000E+00  0.00000000000E+00  0.21547405438E+04  0.21547405438E+04  0.25500000920E-02 0.  1.
       -2   -1    0    0    0  501  0.00000000000E+00  0.00000000000E+00 -0.84315119969E+03  0.84315119969E+03  0.25500000920E-02 0. -1.
    10030    2    1    2    0    0  0.00000000000E+00  0.00000000000E+00  0.13115893441E+04  0.29978917435E+04  0.26957537532E+04 0.  0.
        5    1    3    3  502    0 -0.10927649117E+03 -0.35149278596E+03 -0.78616580071E+03  0.86808253427E+03  0.46999998093E+01 0. -1.
       -5    1    3    3    0  502  0.10927649117E+03  0.35149278596E+03  0.20977551448E+04  0.21298092092E+04  0.46999998093E+01 0.  1.
</event>
<event>
 5   0  0.7351590E-06  0.2263527E+04  0.7818609E-02  0.8492442E-01
        1   -1    0    0  501    0  0.00000000000E+00  0.00000000000E+00  0.75585758947E+03  0.75585758949E+03  0.50400001928E-02 0.  1.
       -1   -1    0    0    0  501  0.00000000000E+00  0.00000000000E+00 -0.16946161716E+04  0.16946161716E+04  0.50400001928E-02 0. -1.
    10030    2    1    2    0    0  0.00000000000E+00  0.00000000000E+00 -0.93875858214E+03  0.24504737611E+04  0.22635268892E+04 0.  0.
        3    1    3    3  502    0  0.35510691726E+03 -0.85026973997E+03  0.24203120128E+03  0.95270072215E+03  0.10100000352E+00 0.  1.
       -3    1    3    3    0  502 -0.35510691726E+03  0.85026973997E+03 -0.11807897834E+04  0.14977730390E+04  0.10100000352E+00 0. -1.
</event>
<event>
 5   0  0.7754912E-06  0.2742651E+04  0.7818609E-02  0.8321297E-01
        1   -1    0    0  501    0  0.00000000000E+00  0.00000000000E+00  0.19642718495E+04  0.19642718495E+04  0.50400001928E-02 0. -1.
       -1   -1    0    0    0  501  0.00000000000E+00  0.00000000000E+00 -0.95736965133E+03  0.95736965134E+03  0.50400001928E-02 0.  1.
    10030    2    1    2    0    0  0.00000000000E+00  0.00000000000E+00  0.10069021982E+04  0.29216415009E+04  0.27426514585E+04 0.  0.
        4    1    3    3  502    0 -0.11491720925E+04 -0.82729767940E+02 -0.28878561675E+03  0.11877876317E+04  0.12699999809E+01 0.  1.
       -4    1    3    3    0  502  0.11491720925E+04  0.82729767940E+02  0.12956878149E+04  0.17338538691E+04  0.12699999809E+01 0. -1.
</event>
<event>
 5   0  0.1881699E-05  0.2699722E+04  0.7818609E-02  0.8335095E-01
       -2   -1    0    0    0  501  0.00000000000E+00  0.00000000000E+00  0.13307890849E+04  0.13307890849E+04  0.25500000920E-02 0.  1.
        2   -1    0    0  501    0  0.00000000000E+00  0.00000000000E+00 -0.13692059727E+04  0.13692059727E+04  0.25500000920E-02 0. -1.
    10030    2    1    2    0    0  0.00000000000E+00  0.00000000000E+00 -0.38416887799E+02  0.26999950576E+04  0.26997217364E+04 0.  0.
        4    1    3    3  502    0 -0.94687591496E+03 -0.76223908805E+03  0.56782655621E+03  0.13416448996E+04  0.12699999809E+01 0.  1.
       -4    1    3    3    0  502  0.94687591496E+03  0.76223908805E+03 -0.60624344400E+03  0.13583501581E+04  0.12699999809E+01 0. -1.
</event>
<event>
 5   0  0.7351590E-06  0.2697922E+04  0.7818609E-02  0.8335679E-01
        1   -1    0    0  501    0  0.00000000000E+00  0.00000000000E+00  0.17830241458E+04  0.17830241458E+04  0.50400001928E-02 0. -1.
       -1   -1    0    0    0  501  0.00000000000E+00  0.00000000000E+00 -0.10205673604E+04  0.10205673604E+04  0.50400001928E-02 0.  1.
    10030    2    1    2    0    0  0.00000000000E+00  0.00000000000E+00  0.76245678543E+03  0.28035915062E+04  0.26979223458E+04 0.  0.
        3    1    3    3  502    0 -0.15307799376E+03 -0.42927358013E+03  0.17005969591E+04  0.17606074821E+04  0.10100000352E+00 0. -1.
       -3    1    3    3    0  502  0.15307799376E+03  0.42927358013E+03 -0.93814017364E+03  0.10429840240E+04  0.10100000352E+00 0.  1.
</event>
<event>
 5   0  0.1826851E-05  0.2456197E+04  0.7818609E-02  0.8418759E-01
       -2   -1    0    0    0  501  0.00000000000E+00  0.00000000000E+00  0.10333669134E+04  0.10333669134E+04  0.25500000920E-02 0. -1.
        2   -1    0    0  501    0  0.00000000000E+00  0.00000000000E+00 -0.14595263308E+04  0.14595263308E+04  0.25500000920E-02 0.  1.
    10030    2    1    2    0    0  0.00000000000E+00  0.00000000000E+00 -0.42615941741E+03  0.24928932441E+04  0.24561972392E+04 0.  0.
        5    1    3    3  502    0  0.37481768305E+03  0.11173940053E+04 -0.56341269672E+03  0.13063359504E+04  0.46999998093E+01 0.  1.
       -5    1    3    3    0  502 -0.37481768305E+03 -0.11173940053E+04  0.13725327932E+03  0.11865572937E+04  0.46999998093E+01 0. -1.
</event>
<event>
 5   0  0.1788003E-05  0.2654868E+04  0.7818609E-02  0.8349799E-01
       -2   -1    0    0    0  501  0.00000000000E+00  0.00000000000E+00  0.72508376790E+03  0.72508376790E+03  0.25500000920E-02 0.  1.
        2   -1    0    0  501    0  0.00000000000E+00  0.00000000000E+00 -0.24301756556E+04  0.24301756556E+04  0.25500000920E-02 0. -1.
    10030    2    1    2    0    0  0.00000000000E+00  0.00000000000E+00 -0.17050918877E+04  0.31552594235E+04  0.26548679222E+04 0.  0.
        2    1    3    3  502    0 -0.26675152341E+03  0.10083373101E+04 -0.18283895442E+04  0.21049724064E+04  0.25500000920E-02 0. -1.
       -2    1    3    3    0  502  0.26675152341E+03 -0.10083373101E+04  0.12329765648E+03  0.10502870171E+04  0.25500000920E-02 0.  1.
</event>
<event>
 5   0  0.1826851E-05  0.2692433E+04  0.7818609E-02  0.8337465E-01
       -2   -1    0    0    0  501  0.00000000000E+00  0.00000000000E+00  0.75724696481E+03  0.75724696482E+03  0.25500000920E-02 0. -1.
        2   -1    0    0  501    0  0.00000000000E+00  0.00000000000E+00 -0.23932723341E+04  0.23932723341E+04  0.25500000920E-02 0.  1.
    10030    2    1    2    0    0  0.00000000000E+00  0.00000000000E+00 -0.16360253693E+04  0.31505192989E+04  0.26924325142E+04 0.  0.
        5    1    3    3  502    0  0.33015286961E+03 -0.12379723859E+04 -0.13014648815E+04  0.18263103442E+04  0.46999998093E+01 0. -1.
       -5    1    3    3    0  502 -0.33015286961E+03  0.12379723859E+04 -0.33456048780E+03  0.13242089547E+04  0.46999998093E+01 0.  1.
</event>
<event>
 5   0  0.7600052E-06  0.2635507E+04  0.7818609E-02  0.8356239E-01
       -1   -1    0    0    0  501  0.00000000000E+00  0.00000000000E+00  0.88362331109E+03  0.88362331110E+03  0.50400001928E-02 0. -1.
        1   -1    0    0  501    0  0.00000000000E+00  0.00000000000E+00 -0.19651747311E+04  0.19651747311E+04  0.50400001928E-02 0.  1.
    10030    2    1    2    0    0  0.00000000000E+00  0.00000000000E+00 -0.10815514201E+04  0.28487980422E+04  0.26355069363E+04 0.  0.
        5    1    3    3  502    0  0.10344557797E+04  0.61390986280E+03 -0.11223400967E+04  0.16451910109E+04  0.46999998093E+01 0.  1.
       -5    1    3    3    0  502 -0.10344557797E+04 -0.61390986280E+03  0.40788676689E+02  0.12036070313E+04  0.46999998093E+01 0. -1.
</event>
<event>
 5   0  0.7754912E-06  0.2587788E+04  0.7818609E-02  0.8372361E-01
       -1   -1    0    0    0  501  0.00000000000E+00  0.00000000000E+00  0.11605195576E+04  0.11605195576E+04  0.50400001928E-02 0.  1.
        1   -1    0    0  501    0  0.00000000000E+00  0.00000000000E+00 -0.14425971715E+04  0.14425971715E+04  0.50400001928E-02 0. -1.
    10030    2    1    2    0    0  0.00000000000E+00  0.00000000000E+00 -0.28207761389E+03  0.26031167291E+04  0.25877884235E+04 0.  0.
        4    1    3    3  502    0  0.10471011832E+04  0.59151669824E+02 -0.90331420674E+03  0.13841596645E+04  0.12699999809E+01 0. -1.
       -4    1    3    3    0  502 -0.10471011832E+04 -0.59151669824E+02  0.62123659285E+03  0.12189570645E+04  0.12699999809E+01 0.  1.
</event>
<event>
 5   0  0.1931119E-05  0.2696310E+04  0.7818609E-02  0.8336203E-01
        2   -1    0    0  501    0  0.00000000000E+00  0.00000000000E+00  0.12167522142E+04  0.12167522142E+04  0.25500000920E-02 0.  1.
       -2   -1    0    0    0  501  0.00000000000E+00  0.00000000000E+00 -0.14937483822E+04  0.14937483822E+04  0.25500000920E-02 0. -1.
    10030    2    1    2    0    0  0.00000000000E+00  0.00000000000E+00 -0.27699616807E+03  0.27105005964E+04  0.26963098127E+04 0.  0.
        3    1    3    3  502    0 -0.80501830091E+03  0.70608698614E+03  0.68490276731E+03  0.12711038933E+04  0.10100000352E+00 0.  1.
       -3    1    3    3    0  502  0.80501830091E+03 -0.70608698614E+03 -0.96189893538E+03  0.14393967031E+04  0.10100000352E+00 0. -1.
</event>
<event>
 5   0  0.6804685E-06  0.2683375E+04  0.7818609E-02  0.8340420E-01
        1   -1    0    0  501    0  0.00000000000E+00  0.00000000000E+00  0.16745457796E+04  0.16745457796E+04  0.50400001928E-02 0. -1.
       -1   -1    0    0    0  501  0.00000000000E+00  0.00000000000E+00 -0.10749929448E+04  0.10749929449E+04  0.50400001928E-02 0.  1.
    10030    2    1    2    0    0  0.00000000000E+00  0.00000000000E+00  0.59955283478E+03  0.27495387245E+04  0.26833746656E+04 0.  0.
        2    1    3    3  502    0 -0.10837578661E+03  0.18869594244E+02  0.16699170312E+04  0.16735364542E+04  0.25500000920E-02 0. -1.
       -2    1    3    3    0  502  0.10837578661E+03 -0.18869594244E+02 -0.10703641964E+04  0.10760022703E+04  0.25500000920E-02 0.  1.
</event>
<event>
 5   0  0.1881699E-05  0.2726012E+04  0.7818609E-02  0.8326614E-01
       -2   -1    0    0    0  501  0.00000000000E+00  0.00000000000E+00  0.65341614665E+03  0.65341614666E+03  0.25500000920E-02 0. -1.
        2   -1    0    0  501    0  0.00000000000E+00  0.00000000000E+00 -0.28431894304E+04  0.28431894304E+04  0.25500000920E-02 0.  1.
    10030    2    1    2    0    0  0.00000000000E+00  0.00000000000E+00 -0.21897732838E+04  0.34966055771E+04  0.27260123858E+04 0.  0.
        4    1    3    3  502    0  0.21211076978E+02 -0.10400571075E+04 -0.22245318937E+04  0.24557508944E+04  0.12699999809E+01 0.  1.
       -4    1    3    3    0  502 -0.21211076978E+02  0.10400571075E+04  0.34758609874E+02  0.10408546827E+04  0.12699999809E+01 0. -1.
</event>
<event>
 5   0  0.7754912E-06  0.2348200E+04  0.7818609E-02  0.8459155E-01
        1   -1    0    0  501    0  0.00000000000E+00  0.00000000000E+00  0.12624648680E+04  0.12624648680E+04  0.50400001928E-02 0. -1.
       -1   -1    0    0    0  501  0.00000000000E+00  0.00000000000E+00 -0.10919205397E+04  0.10919205397E+04  0.50400001928E-02 0.  1.
    10030    2    1    2    0    0  0.00000000000E+00  0.00000000000E+00  0.17054432824E+03  0.23543854077E+04  0.23482004344E+04 0.  0.
        4    1    3    3  502    0  0.10267308504E+04  0.38941125539E+03 -0.33138507629E+03  0.11470113542E+04  0.12699999809E+01 0.  1.
       -4    1    3    3    0  502 -0.10267308504E+04 -0.38941125539E+03  0.50192940454E+03  0.12073740535E+04  0.12699999809E+01 0. -1.
</event>
<event>
 5   0  0.7348964E-06  0.2659050E+04  0.7818609E-02  0.8348415E-01
       -1   -1    0    0    0  501  0.00000000000E+00  0.00000000000E+00  0.10219466397E+04  0.10219466397E+04  0.50400001928E-02 0.  1.
        1   -1    0    0  501    0  0.00000000000E+00  0.00000000000E+00 -0.17296766527E+04  0.17296766527E+04  0.50400001928E-02 0. -1.
    10030    2    1    2    0    0  0.00000000000E+00  0.00000000000E+00 -0.70773001302E+03  0.27516232924E+04  0.26590503891E+04 0.  0.
        1    1    3    3  502    0  0.70718591301E+03 -0.10573832330E+04 -0.75393285767E+03  0.14787109152E+04  0.50400001928E-02 0. -1.
       -1    1    3    3    0  502 -0.70718591301E+03  0.10573832330E+04  0.46202844656E+02  0.12729123771E+04  0.50400001928E-02 0.  1.
</event>
<event>
 5   0  0.7600052E-06  0.2687083E+04  0.7818609E-02  0.8339208E-01
        1   -1    0    0  501    0  0.00000000000E+00  0.00000000000E+00  0.12240760071E+04  0.12240760071E+04  0.50400001928E-02 0.  1.
       -1   -1    0    0    0  501  0.00000000000E+00  0.00000000000E+00 -0.14746664444E+04  0.14746664444E+04  0.50400001928E-02 0. -1.
    10030    2    1    2    0    0  0.00000000000E+00  0.00000000000E+00 -0.25059043724E+03  0.26987424515E+04  0.26870830378E+04 0.  0.
        5    1    3    3  502    0  0.24182435458E+03  0.28515224726E+03 -0.14213561149E+04  0.14697163393E+04  0.46999998093E+01 0. -1.
       -5    1    3    3    0  502 -0.24182435458E+03 -0.28515224726E+03  0.11707656776E+04  0.12290261122E+04  0.46999998093E+01 0.  1.
</event>
<event>
 5   0  0.7351590E-06  0.2711294E+04  0.7818609E-02  0.8331350E-01
        1   -1    0    0  501    0  0.00000000000E+00  0.00000000000E+00  0.22874034102E+04  0.22874034102E+04  0.50400001928E-02 0. -1.
       -1   -1    0    0    0  501  0.00000000000E+00  0.00000000000E+00 -0.80343477847E+03  0.80343477848E+03  0.50400001928E-02 0.  1.
    10030    2    1    2    0    0  0.00000000000E+00  0.00000000000E+00  0.14839686317E+04  0.30908381887E+04  0.27112944895E+04 0.  0.
        3    1    3    3  502    0 -0.52300096811E+03  0.12398626873E+04  0.92926827705E+03  0.16353375911E+04  0.10100000352E+00 0.  1.
       -3    1    3    3    0  502  0.52300096811E+03 -0.12398626873E+04  0.55470035466E+03  0.14555005976E+04  0.10100000352E+00 0. -1.
</event>
<event>
 5   0  0.1788003E-05  0.2459470E+04  0.7818609E-02  0.8417568E-01
        2   -1    0    0  501    0  0.00000000000E+00  0.00000000000E+00  0.20945837423E+04  0.20945837423E+04  0.25500000920E-02 0. -1.
       -2   -1    0    0    0  501  0.00000000000E+00  0.00000000000E+00 -0.72198055714E+03  0.72198055714E+03  0.25500000920E-02 0.  1.
    10030    2    1    2    0    0  0.00000000000E+00  0.00000000000E+00  0.13726031852E+04  0.28165642995E+04  0.24594704611E+04 0.  0.
        2    1    3    3  502    0  0.34628551346E+03  0.83348342825E+03 -0.27021803852E+03  0.94213909289E+03  0.25500000920E-02 0.  1.
       -2    1    3    3    0  502 -0.34628551346E+03 -0.83348342825E+03  0.16428212237E+04  0.18744252066E+04  0.25500000920E-02 0. -1.
</event>
<event>
 5   0  0.7754912E-06  0.2692261E+04  0.7818609E-02  0.8337520E-01
       -1   -1    0    0    0  501  0.00000000000E+00  0.00000000000E+00  0.83909580460E+03  0.83909580462E+03  0.50400001928E-02 0.  1.
        1   -1    0    0  501    0  0.00000000000E+00  0.00000000000E+00 -0.21595472293E+04  0.21595472293E+04  0.50400001928E-02 0. -1.
    10030    2    1    2    0    0  0.00000000000E+00  0.00000000000E+00 -0.13204514247E+04  0.29986430339E+04  0.26922607749E+04 0.  0.
        4    1    3    3  502    0 -0.54978113040E+02 -0.62228861337E+03 -0.19883137167E+04  0.20841446111E+04  0.12699999809E+01 0. -1.
       -4    1    3    3    0  502  0.54978113040E+02  0.62228861337E+03  0.66786229201E+03  0.91449842277E+03  0.12699999809E+01 0.  1.
</event>
<event>
 5   0  0.1826851E-05  0.2725404E+04  0.7818609E-02  0.8326809E-01
        2   -1    0    0  501    0  0.00000000000E+00  0.00000000000E+00  0.13289664431E+04  0.13289664432E+04  0.25500000920E-02 0.  1.
       -2   -1    0    0    0  501  0.00000000000E+00  0.00000000000E+00 -0.13972941419E+04  0.13972941419E+04  0.25500000920E-02 0. -1.
    10030    2    1    2    0    0  0.00000000000E+00  0.00000000000E+00 -0.68327698708E+02  0.27262605850E+04  0.27254042091E+04 0.  0.
        5    1    3    3  502    0 -0.62034529853E+03  0.24104474809E+03 -0.12236565275E+04  0.13929422987E+04  0.46999998093E+01 0. -1.
       -5    1    3    3    0  502  0.62034529853E+03 -0.24104474809E+03  0.11553288288E+04  0.13333182864E+04  0.46999998093E+01 0.  1.
</event>
<event>
 5   0  0.1881699E-05  0.2679359E+04  0.7818609E-02  0.8341733E-01
       -2   -1    0    0    0  501  0.00000000000E+00  0.00000000000E+00  0.17395089522E+04  0.17395089522E+04  0.25500000920E-02 0. -1.
        2   -1    0    0  501    0  0.00000000000E+00  0.00000000000E+00 -0.10317518175E+04  0.10317518175E+04  0.25500000920E-02 0.  1.
    10030    2    1    2    0    0  0.00000000000E+00  0.00000000000E+00  0.70775713471E+03  0.27712607698E+04  0.26793592690E+04 0.  0.
        4    1    3    3  502    0  0.35488408810E+03  0.10347545604E+04 -0.44600385490E+03  0.11813470141E+04  0.12699999809E+01 0.  1.
       -4    1    3    3    0  502 -0.35488408810E+03 -0.10347545604E+04  0.11537609896E+04  0.15899137556E+04  0.12699999809E+01 0. -1.
</event>
<event>
 5   0  0.7348964E-06  0.2666360E+04  0.7818609E-02  0.8346003E-01
       -1   -1    0    0    0  501  0.00000000000E+00  0.00000000000E+00  0.16985296936E+04  0.16985296936E+04  0.50400001928E-02 0. -1.
        1   -1    0    0  501    0  0.00000000000E+00  0.00000000000E+00 -0.10464160379E+04  0.10464160379E+04  0.50400001928E-02 0.  1.
    10030    2    1    2    0    0  0.00000000000E+00  0.00000000000E+00  0.65211365567E+03  0.27449457315E+04  0.26663598499E+04 0.  0.
        1    1    3    3  502    0  0.63262710079E+03  0.10324793079E+04  0.90029443176E+03  0.15088938444E+04  0.50400001928E-02 0. -1.
       -1    1    3    3    0  502 -0.63262710079E+03 -0.10324793079E+04 -0.24818077609E+03  0.12360518871E+04  0.50400001928E-02 0.  1.
</event>
<event>
 5   0  0.1826851E-05  0.2762058E+04  0.7818609E-02  0.8315146E-01
       -2   -1    0    0    0  501  0.00000000000E+00  0.00000000000E+00  0.10244247606E+04  0.10244247606E+04  0.25500000920E-02 0. -1.
        2   -1    0    0  501    0  0.00000000000E+00  0.00000000000E+00 -0.18617672208E+04  0.18617672208E+04  0.25500000920E-02 0.  1.
    10030    2    1    2    0    0  0.00000000000E+00  0.00000000000E+00 -0.83734246017E+03  0.28861919814E+04  0.27620575225E+04 0.  0.
        5    1    3    3  502    0  0.73569824642E+03 -0.97076762487E+03 -0.10987488866E+04  0.16404002247E+04  0.46999998093E+01 0.  1.
       -5    1    3    3    0  502 -0.73569824642E+03  0.97076762487E+03  0.26140642644E+03  0.12457917567E+04  0.46999998093E+01 0. -1.
</event>
<event>
 5   0  0.1878160E-05  0.2629951E+04  0.7818609E-02  0.8358098E-01
       -2   -1    0    0    0  501  0.00000000000E+00  0.00000000000E+00  0.10916850366E+04  0.10916850366E+04  0.25500000920E-02 0. -1.
        2   -1    0    0  501    0  0.00000000000E+00  0.00000000000E+00 -0.15839368947E+04  0.15839368947E+04  0.25500000920E-02 0.  1.
    10030    2    1    2    0    0  0.00000000000E+00  0.00000000000E+00 -0.49225185813E+03  0.26756219313E+04  0.26299507272E+04 0.  0.
        1    1    3    3  502    0  0.57731939656E+03  0.70730715319E+03  0.71665862232E+03  0.11606811257E+04  0.50400001928E-02 0. -1.
       -1    1    3    3    0  502 -0.57731939656E+03 -0.70730715319E+03 -0.12089104805E+04  0.15149408056E+04  0.50400001928E-02 0.  1.
</event>
<event>
 5   0  0.1931119E-05  0.2704108E+04  0.7818609E-02  0.8333673E-01
       -2   -1    0    0    0  501  0.00000000000E+00  0.00000000000E+00  0.84143486432E+03  0.84143486433E+03  0.25500000920E-02 0.  1.
        2   -1    0    0  501    0  0.00000000000E+00  0.00000000000E+00 -0.21725386547E+04  0.21725386547E+04  0.25500000920E-02 0. -1.
    10030    2    1    2    0    0  0.00000000000E+00  0.00000000000E+00 -0.13311037904E+04  0.30139735190E+04  0.27041078145E+04 0.  0.
        3    1    3    3  502    0  0.58764233519E+03  0.46884086431E+03 -0.19181230371E+04  0.20601774840E+04  0.10100000352E+00 0. -1.
       -3    1    3    3    0  502 -0.58764233519E+03 -0.46884086431E+03  0.58701924671E+03  0.95379603499E+03  0.10100000352E+00 0.  1.
</event>
<event>
 5   0  0.7348964E-06  0.2771167E+04  0.7818609E-02  0.8312276E-01
       -1   -1    0    0    0  501  0.00000000000E+00  0.00000000000E+00  0.86683948780E+03  0.86683948782E+03  0.50400001928E-02 0. -1.
        1   -1    0    0  501    0  0.00000000000E+00  0.00000000000E+00 -0.22147609203E+04  0.22147609203E+04  0.50400001928E-02 0.  1.
    10030    2    1    2    0    0  0.00000000000E+00  0.00000000000E+00 -0.13479214325E+04  0.30816004081E+04  0.27711674232E+04 0.  0.
        1    1    3    3  502    0  0.85445194983E+03  0.73544260589E+03 -0.15697279454E+04  0.19326173402E+04  0.50400001928E-02 0.  1.
       -1    1    3    3    0  502 -0.85445194983E+03 -0.73544260589E+03  0.22180651291E+03  0.11489830679E+04  0.50400001928E-02 0. -1.
</event>
<event>
 5   0  0.6804685E-06  0.2702753E+04  0.7818609E-02  0.8334112E-01
       -1   -1    0    0    0  501  0.00000000000E+00  0.00000000000E+00  0.11710152768E+04  0.11710152768E+04  0.50400001928E-02 0. -1.
        1   -1    0    0  501    0  0.00000000000E+00  0.00000000000E+00 -0.15595169407E+04  0.15595169407E+04  0.50400001928E-02 0.  1.
    10030    2    1    2    0    0  0.00000000000E+00  0.00000000000E+00 -0.38850166392E+03  0.27305322175E+04  0.27027527908E+04 0.  0.
        2    1    3    3  502    0 -0.51476330125E+02  0.32758055397E+02  0.11696229607E+04  0.11712133763E+04  0.25500000920E-02 0. -1.
       -2    1    3    3    0  502  0.51476330125E+02 -0.32758055397E+02 -0.15581246246E+04  0.15593188412E+04  0.25500000920E-02 0.  1.
</event>
<event>
 5   0  0.1878160E-05  0.2397190E+04  0.7818609E-02  0.8440556E-01
       -2   -1    0    0    0  501  0.00000000000E+00  0.00000000000E+00  0.73221059259E+03  0.73221059260E+03  0.25500000920E-02 0.  1.
        2   -1    0    0  501    0  0.00000000000E+00  0.00000000000E+00 -0.19620455220E+04  0.19620455220E+04  0.25500000920E-02 0. -1.
    10030    2    1    2    0    0  0.00000000000E+00  0.00000000000E+00 -0.12298349294E+04  0.26942561146E+04  0.23971904508E+04 0.  0.
        1    1    3    3  502    0  0.18048264450E+02 -0.93440993032E+03 -0.14583707833E+04  0.17321353871E+04  0.50400001928E-02 0. -1.
       -1    1    3    3    0  502 -0.18048264450E+02  0.93440993032E+03  0.22853585386E+03  0.96212072749E+03  0.50400001928E-02 0.  1.
</event>
<event>
 5   0  0.1931119E-05  0.2582565E+04  0.7818609E-02  0.8374148E-01
       -2   -1    0    0    0  501  0.00000000000E+00  0.00000000000E+00  0.10394266454E+04  0.10394266454E+04  0.25500000920E-02 0. -1.
        2   -1    0    0  501    0  0.00000000000E+00  0.00000000000E+00 -0.16041641587E+04  0.16041641587E+04  0.25500000920E-02 0.  1.
    10030    2    1    2    0    0  0.00000000000E+00  0.00000000000E+00 -0.56473751335E+03  0.26435908041E+04  0.25825653681E+04 0.  0.
        3    1    3    3  502    0  0.22644965110E+03  0.84176085806E+03  0.69280727152E+03  0.11134732652E+04  0.10100000352E+00 0.  1.
       -3    1    3    3    0  502 -0.22644965110E+03 -0.84176085806E+03 -0.12575447849E+04  0.15301175389E+04  0.10100000352E+00 0. -1.
</event>
<event>
 5   0  0.7600052E-06  0.2620328E+04  0.7818609E-02  0.8361329E-01
       -1   -1    0    0    0  501  0.00000000000E+00  0.00000000000E+00  0.12432846785E+04  0.12432846785E+04  0.50400001928E-02 0.  1.
        1   -1    0    0  501    0  0.00000000000E+00  0.00000000000E+00 -0.13806410743E+04  0.13806410743E+04  0.50400001928E-02 0. -1.
    10030    2    1    2    0    0  0.00000000000E+00  0.00000000000E+00 -0.13735639578E+03  0.26239257528E+04  0.26203281430E+04 0.  0.
        5    1    3    3  502    0  0.10820409776E+04 -0.31016730612E+02 -0.80775188269E+03  0.13506516608E+04  0.46999998093E+01 0. -1.
       -5    1    3    3    0  502 -0.10820409776E+04  0.31016730612E+02  0.67039548691E+03  0.12732740921E+04  0.46999998093E+01 0.  1.
</event>
<event>
 5   0  0.1931119E-05  0.2778629E+04  0.7818609E-02  0.8309934E-01
       -2   -1    0    0    0  501  0.00000000000E+00  0.00000000000E+00  0.82004248253E+03  0.82004248254E+03  0.25500000920E-02 0. -1.
        2   -1    0    0  501    0  0.00000000000E+00  0.00000000000E+00 -0.23537743457E+04  0.23537743457E+04  0.25500000920E-02 0.  1.
    10030    2    1    2    0    0  0.00000000000E+00  0.00000000000E+00 -0.15337318632E+04  0.31738168283E+04  0.27786291281E+04 0.  0.
        3    1    3    3  502    0  0.92645785812E+03 -0.87044108675E+03 -0.14071261328E+04  0.18963111063E+04  0.10100000352E+00 0.  1.
       -3    1    3    3    0  502 -0.92645785812E+03  0.87044108675E+03 -0.12660573045E+03  0.12775057219E+04  0.10100000352E+00 0. -1.
</event>
<event>
 5   0  0.7754912E-06  0.2748599E+04  0.7818609E-02  0.8319406E-01
       -1   -1    0    0    0  501  0.00000000000E+00  0.00000000000E+00  0.81167528987E+03  0.81167528989E+03  0.50400001928E-02 0.  1.
        1   -1    0    0  501    0  0.00000000000E+00  0.00000000000E+00 -0.23269150249E+04  0.23269150249E+04  0.50400001928E-02 0. -1.
    10030    2    1    2    0    0  0.00000000000E+00  0.00000000000E+00 -0.15152397350E+04  0.31385903147E+04  0.27485992268E+04 0.  0.
        4    1    3    3  502    0 -0.12882134596E+04 -0.40496107675E+03 -0.46602376184E+03  0.14285192161E+04  0.12699999809E+01 0.  1.
       -4    1    3    3    0  502  0.12882134596E+04  0.40496107675E+03 -0.10492159731E+04  0.17100710987E+04  0.12699999809E+01 0. -1.
</event>
<event>
 5   0  0.7754912E-06  0.2651457E+04  0.7818609E-02  0.8350930E-01
       -1   -1    0    0    0  501  0.00000000000E+00  0.00000000000E+00  0.73123900523E+03  0.73123900525E+03  0.50400001928E-02 0.  1.
        1   -1    0    0  501    0  0.00000000000E+00  0.00000000000E+00 -0.24035315718E+04  0.24035315718E+04  0.50400001928E-02 0. -1.
    10030    2    1    2    0    0  0.00000000000E+00  0.00000000000E+00 -0.16722925666E+04  0.31347705771E+04  0.26514569849E+04 0.  0.
        4    1    3    3  502    0 -0.20401761317E+03  0.49093084755E+03 -0.22719832632E+04  0.23333550618E+04  0.12699999809E+01 0. -1.
       -4    1    3    3    0  502  0.20401761317E+03 -0.49093084755E+03  0.59969069659E+03  0.80141551522E+03  0.12699999809E+01 0.  1.
</event>
<event>
 5   0  0.1931119E-05  0.2672378E+04  0.7818609E-02  0.8344023E-01
       -2   -1    0    0    0  501  0.00000000000E+00  0.00000000000E+00  0.15454185415E+04  0.15454185415E+04  0.25500000920E-02 0. -1.
        2   -1    0    0  501    0  0.00000000000E+00  0.00000000000E+00 -0.11552865285E+04  0.11552865285E+04  0.25500000920E-02 0.  1.
    10030    2    1    2    0    0  0.00000000000E+00  0.00000000000E+00  0.39013201305E+03  0.27007050700E+04  0.26723781333E+04 0.  0.
        3    1    3    3  502    0 -0.34831160096E+03  0.25923049491E+03 -0.10820059334E+04  0.11658723219E+04  0.10100000352E+00 0.  1.
       -3    1    3    3    0  502  0.34831160096E+03 -0.25923049491E+03  0.14721379465E+04  0.15348327480E+04  0.10100000352E+00 0. -1.
</event>
<event>
 5   0  0.7600052E-06  0.2710874E+04  0.7818609E-02  0.8331485E-01
       -1   -1    0    0    0  501  0.00000000000E+00  0.00000000000E+00  0.13542820249E+04  0.13542820250E+04  0.50400001928E-02 0. -1.
        1   -1    0    0  501    0  0.00000000000E+00  0.00000000000E+00 -0.13565933792E+04  0.13565933792E+04  0.50400001928E-02 0.  1.
    10030    2    1    2    0    0  0.00000000000E+00  0.00000000000E+00 -0.23113542234E+01  0.27108754041E+04  0.27108744188E+04 0.  0.
        5    1    3    3  502    0  0.12928572600E+04 -0.35711080360E+02 -0.40665892261E+03  0.13557834434E+04  0.46999998093E+01 0.  1.
       -5    1    3    3    0  502 -0.12928572600E+04  0.35711080360E+02  0.40434756839E+03  0.13550919607E+04  0.46999998093E+01 0. -1.
</event>
<event>
 5   0  0.7348964E-06  0.2678587E+04  0.7818609E-02  0.8341986E-01
        1   -1    0    0  501    0  0.00000000000E+00  0.00000000000E+00  0.10403679315E+04  0.10403679315E+04  0.50400001928E-02 0.  1.
       -1   -1    0    0    0  501  0.00000000000E+00  0.00000000000E+00 -0.17241078185E+04  0.17241078185E+04  0.50400001928E-02 0. -1.
    10030    2    1    2    0    0  0.00000000000E+00  0.00000000000E+00 -0.68373988706E+03  0.27644757500E+04  0.26785865562E+04 0.  0.
        1    1    3    3  502    0 -0.53110553628E+03  0.11652964353E+04  0.62770151777E+02  0.12821579329E+04  0.50400001928E-02 0.  1.
       -1    1    3    3    0  502  0.53110553628E+03 -0.11652964353E+04 -0.74651003884E+03  0.14823178171E+04  0.50400001928E-02 0. -1.
</event>
<event>
 5   0  0.7754912E-06  0.2703137E+04  0.7818609E-02  0.8333988E-01
       -1   -1    0    0    0  501  0.00000000000E+00  0.00000000000E+00  0.26427455280E+04  0.26427455280E+04  0.50400001928E-02 0.  1.
        1   -1    0    0  501    0  0.00000000000E+00  0.00000000000E+00 -0.69122725279E+03  0.69122725281E+03  0.50400001928E-02 0. -1.
    10030    2    1    2    0    0  0.00000000000E+00  0.00000000000E+00  0.19515182752E+04  0.33339727808E+04  0.27031372375E+04 0.  0.
        4    1    3    3  502    0 -0.19747586062E+03 -0.69953795332E+03 -0.42962768046E+03  0.84435278195E+03  0.12699999809E+01 0. -1.
       -4    1    3    3    0  502  0.19747586062E+03  0.69953795332E+03  0.23811459557E+04  0.24896199989E+04  0.12699999809E+01 0.  1.
</event>
<event>
 5   0  0.1788003E-05  0.2676871E+04  0.7818609E-02  0.8342549E-01
        2   -1    0    0  501    0  0.00000000000E+00  0.00000000000E+00  0.16687260794E+04  0.16687260794E+04  0.25500000920E-02 0.  1.
       -2   -1    0    0    0  501  0.00000000000E+00  0.00000000000E+00 -0.10735192866E+04  0.10735192866E+04  0.25500000920E-02 0. -1.
    10030    2    1    2    0    0  0.00000000000E+00  0.00000000000E+00  0.59520679281E+03  0.27422453660E+04  0.26768710318E+04 0.  0.
        2    1    3    3  502    0  0.86881563258E+03 -0.11700862439E+03 -0.73847062452E+03  0.11462418963E+04  0.25500000920E-02 0. -1.
       -2    1    3    3    0  502 -0.86881563258E+03  0.11700862439E+03  0.13336774173E+04  0.15960034696E+04  0.25500000920E-02 0.  1.
</event>
<event>
 5   0  0.1788003E-05  0.2667802E+04  0.7818609E-02  0.8345528E-01
       -2   -1    0    0    0  501  0.00000000000E+00  0.00000000000E+00  0.10078674799E+04  0.10078674799E+04  0.25500000920E-02 0. -1.
        2   -1    0    0  501    0  0.00000000000E+00  0.00000000000E+00 -0.17654024552E+04  0.17654024552E+04  0.25500000920E-02 0.  1.
    10030    2    1    2    0    0  0.00000000000E+00  0.00000000000E+00 -0.75753497532E+03  0.27732699351E+04  0.26678018843E+04 0.  0.
        2    1    3    3  502    0  0.20418715443E+03  0.12054489278E+04 -0.93323200569E+03  0.15380902080E+04  0.25500000920E-02 0.  1.
       -2    1    3    3    0  502 -0.20418715443E+03 -0.12054489278E+04  0.17569703037E+03  0.12351797270E+04  0.25500000920E-02 0. -1.
</event>
<event>
 5   0  0.1788003E-05  0.2685447E+04  0.7818609E-02  0.8339742E-01
       -2   -1    0    0    0  501  0.00000000000E+00  0.00000000000E+00  0.18062197385E+04  0.18062197385E+04  0.25500000920E-02 0. -1.
        2   -1    0    0  501    0  0.00000000000E+00  0.00000000000E+00 -0.99816583427E+03  0.99816583428E+03  0.25500000920E-02 0.  1.
    10030    2    1    2    0    0  0.00000000000E+00  0.00000000000E+00  0.80805390426E+03  0.28043855728E+04  0.26854473238E+04 0.  0.
        2    1    3    3  502    0  0.24923657958E+03 -0.82772259352E+03  0.14769875938E+04  0.17113549944E+04  0.25500000920E-02 0. -1.
       -2    1    3    3    0  502 -0.24923657958E+03  0.82772259352E+03 -0.66893368955E+03  0.10930305785E+04  0.25500000920E-02 0.  1.
</event>
<event>
 5   0  0.6804685E-06  0.2531745E+04  0.7818609E-02  0.8391763E-01
       -1   -1    0    0    0  501  0.00000000000E+00  0.00000000000E+00  0.57009359264E+03  0.57009359266E+03  0.50400001928E-02 0. -1.
        1   -1    0    0  501    0  0.00000000000E+00  0.00000000000E+00 -0.28108245456E+04  0.28108245456E+04  0.50400001928E-02 0.  1.
    10030    2    1    2    0    0  0.00000000000E+00  0.00000000000E+00 -0.22407309529E+04  0.33809181382E+04  0.25317449030E+04 0.  0.
        2    1    3    3  502    0  0.15261393388E+03 -0.74587220640E+03  0.23019369574E+03  0.79536500970E+03  0.25500000920E-02 0. -1.
       -2    1    3    3    0  502 -0.15261393388E+03  0.74587220640E+03 -0.24709246487E+04  0.25855531285E+04  0.25500000920E-02 0.  1.
</event>
<event>
 5   0  0.7754912E-06  0.2727318E+04  0.7818609E-02  0.8326195E-01
       -1   -1    0    0    0  501  0.00000000000E+00  0.00000000000E+00  0.93164709558E+03  0.93164709559E+03  0.50400001928E-02 0.  1.
        1   -1    0    0  501    0  0.00000000000E+00  0.00000000000E+00 -0.19959981626E+04  0.19959981627E+04  0.50400001928E-02 0. -1.
    10030    2    1    2    0    0  0.00000000000E+00  0.00000000000E+00 -0.10643510671E+04  0.29276452582E+04  0.27273180167E+04 0.  0.
        4    1    3    3  502    0  0.17448253179E+03 -0.97805700168E+03 -0.15348766936E+04  0.18283565653E+04  0.12699999809E+01 0. -1.
       -4    1    3    3    0  502 -0.17448253179E+03  0.97805700168E+03  0.47052562648E+03  0.10992886930E+04  0.12699999809E+01 0.  1.
</event>
<event>
 5   0  0.7351590E-06  0.2670541E+04  0.7818609E-02  0.8344627E-01
       -1   -1    0    0    0  501  0.00000000000E+00  0.00000000000E+00  0.13935162895E+04  0.13935162895E+04  0.50400001928E-02 0. -1.
        1   -1    0    0  501    0  0.00000000000E+00  0.00000000000E+00 -0.12794588428E+04  0.12794588428E+04  0.50400001928E-02 0.  1.
    10030    2    1    2    0    0  0.00000000000E+00  0.00000000000E+00  0.11405744677E+03  0.26729751323E+04  0.26705405739E+04 0.  0.
        3    1    3    3  502    0  0.24754408392E+03  0.31839304288E+03  0.13310970524E+04  0.13908528234E+04  0.10100000352E+00 0. -1.
       -3    1    3    3    0  502 -0.24754408392E+03 -0.31839304288E+03 -0.12170396056E+04  0.12821223089E+04  0.10100000352E+00 0.  1.
</event>
<event>
 5   0  0.1826851E-05  0.2742758E+04  0.7818609E-02  0.8321263E-01
        2   -1    0    0  501    0  0.00000000000E+00  0.00000000000E+00  0.15047583276E+04  0.15047583276E+04  0.25500000920E-02 0.  1.
       -2   -1    0    0    0  501  0.00000000000E+00  0.00000000000E+00 -0.12498225709E+04  0.12498225709E+04  0.25500000920E-02 0. -1.
    10030    2    1    2    0    0  0.00000000000E+00  0.00000000000E+00  0.25493575675E+03  0.27545808985E+04  0.27427584083E+04 0.  0.
        5    1    3    3  502    0 -0.11188185262E+03  0.12870260896E+04  0.58956542696E+03  0.14200574590E+04  0.46999998093E+01 0.  1.
       -5    1    3    3    0  502  0.11188185262E+03 -0.12870260896E+04 -0.33462967020E+03  0.13345234395E+04  0.46999998093E+01 0. -1.
</event>
<event>
 5   0  0.7754912E-06  0.2696753E+04  0.7818609E-02  0.8336059E-01
       -1   -1    0    0    0  501  0.00000000000E+00  0.00000000000E+00  0.11255567469E+04  0.11255567469E+04  0.50400001928E-02 0. -1.
        1   -1    0    0  501    0  0.00000000000E+00  0.00000000000E+00 -0.16153061905E+04  0.16153061905E+04  0.50400001928E-02 0.  1.
    10030    2    1    2    0    0  0.00000000000E+00  0.00000000000E+00 -0.48974944362E+03  0.27408629374E+04  0.26967526999E+04 0.  0.
        4    1    3    3  502    0 -0.33610332065E+03  0.68229955763E+03 -0.13764678856E+04  0.15726295118E+04  0.12699999809E+01 0.  1.
       -4    1    3    3    0  502  0.33610332065E+03 -0.68229955763E+03  0.88671844197E+03  0.11682334256E+04  0.12699999809E+01 0. -1.
</event>
<event>
 5   0  0.1826851E-05  0.2769736E+04  0.7818609E-02  0.8312726E-01
       -2   -1    0    0    0  501  0.00000000000E+00  0.00000000000E+00  0.10504118626E+04  0.10504118626E+04  0.25500000920E-02 0.  1.
        2   -1    0    0  501    0  0.00000000000E+00  0.00000000000E+00 -0.18258165802E+04  0.18258165802E+04  0.25500000920E-02 0. -1.
    10030    2    1    2    0    0  0.00000000000E+00  0.00000000000E+00 -0.77540471759E+03  0.28762284429E+04  0.27697360126E+04 0.  0.
        5    1    3    3  502    0  0.97325945942E+03 -0.79049664008E+03  0.22288279555E+03  0.12735060832E+04  0.46999998093E+01 0.  1.
       -5    1    3    3    0  502 -0.97325945942E+03  0.79049664008E+03 -0.99828751314E+03  0.16027223597E+04  0.46999998093E+01 0. -1.
</event>
<event>
 5   0  0.7754912E-06  0.2746604E+04  0.7818609E-02  0.8320040E-01
        1   -1    0    0  501    0  0.00000000000E+00  0.00000000000E+00  0.10049947736E+04  0.10049947736E+04  0.50400001928E-02 0. -1.
       -1   -1    0    0    0  501  0.00000000000E+00  0.00000000000E+00 -0.18765856738E+04  0.18765856738E+04  0.50400001928E-02 0.  1.
    10030    2    1    2    0    0  0.00000000000E+00  0.00000000000E+00 -0.87159090013E+03  0.28815804474E+04  0.27466042995E+04 0.  0.
        4    1    3    3  502    0 -0.11146225328E+04 -0.67916349775E+03 -0.88375703572E+03  0.15762850498E+04  0.12699999809E+01 0.  1.
       -4    1    3    3    0  502  0.11146225328E+04  0.67916349775E+03  0.12166135587E+02  0.13052953976E+04  0.12699999809E+01 0. -1.
</event>
<event>
 5   0  0.6175875E-06  0.2705497E+04  0.7818609E-02  0.8333224E-01
       -3   -1    0    0    0  501  0.00000000000E+00  0.00000000000E+00  0.13061010262E+04  0.13061010301E+04  0.10100000352E+00 0.  1.
        3   -1    0    0  501    0  0.00000000000E+00  0.00000000000E+00 -0.14010617589E+04  0.14010617625E+04  0.10100000352E+00 0. -1.
    10030    2    1    2    0    0  0.00000000000E+00  0.00000000000E+00 -0.94960732714E+02  0.27071627926E+04  0.27054967834E+04 0.  0.
        1    1    3    3  502    0 -0.60338963556E+03  0.48886543481E+01  0.11639778820E+04  0.13110863668E+04  0.50400001928E-02 0.  1.
       -1    1    3    3    0  502  0.60338963556E+03 -0.48886543481E+01 -0.12589386147E+04  0.13960764259E+04  0.50400001928E-02 0. -1.
</event>
<event>
 5   0  0.7351590E-06  0.2696325E+04  0.7818609E-02  0.8336198E-01
        1   -1    0    0  501    0  0.00000000000E+00  0.00000000000E+00  0.22869300399E+04  0.22869300399E+04  0.50400001928E-02 0.  1.
       -1   -1    0    0    0  501  0.00000000000E+00  0.00000000000E+00 -0.79475208797E+03  0.79475208799E+03  0.50400001928E-02 0. -1.
    10030    2    1    2    0    0  0.00000000000E+00  0.00000000000E+00  0.14921779519E+04  0.30816821279E+04  0.26963252209E+04 0.  0.
        3    1    3    3  502    0 -0.12510188909E+04  0.46626927699E+03  0.96017551709E+03  0.16445036752E+04  0.10100000352E+00 0.  1.
       -3    1    3    3    0  502  0.12510188909E+04 -0.46626927699E+03  0.53200243482E+03  0.14371784527E+04  0.10100000352E+00 0. -1.
</event>
<event>
 5   0  0.7351590E-06  0.2702772E+04  0.7818609E-02  0.8334106E-01
        1   -1    0    0  501    0  0.00000000000E+00  0.00000000000E+00  0.20278075060E+04  0.20278075060E+04  0.50400001928E-02 0.  1.
       -1   -1    0    0    0  501  0.00000000000E+00  0.00000000000E+00 -0.90060008208E+03  0.90060008209E+03  0.50400001928E-02 0. -1.
    10030    2    1    2    0    0  0.00000000000E+00  0.00000000000E+00  0.11272074239E+04  0.29284075881E+04  0.27027716192E+04 0.  0.
        3    1    3    3  502    0  0.69911333089E+02 -0.87601269552E+03 -0.54872661028E+03  0.10360437926E+04  0.10100000352E+00 0. -1.
       -3    1    3    3    0  502 -0.69911333089E+02  0.87601269552E+03  0.16759340342E+04  0.18923637955E+04  0.10100000352E+00 0.  1.
</event>
<event>
 5   0  0.1881699E-05  0.2753783E+04  0.7818609E-02  0.8317762E-01
       -2   -1    0    0    0  501  0.00000000000E+00  0.00000000000E+00  0.12282248526E+04  0.12282248526E+04  0.25500000920E-02 0.  1.
        2   -1    0    0  501    0  0.00000000000E+00  0.00000000000E+00 -0.15435531026E+04  0.15435531026E+04  0.25500000920E-02 0. -1.
    10030    2    1    2    0    0  0.00000000000E+00  0.00000000000E+00 -0.31532824999E+03  0.27717779551E+04  0.27537830574E+04 0.  0.
        4    1    3    3  502    0 -0.86381148159E+03  0.52449123919E+03  0.78362997927E+03  0.12788036961E+04  0.12699999809E+01 0.  1.
       -4    1    3    3    0  502  0.86381148159E+03 -0.52449123919E+03 -0.10989582293E+04  0.14929742591E+04  0.12699999809E+01 0. -1.
</event>
<event>
 5   0  0.1788003E-05  0.2653219E+04  0.7818609E-02  0.8350345E-01
        2   -1    0    0  501    0  0.00000000000E+00  0.00000000000E+00  0.23340209694E+04  0.23340209694E+04  0.25500000920E-02 0. -1.
       -2   -1    0    0    0  501  0.00000000000E+00  0.00000000000E+00 -0.75401729060E+03  0.75401729061E+03  0.25500000920E-02 0.  1.
    10030    2    1    2    0    0  0.00000000000E+00  0.00000000000E+00  0.15800036788E+04  0.30880382600E+04  0.26532185493E+04 0.  0.
        2    1    3    3  502    0 -0.39382033026E+03 -0.11301721599E+04  0.12393010440E+03  0.12032216064E+04  0.25500000920E-02 0.  1.
       -2    1    3    3    0  502  0.39382033026E+03  0.11301721599E+04  0.14560735744E+04  0.18848166535E+04  0.25500000920E-02 0. -1.
</event>
<event>
 5   0  0.7351590E-06  0.2684200E+04  0.7818609E-02  0.8340150E-01
       -1   -1    0    0    0  501  0.00000000000E+00  0.00000000000E+00  0.10986763127E+04  0.10986763127E+04  0.50400001928E-02 0.  1.
        1   -1    0    0  501    0  0.00000000000E+00  0.00000000000E+00 -0.16394570527E+04  0.16394570527E+04  0.50400001928E-02 0. -1.
    10030    2    1    2    0    0  0.00000000000E+00  0.00000000000E+00 -0.54078074001E+03  0.27381333655E+04  0.26842001636E+04 0.  0.
        3    1    3    3  502    0 -0.12194043069E+04 -0.25254943651E+03 -0.78095120555E+03  0.14699023359E+04  0.10100000352E+00 0. -1.
       -3    1    3    3    0  502  0.12194043069E+04  0.25254943651E+03  0.24017046554E+03  0.12682310295E+04  0.10100000352E+00 0.  1.
</event>
<event>
 5   0  0.1931119E-05  0.2282237E+04  0.7818609E-02  0.8484958E-01
       -2   -1    0    0    0  501  0.00000000000E+00  0.00000000000E+00  0.10000532643E+04  0.10000532643E+04  0.25500000920E-02 0. -1.
        2   -1    0    0  501    0  0.00000000000E+00  0.00000000000E+00 -0.13020821158E+04  0.13020821158E+04  0.25500000920E-02 0.  1.
    10030    2    1    2    0    0  0.00000000000E+00  0.00000000000E+00 -0.30202885146E+03  0.23021353801E+04  0.22822370344E+04 0.  0.
        3    1    3    3  502    0  0.40987022622E+03  0.10346084556E+04 -0.40568985456E+03  0.11844798551E+04  0.10100000352E+00 0.  1.
       -3    1    3    3    0  502 -0.40987022622E+03 -0.10346084556E+04  0.10366100310E+03  0.11176555250E+04  0.10100000352E+00 0. -1.
</event>
<event>
 5   0  0.7348964E-06  0.2683363E+04  0.7818609E-02  0.8340423E-01
       -1   -1    0    0    0  501  0.00000000000E+00  0.00000000000E+00  0.13632558711E+04  0.13632558711E+04  0.50400001928E-02 0.  1.
        1   -1    0    0  501    0  0.00000000000E+00  0.00000000000E+00 -0.13204486789E+04  0.13204486790E+04  0.50400001928E-02 0. -1.
    10030    2    1    2    0    0  0.00000000000E+00  0.00000000000E+00  0.42807192150E+02  0.26837045501E+04  0.26833631242E+04 0.  0.
        1    1    3    3  502    0  0.80454304586E+03 -0.40248104678E+03 -0.97412694927E+03  0.13259727821E+04  0.50400001928E-02 0. -1.
       -1    1    3    3    0  502 -0.80454304586E+03  0.40248104678E+03  0.10169341414E+04  0.13577317679E+04  0.50400001928E-02 0.  1.
</event>
<event>
 5   0  0.7754912E-06  0.2570171E+04  0.7818609E-02  0.8378405E-01
       -1   -1    0    0    0  501  0.00000000000E+00  0.00000000000E+00  0.76276181917E+03  0.76276181918E+03  0.50400001928E-02 0. -1.
        1   -1    0    0  501    0  0.00000000000E+00  0.00000000000E+00 -0.21650856019E+04  0.21650856019E+04  0.50400001928E-02 0.  1.
    10030    2    1    2    0    0  0.00000000000E+00  0.00000000000E+00 -0.14023237828E+04  0.29278474211E+04  0.25701709145E+04 0.  0.
        4    1    3    3  502    0 -0.10952416599E+04  0.44392411719E+03 -0.12762088099E+04  0.17393485719E+04  0.12699999809E+01 0.  1.
       -4    1    3    3    0  502  0.10952416599E+04 -0.44392411719E+03 -0.12611497289E+03  0.11884988492E+04  0.12699999809E+01 0. -1.
</event>
<event>
 5   0  0.7600052E-06  0.2640902E+04  0.7818609E-02  0.8354439E-01
       -1   -1    0    0    0  501  0.00000000000E+00  0.00000000000E+00  0.10723741811E+04  0.10723741811E+04  0.50400001928E-02 0. -1.
        1   -1    0    0  501    0  0.00000000000E+00  0.00000000000E+00 -0.16259162456E+04  0.16259162456E+04  0.50400001928E-02 0.  1.
    10030    2    1    2    0    0  0.00000000000E+00  0.00000000000E+00 -0.55354206448E+03  0.26982904267E+04  0.26409018175E+04 0.  0.
        5    1    3    3  502    0 -0.51022866552E+03 -0.36905297457E+03 -0.14626104900E+04  0.15924148092E+04  0.46999998093E+01 0.  1.
       -5    1    3    3    0  502  0.51022866552E+03  0.36905297457E+03  0.90906842551E+03  0.11058756175E+04  0.46999998093E+01 0. -1.
</event>
<event>
 5   0  0.1931119E-05  0.2660869E+04  0.7818609E-02  0.8347814E-01
       -2   -1    0    0    0  501  0.00000000000E+00  0.00000000000E+00  0.13948243007E+04  0.13948243007E+04  0.25500000920E-02 0.  1.
        2   -1    0    0  501    0  0.00000000000E+00  0.00000000000E+00 -0.12690169774E+04  0.12690169774E+04  0.25500000920E-02 0. -1.
    10030    2    1    2    0    0  0.00000000000E+00  0.00000000000E+00  0.12580732335E+03  0.26638412781E+04  0.26608688191E+04 0.  0.
        3    1    3    3  502    0  0.34229454463E+03  0.26331154114E+03  0.13227041012E+04  0.13914182234E+04  0.10100000352E+00 0.  1.
       -3    1    3    3    0  502 -0.34229454463E+03 -0.26331154114E+03 -0.11968967778E+04  0.12724230546E+04  0.10100000352E+00 0. -1.
</event>
<event>
 5   0  0.7348964E-06  0.2672143E+04  0.7818609E-02  0.8344101E-01
       -1   -1    0    0    0  501  0.00000000000E+00  0.00000000000E+00  0.13076215392E+04  0.13076215392E+04  0.50400001928E-02 0.  1.
        1   -1    0    0  501    0  0.00000000000E+00  0.00000000000E+00 -0.13651406052E+04  0.13651406052E+04  0.50400001928E-02 0. -1.
    10030    2    1    2    0    0  0.00000000000E+00  0.00000000000E+00 -0.57519065975E+02  0.26727621444E+04  0.26721431544E+04 0.  0.
        1    1    3    3  502    0 -0.91160969189E+02  0.10635122419E+04  0.77499281615E+03  0.13190839534E+04  0.50400001928E-02 0.  1.
       -1    1    3    3    0  502  0.91160969189E+02 -0.10635122419E+04 -0.83251188213E+03  0.13536781910E+04  0.50400001928E-02 0. -1.
</event>
<event>
 5   0  0.1878160E-05  0.2708805E+04  0.7818609E-02  0.8332154E-01
        2   -1    0    0  501    0  0.00000000000E+00  0.00000000000E+00  0.13618276563E+04  0.13618276563E+04  0.25500000920E-02 0.  1.
       -2   -1    0    0    0  501  0.00000000000E+00  0.00000000000E+00 -0.13470180109E+04  0.13470180109E+04  0.25500000920E-02 0. -1.
    10030    2    1    2    0    0  0.00000000000E+00  0.00000000000E+00  0.14809645330E+02  0.27088456672E+04  0.27088051837E+04 0.  0.
        1    1    3    3  502    0 -0.96152197977E+02 -0.12430600515E+03 -0.13378695902E+04  0.13470680267E+04  0.50400001928E-02 0. -1.
       -1    1    3    3    0  502  0.96152197977E+02  0.12430600515E+03  0.13526792355E+04  0.13617776406E+04  0.50400001928E-02 0.  1.
</event>
<event>
 5   0  0.7754912E-06  0.2682511E+04  0.7818609E-02  0.8340702E-01
        1   -1    0    0  501    0  0.00000000000E+00  0.00000000000E+00  0.14977772343E+04  0.14977772344E+04  0.50400001928E-02 0. -1.
       -1   -1    0    0    0  501  0.00000000000E+00  0.00000000000E+00 -0.12010908138E+04  0.12010908138E+04  0.50400001928E-02 0.  1.
    10030    2    1    2    0    0  0.00000000000E+00  0.00000000000E+00  0.29668642057E+03  0.26988680481E+04  0.26825111200E+04 0.  0.
        4    1    3    3  502    0 -0.29741788289E+02 -0.11778803000E+04 -0.49640625847E+03  0.12785567494E+04  0.12699999809E+01 0.  1.
       -4    1    3    3    0  502  0.29741788289E+02  0.11778803000E+04  0.79309267903E+03  0.14203112988E+04  0.12699999809E+01 0. -1.
</event>
<event>
 5   0  0.7600052E-06  0.2681547E+04  0.7818609E-02  0.8341017E-01
        1   -1    0    0  501    0  0.00000000000E+00  0.00000000000E+00  0.91353082713E+03  0.91353082714E+03  0.50400001928E-02 0.  1.
       -1   -1    0    0    0  501  0.00000000000E+00  0.00000000000E+00 -0.19678298084E+04  0.19678298084E+04  0.50400001928E-02 0. -1.
    10030    2    1    2    0    0  0.00000000000E+00  0.00000000000E+00 -0.10542989813E+04  0.28813606356E+04  0.26815467123E+04 0.  0.
        5    1    3    3  502    0  0.70819675304E+03 -0.10393490159E+04 -0.10263792148E+04  0.16233500548E+04  0.46999998093E+01 0. -1.
       -5    1    3    3    0  502 -0.70819675304E+03  0.10393490159E+04 -0.27919766549E+02  0.12580105808E+04  0.46999998093E+01 0.  1.
</event>
<event>
 5   0  0.6804685E-06  0.2624840E+04  0.7818609E-02  0.8359812E-01
        1   -1    0    0  501    0  0.00000000000E+00  0.00000000000E+00  0.12191119197E+04  0.12191119197E+04  0.50400001928E-02 0.  1.
       -1   -1    0    0    0  501  0.00000000000E+00  0.00000000000E+00 -0.14128698535E+04  0.14128698535E+04  0.50400001928E-02 0. -1.
    10030    2    1    2    0    0  0.00000000000E+00  0.00000000000E+00 -0.19375793382E+03  0.26319817732E+04  0.26248401699E+04 0.  0.
        2    1    3    3  502    0 -0.37857773939E+03  0.12538742434E+04 -0.13437437022E+02  0.13098481927E+04  0.25500000920E-02 0. -1.
       -2    1    3    3    0  502  0.37857773939E+03 -0.12538742434E+04 -0.18032049680E+03  0.13221335805E+04  0.25500000920E-02 0.  1.
</event>
<event>
 5   0  0.7754912E-06  0.1961139E+04  0.7818609E-02  0.8625008E-01
       -1   -1    0    0    0  501  0.00000000000E+00  0.00000000000E+00  0.69729692964E+03  0.69729692965E+03  0.50400001928E-02 0.  1.
        1   -1    0    0  501    0  0.00000000000E+00  0.00000000000E+00 -0.13789193142E+04  0.13789193142E+04  0.50400001928E-02 0. -1.
    10030    2    1    2    0    0  0.00000000000E+00  0.00000000000E+00 -0.68162238456E+03  0.20762162439E+04  0.19611386530E+04 0.  0.
        4    1    3    3  502    0  0.34630710350E+03 -0.20338167856E+03 -0.12878537475E+04  0.13490224627E+04  0.12699999809E+01 0. -1.
       -4    1    3    3    0  502 -0.34630710350E+03  0.20338167856E+03  0.60623136290E+03  0.72719378117E+03  0.12699999809E+01 0.  1.
</event>
<event>
 5   0  0.7600052E-06  0.2704053E+04  0.7818609E-02  0.8333691E-01
       -1   -1    0    0    0  501  0.00000000000E+00  0.00000000000E+00  0.13593278325E+04  0.13593278325E+04  0.50400001928E-02 0.  1.
        1   -1    0    0  501    0  0.00000000000E+00  0.00000000000E+00 -0.13447641594E+04  0.13447641595E+04  0.50400001928E-02 0. -1.
    10030    2    1    2    0    0  0.00000000000E+00  0.00000000000E+00  0.14563673022E+02  0.27040919919E+04  0.27040527732E+04 0.  0.
        5    1    3    3  502    0  0.76249233518E+03  0.67752487649E+03 -0.88015356091E+03  0.13472664548E+04  0.46999998093E+01 0. -1.
       -5    1    3    3    0  502 -0.76249233518E+03 -0.67752487649E+03  0.89471723393E+03  0.13568255371E+04  0.46999998093E+01 0.  1.
</event>
<event>
 5   0  0.1788003E-05  0.2683553E+04  0.7818609E-02  0.8340361E-01
       -2   -1    0    0    0  501  0.00000000000E+00  0.00000000000E+00  0.13822048450E+04  0.13822048450E+04  0.25500000920E-02 0. -1.
        2   -1    0    0  501    0  0.00000000000E+00  0.00000000000E+00 -0.13025308205E+04  0.13025308205E+04  0.25500000920E-02 0.  1.
    10030    2    1    2    0    0  0.00000000000E+00  0.00000000000E+00  0.79674024492E+02  0.26847356655E+04  0.26835531751E+04 0.  0.
        2    1    3    3  502    0  0.90227138741E+03  0.54370936502E+02 -0.95222212359E+03  0.13129268174E+04  0.25500000920E-02 0.  1.
       -2    1    3    3    0  502 -0.90227138741E+03 -0.54370936502E+02  0.10318961481E+04  0.13718088481E+04  0.25500000920E-02 0. -1.
</event>
<event>
 5   0  0.7348964E-06  0.2708698E+04  0.7818609E-02  0.8332188E-01
       -1   -1    0    0    0  501  0.00000000000E+00  0.00000000000E+00  0.84877418716E+03  0.84877418718E+03  0.50400001928E-02 0.  1.
        1   -1    0    0  501    0  0.00000000000E+00  0.00000000000E+00 -0.21610714644E+04  0.21610714644E+04  0.50400001928E-02 0. -1.
    10030    2    1    2    0    0  0.00000000000E+00  0.00000000000E+00 -0.13122972772E+04  0.30098456516E+04  0.27086983410E+04 0.  0.
        1    1    3    3  502    0  0.89619840062E+03 -0.96164126119E+02 -0.17793964410E+04  0.19946605743E+04  0.50400001928E-02 0. -1.
       -1    1    3    3    0  502 -0.89619840062E+03  0.96164126119E+02  0.46709916372E+03  0.10151850773E+04  0.50400001928E-02 0.  1.
</event>
<event>
 5   0  0.7348964E-06  0.2724633E+04  0.7818609E-02  0.8327056E-01
        1   -1    0    0  501    0  0.00000000000E+00  0.00000000000E+00  0.22485187239E+04  0.22485187240E+04  0.50400001928E-02 0.  1.
       -1   -1    0    0    0  501  0.00000000000E+00  0.00000000000E+00 -0.82539070435E+03  0.82539070437E+03  0.50400001928E-02 0. -1.
    10030    2    1    2    0    0  0.00000000000E+00  0.00000000000E+00  0.14231280196E+04  0.30739094283E+04  0.27246331521E+04 0.  0.
        1    1    3    3  502    0 -0.52532342185E+03 -0.25735783961E+03 -0.67648302807E+03  0.89433049956E+03  0.50400001928E-02 0. -1.
       -1    1    3    3    0  502  0.52532342185E+03  0.25735783961E+03  0.20996110477E+04  0.21795789288E+04  0.50400001928E-02 0.  1.
</event>
<event>
 5   0  0.7348964E-06  0.2692015E+04  0.7818609E-02  0.8337600E-01
        1   -1    0    0  501    0  0.00000000000E+00  0.00000000000E+00  0.29203377772E+04  0.29203377772E+04  0.50400001928E-02 0. -1.
       -1   -1    0    0    0  501  0.00000000000E+00  0.00000000000E+00 -0.62038581061E+03  0.62038581063E+03  0.50400001928E-02 0.  1.
    10030    2    1    2    0    0  0.00000000000E+00  0.00000000000E+00  0.22999519666E+04  0.35407235879E+04  0.26920149474E+04 0.  0.
        1    1    3    3  502    0 -0.43135266758E+03 -0.12744055933E+04  0.10980040666E+04  0.17366023351E+04  0.50400001928E-02 0.  1.
       -1    1    3    3    0  502  0.43135266758E+03  0.12744055933E+04  0.12019479001E+04  0.18041212527E+04  0.50400001928E-02 0. -1.
</event>
<event>
 5   0  0.1881699E-05  0.2550629E+04  0.7818609E-02  0.8385167E-01
       -2   -1    0    0    0  501  0.00000000000E+00  0.00000000000E+00  0.10643857224E+04  0.10643857224E+04  0.25500000920E-02 0.  1.
        2   -1    0    0  501    0  0.00000000000E+00  0.00000000000E+00 -0.15280428201E+04  0.15280428201E+04  0.25500000920E-02 0. -1.
    10030    2    1    2    0    0  0.00000000000E+00  0.00000000000E+00 -0.46365709769E+03  0.25924285425E+04  0.25506289114E+04 0.  0.
        4    1    3    3  502    0  0.33552466678E+03  0.11850575371E+04  0.10448251191E+03  0.12360648755E+04  0.12699999809E+01 0.  1.
       -4    1    3    3    0  502 -0.33552466678E+03 -0.11850575371E+04 -0.56813960960E+03  0.13563636670E+04  0.12699999809E+01 0. -1.
</event>
<event>
 5   0  0.7351590E-06  0.2607580E+04  0.7818609E-02  0.8365631E-01
       -1   -1    0    0    0  501  0.00000000000E+00  0.00000000000E+00  0.11042492975E+04  0.11042492975E+04  0.50400001928E-02 0. -1.
        1   -1    0    0  501    0  0.00000000000E+00  0.00000000000E+00 -0.15393884485E+04  0.15393884485E+04  0.50400001928E-02 0.  1.
    10030    2    1    2    0    0  0.00000000000E+00  0.00000000000E+00 -0.43513915094E+03  0.26436377460E+04  0.26075801908E+04 0.  0.
        3    1    3    3  502    0  0.36301358097E+02 -0.80968784645E+03  0.81780464844E+03  0.11513976943E+04  0.10100000352E+00 0. -1.
       -3    1    3    3    0  502 -0.36301358097E+02  0.80968784645E+03 -0.12529437994E+04  0.14922400517E+04  0.10100000352E+00 0.  1.
</event>
<event>
 5   0  0.1881699E-05  0.2698241E+04  0.7818609E-02  0.8335576E-01
       -2   -1    0    0    0  501  0.00000000000E+00  0.00000000000E+00  0.10612471024E+04  0.10612471024E+04  0.25500000920E-02 0. -1.
        2   -1    0    0  501    0  0.00000000000E+00  0.00000000000E+00 -0.17150826571E+04  0.17150826571E+04  0.25500000920E-02 0.  1.
    10030    2    1    2    0    0  0.00000000000E+00  0.00000000000E+00 -0.65383555466E+03  0.27763297595E+04  0.26982412792E+04 0.  0.
        4    1    3    3  502    0  0.75589493053E+03 -0.39657348267E+03 -0.14018908933E+04  0.16413248803E+04  0.12699999809E+01 0.  1.
       -4    1    3    3    0  502 -0.75589493053E+03  0.39657348267E+03  0.74805533863E+03  0.11350048792E+04  0.12699999809E+01 0. -1.
</event>
<event>
 5   0  0.1931119E-05  0.2684271E+04  0.7818609E-02  0.8340127E-01
        2   -1    0    0  501    0  0.00000000000E+00  0.00000000000E+00  0.20300926952E+04  0.20300926952E+04  0.25500000920E-02 0. -1.
       -2   -1    0    0    0  501  0.00000000000E+00  0.00000000000E+00 -0.88731314805E+03  0.88731314805E+03  0.25500000920E-02 0.  1.
    10030    2    1    2    0    0  0.00000000000E+00  0.00000000000E+00  0.11427795471E+04  0.29174058432E+04  0.26842711787E+04 0.  0.
        3    1    3    3  502    0  0.39474039674E+03 -0.57498638640E+03 -0.67489300066E+03  0.97052042632E+03  0.10100000352E+00 0.  1.
       -3    1    3    3    0  502 -0.39474039674E+03  0.57498638640E+03  0.18176725478E+04  0.19468854169E+04  0.10100000352E+00 0. -1.
</event>
<event>
 5   0  0.1878160E-05  0.2666221E+04  0.7818609E-02  0.8346049E-01
        2   -1    0    0  501    0  0.00000000000E+00  0.00000000000E+00  0.14264540305E+04  0.14264540305E+04  0.25500000920E-02 0. -1.
       -2   -1    0    0    0  501  0.00000000000E+00  0.00000000000E+00 -0.12458755580E+04  0.12458755580E+04  0.25500000920E-02 0.  1.
    10030    2    1    2    0    0  0.00000000000E+00  0.00000000000E+00  0.18057847252E+03  0.26723295885E+04  0.26662214546E+04 0.  0.
        1    1    3    3  502    0 -0.12597873761E+04  0.16069939071E+03 -0.31597339690E+03  0.13087122353E+04  0.50400001928E-02 0.  1.
       -1    1    3    3    0  502  0.12597873761E+04 -0.16069939071E+03  0.49655186941E+03  0.13636173533E+04  0.50400001928E-02 0. -1.
</event>
<event>
 5   0  0.1881699E-05  0.2651908E+04  0.7818609E-02  0.8350780E-01
        2   -1    0    0  501    0  0.00000000000E+00  0.00000000000E+00  0.96555828565E+03  0.96555828566E+03  0.25500000920E-02 0. -1.
       -2   -1    0    0    0  501  0.00000000000E+00  0.00000000000E+00 -0.18208671951E+04  0.18208671951E+04  0.25500000920E-02 0.  1.
    10030    2    1    2    0    0  0.00000000000E+00  0.00000000000E+00 -0.85530890941E+03  0.27864254807E+04  0.26519075453E+04 0.  0.
        4    1    3    3  502    0  0.12650734367E+04  0.34196026170E+03 -0.21540755913E+03  0.13280623669E+04  0.12699999809E+01 0. -1.
       -4    1    3    3    0  502 -0.12650734367E+04 -0.34196026170E+03 -0.63990135028E+03  0.14583631139E+04  0.12699999809E+01 0.  1.
</event>
<event>
 5   0  0.7351590E-06  0.2686790E+04  0.7818609E-02  0.8339304E-01
       -1   -1    0    0    0  501  0.00000000000E+00  0.00000000000E+00  0.10470722894E+04  0.10470722894E+04  0.50400001928E-02 0.  1.
        1   -1    0    0  501    0  0.00000000000E+00  0.00000000000E+00 -0.17235769038E+04  0.17235769038E+04  0.50400001928E-02 0. -1.
    10030    2    1    2    0    0  0.00000000000E+00  0.00000000000E+00 -0.67650461440E+03  0.27706491933E+04  0.26867896194E+04 0.  0.
        3    1    3    3  502    0 -0.68994094307E+03 -0.91520380707E+03 -0.10609052764E+04  0.15617735204E+04  0.10100000352E+00 0. -1.
       -3    1    3    3    0  502  0.68994094307E+03  0.91520380707E+03  0.38440066196E+03  0.12088756729E+04  0.10100000352E+00 0.  1.
</event>
<event>
 5   0  0.1931119E-05  0.2708907E+04  0.7818609E-02  0.8332121E-01
       -2   -1    0    0    0  501  0.00000000000E+00  0.00000000000E+00  0.13823447340E+04  0.13823447340E+04  0.25500000920E-02 0.  1.
        2   -1    0    0  501    0  0.00000000000E+00  0.00000000000E+00 -0.13271249499E+04  0.13271249499E+04  0.25500000920E-02 0. -1.
    10030    2    1    2    0    0  0.00000000000E+00  0.00000000000E+00  0.55219784105E+02  0.27094696840E+04  0.27089069278E+04 0.  0.
        3    1    3    3  502    0  0.92830573287E+03  0.44170111872E+03 -0.85444221389E+03  0.13367583622E+04  0.10100000352E+00 0. -1.
       -3    1    3    3    0  502 -0.92830573287E+03 -0.44170111872E+03  0.90966199799E+03  0.13727113217E+04  0.10100000352E+00 0.  1.
</event>
<event>
 5   0  0.7351590E-06  0.2683622E+04  0.7818609E-02  0.8340339E-01
        1   -1    0    0  501    0  0.00000000000E+00  0.00000000000E+00  0.19649938195E+04  0.19649938195E+04  0.50400001928E-02 0. -1.
       -1   -1    0    0    0  501  0.00000000000E+00  0.00000000000E+00 -0.91626616366E+03  0.91626616367E+03  0.50400001928E-02 0.  1.
    10030    2    1    2    0    0  0.00000000000E+00  0.00000000000E+00  0.10487276558E+04  0.28812599832E+04  0.26836224389E+04 0.  0.
        3    1    3    3  502    0 -0.29907942305E+02 -0.10657387795E+04  0.13990812656E+04  0.17590116625E+04  0.10100000352E+00 0. -1.
       -3    1    3    3    0  502  0.29907942305E+02  0.10657387795E+04 -0.35035360974E+03  0.11222483206E+04  0.10100000352E+00 0.  1.
</event>
<event>
 5   0  0.1881699E-05  0.2736822E+04  0.7818609E-02  0.8323155E-01
       -2   -1    0    0    0  501  0.00000000000E+00  0.00000000000E+00  0.65848571079E+03  0.65848571080E+03  0.25500000920E-02 0.  1.
        2   -1    0    0  501    0  0.00000000000E+00  0.00000000000E+00 -0.28437204712E+04  0.28437204712E+04  0.25500000920E-02 0. -1.
    10030    2    1    2    0    0  0.00000000000E+00  0.00000000000E+00 -0.21852347604E+04  0.35022061820E+04  0.27368224610E+04 0.  0.
        4    1    3    3  502    0 -0.63066085737E+03  0.11685852879E+04 -0.15155314337E+04  0.20149843254E+04  0.12699999809E+01 0. -1.
       -4    1    3    3    0  502  0.63066085737E+03 -0.11685852879E+04 -0.66970332669E+03  0.14872218566E+04  0.12699999809E+01 0.  1.
</event>
<event>
 5   0  0.1788003E-05  0.2982022E+04  0.7818609E-02  0.8248883E-01
        2   -1    0    0  501    0  0.00000000000E+00  0.00000000000E+00  0.19567333449E+04  0.19567333449E+04  0.25500000920E-02 0.  1.
       -2   -1    0    0    0  501  0.00000000000E+00  0.00000000000E+00 -0.11361353227E+04  0.11361353227E+04  0.25500000920E-02 0. -1.
    10030    2    1    2    0    0  0.00000000000E+00  0.00000000000E+00  0.82059802220E+03  0.30928686676E+04  0.29820220457E+04 0.  0.
        2    1    3    3  502    0  0.14119849375E+04  0.19927245291E+03 -0.41440013295E+02  0.14265792123E+04  0.25500000920E-02 0. -1.
       -2    1    3    3    0  502 -0.14119849375E+04 -0.19927245291E+03  0.86203803550E+03  0.16662894553E+04  0.25500000920E-02 0.  1.
</event>
<event>
 5   0  0.1878160E-05  0.2620858E+04  0.7818609E-02  0.8361151E-01
       -2   -1    0    0    0  501  0.00000000000E+00  0.00000000000E+00  0.10461523008E+04  0.10461523008E+04  0.25500000920E-02 0.  1.
        2   -1    0    0  501    0  0.00000000000E+00  0.00000000000E+00 -0.16414665970E+04  0.16414665970E+04  0.25500000920E-02 0. -1.
    10030    2    1    2    0    0  0.00000000000E+00  0.00000000000E+00 -0.59531429617E+03  0.26876188977E+04  0.26208579184E+04 0.  0.
        1    1    3    3  502    0  0.48273146477E+02  0.11452820156E+04 -0.94883074669E+03  0.14880460268E+04  0.50400001928E-02 0. -1.
       -1    1    3    3    0  502 -0.48273146477E+02 -0.11452820156E+04  0.35351645051E+03  0.11995728710E+04  0.50400001928E-02 0.  1.
</event>
<event>
 5   0  0.1931119E-05  0.2788665E+04  0.7818609E-02  0.8306796E-01
        2   -1    0    0  501    0  0.00000000000E+00  0.00000000000E+00  0.28469071271E+04  0.28469071271E+04  0.25500000920E-02 0. -1.
       -2   -1    0    0    0  501  0.00000000000E+00  0.00000000000E+00 -0.68290368683E+03  0.68290368684E+03  0.25500000920E-02 0.  1.
    10030    2    1    2    0    0  0.00000000000E+00  0.00000000000E+00  0.21640034403E+04  0.35298108140E+04  0.27886651812E+04 0.  0.
        3    1    3    3  502    0 -0.82986682485E+03  0.10134052929E+03  0.24944649213E+04  0.26308371489E+04  0.10100000352E+00 0. -1.
       -3    1    3    3    0  502  0.82986682485E+03 -0.10134052929E+03 -0.33046148106E+03  0.89897366509E+03  0.10100000352E+00 0.  1.
</event>
<event>
 5   0  0.1788003E-05  0.2731817E+04  0.7818609E-02  0.8324755E-01
        2   -1    0    0  501    0  0.00000000000E+00  0.00000000000E+00  0.19332131707E+04  0.19332131707E+04  0.25500000920E-02 0. -1.
       -2   -1    0    0    0  501  0.00000000000E+00  0.00000000000E+00 -0.96508027186E+03  0.96508027186E+03  0.25500000920E-02 0.  1.
    10030    2    1    2    0    0  0.00000000000E+00  0.00000000000E+00  0.96813289888E+03  0.28982934426E+04  0.27318168990E+04 0.  0.
        2    1    3    3  502    0  0.22017077732E+03 -0.37049001600E+03 -0.89105562832E+03  0.98980713066E+03  0.25500000920E-02 0.  1.
       -2    1    3    3    0  502 -0.22017077732E+03  0.37049001600E+03  0.18591885272E+04  0.19084863119E+04  0.25500000920E-02 0. -1.
</event>
<event>
 5   0  0.6804685E-06  0.2447108E+04  0.7818609E-02  0.8422075E-01
       -1   -1    0    0    0  501  0.00000000000E+00  0.00000000000E+00  0.10863357829E+04  0.10863357830E+04  0.50400001928E-02 0. -1.
        1   -1    0    0  501    0  0.00000000000E+00  0.00000000000E+00 -0.13781043812E+04  0.13781043812E+04  0.50400001928E-02 0.  1.
    10030    2    1    2    0    0  0.00000000000E+00  0.00000000000E+00 -0.29176859829E+03  0.24644401642E+04  0.24471077639E+04 0.  0.
        2    1    3    3  502    0  0.43872900740E+03  0.10989580532E+04 -0.45936405237E+03  0.12693333988E+04  0.25500000920E-02 0.  1.
       -2    1    3    3    0  502 -0.43872900740E+03 -0.10989580532E+04  0.16759545408E+03  0.11951067654E+04  0.25500000920E-02 0. -1.
</event>
<event>
 5   0  0.6804685E-06  0.2919703E+04  0.7818609E-02  0.8267039E-01
       -1   -1    0    0    0  501  0.00000000000E+00  0.00000000000E+00  0.10780117912E+04  0.10780117912E+04  0.50400001928E-02 0.  1.
        1   -1    0    0  501    0  0.00000000000E+00  0.00000000000E+00 -0.19769413010E+04  0.19769413010E+04  0.50400001928E-02 0. -1.
    10030    2    1    2    0    0  0.00000000000E+00  0.00000000000E+00 -0.89892950985E+03  0.30549530922E+04  0.29197027472E+04 0.  0.
        2    1    3    3  502    0 -0.69034201027E+03 -0.11359577671E+04 -0.10809049695E+04  0.17132798058E+04  0.25500000920E-02 0. -1.
       -2    1    3    3    0  502  0.69034201027E+03  0.11359577671E+04  0.18197545963E+03  0.13416732865E+04  0.25500000920E-02 0.  1.
</event>
<event>
 5   0  0.7754912E-06  0.2864416E+04  0.7818609E-02  0.8283544E-01
        1   -1    0    0  501    0  0.00000000000E+00  0.00000000000E+00  0.16558668289E+04  0.16558668289E+04  0.50400001928E-02 0. -1.
       -1   -1    0    0    0  501  0.00000000000E+00  0.00000000000E+00 -0.12387587925E+04  0.12387587925E+04  0.50400001928E-02 0.  1.
    10030    2    1    2    0    0  0.00000000000E+00  0.00000000000E+00  0.41710803637E+03  0.28946256214E+04  0.28644158871E+04 0.  0.
        4    1    3    3  502    0 -0.87172055459E+03  0.11359407699E+04  0.23986176628E+03  0.14518241759E+04  0.12699999809E+01 0. -1.
       -4    1    3    3    0  502  0.87172055459E+03 -0.11359407699E+04  0.17724627009E+03  0.14428014455E+04  0.12699999809E+01 0.  1.
</event>
<event>
 5   0  0.7600052E-06  0.2703209E+04  0.7818609E-02  0.8333964E-01
       -1   -1    0    0    0  501  0.00000000000E+00  0.00000000000E+00  0.11833399620E+04  0.11833399620E+04  0.50400001928E-02 0.  1.
        1   -1    0    0  501    0  0.00000000000E+00  0.00000000000E+00 -0.15437957778E+04  0.15437957778E+04  0.50400001928E-02 0. -1.
    10030    2    1    2    0    0  0.00000000000E+00  0.00000000000E+00 -0.36045581584E+03  0.27271357399E+04  0.27032093793E+04 0.  0.
        5    1    3    3  502    0 -0.91370679759E+02  0.12832897404E+04  0.23772387873E+03  0.13083256060E+04  0.46999998093E+01 0.  1.
       -5    1    3    3    0  502  0.91370679759E+02 -0.12832897404E+04 -0.59817969457E+03  0.14188101338E+04  0.46999998093E+01 0. -1.
</event>
<event>
 5   0  0.7600052E-06  0.2704785E+04  0.7818609E-02  0.8333454E-01
       -1   -1    0    0    0  501  0.00000000000E+00  0.00000000000E+00  0.13139199813E+04  0.13139199813E+04  0.50400001928E-02 0.  1.
        1   -1    0    0  501    0  0.00000000000E+00  0.00000000000E+00 -0.13919916038E+04  0.13919916038E+04  0.50400001928E-02 0. -1.
    10030    2    1    2    0    0  0.00000000000E+00  0.00000000000E+00 -0.78071622484E+02  0.27059115852E+04  0.27047850799E+04 0.  0.
        5    1    3    3  502    0  0.11859331550E+04  0.80396757665E+02  0.60624632025E+03  0.13343379548E+04  0.46999998093E+01 0.  1.
       -5    1    3    3    0  502 -0.11859331550E+04 -0.80396757665E+02 -0.68431794274E+03  0.13715736304E+04  0.46999998093E+01 0. -1.
</event>
<event>
 5   0  0.1931119E-05  0.2738510E+04  0.7818609E-02  0.8322617E-01
       -2   -1    0    0    0  501  0.00000000000E+00  0.00000000000E+00  0.88913337481E+03  0.88913337481E+03  0.25500000920E-02 0. -1.
        2   -1    0    0  501    0  0.00000000000E+00  0.00000000000E+00 -0.21086359340E+04  0.21086359340E+04  0.25500000920E-02 0.  1.
    10030    2    1    2    0    0  0.00000000000E+00  0.00000000000E+00 -0.12195025592E+04  0.29977693088E+04  0.27385095101E+04 0.  0.
        3    1    3    3  502    0  0.43560351184E+03  0.10291253789E+03  0.80678844220E+03  0.92263156820E+03  0.10100000352E+00 0. -1.
       -3    1    3    3    0  502 -0.43560351184E+03 -0.10291253789E+03 -0.20262910014E+04  0.20751377406E+04  0.10100000352E+00 0.  1.
</event>
<event>
 5   0  0.1931119E-05  0.2757208E+04  0.7818609E-02  0.8316678E-01
        2   -1    0    0  501    0  0.00000000000E+00  0.00000000000E+00  0.18409340167E+04  0.18409340167E+04  0.25500000920E-02 0.  1.
       -2   -1    0    0    0  501  0.00000000000E+00  0.00000000000E+00 -0.10323829722E+04  0.10323829722E+04  0.25500000920E-02 0. -1.
    10030    2    1    2    0    0  0.00000000000E+00  0.00000000000E+00  0.80855104452E+03  0.28733169889E+04  0.27572079586E+04 0.  0.
        3    1    3    3  502    0  0.93123422881E+03 -0.17662123548E+03 -0.63895870754E+03  0.11430925115E+04  0.10100000352E+00 0. -1.
       -3    1    3    3    0  502 -0.93123422881E+03  0.17662123548E+03  0.14475097521E+04  0.17302244774E+04  0.10100000352E+00 0.  1.
</event>
<event>
 5   0  0.6175875E-06  0.2691620E+04  0.7818609E-02  0.8337729E-01
        3   -1    0    0  501    0  0.00000000000E+00  0.00000000000E+00  0.15713664859E+04  0.15713664892E+04  0.10100000352E+00 0. -1.
       -3   -1    0    0    0  501  0.00000000000E+00  0.00000000000E+00 -0.11526306337E+04  0.11526306381E+04  0.10100000352E+00 0.  1.
    10030    2    1    2    0    0  0.00000000000E+00  0.00000000000E+00  0.41873585220E+03  0.27239971273E+04  0.26916204479E+04 0.  0.
        4    1    3    3  502    0  0.12191015388E+04  0.40712252857E+03  0.61322473290E+03  0.14240798788E+04  0.12699999809E+01 0. -1.
       -4    1    3    3    0  502 -0.12191015388E+04 -0.40712252857E+03 -0.19448888069E+03  0.12999172485E+04  0.12699999809E+01 0.  1.
</event>
<event>
 5   0  0.1878160E-05  0.2701944E+04  0.7818609E-02  0.8334375E-01
       -2   -1    0    0    0  501  0.00000000000E+00  0.00000000000E+00  0.11992194607E+04  0.11992194607E+04  0.25500000920E-02 0. -1.
        2   -1    0    0  501    0  0.00000000000E+00  0.00000000000E+00 -0.15219274818E+04  0.15219274818E+04  0.25500000920E-02 0.  1.
    10030    2    1    2    0    0  0.00000000000E+00  0.00000000000E+00 -0.32270802112E+03  0.27211469425E+04  0.27019437847E+04 0.  0.
        1    1    3    3  502    0  0.18094724987E+03  0.54713416272E+01  0.11869489386E+04  0.12006746544E+04  0.50400001928E-02 0. -1.
       -1    1    3    3    0  502 -0.18094724987E+03 -0.54713416272E+01 -0.15096569597E+04  0.15204722881E+04  0.50400001928E-02 0.  1.
</event>
<event>
 5   0  0.6804685E-06  0.2674778E+04  0.7818609E-02  0.8343235E-01
       -1   -1    0    0    0  501  0.00000000000E+00  0.00000000000E+00  0.23788118721E+04  0.23788118721E+04  0.50400001928E-02 0.  1.
        1   -1    0    0  501    0  0.00000000000E+00  0.00000000000E+00 -0.75189166885E+03  0.75189166886E+03  0.50400001928E-02 0. -1.
    10030    2    1    2    0    0  0.00000000000E+00  0.00000000000E+00  0.16269202033E+04  0.31307035410E+04  0.26747776195E+04 0.  0.
        2    1    3    3  502    0 -0.69037617128E+03  0.38197322543E+02 -0.52645670938E+03  0.86904255373E+03  0.25500000920E-02 0. -1.
       -2    1    3    3    0  502  0.69037617128E+03 -0.38197322543E+02  0.21533769126E+04  0.22616609872E+04  0.25500000920E-02 0.  1.
</event>
<event>
 5   0  0.1931119E-05  0.2761457E+04  0.7818609E-02  0.8315335E-01
        2   -1    0    0  501    0  0.00000000000E+00  0.00000000000E+00  0.20898610125E+04  0.20898610125E+04  0.25500000920E-02 0.  1.
       -2   -1    0    0    0  501  0.00000000000E+00  0.00000000000E+00 -0.91221911846E+03  0.91221911846E+03  0.25500000920E-02 0. -1.
    10030    2    1    2    0    0  0.00000000000E+00  0.00000000000E+00  0.11776418940E+04  0.30020801309E+04  0.27614569854E+04 0.  0.
        3    1    3    3  502    0  0.15136808384E+03  0.13228780964E+04  0.19161816916E+03  0.13452272253E+04  0.10100000352E+00 0. -1.
       -3    1    3    3    0  502 -0.15136808384E+03 -0.13228780964E+04  0.98602372486E+03  0.16568529056E+04  0.10100000352E+00 0.  1.
</event>
<event>
 5   0  0.1881699E-05  0.2702689E+04  0.7818609E-02  0.8334133E-01
       -2   -1    0    0    0  501  0.00000000000E+00  0.00000000000E+00  0.32821444255E+04  0.32821444255E+04  0.25500000920E-02 0.  1.
        2   -1    0    0  501    0  0.00000000000E+00  0.00000000000E+00 -0.55638389765E+03  0.55638389766E+03  0.25500000920E-02 0. -1.
    10030    2    1    2    0    0  0.00000000000E+00  0.00000000000E+00  0.27257605279E+04  0.38385283232E+04  0.27026892593E+04 0.  0.
        4    1    3    3  502    0  0.90376242847E+03 -0.85817853709E+03  0.21047873628E+04  0.24460965607E+04  0.12699999809E+01 0.  1.
       -4    1    3    3    0  502 -0.90376242847E+03  0.85817853709E+03  0.62097316511E+03  0.13924317625E+04  0.12699999809E+01 0. -1.
</event>
<event>
 5   0  0.1826851E-05  0.2714966E+04  0.7818609E-02  0.8330165E-01
        2   -1    0    0  501    0  0.00000000000E+00  0.00000000000E+00  0.15630576185E+04  0.15630576185E+04  0.25500000920E-02 0. -1.
       -2   -1    0    0    0  501  0.00000000000E+00  0.00000000000E+00 -0.11789454097E+04  0.11789454097E+04  0.25500000920E-02 0.  1.
    10030    2    1    2    0    0  0.00000000000E+00  0.00000000000E+00  0.38411220880E+03  0.27420030282E+04  0.27149656384E+04 0.  0.
        5    1    3    3  502    0 -0.74533579902E+03  0.51898522012E+02  0.13367089496E+04  0.15313496713E+04  0.46999998093E+01 0. -1.
       -5    1    3    3    0  502  0.74533579902E+03 -0.51898522012E+02 -0.95259674079E+03  0.12106533568E+04  0.46999998093E+01 0.  1.
</event>
<event>
 5   0  0.7348964E-06  0.2653955E+04  0.7818609E-02  0.8350101E-01
        1   -1    0    0  501    0  0.00000000000E+00  0.00000000000E+00  0.18283390240E+04  0.18283390240E+04  0.50400001928E-02 0.  1.
       -1   -1    0    0    0  501  0.00000000000E+00  0.00000000000E+00 -0.96309801762E+03  0.96309801764E+03  0.50400001928E-02 0. -1.
    10030    2    1    2    0    0  0.00000000000E+00  0.00000000000E+00  0.86524100637E+03  0.27914370416E+04  0.26539553045E+04 0.  0.
        1    1    3    3  502    0 -0.70681449829E+03 -0.37228839406E+03  0.15470768413E+04  0.17411582743E+04  0.50400001928E-02 0.  1.
       -1    1    3    3    0  502  0.70681449829E+03  0.37228839406E+03 -0.68183583490E+03  0.10502787673E+04  0.50400001928E-02 0. -1.
</event>
<event>
 5   0  0.7351590E-06  0.2733216E+04  0.7818609E-02  0.8324307E-01
        1   -1    0    0  501    0  0.00000000000E+00  0.00000000000E+00  0.18189214222E+04  0.18189214223E+04  0.50400001928E-02 0. -1.
       -1   -1    0    0    0  501  0.00000000000E+00  0.00000000000E+00 -0.10267715675E+04  0.10267715675E+04  0.50400001928E-02 0.  1.
    10030    2    1    2    0    0  0.00000000000E+00  0.00000000000E+00  0.79214985480E+03  0.28456929897E+04  0.27332155420E+04 0.  0.
        3    1    3    3  502    0  0.11865827722E+04  0.48896850858E+03  0.88502626395E+03  0.15589548986E+04  0.10100000352E+00 0. -1.
       -3    1    3    3    0  502 -0.11865827722E+04 -0.48896850858E+03 -0.92876409156E+02  0.12867380912E+04  0.10100000352E+00 0.  1.
</event>
<event>
 5   0  0.7754912E-06  0.2370042E+04  0.7818609E-02  0.8450805E-01
        1   -1    0    0  501    0  0.00000000000E+00  0.00000000000E+00  0.11236935938E+04  0.11236935938E+04  0.50400001928E-02 0.  1.
       -1   -1    0    0    0  501  0.00000000000E+00  0.00000000000E+00 -0.12496952588E+04  0.12496952588E+04  0.50400001928E-02 0. -1.
    10030    2    1    2    0    0  0.00000000000E+00  0.00000000000E+00 -0.12600166505E+03  0.23733888526E+04  0.23700418195E+04 0.  0.
        4    1    3    3  502    0 -0.26234158237E+03  0.71372418941E+03 -0.97315598272E+03  0.12350139691E+04  0.12699999809E+01 0. -1.
       -4    1    3    3    0  502  0.26234158237E+03 -0.71372418941E+03  0.84715431767E+03  0.11383748834E+04  0.12699999809E+01 0.  1.
</event>
<event>
 5   0  0.7600052E-06  0.2715413E+04  0.7818609E-02  0.8330021E-01
       -1   -1    0    0    0  501  0.00000000000E+00  0.00000000000E+00  0.91784701428E+03  0.91784701429E+03  0.50400001928E-02 0.  1.
        1   -1    0    0  501    0  0.00000000000E+00  0.00000000000E+00 -0.20083596847E+04  0.20083596847E+04  0.50400001928E-02 0. -1.
    10030    2    1    2    0    0  0.00000000000E+00  0.00000000000E+00 -0.10905126704E+04  0.29262066990E+04  0.27154130001E+04 0.  0.
        5    1    3    3  502    0 -0.69786412139E+03 -0.72773747360E+03 -0.15250860623E+04  0.18282575721E+04  0.46999998093E+01 0. -1.
       -5    1    3    3    0  502  0.69786412139E+03  0.72773747360E+03  0.43457339187E+03  0.10979491269E+04  0.46999998093E+01 0.  1.
</event>
<event>
 5   0  0.1931119E-05  0.2602843E+04  0.7818609E-02  0.8367236E-01
        2   -1    0    0  501    0  0.00000000000E+00  0.00000000000E+00  0.68241551321E+03  0.68241551321E+03  0.25500000920E-02 0. -1.
       -2   -1    0    0    0  501  0.00000000000E+00  0.00000000000E+00 -0.24819163906E+04  0.24819163906E+04  0.25500000920E-02 0.  1.
    10030    2    1    2    0    0  0.00000000000E+00  0.00000000000E+00 -0.17995008774E+04  0.31643319038E+04  0.26028432511E+04 0.  0.
        3    1    3    3  502    0  0.16934444693E+03 -0.12564353257E+04 -0.12570793737E+04  0.17853727430E+04  0.10100000352E+00 0.  1.
       -3    1    3    3    0  502 -0.16934444693E+03  0.12564353257E+04 -0.54242150372E+03  0.13789591609E+04  0.10100000352E+00 0. -1.
</event>
<event>
 5   0  0.6804685E-06  0.2697470E+04  0.7818609E-02  0.8335826E-01
        1   -1    0    0  501    0  0.00000000000E+00  0.00000000000E+00  0.10254829923E+04  0.10254829924E+04  0.50400001928E-02 0. -1.
       -1   -1    0    0    0  501  0.00000000000E+00  0.00000000000E+00 -0.17738825579E+04  0.17738825579E+04  0.50400001928E-02 0.  1.
    10030    2    1    2    0    0  0.00000000000E+00  0.00000000000E+00 -0.74839956559E+03  0.27993655503E+04  0.26974702175E+04 0.  0.
        2    1    3    3  502    0 -0.48534369479E+03  0.10745502908E+04 -0.10538188716E+04  0.15813763131E+04  0.25500000920E-02 0.  1.
       -2    1    3    3    0  502  0.48534369479E+03 -0.10745502908E+04  0.30541930602E+03  0.12179892372E+04  0.25500000920E-02 0. -1.
</event>
<event>
 5   0  0.7754912E-06  0.2814092E+04  0.7818609E-02  0.8298907E-01
       -1   -1    0    0    0  501  0.00000000000E+00  0.00000000000E+00  0.10189421042E+04  0.10189421042E+04  0.50400001928E-02 0. -1.
        1   -1    0    0  501    0  0.00000000000E+00  0.00000000000E+00 -0.19429750134E+04  0.19429750134E+04  0.50400001928E-02 0.  1.
    10030    2    1    2    0    0  0.00000000000E+00  0.00000000000E+00 -0.92403290926E+03  0.29619171176E+04  0.28140924282E+04 0.  0.
        4    1    3    3  502    0 -0.11372925565E+04 -0.40940663237E+02  0.40889544105E+03  0.12092591085E+04  0.12699999809E+01 0. -1.
       -4    1    3    3    0  502  0.11372925565E+04  0.40940663237E+02 -0.13329283503E+04  0.17526580091E+04  0.12699999809E+01 0.  1.
</event>
<event>
 5   0  0.7351590E-06  0.2656277E+04  0.7818609E-02  0.8349333E-01
        1   -1    0    0  501    0  0.00000000000E+00  0.00000000000E+00  0.14509922713E+04  0.14509922713E+04  0.50400001928E-02 0.  1.
       -1   -1    0    0    0  501  0.00000000000E+00  0.00000000000E+00 -0.12156867621E+04  0.12156867621E+04  0.50400001928E-02 0. -1.
    10030    2    1    2    0    0  0.00000000000E+00  0.00000000000E+00  0.23530550917E+03  0.26666790334E+04  0.26562771664E+04 0.  0.
        3    1    3    3  502    0  0.36671835099E+03 -0.12762282809E+04  0.14442386249E+03  0.13357017767E+04  0.10100000352E+00 0. -1.
       -3    1    3    3    0  502 -0.36671835099E+03  0.12762282809E+04  0.90881646685E+02  0.13309772567E+04  0.10100000352E+00 0.  1.
</event>
<event>
 5   0  0.7754912E-06  0.2678642E+04  0.7818609E-02  0.8341968E-01
        1   -1    0    0  501    0  0.00000000000E+00  0.00000000000E+00  0.16051938234E+04  0.16051938235E+04  0.50400001928E-02 0.  1.
       -1   -1    0    0    0  501  0.00000000000E+00  0.00000000000E+00 -0.11174853833E+04  0.11174853833E+04  0.50400001928E-02 0. -1.
    10030    2    1    2    0    0  0.00000000000E+00  0.00000000000E+00  0.48770844018E+03  0.27226792067E+04  0.26786419208E+04 0.  0.
        4    1    3    3  502    0 -0.90022681586E+03 -0.49699417993E+03 -0.62837195561E+03  0.12050993579E+04  0.12699999809E+01 0. -1.
       -4    1    3    3    0  502  0.90022681586E+03  0.49699417993E+03  0.11160803958E+04  0.15175798489E+04  0.12699999809E+01 0.  1.
</event>
<event>
 5   0  0.1788003E-05  0.2758911E+04  0.7818609E-02  0.8316140E-01
       -2   -1    0    0    0  501  0.00000000000E+00  0.00000000000E+00  0.21162145812E+04  0.21162145812E+04  0.25500000920E-02 0. -1.
        2   -1    0    0  501    0  0.00000000000E+00  0.00000000000E+00 -0.89919878179E+03  0.89919878180E+03  0.25500000920E-02 0.  1.
    10030    2    1    2    0    0  0.00000000000E+00  0.00000000000E+00  0.12170157995E+04  0.30154133630E+04  0.27589110703E+04 0.  0.
        2    1    3    3  502    0  0.14610368321E+03 -0.78906206734E+03  0.18348463592E+04  0.20026548366E+04  0.25500000920E-02 0. -1.
       -2    1    3    3    0  502 -0.14610368321E+03  0.78906206734E+03 -0.61783055978E+03  0.10127585265E+04  0.25500000920E-02 0.  1.
</event>
<event>
 5   0  0.1826851E-05  0.2633276E+04  0.7818609E-02  0.8356985E-01
        2   -1    0    0  501    0  0.00000000000E+00  0.00000000000E+00  0.16970429162E+04  0.16970429162E+04  0.25500000920E-02 0.  1.
       -2   -1    0    0    0  501  0.00000000000E+00  0.00000000000E+00 -0.10215040272E+04  0.10215040272E+04  0.25500000920E-02 0. -1.
    10030    2    1    2    0    0  0.00000000000E+00  0.00000000000E+00  0.67553888898E+03  0.27185469434E+04  0.26332764179E+04 0.  0.
        5    1    3    3  502    0  0.85063123726E+03 -0.54680064109E+03  0.12082514669E+04  0.15755818418E+04  0.46999998093E+01 0.  1.
       -5    1    3    3    0  502 -0.85063123726E+03  0.54680064109E+03 -0.53271257790E+03  0.11429651016E+04  0.46999998093E+01 0. -1.
</event>
<event>
 5   0  0.1931119E-05  0.2702851E+04  0.7818609E-02  0.8334080E-01
       -2   -1    0    0    0  501  0.00000000000E+00  0.00000000000E+00  0.63388150880E+03  0.63388150880E+03  0.25500000920E-02 0.  1.
        2   -1    0    0  501    0  0.00000000000E+00  0.00000000000E+00 -0.28812187022E+04  0.28812187022E+04  0.25500000920E-02 0. -1.
    10030    2    1    2    0    0  0.00000000000E+00  0.00000000000E+00 -0.22473371934E+04  0.35151002110E+04  0.27028512783E+04 0.  0.
        3    1    3    3  502    0 -0.13215459105E+04 -0.23471553445E+03 -0.91896119569E+03  0.16266728820E+04  0.10100000352E+00 0.  1.
       -3    1    3    3    0  502  0.13215459105E+04  0.23471553445E+03 -0.13283759977E+04  0.18884273290E+04  0.10100000352E+00 0. -1.
</event>
<event>
 5   0  0.1826851E-05  0.2696826E+04  0.7818609E-02  0.8336035E-01
       -2   -1    0    0    0  501  0.00000000000E+00  0.00000000000E+00  0.14588049238E+04  0.14588049238E+04  0.25500000920E-02 0.  1.
        2   -1    0    0  501    0  0.00000000000E+00  0.00000000000E+00 -0.12463751990E+04  0.12463751990E+04  0.25500000920E-02 0. -1.
    10030    2    1    2    0    0  0.00000000000E+00  0.00000000000E+00  0.21242972484E+03  0.27051801228E+04  0.26968264884E+04 0.  0.
        5    1    3    3  502    0 -0.78024658706E+03  0.10323907135E+04 -0.27387953277E+03  0.13227423824E+04  0.46999998093E+01 0. -1.
       -5    1    3    3    0  502  0.78024658706E+03 -0.10323907135E+04  0.48630925761E+03  0.13824377403E+04  0.46999998093E+01 0.  1.
</event>
<event>
 5   0  0.7754912E-06  0.2481075E+04  0.7818609E-02  0.8409759E-01
        1   -1    0    0  501    0  0.00000000000E+00  0.00000000000E+00  0.90677670386E+03  0.90677670387E+03  0.50400001928E-02 0. -1.
       -1   -1    0    0    0  501  0.00000000000E+00  0.00000000000E+00 -0.16971474978E+04  0.16971474978E+04  0.50400001928E-02 0.  1.
    10030    2    1    2    0    0  0.00000000000E+00  0.00000000000E+00 -0.79037079396E+03  0.26039242017E+04  0.24810754233E+04 0.  0.
        4    1    3    3  502    0 -0.96146228481E+03 -0.43754558077E+02 -0.12166327008E+04  0.15512965313E+04  0.12699999809E+01 0.  1.
       -4    1    3    3    0  502  0.96146228481E+03  0.43754558077E+02  0.42626190680E+03  0.10526276704E+04  0.12699999809E+01 0. -1.
</event>
<event>
 5   0  0.7600052E-06  0.2711704E+04  0.7818609E-02  0.8331218E-01
        1   -1    0    0  501    0  0.00000000000E+00  0.00000000000E+00  0.11642444992E+04  0.11642444992E+04  0.50400001928E-02 0.  1.
       -1   -1    0    0    0  501  0.00000000000E+00  0.00000000000E+00 -0.15789931243E+04  0.15789931243E+04  0.50400001928E-02 0. -1.
    10030    2    1    2    0    0  0.00000000000E+00  0.00000000000E+00 -0.41474862505E+03  0.27432376235E+04  0.27117035673E+04 0.  0.
        5    1    3    3  502    0  0.95451905343E+02  0.64692240255E+03 -0.14089119108E+04  0.15532786368E+04  0.46999998093E+01 0. -1.
       -5    1    3    3    0  502 -0.95451905343E+02 -0.64692240255E+03  0.99416328578E+03  0.11899589867E+04  0.46999998093E+01 0.  1.
</event>
<event>
 5   0  0.7351590E-06  0.2719954E+04  0.7818609E-02  0.8328559E-01
       -1   -1    0    0    0  501  0.00000000000E+00  0.00000000000E+00  0.94107864907E+03  0.94107864909E+03  0.50400001928E-02 0.  1.
        1   -1    0    0  501    0  0.00000000000E+00  0.00000000000E+00 -0.19653384732E+04  0.19653384733E+04  0.50400001928E-02 0. -1.
    10030    2    1    2    0    0  0.00000000000E+00  0.00000000000E+00 -0.10242598242E+04  0.29064171223E+04  0.27199544668E+04 0.  0.
        3    1    3    3  502    0 -0.73755652059E+03 -0.50206610752E+03 -0.16088834874E+04  0.18397190230E+04  0.10100000352E+00 0. -1.
       -3    1    3    3    0  502  0.73755652059E+03  0.50206610752E+03  0.58462366320E+03  0.10666980994E+04  0.10100000352E+00 0.  1.
</event>
<event>
 5   0  0.7600052E-06  0.1996030E+04  0.7818609E-02  0.8608479E-01
        1   -1    0    0  501    0  0.00000000000E+00  0.00000000000E+00  0.71271371708E+03  0.71271371710E+03  0.50400001928E-02 0. -1.
       -1   -1    0    0    0  501  0.00000000000E+00  0.00000000000E+00 -0.13975236691E+04  0.13975236691E+04  0.50400001928E-02 0.  1.
    10030    2    1    2    0    0  0.00000000000E+00  0.00000000000E+00 -0.68480995204E+03  0.21102373862E+04  0.19960303494E+04 0.  0.
        5    1    3    3  502    0 -0.92108356082E+02  0.95272207568E+03 -0.64114859046E+03  0.11520663643E+04  0.46999998093E+01 0. -1.
       -5    1    3    3    0  502  0.92108356082E+02 -0.95272207568E+03 -0.43661361576E+02  0.95817102191E+03  0.46999998093E+01 0.  1.
</event>
<event>
 5   0  0.1788003E-05  0.2815200E+04  0.7818609E-02  0.8298565E-01
       -2   -1    0    0    0  501  0.00000000000E+00  0.00000000000E+00  0.11292566748E+04  0.11292566748E+04  0.25500000920E-02 0. -1.
        2   -1    0    0  501    0  0.00000000000E+00  0.00000000000E+00 -0.17545508579E+04  0.17545508579E+04  0.25500000920E-02 0.  1.
    10030    2    1    2    0    0  0.00000000000E+00  0.00000000000E+00 -0.62529418308E+03  0.28838075327E+04  0.28152003606E+04 0.  0.
        2    1    3    3  502    0 -0.13125936742E+04  0.33973871567E+03 -0.70003477860E+03  0.15259007962E+04  0.25500000920E-02 0.  1.
       -2    1    3    3    0  502  0.13125936742E+04 -0.33973871567E+03  0.74740595523E+02  0.13579067365E+04  0.25500000920E-02 0. -1.
</event>
<event>
 5   0  0.1931119E-05  0.2721756E+04  0.7818609E-02  0.8327980E-01
        2   -1    0    0  501    0  0.00000000000E+00  0.00000000000E+00  0.17978886427E+04  0.17978886427E+04  0.25500000920E-02 0. -1.
       -2   -1    0    0    0  501  0.00000000000E+00  0.00000000000E+00 -0.10300909323E+04  0.10300909323E+04  0.25500000920E-02 0.  1.
    10030    2    1    2    0    0  0.00000000000E+00  0.00000000000E+00  0.76779771039E+03  0.28279795750E+04  0.27217558951E+04 0.  0.
        3    1    3    3  502    0  0.82289625559E+03 -0.54445621284E+03 -0.58990784005E+03  0.11496008373E+04  0.10100000352E+00 0.  1.
       -3    1    3    3    0  502 -0.82289625559E+03  0.54445621284E+03  0.13577055504E+04  0.16783787377E+04  0.10100000352E+00 0. -1.
</event>
<event>
 5   0  0.1931119E-05  0.2369758E+04  0.7818609E-02  0.8450913E-01
       -2   -1    0    0    0  501  0.00000000000E+00  0.00000000000E+00  0.62184927071E+03  0.62184927072E+03  0.25500000920E-02 0. -1.
        2   -1    0    0  501    0  0.00000000000E+00  0.00000000000E+00 -0.22576820869E+04  0.22576820869E+04  0.25500000920E-02 0.  1.
    10030    2    1    2    0    0  0.00000000000E+00  0.00000000000E+00 -0.16358328162E+04  0.28795313576E+04  0.23697577591E+04 0.  0.
        3    1    3    3  502    0  0.84445453756E+03  0.50831632061E+03 -0.16169872942E+04  0.18937098161E+04  0.10100000352E+00 0.  1.
       -3    1    3    3    0  502 -0.84445453756E+03 -0.50831632061E+03 -0.18845521969E+02  0.98582154151E+03  0.10100000352E+00 0. -1.
</event>
<event>
 5   0  0.6804685E-06  0.2674177E+04  0.7818609E-02  0.8343432E-01
        1   -1    0    0  501    0  0.00000000000E+00  0.00000000000E+00  0.12487637542E+04  0.12487637543E+04  0.50400001928E-02 0.  1.
       -1   -1    0    0    0  501  0.00000000000E+00  0.00000000000E+00 -0.14316606681E+04  0.14316606681E+04  0.50400001928E-02 0. -1.
    10030    2    1    2    0    0  0.00000000000E+00  0.00000000000E+00 -0.18289691387E+03  0.26804244224E+04  0.26741772198E+04 0.  0.
        2    1    3    3  502    0 -0.13074373945E+04  0.27912838588E+03 -0.69018639746E+02  0.13386817281E+04  0.25500000920E-02 0. -1.
       -2    1    3    3    0  502  0.13074373945E+04 -0.27912838588E+03 -0.11387827412E+03  0.13417426943E+04  0.25500000920E-02 0.  1.
</event>
<event>
 5   0  0.1881699E-05  0.2582813E+04  0.7818609E-02  0.8374063E-01
       -2   -1    0    0    0  501  0.00000000000E+00  0.00000000000E+00  0.14450088698E+04  0.14450088698E+04  0.25500000920E-02 0.  1.
        2   -1    0    0  501    0  0.00000000000E+00  0.00000000000E+00 -0.11541319346E+04  0.11541319346E+04  0.25500000920E-02 0. -1.
    10030    2    1    2    0    0  0.00000000000E+00  0.00000000000E+00  0.29087693524E+03  0.25991408044E+04  0.25828131039E+04 0.  0.
        4    1    3    3  502    0  0.32537441554E+03  0.22565530437E+03  0.13824122624E+04  0.14380035128E+04  0.12699999809E+01 0.  1.
       -4    1    3    3    0  502 -0.32537441554E+03 -0.22565530437E+03 -0.10915353272E+04  0.11611372916E+04  0.12699999809E+01 0. -1.
</event>
<event>
 5   0  0.1931119E-05  0.2697868E+04  0.7818609E-02  0.8335697E-01
       -2   -1    0    0    0  501  0.00000000000E+00  0.00000000000E+00  0.12092417572E+04  0.12092417572E+04  0.25500000920E-02 0. -1.
        2   -1    0    0  501    0  0.00000000000E+00  0.00000000000E+00 -0.15047637269E+04  0.15047637269E+04  0.25500000920E-02 0.  1.
    10030    2    1    2    0    0  0.00000000000E+00  0.00000000000E+00 -0.29552196976E+03  0.27140054841E+04  0.26978681460E+04 0.  0.
        3    1    3    3  502    0  0.15966050948E+01  0.37919425356E+02  0.12087045385E+04  0.12093002537E+04  0.10100000352E+00 0. -1.
       -3    1    3    3    0  502 -0.15966050948E+01 -0.37919425356E+02 -0.15042265083E+04  0.15047052304E+04  0.10100000352E+00 0.  1.
</event>
<event>
 5   0  0.1931119E-05  0.2729000E+04  0.7818609E-02  0.8325656E-01
       -2   -1    0    0    0  501  0.00000000000E+00  0.00000000000E+00  0.15786274305E+04  0.15786274305E+04  0.25500000920E-02 0.  1.
        2   -1    0    0  501    0  0.00000000000E+00  0.00000000000E+00 -0.11794172957E+04  0.11794172958E+04  0.25500000920E-02 0. -1.
    10030    2    1    2    0    0  0.00000000000E+00  0.00000000000E+00  0.39921013480E+03  0.27580447263E+04  0.27290001797E+04 0.  0.
        3    1    3    3  502    0  0.66774514162E+03 -0.11894358733E+04  0.23489393419E+03  0.13841302112E+04  0.10100000352E+00 0. -1.
       -3    1    3    3    0  502 -0.66774514162E+03  0.11894358733E+04  0.16431620061E+03  0.13739145151E+04  0.10100000352E+00 0.  1.
</event>
<event>
 5   0  0.1931119E-05  0.2642900E+04  0.7818609E-02  0.8353773E-01
       -2   -1    0    0    0  501  0.00000000000E+00  0.00000000000E+00  0.98020424974E+03  0.98020424974E+03  0.25500000920E-02 0. -1.
        2   -1    0    0  501    0  0.00000000000E+00  0.00000000000E+00 -0.17814957973E+04  0.17814957973E+04  0.25500000920E-02 0.  1.
    10030    2    1    2    0    0  0.00000000000E+00  0.00000000000E+00 -0.80129154755E+03  0.27617000470E+04  0.26428997343E+04 0.  0.
        3    1    3    3  502    0 -0.55326711611E+03 -0.76706573505E+02  0.85078531089E+03  0.10177544181E+04  0.10100000352E+00 0. -1.
       -3    1    3    3    0  502  0.55326711611E+03  0.76706573505E+02 -0.16520768584E+04  0.17439456289E+04  0.10100000352E+00 0.  1.
</event>
<event>
 5   0  0.1826851E-05  0.2485979E+04  0.7818609E-02  0.8407997E-01
        2   -1    0    0  501    0  0.00000000000E+00  0.00000000000E+00  0.14782982563E+04  0.14782982563E+04  0.25500000920E-02 0. -1.
       -2   -1    0    0    0  501  0.00000000000E+00  0.00000000000E+00 -0.10451365066E+04  0.10451365066E+04  0.25500000920E-02 0.  1.
    10030    2    1    2    0    0  0.00000000000E+00  0.00000000000E+00  0.43316174971E+03  0.25234347628E+04  0.24859794651E+04 0.  0.
        5    1    3    3  502    0 -0.13104318976E+03  0.11762250032E+04 -0.16904266482E+03  0.11955229350E+04  0.46999998093E+01 0.  1.
       -5    1    3    3    0  502  0.13104318976E+03 -0.11762250032E+04  0.60220441453E+03  0.13279118278E+04  0.46999998093E+01 0. -1.
</event>
<event>
 5   0  0.7351590E-06  0.2679265E+04  0.7818609E-02  0.8341764E-01
        1   -1    0    0  501    0  0.00000000000E+00  0.00000000000E+00  0.11152401940E+04  0.11152401940E+04  0.50400001928E-02 0. -1.
       -1   -1    0    0    0  501  0.00000000000E+00  0.00000000000E+00 -0.16091738734E+04  0.16091738734E+04  0.50400001928E-02 0.  1.
    10030    2    1    2    0    0  0.00000000000E+00  0.00000000000E+00 -0.49393367940E+03  0.27244140674E+04  0.26792651102E+04 0.  0.
        3    1    3    3  502    0 -0.11730343014E+04  0.64041577356E+03 -0.34056984595E+03  0.13791771697E+04  0.10100000352E+00 0.  1.
       -3    1    3    3    0  502  0.11730343014E+04 -0.64041577356E+03 -0.15336383344E+03  0.13452368977E+04  0.10100000352E+00 0. -1.
</event>
<event>
 5   0  0.6804685E-06  0.2469970E+04  0.7818609E-02  0.8413763E-01
        1   -1    0    0  501    0  0.00000000000E+00  0.00000000000E+00  0.11447071068E+04  0.11447071068E+04  0.50400001928E-02 0. -1.
       -1   -1    0    0    0  501  0.00000000000E+00  0.00000000000E+00 -0.13323823860E+04  0.13323823860E+04  0.50400001928E-02 0.  1.
    10030    2    1    2    0    0  0.00000000000E+00  0.00000000000E+00 -0.18767527925E+03  0.24770894928E+04  0.24699697052E+04 0.  0.
        2    1    3    3  502    0  0.10945393478E+04  0.55806885522E+03 -0.21961988205E+03  0.12480745666E+04  0.25500000920E-02 0.  1.
       -2    1    3    3    0  502 -0.10945393478E+04 -0.55806885522E+03  0.31944602802E+02  0.12290149262E+04  0.25500000920E-02 0. -1.
</event>
<event>
 5   0  0.7754912E-06  0.2722104E+04  0.7818609E-02  0.8327869E-01
       -1   -1    0    0    0  501  0.00000000000E+00  0.00000000000E+00  0.10320440142E+04  0.10320440142E+04  0.50400001928E-02 0. -1.
        1   -1    0    0  501    0  0.00000000000E+00  0.00000000000E+00 -0.17949447655E+04  0.17949447655E+04  0.50400001928E-02 0.  1.
    10030    2    1    2    0    0  0.00000000000E+00  0.00000000000E+00 -0.76290075136E+03  0.28269887797E+04  0.27221035991E+04 0.  0.
        4    1    3    3  502    0 -0.88211831852E+03 -0.32274661315E+03 -0.14043702780E+04  0.16895430136E+04  0.12699999809E+01 0.  1.
       -4    1    3    3    0  502  0.88211831852E+03  0.32274661315E+03  0.64146952668E+03  0.11374457661E+04  0.12699999809E+01 0. -1.
</event>
<event>
 5   0  0.1931119E-05  0.2659887E+04  0.7818609E-02  0.8348139E-01
       -2   -1    0    0    0  501  0.00000000000E+00  0.00000000000E+00  0.85812067011E+03  0.85812067011E+03  0.25500000920E-02 0.  1.
        2   -1    0    0  501    0  0.00000000000E+00  0.00000000000E+00 -0.20611892924E+04  0.20611892924E+04  0.25500000920E-02 0. -1.
    10030    2    1    2    0    0  0.00000000000E+00  0.00000000000E+00 -0.12030686223E+04  0.29193099625E+04  0.26598865666E+04 0.  0.
        3    1    3    3  502    0 -0.58924706177E+03  0.46137274822E+02 -0.19091218570E+04  0.19985212091E+04  0.10100000352E+00 0. -1.
       -3    1    3    3    0  502  0.58924706177E+03 -0.46137274822E+02  0.70605323475E+03  0.92078875343E+03  0.10100000352E+00 0.  1.
</event>
<event>
 5   0  0.1931119E-05  0.2705084E+04  0.7818609E-02  0.8333357E-01
       -2   -1    0    0    0  501  0.00000000000E+00  0.00000000000E+00  0.10764030625E+04  0.10764030625E+04  0.25500000920E-02 0.  1.
        2   -1    0    0  501    0  0.00000000000E+00  0.00000000000E+00 -0.16995210204E+04  0.16995210204E+04  0.25500000920E-02 0. -1.
    10030    2    1    2    0    0  0.00000000000E+00  0.00000000000E+00 -0.62311795789E+03  0.27759240829E+04  0.27050838295E+04 0.  0.
        3    1    3    3  502    0 -0.95912448508E+03  0.21691863901E+03 -0.12645312416E+04  0.16018778808E+04  0.10100000352E+00 0.  1.
       -3    1    3    3    0  502  0.95912448508E+03 -0.21691863901E+03  0.64141328374E+03  0.11740462021E+04  0.10100000352E+00 0. -1.
</event>
<event>
 5   0  0.1878160E-05  0.2707746E+04  0.7818609E-02  0.8332496E-01
        2   -1    0    0  501    0  0.00000000000E+00  0.00000000000E+00  0.25126154319E+04  0.25126154319E+04  0.25500000920E-02 0.  1.
       -2   -1    0    0    0  501  0.00000000000E+00  0.00000000000E+00 -0.72950756295E+03  0.72950756295E+03  0.25500000920E-02 0. -1.
    10030    2    1    2    0    0  0.00000000000E+00  0.00000000000E+00  0.17831078689E+04  0.32421229948E+04  0.27077458968E+04 0.  0.
        1    1    3    3  502    0 -0.29072353803E+02  0.76762137649E+02 -0.72652547588E+03  0.73114765585E+03  0.50400001928E-02 0. -1.
       -1    1    3    3    0  502  0.29072353803E+02 -0.76762137649E+02  0.25096333448E+04  0.25109753390E+04  0.50400001928E-02 0.  1.
</event>
<event>
 5   0  0.7348964E-06  0.2574068E+04  0.7818609E-02  0.8377063E-01
       -1   -1    0    0    0  501  0.00000000000E+00  0.00000000000E+00  0.11159307097E+04  0.11159307098E+04  0.50400001928E-02 0.  1.
        1   -1    0    0  501    0  0.00000000000E+00  0.00000000000E+00 -0.14843725527E+04  0.14843725527E+04  0.50400001928E-02 0. -1.
    10030    2    1    2    0    0  0.00000000000E+00  0.00000000000E+00 -0.36844184293E+03  0.26003032624E+04  0.25740683101E+04 0.  0.
        1    1    3    3  502    0 -0.42380313500E+03 -0.87520179413E+03  0.66750313892E+03  0.11794692527E+04  0.50400001928E-02 0.  1.
       -1    1    3    3    0  502  0.42380313500E+03  0.87520179413E+03 -0.10359449818E+04  0.14208340097E+04  0.50400001928E-02 0. -1.
</event>
<event>
 5   0  0.1788003E-05  0.2627889E+04  0.7818609E-02  0.8358789E-01
       -2   -1    0    0    0  501  0.00000000000E+00  0.00000000000E+00  0.73831083968E+03  0.73831083968E+03  0.25500000920E-02 0.  1.
        2   -1    0    0  501    0  0.00000000000E+00  0.00000000000E+00 -0.23383777636E+04  0.23383777636E+04  0.25500000920E-02 0. -1.
    10030    2    1    2    0    0  0.00000000000E+00  0.00000000000E+00 -0.16000669240E+04  0.30766886033E+04  0.26278886203E+04 0.  0.
        2    1    3    3  502    0 -0.29474641843E+03  0.21334231509E+03 -0.22782185582E+04  0.23070912842E+04  0.25500000920E-02 0. -1.
       -2    1    3    3    0  502  0.29474641843E+03 -0.21334231509E+03  0.67815163425E+03  0.76959731914E+03  0.25500000920E-02 0.  1.
</event>
<event>
 5   0  0.1931119E-05  0.2683162E+04  0.7818609E-02  0.8340489E-01
        2   -1    0    0  501    0  0.00000000000E+00  0.00000000000E+00  0.14613862034E+04  0.14613862034E+04  0.25500000920E-02 0.  1.
       -2   -1    0    0    0  501  0.00000000000E+00  0.00000000000E+00 -0.12315978385E+04  0.12315978385E+04  0.25500000920E-02 0. -1.
    10030    2    1    2    0    0  0.00000000000E+00  0.00000000000E+00  0.22978836489E+03  0.26929840420E+04  0.26831623800E+04 0.  0.
        3    1    3    3  502    0  0.99217556212E+03  0.24978277475E+03 -0.75605893744E+03  0.12721748731E+04  0.10100000352E+00 0. -1.
       -3    1    3    3    0  502 -0.99217556212E+03 -0.24978277475E+03  0.98584730233E+03  0.14208091689E+04  0.10100000352E+00 0.  1.
</event>
<event>
 5   0  0.7348964E-06  0.2693142E+04  0.7818609E-02  0.8337234E-01
       -1   -1    0    0    0  501  0.00000000000E+00  0.00000000000E+00  0.78797084113E+03  0.78797084114E+03  0.50400001928E-02 0. -1.
        1   -1    0    0  501    0  0.00000000000E+00  0.00000000000E+00 -0.23011684568E+04  0.23011684568E+04  0.50400001928E-02 0.  1.
    10030    2    1    2    0    0  0.00000000000E+00  0.00000000000E+00 -0.15131976156E+04  0.30891392979E+04  0.26931421385E+04 0.  0.
        1    1    3    3  502    0 -0.78575798587E+02 -0.35883385918E+03 -0.22425868374E+04  0.22724725780E+04  0.50400001928E-02 0.  1.
       -1    1    3    3    0  502  0.78575798587E+02  0.35883385918E+03  0.72938922173E+03  0.81666671992E+03  0.50400001928E-02 0. -1.
</event>
<event>
 5   0  0.1881699E-05  0.2646949E+04  0.7818609E-02  0.8352426E-01
       -2   -1    0    0    0  501  0.00000000000E+00  0.00000000000E+00  0.13038348953E+04  0.13038348953E+04  0.25500000920E-02 0. -1.
        2   -1    0    0  501    0  0.00000000000E+00  0.00000000000E+00 -0.13434097968E+04  0.13434097968E+04  0.25500000920E-02 0.  1.
    10030    2    1    2    0    0  0.00000000000E+00  0.00000000000E+00 -0.39574901459E+02  0.26472446921E+04  0.26469488636E+04 0.  0.
        4    1    3    3  502    0  0.89100096104E+03 -0.85160068778E+03  0.46242462066E+03  0.13164135318E+04  0.12699999809E+01 0. -1.
       -4    1    3    3    0  502 -0.89100096104E+03  0.85160068778E+03 -0.50199952212E+03  0.13308311603E+04  0.12699999809E+01 0.  1.
</event>
<event>
 5   0  0.6175875E-06  0.2069428E+04  0.7818609E-02  0.8574831E-01
       -3   -1    0    0    0  501  0.00000000000E+00  0.00000000000E+00  0.19856838257E+04  0.19856838282E+04  0.10100000352E+00 0.  1.
        3   -1    0    0  501    0  0.00000000000E+00  0.00000000000E+00 -0.53917606198E+03  0.53917607144E+03  0.10100000352E+00 0. -1.
    10030    2    1    2    0    0  0.00000000000E+00  0.00000000000E+00  0.14465077637E+04  0.25248598997E+04  0.20694281342E+04 0.  0.
        3    1    3    3  502    0  0.40454010184E+03 -0.95195141544E+03  0.75708760926E+03  0.12818135003E+04  0.10100000352E+00 0.  1.
       -3    1    3    3    0  502 -0.40454010184E+03  0.95195141544E+03  0.68942015443E+03  0.12430463993E+04  0.10100000352E+00 0. -1.
</event>
<event>
 5   0  0.1826851E-05  0.2678445E+04  0.7818609E-02  0.8342033E-01
        2   -1    0    0  501    0  0.00000000000E+00  0.00000000000E+00  0.20788159733E+04  0.20788159733E+04  0.25500000920E-02 0.  1.
       -2   -1    0    0    0  501  0.00000000000E+00  0.00000000000E+00 -0.86275907909E+03  0.86275907910E+03  0.25500000920E-02 0. -1.
    10030    2    1    2    0    0  0.00000000000E+00  0.00000000000E+00  0.12160568942E+04  0.29415750524E+04  0.26784453362E+04 0.  0.
        5    1    3    3  502    0 -0.13074077727E+04  0.12375200285E+03  0.89623137267E+03  0.15899315726E+04  0.46999998093E+01 0.  1.
       -5    1    3    3    0  502  0.13074077727E+04 -0.12375200285E+03  0.31982552155E+03  0.13516434798E+04  0.46999998093E+01 0. -1.
</event>
<event>
 5   0  0.1881699E-05  0.2711904E+04  0.7818609E-02  0.8331153E-01
        2   -1    0    0  501    0  0.00000000000E+00  0.00000000000E+00  0.94208140653E+03  0.94208140654E+03  0.25500000920E-02 0. -1.
       -2   -1    0    0    0  501  0.00000000000E+00  0.00000000000E+00 -0.19516423516E+04  0.19516423516E+04  0.25500000920E-02 0.  1.
    10030    2    1    2    0    0  0.00000000000E+00  0.00000000000E+00 -0.10095609451E+04  0.28937237582E+04  0.27119041072E+04 0.  0.
        4    1    3    3  502    0  0.11496505362E+04 -0.47608550796E+03 -0.10796500137E+04  0.16474220865E+04  0.12699999809E+01 0. -1.
       -4    1    3    3    0  502 -0.11496505362E+04  0.47608550796E+03  0.70089068554E+02  0.12463016716E+04  0.12699999809E+01 0.  1.
</event>
<event>
 5   0  0.1931119E-05  0.2668720E+04  0.7818609E-02  0.8345226E-01
       -2   -1    0    0    0  501  0.00000000000E+00  0.00000000000E+00  0.68251630137E+03  0.68251630138E+03  0.25500000920E-02 0.  1.
        2   -1    0    0  501    0  0.00000000000E+00  0.00000000000E+00 -0.26087530855E+04  0.26087530855E+04  0.25500000920E-02 0. -1.
    10030    2    1    2    0    0  0.00000000000E+00  0.00000000000E+00 -0.19262367842E+04  0.32912693869E+04  0.26687199232E+04 0.  0.
        3    1    3    3  502    0  0.11458043219E+04  0.22447119624E+03 -0.16647371221E+03  0.11793932207E+04  0.10100000352E+00 0.  1.
       -3    1    3    3    0  502 -0.11458043219E+04 -0.22447119624E+03 -0.17597630720E+04  0.21118761662E+04  0.10100000352E+00 0. -1.
</event>
<event>
 5   0  0.1826851E-05  0.2687753E+04  0.7818609E-02  0.8338990E-01
        2   -1    0    0  501    0  0.00000000000E+00  0.00000000000E+00  0.16776473149E+04  0.16776473149E+04  0.25500000920E-02 0. -1.
       -2   -1    0    0    0  501  0.00000000000E+00  0.00000000000E+00 -0.10765099668E+04  0.10765099668E+04  0.25500000920E-02 0.  1.
    10030    2    1    2    0    0  0.00000000000E+00  0.00000000000E+00  0.60113734815E+03  0.27541572817E+04  0.26877530059E+04 0.  0.
        5    1    3    3  502    0 -0.75741826977E+03 -0.57364741553E+02 -0.83542753161E+03  0.11291299303E+04  0.46999998093E+01 0.  1.
       -5    1    3    3    0  502  0.75741826977E+03  0.57364741553E+02  0.14365648798E+04  0.16250273514E+04  0.46999998093E+01 0. -1.
</event>
<event>
 5   0  0.1881699E-05  0.2809388E+04  0.7818609E-02  0.8300360E-01
       -2   -1    0    0    0  501  0.00000000000E+00  0.00000000000E+00  0.16414353730E+04  0.16414353730E+04  0.25500000920E-02 0. -1.
        2   -1    0    0  501    0  0.00000000000E+00  0.00000000000E+00 -0.12020972728E+04  0.12020972728E+04  0.25500000920E-02 0.  1.
    10030    2    1    2    0    0  0.00000000000E+00  0.00000000000E+00  0.43933810020E+03  0.28435326459E+04  0.28093878233E+04 0.  0.
        4    1    3    3  502    0 -0.43572693895E+03 -0.39130209054E+03 -0.10726370064E+04  0.12220994443E+04  0.12699999809E+01 0.  1.
       -4    1    3    3    0  502  0.43572693895E+03  0.39130209054E+03  0.15119751066E+04  0.16214332016E+04  0.12699999809E+01 0. -1.
</event>
<event>
 5   0  0.1931119E-05  0.2630960E+04  0.7818609E-02  0.8357760E-01
       -2   -1    0    0    0  501  0.00000000000E+00  0.00000000000E+00  0.10040013696E+04  0.10040013696E+04  0.25500000920E-02 0.  1.
        2   -1    0    0  501    0  0.00000000000E+00  0.00000000000E+00 -0.17235911498E+04  0.17235911498E+04  0.25500000920E-02 0. -1.
    10030    2    1    2    0    0  0.00000000000E+00  0.00000000000E+00 -0.71958978023E+03  0.27275925194E+04  0.26309601859E+04 0.  0.
        3    1    3    3  502    0 -0.43841337105E+03 -0.10075605513E+04 -0.11096182243E+04  0.15616136406E+04  0.10100000352E+00 0. -1.
       -3    1    3    3    0  502  0.43841337105E+03  0.10075605513E+04  0.39002844411E+03  0.11659788788E+04  0.10100000352E+00 0.  1.
</event>
<event>
 5   0  0.7600052E-06  0.2717191E+04  0.7818609E-02  0.8329448E-01
       -1   -1    0    0    0  501  0.00000000000E+00  0.00000000000E+00  0.93006526586E+03  0.93006526587E+03  0.50400001928E-02 0. -1.
        1   -1    0    0  501    0  0.00000000000E+00  0.00000000000E+00 -0.19845728259E+04  0.19845728259E+04  0.50400001928E-02 0.  1.
    10030    2    1    2    0    0  0.00000000000E+00  0.00000000000E+00 -0.10545075600E+04  0.29146380918E+04  0.27171913830E+04 0.  0.
        5    1    3    3  502    0  0.33989059605E+03  0.12437120983E+04 -0.98664379499E+03  0.16235250133E+04  0.46999998093E+01 0.  1.
       -5    1    3    3    0  502 -0.33989059605E+03 -0.12437120983E+04 -0.67863765032E+02  0.12911130784E+04  0.46999998093E+01 0. -1.
</event>
<event>
 5   0  0.1878160E-05  0.2736423E+04  0.7818609E-02  0.8323283E-01
        2   -1    0    0  501    0  0.00000000000E+00  0.00000000000E+00  0.19314324269E+04  0.19314324269E+04  0.25500000920E-02 0. -1.
       -2   -1    0    0    0  501  0.00000000000E+00  0.00000000000E+00 -0.96922990661E+03  0.96922990661E+03  0.25500000920E-02 0.  1.
    10030    2    1    2    0    0  0.00000000000E+00  0.00000000000E+00  0.96220252029E+03  0.29006623335E+04  0.27364225337E+04 0.  0.
        1    1    3    3  502    0 -0.55893572898E+03  0.65022507435E+03 -0.64910081992E+03  0.10754225546E+04  0.50400001928E-02 0.  1.
       -1    1    3    3    0  502  0.55893572898E+03 -0.65022507435E+03  0.16113033402E+04  0.18252397789E+04  0.50400001928E-02 0. -1.
</event>
<event>
 5   0  0.7351590E-06  0.2696163E+04  0.7818609E-02  0.8336251E-01
        1   -1    0    0  501    0  0.00000000000E+00  0.00000000000E+00  0.12124157146E+04  0.12124157146E+04  0.50400001928E-02 0. -1.
       -1   -1    0    0    0  501  0.00000000000E+00  0.00000000000E+00 -0.14989275972E+04  0.14989275972E+04  0.50400001928E-02 0.  1.
    10030    2    1    2    0    0  0.00000000000E+00  0.00000000000E+00 -0.28651188260E+03  0.27113433119E+04  0.26961627354E+04 0.  0.
        3    1    3    3  502    0  0.15264357726E+03 -0.12116026700E+04 -0.71747204139E+03  0.14163499681E+04  0.10100000352E+00 0.  1.
       -3    1    3    3    0  502 -0.15264357726E+03  0.12116026700E+04  0.43096015880E+03  0.12949933438E+04  0.10100000352E+00 0. -1.
</event>
<event>
 5   0  0.1881699E-05  0.3019006E+04  0.7818609E-02  0.8238324E-01
        2   -1    0    0  501    0  0.00000000000E+00  0.00000000000E+00  0.10390089234E+04  0.10390089234E+04  0.25500000920E-02 0.  1.
       -2   -1    0    0    0  501  0.00000000000E+00  0.00000000000E+00 -0.21930514564E+04  0.21930514564E+04  0.25500000920E-02 0. -1.
    10030    2    1    2    0    0  0.00000000000E+00  0.00000000000E+00 -0.11540425330E+04  0.32320603797E+04  0.30190064807E+04 0.  0.
        4    1    3    3  502    0  0.13897428413E+04  0.53417206468E+03 -0.31072344023E+03  0.15209456364E+04  0.12699999809E+01 0.  1.
       -4    1    3    3    0  502 -0.13897428413E+04 -0.53417206468E+03 -0.84331909279E+03  0.17111147433E+04  0.12699999809E+01 0. -1.
</event>
<event>
 5   0  0.1881699E-05  0.2806263E+04  0.7818609E-02  0.8301327E-01
       -2   -1    0    0    0  501  0.00000000000E+00  0.00000000000E+00  0.89691226966E+03  0.89691226966E+03  0.25500000920E-02 0. -1.
        2   -1    0    0  501    0  0.00000000000E+00  0.00000000000E+00 -0.21950622273E+04  0.21950622273E+04  0.25500000920E-02 0.  1.
    10030    2    1    2    0    0  0.00000000000E+00  0.00000000000E+00 -0.12981499576E+04  0.30919744970E+04  0.28062631696E+04 0.  0.
        4    1    3    3  502    0 -0.90945785272E+03  0.63276754141E+03  0.29955144146E+03  0.11477112121E+04  0.12699999809E+01 0. -1.
       -4    1    3    3    0  502  0.90945785272E+03 -0.63276754141E+03 -0.15977013991E+04  0.19442632849E+04  0.12699999809E+01 0.  1.
</event>
<event>
 5   0  0.1881699E-05  0.2716873E+04  0.7818609E-02  0.8329551E-01
        2   -1    0    0  501    0  0.00000000000E+00  0.00000000000E+00  0.11809184807E+04  0.11809184807E+04  0.25500000920E-02 0.  1.
       -2   -1    0    0    0  501  0.00000000000E+00  0.00000000000E+00 -0.15626388260E+04  0.15626388260E+04  0.25500000920E-02 0. -1.
    10030    2    1    2    0    0  0.00000000000E+00  0.00000000000E+00 -0.38172034524E+03  0.27435573067E+04  0.27168725169E+04 0.  0.
        4    1    3    3  502    0  0.57333492443E+03 -0.10267948372E+04 -0.87748475619E+03  0.14673110384E+04  0.12699999809E+01 0. -1.
       -4    1    3    3    0  502 -0.57333492443E+03  0.10267948372E+04  0.49576441094E+03  0.12762462683E+04  0.12699999809E+01 0.  1.
</event>
<event>
 5   0  0.1878160E-05  0.2690750E+04  0.7818609E-02  0.8338013E-01
        2   -1    0    0  501    0  0.00000000000E+00  0.00000000000E+00  0.14231523411E+04  0.14231523411E+04  0.25500000920E-02 0. -1.
       -2   -1    0    0    0  501  0.00000000000E+00  0.00000000000E+00 -0.12718482152E+04  0.12718482152E+04  0.25500000920E-02 0.  1.
    10030    2    1    2    0    0  0.00000000000E+00  0.00000000000E+00  0.15130412592E+03  0.26950005563E+04  0.26907499066E+04 0.  0.
        1    1    3    3  502    0  0.44072807358E+03  0.11538738362E+04  0.60975585112E+03  0.13774862114E+04  0.50400001928E-02 0. -1.
       -1    1    3    3    0  502 -0.44072807358E+03 -0.11538738362E+04 -0.45845172521E+03  0.13175143449E+04  0.50400001928E-02 0.  1.
</event>
<event>
 5   0  0.7754912E-06  0.2721737E+04  0.7818609E-02  0.8327986E-01
       -1   -1    0    0    0  501  0.00000000000E+00  0.00000000000E+00  0.10097649260E+04  0.10097649260E+04  0.50400001928E-02 0.  1.
        1   -1    0    0  501    0  0.00000000000E+00  0.00000000000E+00 -0.18340540383E+04  0.18340540383E+04  0.50400001928E-02 0. -1.
    10030    2    1    2    0    0  0.00000000000E+00  0.00000000000E+00 -0.82428911232E+03  0.28438189643E+04  0.27217372689E+04 0.  0.
        4    1    3    3  502    0 -0.96405071622E+02 -0.12779178361E+04  0.66204651340E+02  0.12832585875E+04  0.12699999809E+01 0.  1.
       -4    1    3    3    0  502  0.96405071622E+02  0.12779178361E+04 -0.89049376366E+03  0.15605603768E+04  0.12699999809E+01 0. -1.
</event>
<event>
 5   0  0.7600052E-06  0.2700601E+04  0.7818609E-02  0.8334810E-01
       -1   -1    0    0    0  501  0.00000000000E+00  0.00000000000E+00  0.13581375622E+04  0.13581375623E+04  0.50400001928E-02 0. -1.
        1   -1    0    0  501    0  0.00000000000E+00  0.00000000000E+00 -0.13425087214E+04  0.13425087214E+04  0.50400001928E-02 0.  1.
    10030    2    1    2    0    0  0.00000000000E+00  0.00000000000E+00  0.15628840822E+02  0.27006462837E+04  0.27006010607E+04 0.  0.
        5    1    3    3  502    0  0.12979735724E+04  0.24972802271E+03 -0.26821547638E+03  0.13487257363E+04  0.46999998093E+01 0. -1.
       -5    1    3    3    0  502 -0.12979735724E+04 -0.24972802271E+03  0.28384431721E+03  0.13519205474E+04  0.46999998093E+01 0.  1.
</event>
<event>
 5   0  0.1881699E-05  0.2707509E+04  0.7818609E-02  0.8332573E-01
        2   -1    0    0  501    0  0.00000000000E+00  0.00000000000E+00  0.18206105720E+04  0.18206105720E+04  0.25500000920E-02 0.  1.
       -2   -1    0    0    0  501  0.00000000000E+00  0.00000000000E+00 -0.10066134729E+04  0.10066134729E+04  0.25500000920E-02 0. -1.
    10030    2    1    2    0    0  0.00000000000E+00  0.00000000000E+00  0.81399709916E+03  0.28272240449E+04  0.27075089146E+04 0.  0.
        4    1    3    3  502    0 -0.97737856638E+03  0.80012937875E+02 -0.56752888370E+03  0.11330320291E+04  0.12699999809E+01 0. -1.
       -4    1    3    3    0  502  0.97737856638E+03 -0.80012937875E+02  0.13815259829E+04  0.16941920158E+04  0.12699999809E+01 0.  1.
</event>
<event>
 5   0  0.1878160E-05  0.2710476E+04  0.7818609E-02  0.8331614E-01
        2   -1    0    0  501    0  0.00000000000E+00  0.00000000000E+00  0.26055170955E+04  0.26055170955E+04  0.25500000920E-02 0.  1.
       -2   -1    0    0    0  501  0.00000000000E+00  0.00000000000E+00 -0.70491591481E+03  0.70491591481E+03  0.25500000920E-02 0. -1.
    10030    2    1    2    0    0  0.00000000000E+00  0.00000000000E+00  0.19006011807E+04  0.33104330103E+04  0.27104763175E+04 0.  0.
        1    1    3    3  502    0  0.85465353927E+03  0.62319284882E+03 -0.84511813309E+02  0.10611052001E+04  0.50400001928E-02 0. -1.
       -1    1    3    3    0  502 -0.85465353927E+03 -0.62319284882E+03  0.19851129940E+04  0.22493278103E+04  0.50400001928E-02 0.  1.
</event>
<event>
 5   0  0.1788003E-05  0.2925137E+04  0.7818609E-02  0.8265437E-01
       -2   -1    0    0    0  501  0.00000000000E+00  0.00000000000E+00  0.17127652917E+04  0.17127652917E+04  0.25500000920E-02 0.  1.
        2   -1    0    0  501    0  0.00000000000E+00  0.00000000000E+00 -0.12489202511E+04  0.12489202511E+04  0.25500000920E-02 0. -1.
    10030    2    1    2    0    0  0.00000000000E+00  0.00000000000E+00  0.46384504062E+03  0.29616855427E+04  0.29251374382E+04 0.  0.
        2    1    3    3  502    0  0.38544423098E+03 -0.13431873393E+04 -0.20519818710E+03  0.14123830145E+04  0.25500000920E-02 0. -1.
       -2    1    3    3    0  502 -0.38544423098E+03  0.13431873393E+04  0.66904322772E+03  0.15493025283E+04  0.25500000920E-02 0.  1.
</event>
<event>
 5   0  0.1826851E-05  0.2737933E+04  0.7818609E-02  0.8322801E-01
        2   -1    0    0  501    0  0.00000000000E+00  0.00000000000E+00  0.12074863349E+04  0.12074863350E+04  0.25500000920E-02 0.  1.
       -2   -1    0    0    0  501  0.00000000000E+00  0.00000000000E+00 -0.15520418328E+04  0.15520418328E+04  0.25500000920E-02 0. -1.
    10030    2    1    2    0    0  0.00000000000E+00  0.00000000000E+00 -0.34455549788E+03  0.27595281678E+04  0.27379330192E+04 0.  0.
        5    1    3    3  502    0  0.42909300982E+03 -0.43393606970E+02 -0.14817726630E+04  0.15432680036E+04  0.46999998093E+01 0. -1.
       -5    1    3    3    0  502 -0.42909300982E+03  0.43393606970E+02  0.11372171651E+04  0.12162601641E+04  0.46999998093E+01 0.  1.
</event>
<event>
 5   0  0.1788003E-05  0.2587797E+04  0.7818609E-02  0.8372358E-01
       -2   -1    0    0    0  501  0.00000000000E+00  0.00000000000E+00  0.10622390472E+04  0.10622390472E+04  0.25500000920E-02 0. -1.
        2   -1    0    0  501    0  0.00000000000E+00  0.00000000000E+00 -0.15760791586E+04  0.15760791586E+04  0.25500000920E-02 0.  1.
    10030    2    1    2    0    0  0.00000000000E+00  0.00000000000E+00 -0.51384011142E+03  0.26383182058E+04  0.25877966101E+04 0.  0.
        2    1    3    3  502    0 -0.84947760397E+03 -0.89478042187E+03 -0.65430996247E+03  0.13965549506E+04  0.25500000920E-02 0. -1.
       -2    1    3    3    0  502  0.84947760397E+03  0.89478042187E+03  0.14046985105E+03  0.12417632552E+04  0.25500000920E-02 0.  1.
</event>
<event>
 5   0  0.7351590E-06  0.2423497E+04  0.7818609E-02  0.8430759E-01
       -1   -1    0    0    0  501  0.00000000000E+00  0.00000000000E+00  0.13224879000E+04  0.13224879000E+04  0.50400001928E-02 0.  1.
        1   -1    0    0  501    0  0.00000000000E+00  0.00000000000E+00 -0.11102818820E+04  0.11102818820E+04  0.50400001928E-02 0. -1.
    10030    2    1    2    0    0  0.00000000000E+00  0.00000000000E+00  0.21220601802E+03  0.24327697820E+04  0.24234969400E+04 0.  0.
        3    1    3    3  502    0 -0.11760609614E+03 -0.19136827280E+03 -0.10892012851E+04  0.11121207036E+04  0.10100000352E+00 0. -1.
       -3    1    3    3    0  502  0.11760609614E+03  0.19136827280E+03  0.13014073031E+04  0.13206490785E+04  0.10100000352E+00 0.  1.
</event>
<event>
 5   0  0.1878160E-05  0.2720846E+04  0.7818609E-02  0.8328273E-01
       -2   -1    0    0    0  501  0.00000000000E+00  0.00000000000E+00  0.11864578334E+04  0.11864578334E+04  0.25500000920E-02 0. -1.
        2   -1    0    0  501    0  0.00000000000E+00  0.00000000000E+00 -0.15598963872E+04  0.15598963872E+04  0.25500000920E-02 0.  1.
    10030    2    1    2    0    0  0.00000000000E+00  0.00000000000E+00 -0.37343855385E+03  0.27463542206E+04  0.27208464035E+04 0.  0.
        1    1    3    3  502    0  0.11321074387E+04  0.35418347581E+03 -0.85902521009E+03  0.14645946535E+04  0.50400001928E-02 0.  1.
       -1    1    3    3    0  502 -0.11321074387E+04 -0.35418347581E+03  0.48558665624E+03  0.12817595672E+04  0.50400001928E-02 0. -1.
</event>
<event>
 5   0  0.6804685E-06  0.2700040E+04  0.7818609E-02  0.8334992E-01
        1   -1    0    0  501    0  0.00000000000E+00  0.00000000000E+00  0.92268941444E+03  0.92268941445E+03  0.50400001928E-02 0. -1.
       -1   -1    0    0    0  501  0.00000000000E+00  0.00000000000E+00 -0.19752632515E+04  0.19752632516E+04  0.50400001928E-02 0.  1.
    10030    2    1    2    0    0  0.00000000000E+00  0.00000000000E+00 -0.10525738371E+04  0.28979526660E+04  0.27000403649E+04 0.  0.
        2    1    3    3  502    0  0.56670178043E+03  0.82394054303E+03  0.44712292524E+03  0.10954213056E+04  0.25500000920E-02 0. -1.
       -2    1    3    3    0  502 -0.56670178043E+03 -0.82394054303E+03 -0.14996967624E+04  0.18025313605E+04  0.25500000920E-02 0.  1.
</event>
<event>
 5   0  0.7754912E-06  0.3032860E+04  0.7818609E-02  0.8234409E-01
        1   -1    0    0  501    0  0.00000000000E+00  0.00000000000E+00  0.10981353006E+04  0.10981353006E+04  0.50400001928E-02 0.  1.
       -1   -1    0    0    0  501  0.00000000000E+00  0.00000000000E+00 -0.20940594021E+04  0.20940594021E+04  0.50400001928E-02 0. -1.
    10030    2    1    2    0    0  0.00000000000E+00  0.00000000000E+00 -0.99592410150E+03  0.31921947027E+04  0.30328603997E+04 0.  0.
        4    1    3    3  502    0  0.54603057903E+03  0.78066071557E+03  0.74384236234E+03  0.12086701862E+04  0.12699999809E+01 0.  1.
       -4    1    3    3    0  502 -0.54603057903E+03 -0.78066071557E+03 -0.17397664638E+04  0.19835245165E+04  0.12699999809E+01 0. -1.
</event>
<event>
 5   0  0.1931119E-05  0.2612516E+04  0.7818609E-02  0.8363962E-01
        2   -1    0    0  501    0  0.00000000000E+00  0.00000000000E+00  0.25797895211E+04  0.25797895211E+04  0.25500000920E-02 0.  1.
       -2   -1    0    0    0  501  0.00000000000E+00  0.00000000000E+00 -0.66141452018E+03  0.66141452019E+03  0.25500000920E-02 0. -1.
    10030    2    1    2    0    0  0.00000000000E+00  0.00000000000E+00  0.19183750009E+04  0.32412040413E+04  0.26125162187E+04 0.  0.
        3    1    3    3  502    0  0.12115483080E+04 -0.86038817819E+02  0.15555469748E+04  0.19735699587E+04  0.10100000352E+00 0.  1.
       -3    1    3    3    0  502 -0.12115483080E+04  0.86038817819E+02  0.36282802608E+03  0.12676340826E+04  0.10100000352E+00 0. -1.
</event>
<event>
 5   0  0.1826851E-05  0.2553097E+04  0.7818609E-02  0.8384310E-01
       -2   -1    0    0    0  501  0.00000000000E+00  0.00000000000E+00  0.10307002689E+04  0.10307002689E+04  0.25500000920E-02 0.  1.
        2   -1    0    0  501    0  0.00000000000E+00  0.00000000000E+00 -0.15810372935E+04  0.15810372935E+04  0.25500000920E-02 0. -1.
    10030    2    1    2    0    0  0.00000000000E+00  0.00000000000E+00 -0.55033702462E+03  0.26117375623E+04  0.25530966010E+04 0.  0.
        5    1    3    3  502    0  0.11649369487E+04  0.39720579119E+03  0.71288662453E+02  0.12328644283E+04  0.46999998093E+01 0.  1.
       -5    1    3    3    0  502 -0.11649369487E+04 -0.39720579119E+03 -0.62162568707E+03  0.13788731341E+04  0.46999998093E+01 0. -1.
</event>
<event>
 5   0  0.1826851E-05  0.2809594E+04  0.7818609E-02  0.8300296E-01
        2   -1    0    0  501    0  0.00000000000E+00  0.00000000000E+00  0.16977730898E+04  0.16977730898E+04  0.25500000920E-02 0.  1.
       -2   -1    0    0    0  501  0.00000000000E+00  0.00000000000E+00 -0.11623780459E+04  0.11623780459E+04  0.25500000920E-02 0. -1.
    10030    2    1    2    0    0  0.00000000000E+00  0.00000000000E+00  0.53539504384E+03  0.28601511357E+04  0.28095936834E+04 0.  0.
        5    1    3    3  502    0  0.76770963098E+03 -0.11291844288E+04 -0.68389536910E+02  0.13671630373E+04  0.46999998093E+01 0. -1.
       -5    1    3    3    0  502 -0.76770963098E+03  0.11291844288E+04  0.60378458075E+03  0.14929880983E+04  0.46999998093E+01 0.  1.
</event>
<event>
 5   0  0.1878160E-05  0.2702742E+04  0.7818609E-02  0.8334116E-01
        2   -1    0    0  501    0  0.00000000000E+00  0.00000000000E+00  0.16166506918E+04  0.16166506918E+04  0.25500000920E-02 0.  1.
       -2   -1    0    0    0  501  0.00000000000E+00  0.00000000000E+00 -0.11296217347E+04  0.11296217347E+04  0.25500000920E-02 0. -1.
    10030    2    1    2    0    0  0.00000000000E+00  0.00000000000E+00  0.48702895708E+03  0.27462724266E+04  0.27027421327E+04 0.  0.
        1    1    3    3  502    0  0.38235364775E+03  0.11542015508E+04 -0.35575397487E+03  0.12668608536E+04  0.50400001928E-02 0. -1.
       -1    1    3    3    0  502 -0.38235364775E+03 -0.11542015508E+04  0.84278293196E+03  0.14794115730E+04  0.50400001928E-02 0.  1.
</event>
<event>
 5   0  0.7754912E-06  0.2675396E+04  0.7818609E-02  0.8343032E-01
       -1   -1    0    0    0  501  0.00000000000E+00  0.00000000000E+00  0.79326269781E+03  0.79326269782E+03  0.50400001928E-02 0. -1.
        1   -1    0    0  501    0  0.00000000000E+00  0.00000000000E+00 -0.22557931137E+04  0.22557931138E+04  0.50400001928E-02 0.  1.
    10030    2    1    2    0    0  0.00000000000E+00  0.00000000000E+00 -0.14625304159E+04  0.30490558116E+04  0.26753964425E+04 0.  0.
        4    1    3    3  502    0  0.36376635116E+03  0.60937561751E+02  0.73416660054E+03  0.82160912539E+03  0.12699999809E+01 0. -1.
       -4    1    3    3    0  502 -0.36376635116E+03 -0.60937561751E+02 -0.21966970165E+04  0.22274466862E+04  0.12699999809E+01 0.  1.
</event>
<event>
 5   0  0.6175875E-06  0.2704444E+04  0.7818609E-02  0.8333565E-01
        3   -1    0    0  501    0  0.00000000000E+00  0.00000000000E+00  0.12193452198E+04  0.12193452239E+04  0.10100000352E+00 0. -1.
       -3   -1    0    0    0  501  0.00000000000E+00  0.00000000000E+00 -0.14995785996E+04  0.14995786030E+04  0.10100000352E+00 0.  1.
    10030    2    1    2    0    0  0.00000000000E+00  0.00000000000E+00 -0.28023337980E+03  0.27189238269E+04  0.27044437560E+04 0.  0.
        3    1    3    3  502    0 -0.96387477353E+03 -0.66830706218E+03 -0.81663496316E+03  0.14291891343E+04  0.10100000352E+00 0.  1.
       -3    1    3    3    0  502  0.96387477353E+03  0.66830706218E+03  0.53640158336E+03  0.12897346926E+04  0.10100000352E+00 0. -1.
</event>
<event>
 5   0  0.1826851E-05  0.2675511E+04  0.7818609E-02  0.8342995E-01
       -2   -1    0    0    0  501  0.00000000000E+00  0.00000000000E+00  0.10915319778E+04  0.10915319778E+04  0.25500000920E-02 0. -1.
        2   -1    0    0  501    0  0.00000000000E+00  0.00000000000E+00 -0.16395215154E+04  0.16395215154E+04  0.25500000920E-02 0.  1.
    10030    2    1    2    0    0  0.00000000000E+00  0.00000000000E+00 -0.54798953763E+03  0.27310534931E+04  0.26755112874E+04 0.  0.
        5    1    3    3  502    0 -0.12130204950E+04 -0.13262881847E+03  0.28561881757E+03  0.12532395317E+04  0.46999998093E+01 0. -1.
       -5    1    3    3    0  502  0.12130204950E+04  0.13262881847E+03 -0.83360835520E+03  0.14778139615E+04  0.46999998093E+01 0.  1.
</event>
<event>
 5   0  0.1788003E-05  0.2708992E+04  0.7818609E-02  0.8332093E-01
        2   -1    0    0  501    0  0.00000000000E+00  0.00000000000E+00  0.17725254000E+04  0.17725254000E+04  0.25500000920E-02 0. -1.
       -2   -1    0    0    0  501  0.00000000000E+00  0.00000000000E+00 -0.10350537757E+04  0.10350537757E+04  0.25500000920E-02 0.  1.
    10030    2    1    2    0    0  0.00000000000E+00  0.00000000000E+00  0.73747162433E+03  0.28075791757E+04  0.27089917740E+04 0.  0.
        2    1    3    3  502    0 -0.10068461209E+04  0.67995281177E+03 -0.25187577971E+03  0.12407724795E+04  0.25500000920E-02 0.  1.
       -2    1    3    3    0  502  0.10068461209E+04 -0.67995281177E+03  0.98934740404E+03  0.15668066962E+04  0.25500000920E-02 0. -1.
</event>
<event>
 5   0  0.1931119E-05  0.2666686E+04  0.7818609E-02  0.8345896E-01
        2   -1    0    0  501    0  0.00000000000E+00  0.00000000000E+00  0.18262663819E+04  0.18262663819E+04  0.25500000920E-02 0. -1.
       -2   -1    0    0    0  501  0.00000000000E+00  0.00000000000E+00 -0.97346376909E+03  0.97346376909E+03  0.25500000920E-02 0.  1.
    10030    2    1    2    0    0  0.00000000000E+00  0.00000000000E+00  0.85280261278E+03  0.27997301510E+04  0.26666864499E+04 0.  0.
        3    1    3    3  502    0  0.38923299391E+02  0.12789832724E+04  0.81992268817E+03  0.15197323643E+04  0.10100000352E+00 0. -1.
       -3    1    3    3    0  502 -0.38923299391E+02 -0.12789832724E+04  0.32879924609E+02  0.12799977867E+04  0.10100000352E+00 0.  1.
</event>
<event>
 5   0  0.7348964E-06  0.1944330E+04  0.7818609E-02  0.8633100E-01
        1   -1    0    0  501    0  0.00000000000E+00  0.00000000000E+00  0.15592443006E+04  0.15592443006E+04  0.50400001928E-02 0. -1.
       -1   -1    0    0    0  501  0.00000000000E+00  0.00000000000E+00 -0.60612999023E+03  0.60612999025E+03  0.50400001928E-02 0.  1.
    10030    2    1    2    0    0  0.00000000000E+00  0.00000000000E+00  0.95311431040E+03  0.21653742909E+04  0.19443299440E+04 0.  0.
        1    1    3    3  502    0 -0.34901839324E+03  0.68332776627E+03 -0.18826252291E+03  0.79005914496E+03  0.50400001928E-02 0.  1.
       -1    1    3    3    0  502  0.34901839324E+03 -0.68332776627E+03  0.11413768333E+04  0.13753151459E+04  0.50400001928E-02 0. -1.
</event>
<event>
 5   0  0.1931119E-05  0.2732397E+04  0.7818609E-02  0.8324569E-01
        2   -1    0    0  501    0  0.00000000000E+00  0.00000000000E+00  0.12378643259E+04  0.12378643259E+04  0.25500000920E-02 0. -1.
       -2   -1    0    0    0  501  0.00000000000E+00  0.00000000000E+00 -0.15078380638E+04  0.15078380638E+04  0.25500000920E-02 0.  1.
    10030    2    1    2    0    0  0.00000000000E+00  0.00000000000E+00 -0.26997373788E+03  0.27457023897E+04  0.27323974443E+04 0.  0.
        3    1    3    3  502    0  0.77693620480E+03 -0.10388797243E+04 -0.56555665649E+03  0.14151873691E+04  0.10100000352E+00 0. -1.
       -3    1    3    3    0  502 -0.77693620480E+03  0.10388797243E+04  0.29558291861E+03  0.13305150205E+04  0.10100000352E+00 0.  1.
</event>
<event>
 5   0  0.1826851E-05  0.2728873E+04  0.7818609E-02  0.8325697E-01
       -2   -1    0    0    0  501  0.00000000000E+00  0.00000000000E+00  0.12353294586E+04  0.12353294586E+04  0.25500000920E-02 0. -1.
        2   -1    0    0  501    0  0.00000000000E+00  0.00000000000E+00 -0.15070372010E+04  0.15070372010E+04  0.25500000920E-02 0.  1.
    10030    2    1    2    0    0  0.00000000000E+00  0.00000000000E+00 -0.27170774239E+03  0.27423666597E+04  0.27288733570E+04 0.  0.
        5    1    3    3  502    0  0.30258053401E+01 -0.13319905496E+04  0.16134035696E+03  0.13417379701E+04  0.46999998093E+01 0. -1.
       -5    1    3    3    0  502 -0.30258053401E+01  0.13319905496E+04 -0.43304809935E+03  0.14006286895E+04  0.46999998093E+01 0.  1.
</event>
<event>
 5   0  0.7348964E-06  0.2553536E+04  0.7818609E-02  0.8384157E-01
        1   -1    0    0  501    0  0.00000000000E+00  0.00000000000E+00  0.16935970194E+04  0.16935970194E+04  0.50400001928E-02 0. -1.
       -1   -1    0    0    0  501  0.00000000000E+00  0.00000000000E+00 -0.96252949863E+03  0.96252949864E+03  0.50400001928E-02 0.  1.
    10030    2    1    2    0    0  0.00000000000E+00  0.00000000000E+00  0.73106752080E+03  0.26561265181E+04  0.25535364419E+04 0.  0.
        1    1    3    3  502    0  0.10785509573E+04 -0.40222569884E+03  0.94006433637E+03  0.14861960290E+04  0.50400001928E-02 0.  1.
       -1    1    3    3    0  502 -0.10785509573E+04  0.40222569884E+03 -0.20899681558E+03  0.11699304890E+04  0.50400001928E-02 0. -1.
</event>
<event>
 5   0  0.6804685E-06  0.2685987E+04  0.7818609E-02  0.8339566E-01
        1   -1    0    0  501    0  0.00000000000E+00  0.00000000000E+00  0.13111114496E+04  0.13111114496E+04  0.50400001928E-02 0. -1.
       -1   -1    0    0    0  501  0.00000000000E+00  0.00000000000E+00 -0.13756511050E+04  0.13756511051E+04  0.50400001928E-02 0.  1.
    10030    2    1    2    0    0  0.00000000000E+00  0.00000000000E+00 -0.64539655475E+02  0.26867625546E+04  0.26859872780E+04 0.  0.
        2    1    3    3  502    0 -0.89912987935E+03  0.64012923084E+03  0.73308626344E+03  0.13249963931E+04  0.25500000920E-02 0. -1.
       -2    1    3    3    0  502  0.89912987935E+03 -0.64012923084E+03 -0.79762591892E+03  0.13617661615E+04  0.25500000920E-02 0.  1.
</event>
<event>
 5   0  0.1881699E-05  0.2558493E+04  0.7818609E-02  0.8382438E-01
       -2   -1    0    0    0  501  0.00000000000E+00  0.00000000000E+00  0.90740007038E+03  0.90740007039E+03  0.25500000920E-02 0. -1.
        2   -1    0    0  501    0  0.00000000000E+00  0.00000000000E+00 -0.18034728146E+04  0.18034728146E+04  0.25500000920E-02 0.  1.
    10030    2    1    2    0    0  0.00000000000E+00  0.00000000000E+00 -0.89607274417E+03  0.27108728849E+04  0.25584928054E+04 0.  0.
        4    1    3    3  502    0 -0.47173518806E+02 -0.12756777151E+04 -0.53599104246E+03  0.13845096547E+04  0.12699999809E+01 0. -1.
       -4    1    3    3    0  502  0.47173518806E+02  0.12756777151E+04 -0.36008170171E+03  0.13263632302E+04  0.12699999809E+01 0.  1.
</event>
<event>
 5   0  0.1881699E-05  0.2693697E+04  0.7818609E-02  0.8337053E-01
        2   -1    0    0  501    0  0.00000000000E+00  0.00000000000E+00  0.12005769595E+04  0.12005769595E+04  0.25500000920E-02 0. -1.
       -2   -1    0    0    0  501  0.00000000000E+00  0.00000000000E+00 -0.15109414222E+04  0.15109414222E+04  0.25500000920E-02 0.  1.
    10030    2    1    2    0    0  0.00000000000E+00  0.00000000000E+00 -0.31036446277E+03  0.27115183817E+04  0.26936974281E+04 0.  0.
        4    1    3    3  502    0 -0.11530331822E+04  0.12444087519E+03  0.53420541118E+03  0.12768508468E+04  0.12699999809E+01 0. -1.
       -4    1    3    3    0  502  0.11530331822E+04 -0.12444087519E+03 -0.84456987395E+03  0.14346675349E+04  0.12699999809E+01 0.  1.
</event>
<event>
 5   0  0.1788003E-05  0.2688014E+04  0.7818609E-02  0.8338904E-01
       -2   -1    0    0    0  501  0.00000000000E+00  0.00000000000E+00  0.12271107295E+04  0.12271107295E+04  0.25500000920E-02 0. -1.
        2   -1    0    0  501    0  0.00000000000E+00  0.00000000000E+00 -0.14720392777E+04  0.14720392777E+04  0.25500000920E-02 0.  1.
    10030    2    1    2    0    0  0.00000000000E+00  0.00000000000E+00 -0.24492854822E+03  0.26991500072E+04  0.26880142797E+04 0.  0.
        2    1    3    3  502    0 -0.10704152850E+04  0.73433361010E+03 -0.47221809820E+03  0.13813126603E+04  0.25500000920E-02 0.  1.
       -2    1    3    3    0  502  0.10704152850E+04 -0.73433361010E+03  0.22728954997E+03  0.13178373469E+04  0.25500000920E-02 0. -1.
</event>
<event>
 5   0  0.1878160E-05  0.2717254E+04  0.7818609E-02  0.8329428E-01
        2   -1    0    0  501    0  0.00000000000E+00  0.00000000000E+00  0.12412303477E+04  0.12412303477E+04  0.25500000920E-02 0. -1.
       -2   -1    0    0    0  501  0.00000000000E+00  0.00000000000E+00 -0.14871273951E+04  0.14871273951E+04  0.25500000920E-02 0.  1.
    10030    2    1    2    0    0  0.00000000000E+00  0.00000000000E+00 -0.24589704731E+03  0.27283577428E+04  0.27172542418E+04 0.  0.
        1    1    3    3  502    0  0.10968785671E+03 -0.11482362173E+04 -0.84378865302E+03  0.14291455935E+04  0.50400001928E-02 0.  1.
       -1    1    3    3    0  502 -0.10968785671E+03  0.11482362173E+04  0.59789160571E+03  0.12992121493E+04  0.50400001928E-02 0. -1.
</event>
<event>
 5   0  0.1881699E-05  0.2685398E+04  0.7818609E-02  0.8339759E-01
        2   -1    0    0  501    0  0.00000000000E+00  0.00000000000E+00  0.11600972286E+04  0.11600972286E+04  0.25500000920E-02 0. -1.
       -2   -1    0    0    0  501  0.00000000000E+00  0.00000000000E+00 -0.15540422599E+04  0.15540422599E+04  0.25500000920E-02 0.  1.
    10030    2    1    2    0    0  0.00000000000E+00  0.00000000000E+00 -0.39394503137E+03  0.27141394885E+04  0.26853976382E+04 0.  0.
        4    1    3    3  502    0 -0.10990027989E+04 -0.73560685523E+03 -0.43165137541E+03  0.13911323159E+04  0.12699999809E+01 0.  1.
       -4    1    3    3    0  502  0.10990027989E+04  0.73560685523E+03  0.37706344042E+02  0.13230071726E+04  0.12699999809E+01 0. -1.
</event>
<event>
 5   0  0.1826851E-05  0.2738573E+04  0.7818609E-02  0.8322597E-01
        2   -1    0    0  501    0  0.00000000000E+00  0.00000000000E+00  0.26898257467E+04  0.26898257467E+04  0.25500000920E-02 0. -1.
       -2   -1    0    0    0  501  0.00000000000E+00  0.00000000000E+00 -0.69705085098E+03  0.69705085099E+03  0.25500000920E-02 0.  1.
    10030    2    1    2    0    0  0.00000000000E+00  0.00000000000E+00  0.19927748957E+04  0.33868765977E+04  0.27385728588E+04 0.  0.
        5    1    3    3  502    0  0.95197432219E+02  0.27031329165E+03  0.26523097479E+04  0.26677520341E+04  0.46999998093E+01 0. -1.
       -5    1    3    3    0  502 -0.95197432219E+02 -0.27031329165E+03 -0.65953485216E+03  0.71912456359E+03  0.46999998093E+01 0.  1.
</event>
<event>
 5   0  0.7351590E-06  0.2695506E+04  0.7818609E-02  0.8336465E-01
       -1   -1    0    0    0  501  0.00000000000E+00  0.00000000000E+00  0.19627986746E+04  0.19627986746E+04  0.50400001928E-02 0.  1.
        1   -1    0    0  501    0  0.00000000000E+00  0.00000000000E+00 -0.92543287806E+03  0.92543287808E+03  0.50400001928E-02 0. -1.
    10030    2    1    2    0    0  0.00000000000E+00  0.00000000000E+00  0.10373657965E+04  0.28882315527E+04  0.26955062059E+04 0.  0.
        3    1    3    3  502    0 -0.12340721667E+04 -0.49253403186E+03  0.76045854123E+03  0.15309543064E+04  0.10100000352E+00 0.  1.
       -3    1    3    3    0  502  0.12340721667E+04  0.49253403186E+03  0.27690725530E+03  0.13572772463E+04  0.10100000352E+00 0. -1.
</event>
<event>
 5   0  0.7351590E-06  0.2664141E+04  0.7818609E-02  0.8346735E-01
       -1   -1    0    0    0  501  0.00000000000E+00  0.00000000000E+00  0.13927606942E+04  0.13927606942E+04  0.50400001928E-02 0.  1.
        1   -1    0    0  501    0  0.00000000000E+00  0.00000000000E+00 -0.12740251602E+04  0.12740251602E+04  0.50400001928E-02 0. -1.
    10030    2    1    2    0    0  0.00000000000E+00  0.00000000000E+00  0.11873553397E+03  0.26667858545E+04  0.26641412625E+04 0.  0.
        3    1    3    3  502    0 -0.55012478468E+03 -0.89146895219E+03 -0.76428436329E+03  0.12967207755E+04  0.10100000352E+00 0. -1.
       -3    1    3    3    0  502  0.55012478468E+03  0.89146895219E+03  0.88301989726E+03  0.13700650790E+04  0.10100000352E+00 0.  1.
</event>
<event>
 5   0  0.7754912E-06  0.2804680E+04  0.7818609E-02  0.8301817E-01
       -1   -1    0    0    0  501  0.00000000000E+00  0.00000000000E+00  0.16671434341E+04  0.16671434341E+04  0.50400001928E-02 0. -1.
        1   -1    0    0  501    0  0.00000000000E+00  0.00000000000E+00 -0.11795969670E+04  0.11795969670E+04  0.50400001928E-02 0.  1.
    10030    2    1    2    0    0  0.00000000000E+00  0.00000000000E+00  0.48754646709E+03  0.28467404010E+04  0.28046799021E+04 0.  0.
        4    1    3    3  502    0 -0.11208638050E+04 -0.83226319349E+03  0.10927936352E+03  0.14003361328E+04  0.12699999809E+01 0. -1.
       -4    1    3    3    0  502  0.11208638050E+04  0.83226319349E+03  0.37826710357E+03  0.14464042682E+04  0.12699999809E+01 0.  1.
</event>
<event>
 5   0  0.7348964E-06  0.2695443E+04  0.7818609E-02  0.8336485E-01
       -1   -1    0    0    0  501  0.00000000000E+00  0.00000000000E+00  0.13595794618E+04  0.13595794618E+04  0.50400001928E-02 0.  1.
        1   -1    0    0  501    0  0.00000000000E+00  0.00000000000E+00 -0.13359667220E+04  0.13359667220E+04  0.50400001928E-02 0. -1.
    10030    2    1    2    0    0  0.00000000000E+00  0.00000000000E+00  0.23612739735E+02  0.26955461838E+04  0.26954427591E+04 0.  0.
        1    1    3    3  502    0  0.76270375041E+03  0.15059077520E+03  0.11127383988E+04  0.13574171565E+04  0.50400001928E-02 0.  1.
       -1    1    3    3    0  502 -0.76270375041E+03 -0.15059077520E+03 -0.10891256591E+04  0.13381290273E+04  0.50400001928E-02 0. -1.
</event>
<event>
 5   0  0.1878160E-05  0.2711332E+04  0.7818609E-02  0.8331338E-01
       -2   -1    0    0    0  501  0.00000000000E+00  0.00000000000E+00  0.91377392737E+03  0.91377392737E+03  0.25500000920E-02 0. -1.
        2   -1    0    0  501    0  0.00000000000E+00  0.00000000000E+00 -0.20112522171E+04  0.20112522171E+04  0.25500000920E-02 0.  1.
    10030    2    1    2    0    0  0.00000000000E+00  0.00000000000E+00 -0.10974782898E+04  0.29250261445E+04  0.27113316561E+04 0.  0.
        1    1    3    3  502    0  0.57871180590E+02  0.26505876680E+03 -0.19816660791E+04  0.20001514124E+04  0.50400001928E-02 0.  1.
       -1    1    3    3    0  502 -0.57871180590E+02 -0.26505876680E+03  0.88418778930E+03  0.92487473215E+03  0.50400001928E-02 0. -1.
</event>
<event>
 5   0  0.1881699E-05  0.2677693E+04  0.7818609E-02  0.8342279E-01
        2   -1    0    0  501    0  0.00000000000E+00  0.00000000000E+00  0.13246590912E+04  0.13246590912E+04  0.25500000920E-02 0. -1.
       -2   -1    0    0    0  501  0.00000000000E+00  0.00000000000E+00 -0.13531860236E+04  0.13531860236E+04  0.25500000920E-02 0.  1.
    10030    2    1    2    0    0  0.00000000000E+00  0.00000000000E+00 -0.28526932320E+02  0.26778451148E+04  0.26776931626E+04 0.  0.
        4    1    3    3  502    0  0.56974227360E+03  0.21645651284E+03 -0.12064086593E+04  0.13516224126E+04  0.12699999809E+01 0.  1.
       -4    1    3    3    0  502 -0.56974227360E+03 -0.21645651284E+03  0.11778817269E+04  0.13262227022E+04  0.12699999809E+01 0. -1.
</event>
<event>
 5   0  0.1788003E-05  0.2784331E+04  0.7818609E-02  0.8308150E-01
       -2   -1    0    0    0  501  0.00000000000E+00  0.00000000000E+00  0.13746234642E+04  0.13746234642E+04  0.25500000920E-02 0.  1.
        2   -1    0    0  501    0  0.00000000000E+00  0.00000000000E+00 -0.14099309321E+04  0.14099309321E+04  0.25500000920E-02 0. -1.
    10030    2    1    2    0    0  0.00000000000E+00  0.00000000000E+00 -0.35307467898E+02  0.27845543963E+04  0.27843305422E+04 0.  0.
        2    1    3    3  502    0  0.51996728219E+03 -0.10925190372E+04 -0.70630209624E+03  0.14010090907E+04  0.25500000920E-02 0. -1.
       -2    1    3    3    0  502 -0.51996728219E+03  0.10925190372E+04  0.67099462834E+03  0.13835453055E+04  0.25500000920E-02 0.  1.
</event>
<event>
 5   0  0.6175875E-06  0.2601912E+04  0.7818609E-02  0.8367552E-01
       -3   -1    0    0    0  501  0.00000000000E+00  0.00000000000E+00  0.16833066110E+04  0.16833066140E+04  0.10100000352E+00 0.  1.
        3   -1    0    0  501    0  0.00000000000E+00  0.00000000000E+00 -0.10054532855E+04  0.10054532906E+04  0.10100000352E+00 0. -1.
    10030    2    1    2    0    0  0.00000000000E+00  0.00000000000E+00  0.67785332553E+03  0.26887599046E+04  0.26019117383E+04 0.  0.
        4    1    3    3  502    0  0.11983068759E+04  0.49721674523E+03  0.23916039503E+03  0.13192282471E+04  0.12699999809E+01 0. -1.
       -4    1    3    3    0  502 -0.11983068759E+04 -0.49721674523E+03  0.43869293049E+03  0.13695316575E+04  0.12699999809E+01 0.  1.
</event>
<event>
 5   0  0.7351590E-06  0.2629803E+04  0.7818609E-02  0.8358148E-01
        1   -1    0    0  501    0  0.00000000000E+00  0.00000000000E+00  0.13580580161E+04  0.13580580161E+04  0.50400001928E-02 0. -1.
       -1   -1    0    0    0  501  0.00000000000E+00  0.00000000000E+00 -0.12731167133E+04  0.12731167133E+04  0.50400001928E-02 0.  1.
    10030    2    1    2    0    0  0.00000000000E+00  0.00000000000E+00  0.84941302869E+02  0.26311747294E+04  0.26298033067E+04 0.  0.
        3    1    3    3  502    0 -0.92579068122E+03  0.85282118352E+03 -0.33795650205E+03  0.13033061666E+04  0.10100000352E+00 0.  1.
       -3    1    3    3    0  502  0.92579068122E+03 -0.85282118352E+03  0.42289780492E+03  0.13278685628E+04  0.10100000352E+00 0. -1.
</event>
<event>
 5   0  0.1878160E-05  0.2723345E+04  0.7818609E-02  0.8327470E-01
        2   -1    0    0  501    0  0.00000000000E+00  0.00000000000E+00  0.20355900767E+04  0.20355900767E+04  0.25500000920E-02 0. -1.
       -2   -1    0    0    0  501  0.00000000000E+00  0.00000000000E+00 -0.91086698986E+03  0.91086698987E+03  0.25500000920E-02 0.  1.
    10030    2    1    2    0    0  0.00000000000E+00  0.00000000000E+00  0.11247230868E+04  0.29464570666E+04  0.27233448594E+04 0.  0.
        1    1    3    3  502    0 -0.26676916386E+03  0.80016278654E+03 -0.59419918958E+03  0.10317455833E+04  0.50400001928E-02 0.  1.
       -1    1    3    3    0  502  0.26676916386E+03 -0.80016278654E+03  0.17189222764E+04  0.19147114832E+04  0.50400001928E-02 0. -1.
</event>
<event>
 5   0  0.7754912E-06  0.2423022E+04  0.7818609E-02  0.8430934E-01
       -1   -1    0    0    0  501  0.00000000000E+00  0.00000000000E+00  0.10802888772E+04  0.10802888772E+04  0.50400001928E-02 0. -1.
        1   -1    0    0  501    0  0.00000000000E+00  0.00000000000E+00 -0.13586728688E+04  0.13586728688E+04  0.50400001928E-02 0.  1.
    10030    2    1    2    0    0  0.00000000000E+00  0.00000000000E+00 -0.27838399158E+03  0.24389617460E+04  0.24230222351E+04 0.  0.
        4    1    3    3  502    0 -0.84490329837E+03 -0.41043858205E+02  0.73381463568E+03  0.11198355747E+04  0.12699999809E+01 0. -1.
       -4    1    3    3    0  502  0.84490329837E+03  0.41043858205E+02 -0.10121986273E+04  0.13191261713E+04  0.12699999809E+01 0.  1.
</event>
<event>
 5   0  0.7351590E-06  0.2504331E+04  0.7818609E-02  0.8401444E-01
        1   -1    0    0  501    0  0.00000000000E+00  0.00000000000E+00  0.21671589257E+04  0.21671589257E+04  0.50400001928E-02 0. -1.
       -1   -1    0    0    0  501  0.00000000000E+00  0.00000000000E+00 -0.72349007909E+03  0.72349007911E+03  0.50400001928E-02 0.  1.
    10030    2    1    2    0    0  0.00000000000E+00  0.00000000000E+00  0.14436688466E+04  0.28906490048E+04  0.25043306352E+04 0.  0.
        3    1    3    3  502    0  0.11223089214E+04 -0.16837519569E+03  0.11106778781E+03  0.11402910090E+04  0.10100000352E+00 0.  1.
       -3    1    3    3    0  502 -0.11223089214E+04  0.16837519569E+03  0.13326010588E+04  0.17503579958E+04  0.10100000352E+00 0. -1.
</event>
<event>
 5   0  0.7348964E-06  0.2185144E+04  0.7818609E-02  0.8524637E-01
       -1   -1    0    0    0  501  0.00000000000E+00  0.00000000000E+00  0.10200707580E+04  0.10200707580E+04  0.50400001928E-02 0. -1.
        1   -1    0    0  501    0  0.00000000000E+00  0.00000000000E+00 -0.11702266840E+04  0.11702266840E+04  0.50400001928E-02 0.  1.
    10030    2    1    2    0    0  0.00000000000E+00  0.00000000000E+00 -0.15015592601E+03  0.21902974421E+04  0.21851444077E+04 0.  0.
        1    1    3    3  502    0  0.57568865965E+03  0.90537184097E+03 -0.28195852390E+03  0.11093314259E+04  0.50400001928E-02 0. -1.
       -1    1    3    3    0  502 -0.57568865965E+03 -0.90537184097E+03  0.13180259789E+03  0.10809660162E+04  0.50400001928E-02 0.  1.
</event>
<event>
 5   0  0.6175875E-06  0.2729256E+04  0.7818609E-02  0.8325574E-01
       -3   -1    0    0    0  501  0.00000000000E+00  0.00000000000E+00  0.10059880749E+04  0.10059880799E+04  0.10100000352E+00 0.  1.
        3   -1    0    0  501    0  0.00000000000E+00  0.00000000000E+00 -0.18511253129E+04  0.18511253156E+04  0.10100000352E+00 0. -1.
    10030    2    1    2    0    0  0.00000000000E+00  0.00000000000E+00 -0.84513723803E+03  0.28571133956E+04  0.27292563097E+04 0.  0.
        2    1    3    3  502    0  0.59167018839E+03 -0.81290453233E+03 -0.13884643318E+04  0.17142696961E+04  0.25500000920E-02 0. -1.
       -2    1    3    3    0  502 -0.59167018839E+03  0.81290453233E+03  0.54332709375E+03  0.11428436994E+04  0.25500000920E-02 0.  1.
</event>
<event>
 5   0  0.7351590E-06  0.2700629E+04  0.7818609E-02  0.8334801E-01
        1   -1    0    0  501    0  0.00000000000E+00  0.00000000000E+00  0.15173587181E+04  0.15173587181E+04  0.50400001928E-02 0.  1.
       -1   -1    0    0    0  501  0.00000000000E+00  0.00000000000E+00 -0.12016595677E+04  0.12016595677E+04  0.50400001928E-02 0. -1.
    10030    2    1    2    0    0  0.00000000000E+00  0.00000000000E+00  0.31569915038E+03  0.27190182857E+04  0.27006285351E+04 0.  0.
        3    1    3    3  502    0 -0.30855474826E+03 -0.47036086535E+03  0.13937684327E+04  0.15030089256E+04  0.10100000352E+00 0.  1.
       -3    1    3    3    0  502  0.30855474826E+03  0.47036086535E+03 -0.10780692823E+04  0.12160093601E+04  0.10100000352E+00 0. -1.
</event>
<event>
 5   0  0.1881699E-05  0.2620517E+04  0.7818609E-02  0.8361265E-01
       -2   -1    0    0    0  501  0.00000000000E+00  0.00000000000E+00  0.82213209505E+03  0.82213209505E+03  0.25500000920E-02 0.  1.
        2   -1    0    0  501    0  0.00000000000E+00  0.00000000000E+00 -0.20882014704E+04  0.20882014704E+04  0.25500000920E-02 0. -1.
    10030    2    1    2    0    0  0.00000000000E+00  0.00000000000E+00 -0.12660693753E+04  0.29103335654E+04  0.26205170862E+04 0.  0.
        4    1    3    3  502    0  0.11358328690E+04  0.18929991572E+03 -0.13273343930E+04  0.17572048737E+04  0.12699999809E+01 0. -1.
       -4    1    3    3    0  502 -0.11358328690E+04 -0.18929991572E+03  0.61265017662E+02  0.11531286917E+04  0.12699999809E+01 0.  1.
</event>
<event>
 5   0  0.1878160E-05  0.2529235E+04  0.7818609E-02  0.8392644E-01
        2   -1    0    0  501    0  0.00000000000E+00  0.00000000000E+00  0.19352640824E+04  0.19352640824E+04  0.25500000920E-02 0.  1.
       -2   -1    0    0    0  501  0.00000000000E+00  0.00000000000E+00 -0.82637670565E+03  0.82637670565E+03  0.25500000920E-02 0. -1.
    10030    2    1    2    0    0  0.00000000000E+00  0.00000000000E+00  0.11088873768E+04  0.27616407881E+04  0.25292347910E+04 0.  0.
        1    1    3    3  502    0 -0.54914687238E+03  0.10850734250E+04  0.17571355154E+03  0.12287480935E+04  0.50400001928E-02 0. -1.
       -1    1    3    3    0  502  0.54914687238E+03 -0.10850734250E+04  0.93317382523E+03  0.15328926946E+04  0.50400001928E-02 0.  1.
</event>
<event>
 5   0  0.7754912E-06  0.2678220E+04  0.7818609E-02  0.8342106E-01
        1   -1    0    0  501    0  0.00000000000E+00  0.00000000000E+00  0.23924203212E+04  0.23924203212E+04  0.50400001928E-02 0.  1.
       -1   -1    0    0    0  501  0.00000000000E+00  0.00000000000E+00 -0.74954050540E+03  0.74954050541E+03  0.50400001928E-02 0. -1.
    10030    2    1    2    0    0  0.00000000000E+00  0.00000000000E+00  0.16428798158E+04  0.31419608266E+04  0.26782202573E+04 0.  0.
        4    1    3    3  502    0 -0.34474827869E+03  0.92018935316E+03  0.18886957028E+04  0.21290309748E+04  0.12699999809E+01 0.  1.
       -4    1    3    3    0  502  0.34474827869E+03 -0.92018935316E+03 -0.24581588700E+03  0.10129298517E+04  0.12699999809E+01 0. -1.
</event>
<event>
 5   0  0.1826851E-05  0.2466914E+04  0.7818609E-02  0.8414868E-01
        2   -1    0    0  501    0  0.00000000000E+00  0.00000000000E+00  0.20743111710E+04  0.20743111710E+04  0.25500000920E-02 0. -1.
       -2   -1    0    0    0  501  0.00000000000E+00  0.00000000000E+00 -0.73345622572E+03  0.73345622573E+03  0.25500000920E-02 0.  1.
    10030    2    1    2    0    0  0.00000000000E+00  0.00000000000E+00  0.13408549452E+04  0.28077673967E+04  0.24669142202E+04 0.  0.
        5    1    3    3  502    0  0.32481588077E+03  0.22145769637E+03 -0.66023156997E+03  0.76842480677E+03  0.46999998093E+01 0.  1.
       -5    1    3    3    0  502 -0.32481588077E+03 -0.22145769637E+03  0.20010865152E+04  0.20393425899E+04  0.46999998093E+01 0. -1.
</event>
<event>
 5   0  0.7754912E-06  0.2680217E+04  0.7818609E-02  0.8341452E-01
       -1   -1    0    0    0  501  0.00000000000E+00  0.00000000000E+00  0.22276430369E+04  0.22276430369E+04  0.50400001928E-02 0.  1.
        1   -1    0    0  501    0  0.00000000000E+00  0.00000000000E+00 -0.80618438311E+03  0.80618438313E+03  0.50400001928E-02 0. -1.
    10030    2    1    2    0    0  0.00000000000E+00  0.00000000000E+00  0.14214586537E+04  0.30338274200E+04  0.26802171759E+04 0.  0.
        4    1    3    3  502    0  0.76943240340E+03  0.35404005803E+03 -0.46480347433E+03  0.96613377373E+03  0.12699999809E+01 0. -1.
       -4    1    3    3    0  502 -0.76943240340E+03 -0.35404005803E+03  0.18862621281E+04  0.20676936463E+04  0.12699999809E+01 0.  1.
</event>
<event>
 5   0  0.7348964E-06  0.2709424E+04  0.7818609E-02  0.8331954E-01
        1   -1    0    0  501    0  0.00000000000E+00  0.00000000000E+00  0.97883655446E+03  0.97883655447E+03  0.50400001928E-02 0.  1.
       -1   -1    0    0    0  501  0.00000000000E+00  0.00000000000E+00 -0.18749244592E+04  0.18749244592E+04  0.50400001928E-02 0. -1.
    10030    2    1    2    0    0  0.00000000000E+00  0.00000000000E+00 -0.89608790476E+03  0.28537610137E+04  0.27094239960E+04 0.  0.
        1    1    3    3  502    0  0.47495651484E+03 -0.64662528227E+02  0.88653119231E+03  0.10078206629E+04  0.50400001928E-02 0.  1.
       -1    1    3    3    0  502 -0.47495651484E+03  0.64662528227E+02 -0.17826190971E+04  0.18459403508E+04  0.50400001928E-02 0. -1.
</event>
<event>
 5   0  0.7351590E-06  0.2707198E+04  0.7818609E-02  0.8332673E-01
       -1   -1    0    0    0  501  0.00000000000E+00  0.00000000000E+00  0.17901561529E+04  0.17901561529E+04  0.50400001928E-02 0. -1.
        1   -1    0    0  501    0  0.00000000000E+00  0.00000000000E+00 -0.10235028538E+04  0.10235028538E+04  0.50400001928E-02 0.  1.
    10030    2    1    2    0    0  0.00000000000E+00  0.00000000000E+00  0.76665329912E+03  0.28136590067E+04  0.27071977624E+04 0.  0.
        3    1    3    3  502    0  0.11543940096E+04  0.46989798200E+03  0.93210640547E+03  0.15563585718E+04  0.10100000352E+00 0. -1.
       -3    1    3    3    0  502 -0.11543940096E+04 -0.46989798200E+03 -0.16545310635E+03  0.12573004348E+04  0.10100000352E+00 0.  1.
</event>
<event>
 5   0  0.7351590E-06  0.2666177E+04  0.7818609E-02  0.8346064E-01
        1   -1    0    0  501    0  0.00000000000E+00  0.00000000000E+00  0.20034848856E+04  0.20034848856E+04  0.50400001928E-02 0.  1.
       -1   -1    0    0    0  501  0.00000000000E+00  0.00000000000E+00 -0.88701660844E+03  0.88701660845E+03  0.50400001928E-02 0. -1.
    10030    2    1    2    0    0  0.00000000000E+00  0.00000000000E+00  0.11164682771E+04  0.28905014940E+04  0.26661765645E+04 0.  0.
        3    1    3    3  502    0  0.66500624348E+03  0.11314706033E+04  0.30475613909E+03  0.13473438108E+04  0.10100000352E+00 0. -1.
       -3    1    3    3    0  502 -0.66500624348E+03 -0.11314706033E+04  0.81171213804E+03  0.15431576832E+04  0.10100000352E+00 0.  1.
</event>
<event>
 5   0  0.1826851E-05  0.2721095E+04  0.7818609E-02  0.8328193E-01
       -2   -1    0    0    0  501  0.00000000000E+00  0.00000000000E+00  0.11195316882E+04  0.11195316882E+04  0.25500000920E-02 0.  1.
        2   -1    0    0  501    0  0.00000000000E+00  0.00000000000E+00 -0.16534493352E+04  0.16534493352E+04  0.25500000920E-02 0. -1.
    10030    2    1    2    0    0  0.00000000000E+00  0.00000000000E+00 -0.53391764695E+03  0.27729810234E+04  0.27210945780E+04 0.  0.
        5    1    3    3  502    0  0.28484222011E+03 -0.13163085879E+04 -0.70240519446E+02  0.13486138104E+04  0.46999998093E+01 0.  1.
       -5    1    3    3    0  502 -0.28484222011E+03  0.13163085879E+04 -0.46367712751E+03  0.14243672130E+04  0.46999998093E+01 0. -1.
</event>
<event>
 5   0  0.1878160E-05  0.2703899E+04  0.7818609E-02  0.8333741E-01
        2   -1    0    0  501    0  0.00000000000E+00  0.00000000000E+00  0.11211302956E+04  0.11211302956E+04  0.25500000920E-02 0.  1.
       -2   -1    0    0    0  501  0.00000000000E+00  0.00000000000E+00 -0.16302900029E+04  0.16302900029E+04  0.25500000920E-02 0. -1.
    10030    2    1    2    0    0  0.00000000000E+00  0.00000000000E+00 -0.50915970729E+03  0.27514202985E+04  0.27038990461E+04 0.  0.
        1    1    3    3  502    0  0.11599829583E+03  0.10324268849E+04 -0.11348891315E+04  0.15386143825E+04  0.50400001928E-02 0. -1.
       -1    1    3    3    0  502 -0.11599829583E+03 -0.10324268849E+04  0.62572942420E+03  0.12128059159E+04  0.50400001928E-02 0.  1.
</event>
<event>
 5   0  0.7754912E-06  0.2686070E+04  0.7818609E-02  0.8339539E-01
        1   -1    0    0  501    0  0.00000000000E+00  0.00000000000E+00  0.14323332413E+04  0.14323332413E+04  0.50400001928E-02 0. -1.
       -1   -1    0    0    0  501  0.00000000000E+00  0.00000000000E+00 -0.12593043242E+04  0.12593043242E+04  0.50400001928E-02 0.  1.
    10030    2    1    2    0    0  0.00000000000E+00  0.00000000000E+00  0.17302891706E+03  0.26916375655E+04  0.26860703226E+04 0.  0.
        4    1    3    3  502    0 -0.74425768410E+03  0.39043794837E+03 -0.96321607454E+03  0.12783380269E+04  0.12699999809E+01 0.  1.
       -4    1    3    3    0  502  0.74425768410E+03 -0.39043794837E+03  0.11362449916E+04  0.14132995386E+04  0.12699999809E+01 0. -1.
</event>
<event>
 5   0  0.7351590E-06  0.2675523E+04  0.7818609E-02  0.8342991E-01
        1   -1    0    0  501    0  0.00000000000E+00  0.00000000000E+00  0.92809504056E+03  0.92809504057E+03  0.50400001928E-02 0.  1.
       -1   -1    0    0    0  501  0.00000000000E+00  0.00000000000E+00 -0.19282570615E+04  0.19282570615E+04  0.50400001928E-02 0. -1.
    10030    2    1    2    0    0  0.00000000000E+00  0.00000000000E+00 -0.10001620209E+04  0.28563521021E+04  0.26755229887E+04 0.  0.
        3    1    3    3  502    0 -0.77078311874E+02  0.90862243895E+03 -0.15450458463E+04  0.17940742683E+04  0.10100000352E+00 0. -1.
       -3    1    3    3    0  502  0.77078311874E+02 -0.90862243895E+03  0.54488382539E+03  0.10622778338E+04  0.10100000352E+00 0.  1.
</event>
<event>
 5   0  0.1826851E-05  0.2718708E+04  0.7818609E-02  0.8328960E-01
        2   -1    0    0  501    0  0.00000000000E+00  0.00000000000E+00  0.19949448229E+04  0.19949448229E+04  0.25500000920E-02 0.  1.
       -2   -1    0    0    0  501  0.00000000000E+00  0.00000000000E+00 -0.92626269153E+03  0.92626269153E+03  0.25500000920E-02 0. -1.
    10030    2    1    2    0    0  0.00000000000E+00  0.00000000000E+00  0.10686821313E+04  0.29212075144E+04  0.27187077527E+04 0.  0.
        5    1    3    3  502    0  0.21886563837E+03  0.58225671811E+03  0.18330430568E+04  0.19357153694E+04  0.46999998093E+01 0.  1.
       -5    1    3    3    0  502 -0.21886563837E+03 -0.58225671811E+03 -0.76436092545E+03  0.98549214497E+03  0.46999998093E+01 0. -1.
</event>
<event>
 5   0  0.7600052E-06  0.2622729E+04  0.7818609E-02  0.8360521E-01
       -1   -1    0    0    0  501  0.00000000000E+00  0.00000000000E+00  0.14652474830E+04  0.14652474830E+04  0.50400001928E-02 0. -1.
        1   -1    0    0  501    0  0.00000000000E+00  0.00000000000E+00 -0.11736428682E+04  0.11736428682E+04  0.50400001928E-02 0.  1.
    10030    2    1    2    0    0  0.00000000000E+00  0.00000000000E+00  0.29160461474E+03  0.26388903512E+04  0.26227293102E+04 0.  0.
        5    1    3    3  502    0 -0.45270041500E+03  0.91558108082E+03 -0.68171848829E+03  0.12280018602E+04  0.46999998093E+01 0.  1.
       -5    1    3    3    0  502  0.45270041500E+03 -0.91558108082E+03  0.97332310302E+03  0.14108884911E+04  0.46999998093E+01 0. -1.
</event>
<event>
 5   0  0.7351590E-06  0.1973215E+04  0.7818609E-02  0.8619247E-01
       -1   -1    0    0    0  501  0.00000000000E+00  0.00000000000E+00  0.62049310332E+03  0.62049310334E+03  0.50400001928E-02 0. -1.
        1   -1    0    0  501    0  0.00000000000E+00  0.00000000000E+00 -0.15687424532E+04  0.15687424532E+04  0.50400001928E-02 0.  1.
    10030    2    1    2    0    0  0.00000000000E+00  0.00000000000E+00 -0.94824934988E+03  0.21892355565E+04  0.19732145075E+04 0.  0.
        3    1    3    3  502    0  0.61898630379E+03  0.53933260128E+03 -0.10811718617E+04  0.13575552673E+04  0.10100000352E+00 0.  1.
       -3    1    3    3    0  502 -0.61898630379E+03 -0.53933260128E+03  0.13292251186E+03  0.83168028920E+03  0.10100000352E+00 0. -1.
</event>
<event>
 5   0  0.1881699E-05  0.2680965E+04  0.7818609E-02  0.8341208E-01
        2   -1    0    0  501    0  0.00000000000E+00  0.00000000000E+00  0.14129406613E+04  0.14129406613E+04  0.25500000920E-02 0. -1.
       -2   -1    0    0    0  501  0.00000000000E+00  0.00000000000E+00 -0.12717403335E+04  0.12717403335E+04  0.25500000920E-02 0.  1.
    10030    2    1    2    0    0  0.00000000000E+00  0.00000000000E+00  0.14120032781E+03  0.26846809949E+04  0.26809652202E+04 0.  0.
        4    1    3    3  502    0  0.10560682611E+04  0.81930927019E+03 -0.31247056143E+02  0.13369838607E+04  0.12699999809E+01 0.  1.
       -4    1    3    3    0  502 -0.10560682611E+04 -0.81930927019E+03  0.17244738395E+03  0.13476971342E+04  0.12699999809E+01 0. -1.
</event>
<event>
 5   0  0.1788003E-05  0.3007435E+04  0.7818609E-02  0.8241611E-01
        2   -1    0    0  501    0  0.00000000000E+00  0.00000000000E+00  0.21448049848E+04  0.21448049848E+04  0.25500000920E-02 0.  1.
       -2   -1    0    0    0  501  0.00000000000E+00  0.00000000000E+00 -0.10542523443E+04  0.10542523443E+04  0.25500000920E-02 0. -1.
    10030    2    1    2    0    0  0.00000000000E+00  0.00000000000E+00  0.10905526404E+04  0.31990573291E+04  0.30074345767E+04 0.  0.
        2    1    3    3  502    0 -0.16340493460E+03 -0.10406205287E+04  0.16867651123E+04  0.19886600518E+04  0.25500000920E-02 0.  1.
       -2    1    3    3    0  502  0.16340493460E+03  0.10406205287E+04 -0.59621247189E+03  0.12103972773E+04  0.25500000920E-02 0. -1.
</event>
<event>
 5   0  0.6804685E-06  0.2671257E+04  0.7818609E-02  0.8344392E-01
       -1   -1    0    0    0  501  0.00000000000E+00  0.00000000000E+00  0.89533426401E+03  0.89533426403E+03  0.50400001928E-02 0. -1.
        1   -1    0    0  501    0  0.00000000000E+00  0.00000000000E+00 -0.19924438376E+04  0.19924438376E+04  0.50400001928E-02 0.  1.
    10030    2    1    2    0    0  0.00000000000E+00  0.00000000000E+00 -0.10971095736E+04  0.28877781017E+04  0.26712568106E+04 0.  0.
        2    1    3    3  502    0 -0.59394271218E+03 -0.84904477590E+03 -0.14596343878E+04  0.17900216543E+04  0.25500000920E-02 0.  1.
       -2    1    3    3    0  502  0.59394271218E+03  0.84904477590E+03  0.36252481417E+03  0.10977564474E+04  0.25500000920E-02 0. -1.
</event>
<event>
 5   0  0.1788003E-05  0.2981310E+04  0.7818609E-02  0.8249088E-01
        2   -1    0    0  501    0  0.00000000000E+00  0.00000000000E+00  0.15087484283E+04  0.15087484283E+04  0.25500000920E-02 0.  1.
       -2   -1    0    0    0  501  0.00000000000E+00  0.00000000000E+00 -0.14727784054E+04  0.14727784054E+04  0.25500000920E-02 0. -1.
    10030    2    1    2    0    0  0.00000000000E+00  0.00000000000E+00  0.35970022968E+02  0.29815268337E+04  0.29813098493E+04 0.  0.
        2    1    3    3  502    0 -0.78537802691E+03 -0.69706039875E+03 -0.10400807711E+04  0.14779985978E+04  0.25500000920E-02 0. -1.
       -2    1    3    3    0  502  0.78537802691E+03  0.69706039875E+03  0.10760507941E+04  0.15035282359E+04  0.25500000920E-02 0.  1.
</event>
<event>
 5   0  0.6804685E-06  0.2719042E+04  0.7818609E-02  0.8328853E-01
       -1   -1    0    0    0  501  0.00000000000E+00  0.00000000000E+00  0.89395091024E+03  0.89395091026E+03  0.50400001928E-02 0.  1.
        1   -1    0    0  501    0  0.00000000000E+00  0.00000000000E+00 -0.20675599306E+04  0.20675599306E+04  0.50400001928E-02 0. -1.
    10030    2    1    2    0    0  0.00000000000E+00  0.00000000000E+00 -0.11736090204E+04  0.29615108409E+04  0.27190418033E+04 0.  0.
        2    1    3    3  502    0  0.12530123100E+04 -0.47777929324E+03 -0.34329623321E+03  0.13842561923E+04  0.25500000920E-02 0. -1.
       -2    1    3    3    0  502 -0.12530123100E+04  0.47777929324E+03 -0.83031278714E+03  0.15772546486E+04  0.25500000920E-02 0.  1.
</event>
<event>
 5   0  0.7348964E-06  0.2707998E+04  0.7818609E-02  0.8332415E-01
       -1   -1    0    0    0  501  0.00000000000E+00  0.00000000000E+00  0.10869164905E+04  0.10869164905E+04  0.50400001928E-02 0. -1.
        1   -1    0    0  501    0  0.00000000000E+00  0.00000000000E+00 -0.16867099601E+04  0.16867099601E+04  0.50400001928E-02 0.  1.
    10030    2    1    2    0    0  0.00000000000E+00  0.00000000000E+00 -0.59979346963E+03  0.27736264506E+04  0.27079976886E+04 0.  0.
        1    1    3    3  502    0  0.23131916159E+03 -0.12069907975E+04 -0.88198096801E+03  0.15126882586E+04  0.50400001928E-02 0.  1.
       -1    1    3    3    0  502 -0.23131916159E+03  0.12069907975E+04  0.28218749838E+03  0.12609381920E+04  0.50400001928E-02 0. -1.
</event>
<event>
 5   0  0.1788003E-05  0.2692514E+04  0.7818609E-02  0.8337438E-01
       -2   -1    0    0    0  501  0.00000000000E+00  0.00000000000E+00  0.99317022587E+03  0.99317022588E+03  0.25500000920E-02 0.  1.
        2   -1    0    0  501    0  0.00000000000E+00  0.00000000000E+00 -0.18248717393E+04  0.18248717393E+04  0.25500000920E-02 0. -1.
    10030    2    1    2    0    0  0.00000000000E+00  0.00000000000E+00 -0.83170151347E+03  0.28180419652E+04  0.26925142730E+04 0.  0.
        2    1    3    3  502    0 -0.35032237312E+03  0.65049302060E+02  0.94292415819E+03  0.10079995758E+04  0.25500000920E-02 0.  1.
       -2    1    3    3    0  502  0.35032237312E+03 -0.65049302060E+02 -0.17746256717E+04  0.18100423894E+04  0.25500000920E-02 0. -1.
</event>
<event>
 5   0  0.1881699E-05  0.2747984E+04  0.7818609E-02  0.8319602E-01
       -2   -1    0    0    0  501  0.00000000000E+00  0.00000000000E+00  0.81887498560E+03  0.81887498560E+03  0.25500000920E-02 0.  1.
        2   -1    0    0  501    0  0.00000000000E+00  0.00000000000E+00 -0.23054241338E+04  0.23054241338E+04  0.25500000920E-02 0. -1.
    10030    2    1    2    0    0  0.00000000000E+00  0.00000000000E+00 -0.14865491482E+04  0.31242991194E+04  0.27479841007E+04 0.  0.
        4    1    3    3  502    0  0.12881132655E+04  0.21640868270E+03 -0.25852630734E+03  0.13315051510E+04  0.12699999809E+01 0.  1.
       -4    1    3    3    0  502 -0.12881132655E+04 -0.21640868270E+03 -0.12280228409E+04  0.17927939684E+04  0.12699999809E+01 0. -1.
</event>
<event>
 5   0  0.1878160E-05  0.2735075E+04  0.7818609E-02  0.8323713E-01
        2   -1    0    0  501    0  0.00000000000E+00  0.00000000000E+00  0.20352788863E+04  0.20352788863E+04  0.25500000920E-02 0.  1.
       -2   -1    0    0    0  501  0.00000000000E+00  0.00000000000E+00 -0.91887072187E+03  0.91887072187E+03  0.25500000920E-02 0. -1.
    10030    2    1    2    0    0  0.00000000000E+00  0.00000000000E+00  0.11164081645E+04  0.29541496082E+04  0.27350745361E+04 0.  0.
        1    1    3    3  502    0 -0.61405505193E+03 -0.86601558083E+03 -0.37288307403E+03  0.11252059278E+04  0.50400001928E-02 0. -1.
       -1    1    3    3    0  502  0.61405505193E+03  0.86601558083E+03  0.14892912385E+04  0.18289436804E+04  0.50400001928E-02 0.  1.
</event>
<event>
 5   0  0.1878160E-05  0.2694720E+04  0.7818609E-02  0.8336720E-01
       -2   -1    0    0    0  501  0.00000000000E+00  0.00000000000E+00  0.10964660414E+04  0.10964660414E+04  0.25500000920E-02 0. -1.
        2   -1    0    0  501    0  0.00000000000E+00  0.00000000000E+00 -0.16556635317E+04  0.16556635317E+04  0.25500000920E-02 0.  1.
    10030    2    1    2    0    0  0.00000000000E+00  0.00000000000E+00 -0.55919749032E+03  0.27521295731E+04  0.26947199027E+04 0.  0.
        1    1    3    3  502    0 -0.33812904595E+03 -0.12114977112E+04  0.21372503683E+03  0.12758277107E+04  0.50400001928E-02 0. -1.
       -1    1    3    3    0  502  0.33812904595E+03  0.12114977112E+04 -0.77292252716E+03  0.14763018624E+04  0.50400001928E-02 0.  1.
</event>
<event>
 5   0  0.6804685E-06  0.2685689E+04  0.7818609E-02  0.8339663E-01
        1   -1    0    0  501    0  0.00000000000E+00  0.00000000000E+00  0.27498964900E+04  0.27498964900E+04  0.50400001928E-02 0.  1.
       -1   -1    0    0    0  501  0.00000000000E+00  0.00000000000E+00 -0.65574540513E+03  0.65574540515E+03  0.50400001928E-02 0. -1.
    10030    2    1    2    0    0  0.00000000000E+00  0.00000000000E+00  0.20941510849E+04  0.34056418952E+04  0.26856894742E+04 0.  0.
        2    1    3    3  502    0  0.18739928978E+03  0.99904509918E+03  0.21598185085E+04  0.23870537475E+04  0.25500000920E-02 0.  1.
       -2    1    3    3    0  502 -0.18739928978E+03 -0.99904509918E+03 -0.65667423580E+02  0.10185881476E+04  0.25500000920E-02 0. -1.
</event>
<event>
 5   0  0.6804685E-06  0.2484822E+04  0.7818609E-02  0.8408413E-01
       -1   -1    0    0    0  501  0.00000000000E+00  0.00000000000E+00  0.88094907214E+03  0.88094907216E+03  0.50400001928E-02 0. -1.
        1   -1    0    0  501    0  0.00000000000E+00  0.00000000000E+00 -0.17521836044E+04  0.17521836044E+04  0.50400001928E-02 0.  1.
    10030    2    1    2    0    0  0.00000000000E+00  0.00000000000E+00 -0.87123453226E+03  0.26331326766E+04  0.24848215393E+04 0.  0.
        2    1    3    3  502    0 -0.53721397847E+02  0.29467493132E+03 -0.17133487989E+04  0.17393341860E+04  0.25500000920E-02 0.  1.
       -2    1    3    3    0  502  0.53721397847E+02 -0.29467493132E+03  0.84211426664E+03  0.89379849061E+03  0.25500000920E-02 0. -1.
</event>
<event>
 5   0  0.1878160E-05  0.2677462E+04  0.7818609E-02  0.8342355E-01
       -2   -1    0    0    0  501  0.00000000000E+00  0.00000000000E+00  0.84619142783E+03  0.84619142784E+03  0.25500000920E-02 0. -1.
        2   -1    0    0  501    0  0.00000000000E+00  0.00000000000E+00 -0.21179612867E+04  0.21179612867E+04  0.25500000920E-02 0.  1.
    10030    2    1    2    0    0  0.00000000000E+00  0.00000000000E+00 -0.12717698589E+04  0.29641527145E+04  0.26774619962E+04 0.  0.
        1    1    3    3  502    0  0.56040372831E+03  0.93763267313E+02  0.70607915502E+03  0.90630660495E+03  0.50400001928E-02 0. -1.
       -1    1    3    3    0  502 -0.56040372831E+03 -0.93763267313E+02 -0.19778490139E+04  0.20578461096E+04  0.50400001928E-02 0.  1.
</event>
<event>
 5   0  0.1826851E-05  0.2833802E+04  0.7818609E-02  0.8292850E-01
       -2   -1    0    0    0  501  0.00000000000E+00  0.00000000000E+00  0.93805094053E+03  0.93805094053E+03  0.25500000920E-02 0. -1.
        2   -1    0    0  501    0  0.00000000000E+00  0.00000000000E+00 -0.21401908114E+04  0.21401908114E+04  0.25500000920E-02 0.  1.
    10030    2    1    2    0    0  0.00000000000E+00  0.00000000000E+00 -0.12021398709E+04  0.30782417519E+04  0.28338016893E+04 0.  0.
        5    1    3    3  502    0  0.42299756732E+03 -0.70881809897E+03  0.64989073304E+03  0.10505855959E+04  0.46999998093E+01 0. -1.
       -5    1    3    3    0  502 -0.42299756732E+03  0.70881809897E+03 -0.18520306039E+04  0.20276561561E+04  0.46999998093E+01 0.  1.
</event>
<event>
 5   0  0.1881699E-05  0.2658577E+04  0.7818609E-02  0.8348572E-01
       -2   -1    0    0    0  501  0.00000000000E+00  0.00000000000E+00  0.13172215933E+04  0.13172215933E+04  0.25500000920E-02 0. -1.
        2   -1    0    0  501    0  0.00000000000E+00  0.00000000000E+00 -0.13414661529E+04  0.13414661529E+04  0.25500000920E-02 0.  1.
    10030    2    1    2    0    0  0.00000000000E+00  0.00000000000E+00 -0.24244559569E+02  0.26586877461E+04  0.26585772008E+04 0.  0.
        4    1    3    3  502    0 -0.58008269086E+03  0.30262914593E+03  0.11450456385E+04  0.13187916649E+04  0.12699999809E+01 0. -1.
       -4    1    3    3    0  502  0.58008269086E+03 -0.30262914593E+03 -0.11692901981E+04  0.13398960812E+04  0.12699999809E+01 0.  1.
</event>
<event>
 5   0  0.7348964E-06  0.2667100E+04  0.7818609E-02  0.8345760E-01
        1   -1    0    0  501    0  0.00000000000E+00  0.00000000000E+00  0.13418433688E+04  0.13418433688E+04  0.50400001928E-02 0.  1.
       -1   -1    0    0    0  501  0.00000000000E+00  0.00000000000E+00 -0.13253074907E+04  0.13253074907E+04  0.50400001928E-02 0. -1.
    10030    2    1    2    0    0  0.00000000000E+00  0.00000000000E+00  0.16535878115E+02  0.26671508595E+04  0.26670995992E+04 0.  0.
        1    1    3    3  502    0  0.71655019749E+03 -0.97758643926E+03 -0.54783234243E+03  0.13301277033E+04  0.50400001928E-02 0. -1.
       -1    1    3    3    0  502 -0.71655019749E+03  0.97758643926E+03  0.56436822054E+03  0.13370231562E+04  0.50400001928E-02 0.  1.
</event>
<event>
 5   0  0.1931119E-05  0.2699718E+04  0.7818609E-02  0.8335096E-01
       -2   -1    0    0    0  501  0.00000000000E+00  0.00000000000E+00  0.96842460671E+03  0.96842460672E+03  0.25500000920E-02 0. -1.
        2   -1    0    0  501    0  0.00000000000E+00  0.00000000000E+00 -0.18815298300E+04  0.18815298300E+04  0.25500000920E-02 0.  1.
    10030    2    1    2    0    0  0.00000000000E+00  0.00000000000E+00 -0.91310522326E+03  0.28499544367E+04  0.26997183450E+04 0.  0.
        3    1    3    3  502    0 -0.10521150152E+03 -0.10141233549E+04  0.47732621438E+03  0.11257690545E+04  0.10100000352E+00 0. -1.
       -3    1    3    3    0  502  0.10521150152E+03  0.10141233549E+04 -0.13904314376E+04  0.17241853821E+04  0.10100000352E+00 0.  1.
</event>
<event>
 5   0  0.1878160E-05  0.2719159E+04  0.7818609E-02  0.8328815E-01
       -2   -1    0    0    0  501  0.00000000000E+00  0.00000000000E+00  0.95295880629E+03  0.95295880630E+03  0.25500000920E-02 0.  1.
        2   -1    0    0  501    0  0.00000000000E+00  0.00000000000E+00 -0.19397027009E+04  0.19397027009E+04  0.25500000920E-02 0. -1.
    10030    2    1    2    0    0  0.00000000000E+00  0.00000000000E+00 -0.98674389459E+03  0.28926615072E+04  0.27191592601E+04 0.  0.
        1    1    3    3  502    0 -0.56245511690E+03  0.11996526550E+04 -0.81767534592E+03  0.15569570394E+04  0.50400001928E-02 0. -1.
       -1    1    3    3    0  502  0.56245511690E+03 -0.11996526550E+04 -0.16906854867E+03  0.13357044678E+04  0.50400001928E-02 0.  1.
</event>
<event>
 5   0  0.7754912E-06  0.2666799E+04  0.7818609E-02  0.8345859E-01
        1   -1    0    0  501    0  0.00000000000E+00  0.00000000000E+00  0.12555780528E+04  0.12555780529E+04  0.50400001928E-02 0.  1.
       -1   -1    0    0    0  501  0.00000000000E+00  0.00000000000E+00 -0.14160444371E+04  0.14160444371E+04  0.50400001928E-02 0. -1.
    10030    2    1    2    0    0  0.00000000000E+00  0.00000000000E+00 -0.16046638427E+03  0.26716224900E+04  0.26667990679E+04 0.  0.
        4    1    3    3  502    0  0.72942187658E+03 -0.23601242206E+03  0.10127004082E+04  0.12701660785E+04  0.12699999809E+01 0.  1.
       -4    1    3    3    0  502 -0.72942187658E+03  0.23601242206E+03 -0.11731667925E+04  0.14014564115E+04  0.12699999809E+01 0. -1.
</event>
<event>
 5   0  0.1931119E-05  0.2263767E+04  0.7818609E-02  0.8492346E-01
       -2   -1    0    0    0  501  0.00000000000E+00  0.00000000000E+00  0.10290862306E+04  0.10290862306E+04  0.25500000920E-02 0.  1.
        2   -1    0    0  501    0  0.00000000000E+00  0.00000000000E+00 -0.12449490130E+04  0.12449490130E+04  0.25500000920E-02 0. -1.
    10030    2    1    2    0    0  0.00000000000E+00  0.00000000000E+00 -0.21586278238E+03  0.22740352436E+04  0.22637666727E+04 0.  0.
        3    1    3    3  502    0 -0.66361916524E+03  0.50517908392E+03  0.66076095270E+03  0.10640495055E+04  0.10100000352E+00 0. -1.
       -3    1    3    3    0  502  0.66361916524E+03 -0.50517908392E+03 -0.87662373508E+03  0.12099857381E+04  0.10100000352E+00 0.  1.
</event>
<event>
 5   0  0.1878160E-05  0.2883458E+04  0.7818609E-02  0.8277816E-01
       -2   -1    0    0    0  501  0.00000000000E+00  0.00000000000E+00  0.18734948637E+04  0.18734948637E+04  0.25500000920E-02 0.  1.
        2   -1    0    0  501    0  0.00000000000E+00  0.00000000000E+00 -0.11094682744E+04  0.11094682744E+04  0.25500000920E-02 0. -1.
    10030    2    1    2    0    0  0.00000000000E+00  0.00000000000E+00  0.76402658938E+03  0.29829631381E+04  0.28834584190E+04 0.  0.
        1    1    3    3  502    0 -0.33237183823E+03  0.10269939735E+04 -0.60668461562E+03  0.12382462935E+04  0.50400001928E-02 0. -1.
       -1    1    3    3    0  502  0.33237183823E+03 -0.10269939735E+04  0.13707112050E+04  0.17447168446E+04  0.50400001928E-02 0.  1.
</event>
<event>
 5   0  0.6804685E-06  0.2739617E+04  0.7818609E-02  0.8322264E-01
       -1   -1    0    0    0  501  0.00000000000E+00  0.00000000000E+00  0.11585281971E+04  0.11585281971E+04  0.50400001928E-02 0. -1.
        1   -1    0    0  501    0  0.00000000000E+00  0.00000000000E+00 -0.16196202202E+04  0.16196202202E+04  0.50400001928E-02 0.  1.
    10030    2    1    2    0    0  0.00000000000E+00  0.00000000000E+00 -0.46109202306E+03  0.27781484173E+04  0.27396172680E+04 0.  0.
        2    1    3    3  502    0 -0.13831783111E+03 -0.64267979089E+03 -0.14491994123E+04  0.15913353112E+04  0.25500000920E-02 0.  1.
       -2    1    3    3    0  502  0.13831783111E+03  0.64267979089E+03  0.98810738929E+03  0.11868131061E+04  0.25500000920E-02 0. -1.
</event>
<event>
 5   0  0.1826851E-05  0.2652196E+04  0.7818609E-02  0.8350684E-01
        2   -1    0    0  501    0  0.00000000000E+00  0.00000000000E+00  0.90850644883E+03  0.90850644883E+03  0.25500000920E-02 0.  1.
       -2   -1    0    0    0  501  0.00000000000E+00  0.00000000000E+00 -0.19356345681E+04  0.19356345681E+04  0.25500000920E-02 0. -1.
    10030    2    1    2    0    0  0.00000000000E+00  0.00000000000E+00 -0.10271281192E+04  0.28441410169E+04  0.26521964389E+04 0.  0.
        5    1    3    3  502    0  0.28422753130E+03  0.20047726126E+03  0.85871086684E+03  0.92648953834E+03  0.46999998093E+01 0.  1.
       -5    1    3    3    0  502 -0.28422753130E+03 -0.20047726126E+03 -0.18858389861E+04  0.19176514786E+04  0.46999998093E+01 0. -1.
</event>
<event>
 5   0  0.7348964E-06  0.2737705E+04  0.7818609E-02  0.8322874E-01
       -1   -1    0    0    0  501  0.00000000000E+00  0.00000000000E+00  0.19009177850E+04  0.19009177850E+04  0.50400001928E-02 0.  1.
        1   -1    0    0  501    0  0.00000000000E+00  0.00000000000E+00 -0.98571150834E+03  0.98571150836E+03  0.50400001928E-02 0. -1.
    10030    2    1    2    0    0  0.00000000000E+00  0.00000000000E+00  0.91520627667E+03  0.28866292934E+04  0.27377045400E+04 0.  0.
        1    1    3    3  502    0  0.16926183307E+02 -0.13193289981E+04  0.73302978201E+02  0.13214722198E+04  0.50400001928E-02 0. -1.
       -1    1    3    3    0  502 -0.16926183307E+02  0.13193289981E+04  0.84190329847E+03  0.15651570736E+04  0.50400001928E-02 0.  1.
</event>
<event>
 5   0  0.1878160E-05  0.2685104E+04  0.7818609E-02  0.8339854E-01
       -2   -1    0    0    0  501  0.00000000000E+00  0.00000000000E+00  0.11439543567E+04  0.11439543567E+04  0.25500000920E-02 0.  1.
        2   -1    0    0  501    0  0.00000000000E+00  0.00000000000E+00 -0.15756275243E+04  0.15756275243E+04  0.25500000920E-02 0. -1.
    10030    2    1    2    0    0  0.00000000000E+00  0.00000000000E+00 -0.43167316751E+03  0.27195818810E+04  0.26851040732E+04 0.  0.
        1    1    3    3  502    0 -0.89396866401E+02 -0.70002361311E+03 -0.13726143304E+04  0.15434036927E+04  0.50400001928E-02 0. -1.
       -1    1    3    3    0  502  0.89396866401E+02  0.70002361311E+03  0.94094116286E+03  0.11761781883E+04  0.50400001928E-02 0.  1.
</event>
<event>
 5   0  0.1788003E-05  0.2697249E+04  0.7818609E-02  0.8335898E-01
        2   -1    0    0  501    0  0.00000000000E+00  0.00000000000E+00  0.16924947052E+04  0.16924947052E+04  0.25500000920E-02 0. -1.
       -2   -1    0    0    0  501  0.00000000000E+00  0.00000000000E+00 -0.10746195692E+04  0.10746195692E+04  0.25500000920E-02 0.  1.
    10030    2    1    2    0    0  0.00000000000E+00  0.00000000000E+00  0.61787513600E+03  0.27671142744E+04  0.26972489176E+04 0.  0.
        2    1    3    3  502    0  0.96419165493E+03  0.81570609992E+02 -0.65479315135E+03  0.11683635491E+04  0.25500000920E-02 0.  1.
       -2    1    3    3    0  502 -0.96419165493E+03 -0.81570609992E+02  0.12726682873E+04  0.15987507252E+04  0.25500000920E-02 0. -1.
</event>
<event>
 5   0  0.6175875E-06  0.2670101E+04  0.7818609E-02  0.8344772E-01
        3   -1    0    0  501    0  0.00000000000E+00  0.00000000000E+00  0.13812043516E+04  0.13812043553E+04  0.10100000352E+00 0.  1.
       -3   -1    0    0    0  501  0.00000000000E+00  0.00000000000E+00 -0.12904391130E+04  0.12904391170E+04  0.10100000352E+00 0. -1.
    10030    2    1    2    0    0  0.00000000000E+00  0.00000000000E+00  0.90765238593E+02  0.26716434723E+04  0.26701012181E+04 0.  0.
        4    1    3    3  502    0  0.95787665412E+03 -0.73495284197E+02 -0.88220693236E+03  0.13043082173E+04  0.12699999809E+01 0. -1.
       -4    1    3    3    0  502 -0.95787665412E+03  0.73495284197E+02  0.97297217095E+03  0.13673352550E+04  0.12699999809E+01 0.  1.
</event>
<event>
 5   0  0.7351590E-06  0.2705518E+04  0.7818609E-02  0.8333217E-01
        1   -1    0    0  501    0  0.00000000000E+00  0.00000000000E+00  0.23166685255E+04  0.23166685255E+04  0.50400001928E-02 0. -1.
       -1   -1    0    0    0  501  0.00000000000E+00  0.00000000000E+00 -0.78990892896E+03  0.78990892897E+03  0.50400001928E-02 0.  1.
    10030    2    1    2    0    0  0.00000000000E+00  0.00000000000E+00  0.15267595965E+04  0.31065774544E+04  0.27055181786E+04 0.  0.
        3    1    3    3  502    0  0.20561324852E+02 -0.10556687928E+04 -0.20760949976E+03  0.10760860015E+04  0.10100000352E+00 0.  1.
       -3    1    3    3    0  502 -0.20561324852E+02  0.10556687928E+04  0.17343690962E+04  0.20304914529E+04  0.10100000352E+00 0. -1.
</event>
<event>
 5   0  0.1931119E-05  0.2649038E+04  0.7818609E-02  0.8351732E-01
       -2   -1    0    0    0  501  0.00000000000E+00  0.00000000000E+00  0.11418534146E+04  0.11418534146E+04  0.25500000920E-02 0. -1.
        2   -1    0    0  501    0  0.00000000000E+00  0.00000000000E+00 -0.15364059843E+04  0.15364059843E+04  0.25500000920E-02 0.  1.
    10030    2    1    2    0    0  0.00000000000E+00  0.00000000000E+00 -0.39455256975E+03  0.26782593989E+04  0.26490378777E+04 0.  0.
        3    1    3    3  502    0 -0.12141291782E+03 -0.21061610393E+03 -0.15136565648E+04  0.15330546129E+04  0.10100000352E+00 0.  1.
       -3    1    3    3    0  502  0.12141291782E+03  0.21061610393E+03  0.11191039951E+04  0.11452047860E+04  0.10100000352E+00 0. -1.
</event>
<event>
 5   0  0.1826851E-05  0.2686689E+04  0.7818609E-02  0.8339337E-01
        2   -1    0    0  501    0  0.00000000000E+00  0.00000000000E+00  0.16176281037E+04  0.16176281037E+04  0.25500000920E-02 0.  1.
       -2   -1    0    0    0  501  0.00000000000E+00  0.00000000000E+00 -0.11155683987E+04  0.11155683987E+04  0.25500000920E-02 0. -1.
    10030    2    1    2    0    0  0.00000000000E+00  0.00000000000E+00  0.50205970494E+03  0.27331965024E+04  0.26866892588E+04 0.  0.
        5    1    3    3  502    0 -0.21679722858E+03  0.90579766194E+03  0.12358167813E+04  0.15474933440E+04  0.46999998093E+01 0.  1.
       -5    1    3    3    0  502  0.21679722858E+03 -0.90579766194E+03 -0.73375707641E+03  0.11857031584E+04  0.46999998093E+01 0. -1.
</event>
<event>
 5   0  0.6175875E-06  0.2714092E+04  0.7818609E-02  0.8330447E-01
       -3   -1    0    0    0  501  0.00000000000E+00  0.00000000000E+00  0.10771512628E+04  0.10771512675E+04  0.10100000352E+00 0.  1.
        3   -1    0    0  501    0  0.00000000000E+00  0.00000000000E+00 -0.17096705443E+04  0.17096705473E+04  0.10100000352E+00 0. -1.
    10030    2    1    2    0    0  0.00000000000E+00  0.00000000000E+00 -0.63251928155E+03  0.27868218148E+04  0.27140919635E+04 0.  0.
        4    1    3    3  502    0  0.31283012439E+03 -0.38151846560E+03  0.98179759066E+03  0.10987934966E+04  0.12699999809E+01 0.  1.
       -4    1    3    3    0  502 -0.31283012439E+03  0.38151846560E+03 -0.16143168722E+04  0.16880283182E+04  0.12699999809E+01 0. -1.
</event>
<event>
 5   0  0.1878160E-05  0.2585586E+04  0.7818609E-02  0.8373114E-01
        2   -1    0    0  501    0  0.00000000000E+00  0.00000000000E+00  0.22673187641E+04  0.22673187641E+04  0.25500000920E-02 0.  1.
       -2   -1    0    0    0  501  0.00000000000E+00  0.00000000000E+00 -0.73713194717E+03  0.73713194717E+03  0.25500000920E-02 0. -1.
    10030    2    1    2    0    0  0.00000000000E+00  0.00000000000E+00  0.15301868169E+04  0.30044507112E+04  0.25855855007E+04 0.  0.
        1    1    3    3  502    0  0.65887600395E+03  0.42466796946E+03 -0.42948151755E+03  0.89382036607E+03  0.50400001928E-02 0. -1.
       -1    1    3    3    0  502 -0.65887600395E+03 -0.42466796946E+03  0.19596683344E+04  0.21106303452E+04  0.50400001928E-02 0.  1.
</event>
<event>
 5   0  0.7348964E-06  0.2728478E+04  0.7818609E-02  0.8325824E-01
       -1   -1    0    0    0  501  0.00000000000E+00  0.00000000000E+00  0.93338026980E+03  0.93338026981E+03  0.50400001928E-02 0.  1.
        1   -1    0    0  501    0  0.00000000000E+00  0.00000000000E+00 -0.19939871089E+04  0.19939871089E+04  0.50400001928E-02 0. -1.
    10030    2    1    2    0    0  0.00000000000E+00  0.00000000000E+00 -0.10606068391E+04  0.29273673787E+04  0.27284781294E+04 0.  0.
        1    1    3    3  502    0  0.53725326283E+02 -0.52356012515E+03  0.82007173301E+03  0.97443279021E+03  0.50400001928E-02 0.  1.
       -1    1    3    3    0  502 -0.53725326283E+02  0.52356012515E+03 -0.18806785721E+04  0.19529345885E+04  0.50400001928E-02 0. -1.
</event>
<event>
 5   0  0.1931119E-05  0.2709211E+04  0.7818609E-02  0.8332023E-01
        2   -1    0    0  501    0  0.00000000000E+00  0.00000000000E+00  0.11747690560E+04  0.11747690561E+04  0.25500000920E-02 0. -1.
       -2   -1    0    0    0  501  0.00000000000E+00  0.00000000000E+00 -0.15619716832E+04  0.15619716832E+04  0.25500000920E-02 0.  1.
    10030    2    1    2    0    0  0.00000000000E+00  0.00000000000E+00 -0.38720262711E+03  0.27367407392E+04  0.27092109551E+04 0.  0.
        3    1    3    3  502    0  0.11574326775E+04  0.52802623504E+03 -0.66361840196E+03  0.14348698552E+04  0.10100000352E+00 0.  1.
       -3    1    3    3    0  502 -0.11574326775E+04 -0.52802623504E+03  0.27641577484E+03  0.13018708840E+04  0.10100000352E+00 0. -1.
</event>
<event>
 5   0  0.1881699E-05  0.2794305E+04  0.7818609E-02  0.8305039E-01
        2   -1    0    0  501    0  0.00000000000E+00  0.00000000000E+00  0.11079979664E+04  0.11079979664E+04  0.25500000920E-02 0. -1.
       -2   -1    0    0    0  501  0.00000000000E+00  0.00000000000E+00 -0.17617680426E+04  0.17617680426E+04  0.25500000920E-02 0.  1.
    10030    2    1    2    0    0  0.00000000000E+00  0.00000000000E+00 -0.65377007620E+03  0.28697660089E+04  0.27943052148E+04 0.  0.
        4    1    3    3  502    0  0.12053704753E+04 -0.44041917655E+01 -0.10524309035E+04  0.16001718030E+04  0.12699999809E+01 0. -1.
       -4    1    3    3    0  502 -0.12053704753E+04  0.44041917655E+01  0.39866082730E+03  0.12695942059E+04  0.12699999809E+01 0.  1.
</event>
<event>
 5   0  0.1788003E-05  0.2614506E+04  0.7818609E-02  0.8363291E-01
        2   -1    0    0  501    0  0.00000000000E+00  0.00000000000E+00  0.17196634198E+04  0.17196634198E+04  0.25500000920E-02 0. -1.
       -2   -1    0    0    0  501  0.00000000000E+00  0.00000000000E+00 -0.99374700377E+03  0.99374700377E+03  0.25500000920E-02 0.  1.
    10030    2    1    2    0    0  0.00000000000E+00  0.00000000000E+00  0.72591641602E+03  0.27134104236E+04  0.26145059731E+04 0.  0.
        2    1    3    3  502    0  0.19549331667E+02 -0.18669934740E+03 -0.97968607612E+03  0.99750871196E+03  0.25500000920E-02 0.  1.
       -2    1    3    3    0  502 -0.19549331667E+02  0.18669934740E+03  0.17056024921E+04  0.17159017116E+04  0.25500000920E-02 0. -1.
</event>
<event>
 5   0  0.1788003E-05  0.2812130E+04  0.7818609E-02  0.8299512E-01
       -2   -1    0    0    0  501  0.00000000000E+00  0.00000000000E+00  0.11805139730E+04  0.11805139730E+04  0.25500000920E-02 0.  1.
        2   -1    0    0  501    0  0.00000000000E+00  0.00000000000E+00 -0.16747098330E+04  0.16747098330E+04  0.25500000920E-02 0. -1.
    10030    2    1    2    0    0  0.00000000000E+00  0.00000000000E+00 -0.49419585999E+03  0.28552238060E+04  0.28121296973E+04 0.  0.
        2    1    3    3  502    0  0.77070825379E+03  0.98052710378E+03 -0.90635058660E+03  0.15417185215E+04  0.25500000920E-02 0. -1.
       -2    1    3    3    0  502 -0.77070825379E+03 -0.98052710378E+03  0.41215472661E+03  0.13135052845E+04  0.25500000920E-02 0.  1.
</event>
<event>
 5   0  0.1878160E-05  0.2560520E+04  0.7818609E-02  0.8381737E-01
       -2   -1    0    0    0  501  0.00000000000E+00  0.00000000000E+00  0.10246725184E+04  0.10246725184E+04  0.25500000920E-02 0.  1.
        2   -1    0    0  501    0  0.00000000000E+00  0.00000000000E+00 -0.15995991479E+04  0.15995991479E+04  0.25500000920E-02 0. -1.
    10030    2    1    2    0    0  0.00000000000E+00  0.00000000000E+00 -0.57492662957E+03  0.26242716663E+04  0.25605197030E+04 0.  0.
        1    1    3    3  502    0 -0.20534081245E+02  0.19668394022E+03  0.10089249926E+04  0.10281224935E+04  0.50400001928E-02 0.  1.
       -1    1    3    3    0  502  0.20534081245E+02 -0.19668394022E+03 -0.15838516222E+04  0.15961491728E+04  0.50400001928E-02 0. -1.
</event>
<event>
 5   0  0.6175875E-06  0.2771045E+04  0.7818609E-02  0.8312314E-01
        3   -1    0    0  501    0  0.00000000000E+00  0.00000000000E+00  0.12683615781E+04  0.12683615821E+04  0.10100000352E+00 0. -1.
       -3   -1    0    0    0  501  0.00000000000E+00  0.00000000000E+00 -0.15135060956E+04  0.15135060990E+04  0.10100000352E+00 0.  1.
    10030    2    1    2    0    0  0.00000000000E+00  0.00000000000E+00 -0.24514451751E+03  0.27818676811E+04  0.27710452830E+04 0.  0.
        4    1    3    3  502    0  0.43446276316E+03  0.10558252423E+04 -0.91058792931E+03  0.14603755766E+04  0.12699999809E+01 0.  1.
       -4    1    3    3    0  502 -0.43446276316E+03 -0.10558252423E+04  0.66544341180E+03  0.13214921044E+04  0.12699999809E+01 0. -1.
</event>
<event>
 5   0  0.7348964E-06  0.2737166E+04  0.7818609E-02  0.8323046E-01
       -1   -1    0    0    0  501  0.00000000000E+00  0.00000000000E+00  0.75947720368E+03  0.75947720370E+03  0.50400001928E-02 0.  1.
        1   -1    0    0  501    0  0.00000000000E+00  0.00000000000E+00 -0.24661958554E+04  0.24661958554E+04  0.50400001928E-02 0. -1.
    10030    2    1    2    0    0  0.00000000000E+00  0.00000000000E+00 -0.17067186517E+04  0.32256730591E+04  0.27371660761E+04 0.  0.
        1    1    3    3  502    0  0.99232280838E+03 -0.19241271008E+03 -0.19406822819E+04  0.21881441740E+04  0.50400001928E-02 0.  1.
       -1    1    3    3    0  502 -0.99232280838E+03  0.19241271008E+03  0.23396363021E+03  0.10375288851E+04  0.50400001928E-02 0. -1.
</event>
<event>
 5   0  0.1878160E-05  0.2712064E+04  0.7818609E-02  0.8331101E-01
       -2   -1    0    0    0  501  0.00000000000E+00  0.00000000000E+00  0.17007745042E+04  0.17007745042E+04  0.25500000920E-02 0.  1.
        2   -1    0    0  501    0  0.00000000000E+00  0.00000000000E+00 -0.10811679491E+04  0.10811679491E+04  0.25500000920E-02 0. -1.
    10030    2    1    2    0    0  0.00000000000E+00  0.00000000000E+00  0.61960655514E+03  0.27819424534E+04  0.27120640720E+04 0.  0.
        1    1    3    3  502    0 -0.13059589729E+03 -0.98657859646E+03 -0.63503237631E+03  0.11805332415E+04  0.50400001928E-02 0. -1.
       -1    1    3    3    0  502  0.13059589729E+03  0.98657859646E+03  0.12546389314E+04  0.16014092118E+04  0.50400001928E-02 0.  1.
</event>
<event>
 5   0  0.6804685E-06  0.2705076E+04  0.7818609E-02  0.8333360E-01
       -1   -1    0    0    0  501  0.00000000000E+00  0.00000000000E+00  0.13442920780E+04  0.13442920780E+04  0.50400001928E-02 0.  1.
        1   -1    0    0  501    0  0.00000000000E+00  0.00000000000E+00 -0.13608343190E+04  0.13608343190E+04  0.50400001928E-02 0. -1.
    10030    2    1    2    0    0  0.00000000000E+00  0.00000000000E+00 -0.16542241006E+02  0.27051263970E+04  0.27050758174E+04 0.  0.
        2    1    3    3  502    0  0.19945695709E+03 -0.91151713937E+03  0.97088569725E+03  0.13465755123E+04  0.25500000920E-02 0.  1.
       -2    1    3    3    0  502 -0.19945695709E+03  0.91151713937E+03 -0.98742793826E+03  0.13585508847E+04  0.25500000920E-02 0. -1.
</event>
<event>
 5   0  0.7351590E-06  0.2785965E+04  0.7818609E-02  0.8307639E-01
        1   -1    0    0  501    0  0.00000000000E+00  0.00000000000E+00  0.10870818685E+04  0.10870818685E+04  0.50400001928E-02 0.  1.
       -1   -1    0    0    0  501  0.00000000000E+00  0.00000000000E+00 -0.17849621855E+04  0.17849621855E+04  0.50400001928E-02 0. -1.
    10030    2    1    2    0    0  0.00000000000E+00  0.00000000000E+00 -0.69788031702E+03  0.28720440541E+04  0.27859648439E+04 0.  0.
        3    1    3    3  502    0 -0.55393986954E+03 -0.76887151035E+03  0.70357899688E+03  0.11802695427E+04  0.10100000352E+00 0.  1.
       -3    1    3    3    0  502  0.55393986954E+03  0.76887151035E+03 -0.14014593139E+04  0.16917745113E+04  0.10100000352E+00 0. -1.
</event>
<event>
 5   0  0.7754912E-06  0.2698925E+04  0.7818609E-02  0.8335354E-01
       -1   -1    0    0    0  501  0.00000000000E+00  0.00000000000E+00  0.10319819052E+04  0.10319819052E+04  0.50400001928E-02 0.  1.
        1   -1    0    0  501    0  0.00000000000E+00  0.00000000000E+00 -0.17646131528E+04  0.17646131528E+04  0.50400001928E-02 0. -1.
    10030    2    1    2    0    0  0.00000000000E+00  0.00000000000E+00 -0.73263124763E+03  0.27965950581E+04  0.26989248552E+04 0.  0.
        4    1    3    3  502    0 -0.69929408550E+03  0.11464016868E+04 -0.50455337185E+03  0.14345120298E+04  0.12699999809E+01 0. -1.
       -4    1    3    3    0  502  0.69929408550E+03 -0.11464016868E+04 -0.22807787579E+03  0.13620830283E+04  0.12699999809E+01 0.  1.
</event>
<event>
 5   0  0.1878160E-05  0.2563597E+04  0.7818609E-02  0.8380673E-01
        2   -1    0    0  501    0  0.00000000000E+00  0.00000000000E+00  0.15248531349E+04  0.15248531349E+04  0.25500000920E-02 0.  1.
       -2   -1    0    0    0  501  0.00000000000E+00  0.00000000000E+00 -0.10774853743E+04  0.10774853743E+04  0.25500000920E-02 0. -1.
    10030    2    1    2    0    0  0.00000000000E+00  0.00000000000E+00  0.44736776058E+03  0.26023385092E+04  0.25635966538E+04 0.  0.
        1    1    3    3  502    0 -0.71759024446E+02  0.10995636481E+04 -0.44105377428E+03  0.11868942689E+04  0.50400001928E-02 0. -1.
       -1    1    3    3    0  502  0.71759024446E+02 -0.10995636481E+04  0.88842153486E+03  0.14154442403E+04  0.50400001928E-02 0.  1.
</event>
<event>
 5   0  0.6804685E-06  0.2709860E+04  0.7818609E-02  0.8331813E-01
        1   -1    0    0  501    0  0.00000000000E+00  0.00000000000E+00  0.29138273911E+04  0.29138273911E+04  0.50400001928E-02 0.  1.
       -1   -1    0    0    0  501  0.00000000000E+00  0.00000000000E+00 -0.63004243197E+03  0.63004243199E+03  0.50400001928E-02 0. -1.
    10030    2    1    2    0    0  0.00000000000E+00  0.00000000000E+00  0.22837849591E+04  0.35438698231E+04  0.27098596981E+04 0.  0.
        2    1    3    3  502    0 -0.62346496382E+03  0.76480626462E+03  0.23562159458E+04  0.25544844425E+04  0.25500000920E-02 0.  1.
       -2    1    3    3    0  502  0.62346496382E+03 -0.76480626462E+03 -0.72430986707E+02  0.98938538061E+03  0.25500000920E-02 0. -1.
</event>
<event>
 5   0  0.7600052E-06  0.2677246E+04  0.7818609E-02  0.8342426E-01
       -1   -1    0    0    0  501  0.00000000000E+00  0.00000000000E+00  0.78040768047E+03  0.78040768048E+03  0.50400001928E-02 0.  1.
        1   -1    0    0  501    0  0.00000000000E+00  0.00000000000E+00 -0.22961228959E+04  0.22961228959E+04  0.50400001928E-02 0. -1.
    10030    2    1    2    0    0  0.00000000000E+00  0.00000000000E+00 -0.15157152154E+04  0.30765305764E+04  0.26772463042E+04 0.  0.
        5    1    3    3  502    0 -0.13058876163E+04 -0.31525900901E+01 -0.41981227069E+03  0.13717203935E+04  0.46999998093E+01 0.  1.
       -5    1    3    3    0  502  0.13058876163E+04  0.31525900901E+01 -0.10959029447E+04  0.17048101829E+04  0.46999998093E+01 0. -1.
</event>
<event>
 5   0  0.7600052E-06  0.2723801E+04  0.7818609E-02  0.8327324E-01
        1   -1    0    0  501    0  0.00000000000E+00  0.00000000000E+00  0.11462634816E+04  0.11462634816E+04  0.50400001928E-02 0. -1.
       -1   -1    0    0    0  501  0.00000000000E+00  0.00000000000E+00 -0.16181031285E+04  0.16181031285E+04  0.50400001928E-02 0.  1.
    10030    2    1    2    0    0  0.00000000000E+00  0.00000000000E+00 -0.47183964698E+03  0.27643666101E+04  0.27238006723E+04 0.  0.
        5    1    3    3  502    0 -0.38110473898E+03  0.10473747735E+04  0.55836987038E+03  0.12466088963E+04  0.46999998093E+01 0. -1.
       -5    1    3    3    0  502  0.38110473898E+03 -0.10473747735E+04 -0.10302095174E+04  0.15177577138E+04  0.46999998093E+01 0.  1.
</event>
<event>
 5   0  0.1878160E-05  0.2709491E+04  0.7818609E-02  0.8331932E-01
       -2   -1    0    0    0  501  0.00000000000E+00  0.00000000000E+00  0.17434574876E+04  0.17434574876E+04  0.25500000920E-02 0. -1.
        2   -1    0    0  501    0  0.00000000000E+00  0.00000000000E+00 -0.10526988821E+04  0.10526988821E+04  0.25500000920E-02 0.  1.
    10030    2    1    2    0    0  0.00000000000E+00  0.00000000000E+00  0.69075860555E+03  0.27961563697E+04  0.27094912793E+04 0.  0.
        1    1    3    3  502    0  0.77357933619E+03  0.25140104666E+03  0.14634101343E+04  0.16742749765E+04  0.50400001928E-02 0. -1.
       -1    1    3    3    0  502 -0.77357933619E+03 -0.25140104666E+03 -0.77265152874E+03  0.11218813933E+04  0.50400001928E-02 0.  1.
</event>
<event>
 5   0  0.7600052E-06  0.2696111E+04  0.7818609E-02  0.8336268E-01
        1   -1    0    0  501    0  0.00000000000E+00  0.00000000000E+00  0.25830303404E+04  0.25830303404E+04  0.50400001928E-02 0. -1.
       -1   -1    0    0    0  501  0.00000000000E+00  0.00000000000E+00 -0.70353561067E+03  0.70353561069E+03  0.50400001928E-02 0.  1.
    10030    2    1    2    0    0  0.00000000000E+00  0.00000000000E+00  0.18794947298E+04  0.32865659511E+04  0.26961111461E+04 0.  0.
        5    1    3    3  502    0 -0.65810851996E+03 -0.30718299430E+02  0.23734005840E+04  0.24631489724E+04  0.46999998093E+01 0. -1.
       -5    1    3    3    0  502  0.65810851996E+03  0.30718299430E+02 -0.49390585427E+03  0.82341697872E+03  0.46999998093E+01 0.  1.
</event>
<event>
 5   0  0.1788003E-05  0.1976177E+04  0.7818609E-02  0.8617840E-01
        2   -1    0    0  501    0  0.00000000000E+00  0.00000000000E+00  0.95578307650E+03  0.95578307651E+03  0.25500000920E-02 0.  1.
       -2   -1    0    0    0  501  0.00000000000E+00  0.00000000000E+00 -0.10214861857E+04  0.10214861857E+04  0.25500000920E-02 0. -1.
    10030    2    1    2    0    0  0.00000000000E+00  0.00000000000E+00 -0.65703109198E+02  0.19772692622E+04  0.19761773293E+04 0.  0.
        2    1    3    3  502    0  0.60300901157E+03  0.77200974392E+03 -0.16215258693E+03  0.99293120316E+03  0.25500000920E-02 0.  1.
       -2    1    3    3    0  502 -0.60300901157E+03 -0.77200974392E+03  0.96449477730E+02  0.98433805906E+03  0.25500000920E-02 0. -1.
</event>
<event>
 5   0  0.6804685E-06  0.2611305E+04  0.7818609E-02  0.8364371E-01
        1   -1    0    0  501    0  0.00000000000E+00  0.00000000000E+00  0.13109131107E+04  0.13109131107E+04  0.50400001928E-02 0. -1.
       -1   -1    0    0    0  501  0.00000000000E+00  0.00000000000E+00 -0.13004126146E+04  0.13004126146E+04  0.50400001928E-02 0.  1.
    10030    2    1    2    0    0  0.00000000000E+00  0.00000000000E+00  0.10500496164E+02  0.26113257253E+04  0.26113046133E+04 0.  0.
        2    1    3    3  502    0 -0.66386387990E+03 -0.37365395269E+03  0.10656339521E+04  0.13099268099E+04  0.25500000920E-02 0. -1.
       -2    1    3    3    0  502  0.66386387990E+03  0.37365395269E+03 -0.10551334559E+04  0.13013989155E+04  0.25500000920E-02 0.  1.
</event>
<event>
 5   0  0.1826851E-05  0.2741976E+04  0.7818609E-02  0.8321512E-01
       -2   -1    0    0    0  501  0.00000000000E+00  0.00000000000E+00  0.20869395918E+04  0.20869395918E+04  0.25500000920E-02 0. -1.
        2   -1    0    0  501    0  0.00000000000E+00  0.00000000000E+00 -0.90065267805E+03  0.90065267806E+03  0.25500000920E-02 0.  1.
    10030    2    1    2    0    0  0.00000000000E+00  0.00000000000E+00  0.11862869137E+04  0.29875922698E+04  0.27419757346E+04 0.  0.
        5    1    3    3  502    0 -0.61615166317E+03 -0.10646502976E+04 -0.66444167109E+02  0.12318928710E+04  0.46999998093E+01 0.  1.
       -5    1    3    3    0  502  0.61615166317E+03  0.10646502976E+04  0.12527310808E+04  0.17556993988E+04  0.46999998093E+01 0. -1.
</event>
<event>
 5   0  0.1881699E-05  0.2718414E+04  0.7818609E-02  0.8329055E-01
       -2   -1    0    0    0  501  0.00000000000E+00  0.00000000000E+00  0.10784725214E+04  0.10784725214E+04  0.25500000920E-02 0.  1.
        2   -1    0    0  501    0  0.00000000000E+00  0.00000000000E+00 -0.17130187722E+04  0.17130187722E+04  0.25500000920E-02 0. -1.
    10030    2    1    2    0    0  0.00000000000E+00  0.00000000000E+00 -0.63454625083E+03  0.27914912936E+04  0.27184140041E+04 0.  0.
        4    1    3    3  502    0 -0.63069781660E+02 -0.11550849499E+04  0.41552309800E+03  0.12291704913E+04  0.12699999809E+01 0.  1.
       -4    1    3    3    0  502  0.63069781660E+02  0.11550849499E+04 -0.10500693488E+04  0.15623208022E+04  0.12699999809E+01 0. -1.
</event>
<event>
 5   0  0.1881699E-05  0.2680779E+04  0.7818609E-02  0.8341269E-01
       -2   -1    0    0    0  501  0.00000000000E+00  0.00000000000E+00  0.13401976788E+04  0.13401976788E+04  0.25500000920E-02 0. -1.
        2   -1    0    0  501    0  0.00000000000E+00  0.00000000000E+00 -0.13405813760E+04  0.13405813760E+04  0.25500000920E-02 0.  1.
    10030    2    1    2    0    0  0.00000000000E+00  0.00000000000E+00 -0.38369714002E+00  0.26807790548E+04  0.26807790273E+04 0.  0.
        4    1    3    3  502    0  0.79101003437E+03  0.72396729291E+03  0.80405744924E+03  0.13402744160E+04  0.12699999809E+01 0. -1.
       -4    1    3    3    0  502 -0.79101003437E+03 -0.72396729291E+03 -0.80444114638E+03  0.13405046388E+04  0.12699999809E+01 0.  1.
</event>
<event>
 5   0  0.6175875E-06  0.3023144E+04  0.7818609E-02  0.8237153E-01
        3   -1    0    0  501    0  0.00000000000E+00  0.00000000000E+00  0.14709586567E+04  0.14709586602E+04  0.10100000352E+00 0. -1.
       -3   -1    0    0    0  501  0.00000000000E+00  0.00000000000E+00 -0.15533063454E+04  0.15533063487E+04  0.10100000352E+00 0.  1.
    10030    2    1    2    0    0  0.00000000000E+00  0.00000000000E+00 -0.82347688655E+02  0.30242650089E+04  0.30231436787E+04 0.  0.
        4    1    3    3  502    0 -0.12505321535E+04 -0.78802323051E+03  0.27522899672E+03  0.15035171739E+04  0.12699999809E+01 0.  1.
       -4    1    3    3    0  502  0.12505321535E+04  0.78802323051E+03 -0.35757668538E+03  0.15207478350E+04  0.12699999809E+01 0. -1.
</event>
<event>
 5   0  0.6175875E-06  0.2753907E+04  0.7818609E-02  0.8317723E-01
       -3   -1    0    0    0  501  0.00000000000E+00  0.00000000000E+00  0.14395785409E+04  0.14395785445E+04  0.10100000352E+00 0.  1.
        3   -1    0    0  501    0  0.00000000000E+00  0.00000000000E+00 -0.13170529213E+04  0.13170529252E+04  0.10100000352E+00 0. -1.
    10030    2    1    2    0    0  0.00000000000E+00  0.00000000000E+00  0.12252561964E+03  0.27566314697E+04  0.27539071393E+04 0.  0.
        5    1    3    3  502    0  0.12082435434E+04 -0.63020114871E+03  0.25887415120E+03  0.13870990823E+04  0.46999998093E+01 0.  1.
       -5    1    3    3    0  502 -0.12082435434E+04  0.63020114871E+03 -0.13634853157E+03  0.13695323874E+04  0.46999998093E+01 0. -1.
</event>
<event>
 5   0  0.7600052E-06  0.2668887E+04  0.7818609E-02  0.8345171E-01
        1   -1    0    0  501    0  0.00000000000E+00  0.00000000000E+00  0.12600178340E+04  0.12600178340E+04  0.50400001928E-02 0.  1.
       -1   -1    0    0    0  501  0.00000000000E+00  0.00000000000E+00 -0.14132650240E+04  0.14132650240E+04  0.50400001928E-02 0. -1.
    10030    2    1    2    0    0  0.00000000000E+00  0.00000000000E+00 -0.15324718994E+03  0.26732828580E+04  0.26688867600E+04 0.  0.
        5    1    3    3  502    0 -0.27618766057E+03  0.10544796208E+04 -0.84763830423E+03  0.13808402078E+04  0.46999998093E+01 0. -1.
       -5    1    3    3    0  502  0.27618766057E+03 -0.10544796208E+04  0.69439111429E+03  0.12924426502E+04  0.46999998093E+01 0.  1.
</event>
<event>
 5   0  0.1881699E-05  0.2648374E+04  0.7818609E-02  0.8351953E-01
        2   -1    0    0  501    0  0.00000000000E+00  0.00000000000E+00  0.15559836685E+04  0.15559836685E+04  0.25500000920E-02 0.  1.
       -2   -1    0    0    0  501  0.00000000000E+00  0.00000000000E+00 -0.11269210981E+04  0.11269210981E+04  0.25500000920E-02 0. -1.
    10030    2    1    2    0    0  0.00000000000E+00  0.00000000000E+00  0.42906257033E+03  0.26829047666E+04  0.26483737080E+04 0.  0.
        4    1    3    3  502    0 -0.12947213226E+04 -0.23867383560E+03  0.70548924884E+02  0.13184260566E+04  0.12699999809E+01 0. -1.
       -4    1    3    3    0  502  0.12947213226E+04  0.23867383560E+03  0.35851364545E+03  0.13644787100E+04  0.12699999809E+01 0.  1.
</event>
<event>
 5   0  0.1826851E-05  0.2668954E+04  0.7818609E-02  0.8345149E-01
       -2   -1    0    0    0  501  0.00000000000E+00  0.00000000000E+00  0.10180658942E+04  0.10180658942E+04  0.25500000920E-02 0. -1.
        2   -1    0    0  501    0  0.00000000000E+00  0.00000000000E+00 -0.17492280730E+04  0.17492280730E+04  0.25500000920E-02 0.  1.
    10030    2    1    2    0    0  0.00000000000E+00  0.00000000000E+00 -0.73116217879E+03  0.27672939672E+04  0.26689544337E+04 0.  0.
        5    1    3    3  502    0 -0.58218667580E+03  0.76535442276E+03 -0.13249287905E+04  0.16371215923E+04  0.46999998093E+01 0.  1.
       -5    1    3    3    0  502  0.58218667580E+03 -0.76535442276E+03  0.59376661173E+03  0.11301723750E+04  0.46999998093E+01 0. -1.
</event>
<event>
 5   0  0.7600052E-06  0.2796030E+04  0.7818609E-02  0.8304502E-01
        1   -1    0    0  501    0  0.00000000000E+00  0.00000000000E+00  0.21923505100E+04  0.21923505100E+04  0.50400001928E-02 0.  1.
       -1   -1    0    0    0  501  0.00000000000E+00  0.00000000000E+00 -0.89148426199E+03  0.89148426201E+03  0.50400001928E-02 0. -1.
    10030    2    1    2    0    0  0.00000000000E+00  0.00000000000E+00  0.13008662480E+04  0.30838347720E+04  0.27960300259E+04 0.  0.
        5    1    3    3  502    0  0.36839441783E+03  0.81075586892E+03 -0.53817106593E+03  0.10405237682E+04  0.46999998093E+01 0. -1.
       -5    1    3    3    0  502 -0.36839441783E+03 -0.81075586892E+03  0.18390373140E+04  0.20433110038E+04  0.46999998093E+01 0.  1.
</event>
<event>
 5   0  0.1881699E-05  0.2701971E+04  0.7818609E-02  0.8334366E-01
       -2   -1    0    0    0  501  0.00000000000E+00  0.00000000000E+00  0.10257612635E+04  0.10257612635E+04  0.25500000920E-02 0. -1.
        2   -1    0    0  501    0  0.00000000000E+00  0.00000000000E+00 -0.17793235717E+04  0.17793235717E+04  0.25500000920E-02 0.  1.
    10030    2    1    2    0    0  0.00000000000E+00  0.00000000000E+00 -0.75356230820E+03  0.28050848351E+04  0.27019705364E+04 0.  0.
        4    1    3    3  502    0 -0.10290567204E+04  0.70327857401E+03  0.16426105798E+03  0.12571960048E+04  0.12699999809E+01 0. -1.
       -4    1    3    3    0  502  0.10290567204E+04 -0.70327857401E+03 -0.91782336618E+03  0.15478888303E+04  0.12699999809E+01 0.  1.
</event>
<event>
 5   0  0.1878160E-05  0.2613543E+04  0.7818609E-02  0.8363616E-01
       -2   -1    0    0    0  501  0.00000000000E+00  0.00000000000E+00  0.76342001989E+03  0.76342001989E+03  0.25500000920E-02 0.  1.
        2   -1    0    0  501    0  0.00000000000E+00  0.00000000000E+00 -0.22368435000E+04  0.22368435000E+04  0.25500000920E-02 0. -1.
    10030    2    1    2    0    0  0.00000000000E+00  0.00000000000E+00 -0.14734234801E+04  0.30002635199E+04  0.26135425072E+04 0.  0.
        1    1    3    3  502    0  0.29695522673E+03  0.11998458794E+04 -0.12235349233E+04  0.17392096623E+04  0.50400001928E-02 0. -1.
       -1    1    3    3    0  502 -0.29695522673E+03 -0.11998458794E+04 -0.24988855681E+03  0.12610538576E+04  0.50400001928E-02 0.  1.
</event>
<event>
 5   0  0.7351590E-06  0.2684730E+04  0.7818609E-02  0.8339977E-01
        1   -1    0    0  501    0  0.00000000000E+00  0.00000000000E+00  0.18565689630E+04  0.18565689630E+04  0.50400001928E-02 0.  1.
       -1   -1    0    0    0  501  0.00000000000E+00  0.00000000000E+00 -0.97057714986E+03  0.97057714987E+03  0.50400001928E-02 0. -1.
    10030    2    1    2    0    0  0.00000000000E+00  0.00000000000E+00  0.88599181312E+03  0.28271461129E+04  0.26847297165E+04 0.  0.
        3    1    3    3  502    0 -0.49965145264E+02 -0.11629348767E+04 -0.26107387971E+03  0.11929264957E+04  0.10100000352E+00 0.  1.
       -3    1    3    3    0  502  0.49965145264E+02  0.11629348767E+04  0.11470656928E+04  0.16342196172E+04  0.10100000352E+00 0. -1.
</event>
<event>
 5   0  0.1931119E-05  0.2674165E+04  0.7818609E-02  0.8343436E-01
       -2   -1    0    0    0  501  0.00000000000E+00  0.00000000000E+00  0.16630060596E+04  0.16630060596E+04  0.25500000920E-02 0. -1.
        2   -1    0    0  501    0  0.00000000000E+00  0.00000000000E+00 -0.10750352043E+04  0.10750352043E+04  0.25500000920E-02 0.  1.
    10030    2    1    2    0    0  0.00000000000E+00  0.00000000000E+00  0.58797085530E+03  0.27380412638E+04  0.26741653344E+04 0.  0.
        3    1    3    3  502    0  0.12400396624E+04  0.38067178140E+03  0.62604784092E+03  0.14403281844E+04  0.10100000352E+00 0. -1.
       -3    1    3    3    0  502 -0.12400396624E+04 -0.38067178140E+03 -0.38076985619E+02  0.12977130794E+04  0.10100000352E+00 0.  1.
</event>
<event>
 5   0  0.7351590E-06  0.2684716E+04  0.7818609E-02  0.8339981E-01
       -1   -1    0    0    0  501  0.00000000000E+00  0.00000000000E+00  0.83807018549E+03  0.83807018550E+03  0.50400001928E-02 0. -1.
        1   -1    0    0  501    0  0.00000000000E+00  0.00000000000E+00 -0.21500882361E+04  0.21500882361E+04  0.50400001928E-02 0.  1.
    10030    2    1    2    0    0  0.00000000000E+00  0.00000000000E+00 -0.13120180506E+04  0.29881584216E+04  0.26847158858E+04 0.  0.
        3    1    3    3  502    0 -0.16157893775E+03  0.55762526853E+03 -0.20031250362E+04  0.20855607433E+04  0.10100000352E+00 0.  1.
       -3    1    3    3    0  502  0.16157893775E+03 -0.55762526853E+03  0.69110698555E+03  0.90259767832E+03  0.10100000352E+00 0. -1.
</event>
<event>
 5   0  0.7600052E-06  0.2696061E+04  0.7818609E-02  0.8336284E-01
        1   -1    0    0  501    0  0.00000000000E+00  0.00000000000E+00  0.19152621072E+04  0.19152621072E+04  0.50400001928E-02 0. -1.
       -1   -1    0    0    0  501  0.00000000000E+00  0.00000000000E+00 -0.94879211174E+03  0.94879211175E+03  0.50400001928E-02 0.  1.
    10030    2    1    2    0    0  0.00000000000E+00  0.00000000000E+00  0.96646999550E+03  0.28640542190E+04  0.26960605181E+04 0.  0.
        5    1    3    3  502    0 -0.25336396074E+03  0.31082998561E+03  0.18504231897E+04  0.18933823300E+04  0.46999998093E+01 0. -1.
       -5    1    3    3    0  502  0.25336396074E+03 -0.31082998561E+03 -0.88395319420E+03  0.97067188900E+03  0.46999998093E+01 0.  1.
</event>
<event>
 5   0  0.7348964E-06  0.2796860E+04  0.7818609E-02  0.8304244E-01
       -1   -1    0    0    0  501  0.00000000000E+00  0.00000000000E+00  0.15004225904E+04  0.15004225904E+04  0.50400001928E-02 0. -1.
        1   -1    0    0  501    0  0.00000000000E+00  0.00000000000E+00 -0.13033704531E+04  0.13033704531E+04  0.50400001928E-02 0.  1.
    10030    2    1    2    0    0  0.00000000000E+00  0.00000000000E+00  0.19705213735E+03  0.28037930435E+04  0.27968600047E+04 0.  0.
        1    1    3    3  502    0  0.58048936642E+03 -0.13815882770E+03  0.13663946246E+04  0.14910030303E+04  0.50400001928E-02 0. -1.
       -1    1    3    3    0  502 -0.58048936642E+03  0.13815882770E+03 -0.11693424873E+04  0.13127900132E+04  0.50400001928E-02 0.  1.
</event>
<event>
 5   0  0.7348964E-06  0.2671446E+04  0.7818609E-02  0.8344330E-01
       -1   -1    0    0    0  501  0.00000000000E+00  0.00000000000E+00  0.13603374141E+04  0.13603374141E+04  0.50400001928E-02 0. -1.
        1   -1    0    0  501    0  0.00000000000E+00  0.00000000000E+00 -0.13115536654E+04  0.13115536654E+04  0.50400001928E-02 0.  1.
    10030    2    1    2    0    0  0.00000000000E+00  0.00000000000E+00  0.48783748726E+02  0.26718910795E+04  0.26714456922E+04 0.  0.
        1    1    3    3  502    0  0.60926685947E+02 -0.13268983669E+04  0.16507158815E+03  0.13385140890E+04  0.50400001928E-02 0. -1.
       -1    1    3    3    0  502 -0.60926685947E+02  0.13268983669E+04 -0.11628783942E+03  0.13333769905E+04  0.50400001928E-02 0.  1.
</event>
<event>
 5   0  0.1931119E-05  0.2707288E+04  0.7818609E-02  0.8332644E-01
        2   -1    0    0  501    0  0.00000000000E+00  0.00000000000E+00  0.10205476328E+04  0.10205476328E+04  0.25500000920E-02 0.  1.
       -2   -1    0    0    0  501  0.00000000000E+00  0.00000000000E+00 -0.17954599137E+04  0.17954599137E+04  0.25500000920E-02 0. -1.
    10030    2    1    2    0    0  0.00000000000E+00  0.00000000000E+00 -0.77491228088E+03  0.28160075465E+04  0.27072882113E+04 0.  0.
        3    1    3    3  502    0  0.32332401121E+03  0.57828907941E+03 -0.16152813665E+04  0.17458781684E+04  0.10100000352E+00 0. -1.
       -3    1    3    3    0  502 -0.32332401121E+03 -0.57828907941E+03  0.84036908566E+03  0.10701293781E+04  0.10100000352E+00 0.  1.
</event>
<event>
 5   0  0.7348964E-06  0.2684624E+04  0.7818609E-02  0.8340011E-01
        1   -1    0    0  501    0  0.00000000000E+00  0.00000000000E+00  0.14253963693E+04  0.14253963693E+04  0.50400001928E-02 0. -1.
       -1   -1    0    0    0  501  0.00000000000E+00  0.00000000000E+00 -0.12640703654E+04  0.12640703654E+04  0.50400001928E-02 0.  1.
    10030    2    1    2    0    0  0.00000000000E+00  0.00000000000E+00  0.16132600391E+03  0.26894667347E+04  0.26846238540E+04 0.  0.
        1    1    3    3  502    0 -0.97982086882E+03  0.40139448526E+02  0.99890863868E+03  0.13998137657E+04  0.50400001928E-02 0. -1.
       -1    1    3    3    0  502  0.97982086882E+03 -0.40139448526E+02 -0.83758263476E+03  0.12896529690E+04  0.50400001928E-02 0.  1.
</event>
<event>
 5   0  0.6804685E-06  0.2650870E+04  0.7818609E-02  0.8351124E-01
       -1   -1    0    0    0  501  0.00000000000E+00  0.00000000000E+00  0.11875936510E+04  0.11875936510E+04  0.50400001928E-02 0.  1.
        1   -1    0    0  501    0  0.00000000000E+00  0.00000000000E+00 -0.14792750051E+04  0.14792750052E+04  0.50400001928E-02 0. -1.
    10030    2    1    2    0    0  0.00000000000E+00  0.00000000000E+00 -0.29168135417E+03  0.26668686562E+04  0.26508697472E+04 0.  0.
        2    1    3    3  502    0  0.12436563637E+04  0.89922331079E+02  0.30632764374E+03  0.12839796735E+04  0.25500000920E-02 0.  1.
       -2    1    3    3    0  502 -0.12436563637E+04 -0.89922331079E+02 -0.59800899790E+03  0.13828889826E+04  0.25500000920E-02 0. -1.
</event>
<event>
 5   0  0.7600052E-06  0.2420877E+04  0.7818609E-02  0.8431729E-01
        1   -1    0    0  501    0  0.00000000000E+00  0.00000000000E+00  0.15469108333E+04  0.15469108333E+04  0.50400001928E-02 0.  1.
       -1   -1    0    0    0  501  0.00000000000E+00  0.00000000000E+00 -0.94715294440E+03  0.94715294441E+03  0.50400001928E-02 0. -1.
    10030    2    1    2    0    0  0.00000000000E+00  0.00000000000E+00  0.59975788887E+03  0.24940637777E+04  0.24208768250E+04 0.  0.
        5    1    3    3  502    0  0.74890845190E+03 -0.36521223766E+03 -0.60467096885E+03  0.10295110094E+04  0.46999998093E+01 0. -1.
       -5    1    3    3    0  502 -0.74890845190E+03  0.36521223766E+03  0.12044288577E+04  0.14645527683E+04  0.46999998093E+01 0.  1.
</event>
<event>
 5   0  0.1878160E-05  0.1966015E+04  0.7818609E-02  0.8622677E-01
        2   -1    0    0  501    0  0.00000000000E+00  0.00000000000E+00  0.24255112413E+04  0.24255112413E+04  0.25500000920E-02 0.  1.
       -2   -1    0    0    0  501  0.00000000000E+00  0.00000000000E+00 -0.39839187523E+03  0.39839187524E+03  0.25500000920E-02 0. -1.
    10030    2    1    2    0    0  0.00000000000E+00  0.00000000000E+00  0.20271193661E+04  0.28239031165E+04  0.19660152307E+04 0.  0.
        1    1    3    3  502    0  0.11808730265E+02 -0.88893330281E+03  0.16160811070E+04  0.18444674048E+04  0.50400001928E-02 0.  1.
       -1    1    3    3    0  502 -0.11808730265E+02  0.88893330281E+03  0.41103825903E+03  0.97943571170E+03  0.50400001928E-02 0. -1.
</event>
<event>
 5   0  0.1931119E-05  0.2830449E+04  0.7818609E-02  0.8293877E-01
       -2   -1    0    0    0  501  0.00000000000E+00  0.00000000000E+00  0.11101300787E+04  0.11101300787E+04  0.25500000920E-02 0. -1.
        2   -1    0    0  501    0  0.00000000000E+00  0.00000000000E+00 -0.18041672153E+04  0.18041672153E+04  0.25500000920E-02 0.  1.
    10030    2    1    2    0    0  0.00000000000E+00  0.00000000000E+00 -0.69403713654E+03  0.29142972940E+04  0.28304489345E+04 0.  0.
        3    1    3    3  502    0  0.53609994474E+03  0.10315184559E+04  0.48400117575E+03  0.12592420831E+04  0.10100000352E+00 0. -1.
       -3    1    3    3    0  502 -0.53609994474E+03 -0.10315184559E+04 -0.11780383123E+04  0.16550552109E+04  0.10100000352E+00 0.  1.
</event>
<event>
 5   0  0.7348964E-06  0.2721196E+04  0.7818609E-02  0.8328160E-01
        1   -1    0    0  501    0  0.00000000000E+00  0.00000000000E+00  0.14750503914E+04  0.14750503914E+04  0.50400001928E-02 0.  1.
       -1   -1    0    0    0  501  0.00000000000E+00  0.00000000000E+00 -0.12550261769E+04  0.12550261769E+04  0.50400001928E-02 0. -1.
    10030    2    1    2    0    0  0.00000000000E+00  0.00000000000E+00  0.22002421455E+03  0.27300765683E+04  0.27211959528E+04 0.  0.
        1    1    3    3  502    0 -0.19804256592E+03  0.81307038247E+03  0.11863238054E+04  0.14517811392E+04  0.50400001928E-02 0.  1.
       -1    1    3    3    0  502  0.19804256592E+03 -0.81307038247E+03 -0.96629959086E+03  0.12782954291E+04  0.50400001928E-02 0. -1.
</event>
<event>
 5   0  0.6804685E-06  0.2781601E+04  0.7818609E-02  0.8309003E-01
       -1   -1    0    0    0  501  0.00000000000E+00  0.00000000000E+00  0.88235434032E+03  0.88235434033E+03  0.50400001928E-02 0.  1.
        1   -1    0    0  501    0  0.00000000000E+00  0.00000000000E+00 -0.21922325994E+04  0.21922325994E+04  0.50400001928E-02 0. -1.
    10030    2    1    2    0    0  0.00000000000E+00  0.00000000000E+00 -0.13098782591E+04  0.30745869397E+04  0.27816009413E+04 0.  0.
        2    1    3    3  502    0 -0.23792736013E+03  0.11735624108E+04  0.12701273317E+03  0.12041554696E+04  0.25500000920E-02 0. -1.
       -2    1    3    3    0  502  0.23792736013E+03 -0.11735624108E+04 -0.14368909923E+04  0.18704314701E+04  0.25500000920E-02 0.  1.
</event>
<event>
 5   0  0.7754912E-06  0.2742396E+04  0.7818609E-02  0.8321379E-01
       -1   -1    0    0    0  501  0.00000000000E+00  0.00000000000E+00  0.95938322791E+03  0.95938322793E+03  0.50400001928E-02 0. -1.
        1   -1    0    0  501    0  0.00000000000E+00  0.00000000000E+00 -0.19597842587E+04  0.19597842587E+04  0.50400001928E-02 0.  1.
    10030    2    1    2    0    0  0.00000000000E+00  0.00000000000E+00 -0.10004010308E+04  0.29191674866E+04  0.27423961407E+04 0.  0.
        4    1    3    3  502    0 -0.12458941678E+04  0.33104797797E+03 -0.28151705344E+01  0.12891293881E+04  0.12699999809E+01 0. -1.
       -4    1    3    3    0  502  0.12458941678E+04 -0.33104797797E+03 -0.99758586025E+03  0.16300380985E+04  0.12699999809E+01 0.  1.
</event>
<event>
 5   0  0.7351590E-06  0.2691131E+04  0.7818609E-02  0.8337888E-01
       -1   -1    0    0    0  501  0.00000000000E+00  0.00000000000E+00  0.74753640987E+03  0.74753640989E+03  0.50400001928E-02 0. -1.
        1   -1    0    0  501    0  0.00000000000E+00  0.00000000000E+00 -0.24220182312E+04  0.24220182312E+04  0.50400001928E-02 0.  1.
    10030    2    1    2    0    0  0.00000000000E+00  0.00000000000E+00 -0.16744818214E+04  0.31695546411E+04  0.26911312218E+04 0.  0.
        3    1    3    3  502    0  0.10980447326E+04 -0.76139738160E+03 -0.10239051158E+04  0.16833923797E+04  0.10100000352E+00 0.  1.
       -3    1    3    3    0  502 -0.10980447326E+04  0.76139738160E+03 -0.65057670553E+03  0.14861622615E+04  0.10100000352E+00 0. -1.
</event>
<event>
 5   0  0.7348964E-06  0.2671251E+04  0.7818609E-02  0.8344394E-01
        1   -1    0    0  501    0  0.00000000000E+00  0.00000000000E+00  0.79363737236E+03  0.79363737237E+03  0.50400001928E-02 0.  1.
       -1   -1    0    0    0  501  0.00000000000E+00  0.00000000000E+00 -0.22477469418E+04  0.22477469418E+04  0.50400001928E-02 0. -1.
    10030    2    1    2    0    0  0.00000000000E+00  0.00000000000E+00 -0.14541095695E+04  0.30413843142E+04  0.26712513747E+04 0.  0.
        1    1    3    3  502    0  0.79070800872E+03  0.10454506825E+04 -0.10189125544E+04  0.16602316339E+04  0.50400001928E-02 0. -1.
       -1    1    3    3    0  502 -0.79070800872E+03 -0.10454506825E+04 -0.43519701509E+03  0.13811526804E+04  0.50400001928E-02 0.  1.
</event>
<event>
 5   0  0.1881699E-05  0.2728480E+04  0.7818609E-02  0.8325823E-01
       -2   -1    0    0    0  501  0.00000000000E+00  0.00000000000E+00  0.16402335450E+04  0.16402335450E+04  0.25500000920E-02 0. -1.
        2   -1    0    0  501    0  0.00000000000E+00  0.00000000000E+00 -0.11346865707E+04  0.11346865707E+04  0.25500000920E-02 0.  1.
    10030    2    1    2    0    0  0.00000000000E+00  0.00000000000E+00  0.50554697425E+03  0.27749201157E+04  0.27284801457E+04 0.  0.
        4    1    3    3  502    0 -0.66509174738E+03 -0.38943066170E+03 -0.89206186371E+03  0.11788889915E+04  0.12699999809E+01 0.  1.
       -4    1    3    3    0  502  0.66509174738E+03  0.38943066170E+03  0.13976088380E+04  0.15960311242E+04  0.12699999809E+01 0. -1.
</event>
<event>
 5   0  0.1881699E-05  0.2201636E+04  0.7818609E-02  0.8517747E-01
       -2   -1    0    0    0  501  0.00000000000E+00  0.00000000000E+00  0.57738264649E+03  0.57738264649E+03  0.25500000920E-02 0.  1.
        2   -1    0    0  501    0  0.00000000000E+00  0.00000000000E+00 -0.20987820054E+04  0.20987820054E+04  0.25500000920E-02 0. -1.
    10030    2    1    2    0    0  0.00000000000E+00  0.00000000000E+00 -0.15213993589E+04  0.26761646519E+04  0.22016360359E+04 0.  0.
        4    1    3    3  502    0 -0.26913554230E+03 -0.10293037641E+04 -0.11042866322E+04  0.15334114770E+04  0.12699999809E+01 0. -1.
       -4    1    3    3    0  502  0.26913554230E+03  0.10293037641E+04 -0.41711272676E+03  0.11427531749E+04  0.12699999809E+01 0.  1.
</event>
<event>
 5   0  0.7348964E-06  0.2385163E+04  0.7818609E-02  0.8445079E-01
       -1   -1    0    0    0  501  0.00000000000E+00  0.00000000000E+00  0.13316638981E+04  0.13316638981E+04  0.50400001928E-02 0. -1.
        1   -1    0    0  501    0  0.00000000000E+00  0.00000000000E+00 -0.10680254030E+04  0.10680254030E+04  0.50400001928E-02 0.  1.
    10030    2    1    2    0    0  0.00000000000E+00  0.00000000000E+00  0.26363849510E+03  0.23996893011E+04  0.23851631990E+04 0.  0.
        1    1    3    3  502    0  0.10385711113E+04 -0.31577315318E+03 -0.36505918475E+03  0.11452557994E+04  0.50400001928E-02 0.  1.
       -1    1    3    3    0  502 -0.10385711113E+04  0.31577315318E+03  0.62869767985E+03  0.12544335017E+04  0.50400001928E-02 0. -1.
</event>
<event>
 5   0  0.7754912E-06  0.2639821E+04  0.7818609E-02  0.8354800E-01
        1   -1    0    0  501    0  0.00000000000E+00  0.00000000000E+00  0.10451220977E+04  0.10451220978E+04  0.50400001928E-02 0.  1.
       -1   -1    0    0    0  501  0.00000000000E+00  0.00000000000E+00 -0.16669470044E+04  0.16669470044E+04  0.50400001928E-02 0. -1.
    10030    2    1    2    0    0  0.00000000000E+00  0.00000000000E+00 -0.62182490669E+03  0.27120691022E+04  0.26398205622E+04 0.  0.
        4    1    3    3  502    0  0.75628412979E+03  0.25368853227E+03 -0.13912814049E+04  0.16037422227E+04  0.12699999809E+01 0. -1.
       -4    1    3    3    0  502 -0.75628412979E+03 -0.25368853227E+03  0.76945649818E+03  0.11083268795E+04  0.12699999809E+01 0.  1.
</event>
<event>
 5   0  0.1881699E-05  0.2690621E+04  0.7818609E-02  0.8338054E-01
       -2   -1    0    0    0  501  0.00000000000E+00  0.00000000000E+00  0.12624030934E+04  0.12624030935E+04  0.25500000920E-02 0. -1.
        2   -1    0    0  501    0  0.00000000000E+00  0.00000000000E+00 -0.14336630561E+04  0.14336630561E+04  0.25500000920E-02 0.  1.
    10030    2    1    2    0    0  0.00000000000E+00  0.00000000000E+00 -0.17125996268E+03  0.26960661496E+04  0.26906212495E+04 0.  0.
        4    1    3    3  502    0 -0.85409375746E+03 -0.95198047519E+03  0.33248663962E+03  0.13214734012E+04  0.12699999809E+01 0. -1.
       -4    1    3    3    0  502  0.85409375746E+03  0.95198047519E+03 -0.50374660230E+03  0.13745927484E+04  0.12699999809E+01 0.  1.
</event>
<event>
 5   0  0.1881699E-05  0.2715736E+04  0.7818609E-02  0.8329917E-01
       -2   -1    0    0    0  501  0.00000000000E+00  0.00000000000E+00  0.11395765146E+04  0.11395765146E+04  0.25500000920E-02 0. -1.
        2   -1    0    0  501    0  0.00000000000E+00  0.00000000000E+00 -0.16179747304E+04  0.16179747304E+04  0.25500000920E-02 0.  1.
    10030    2    1    2    0    0  0.00000000000E+00  0.00000000000E+00 -0.47839821577E+03  0.27575512450E+04  0.27157363671E+04 0.  0.
        4    1    3    3  502    0 -0.30463497641E+03  0.12777073248E+04  0.11028923070E+03  0.13181440756E+04  0.12699999809E+01 0. -1.
       -4    1    3    3    0  502  0.30463497641E+03 -0.12777073248E+04 -0.58868744647E+03  0.14394071694E+04  0.12699999809E+01 0.  1.
</event>
<event>
 5   0  0.1826851E-05  0.2713988E+04  0.7818609E-02  0.8330480E-01
        2   -1    0    0  501    0  0.00000000000E+00  0.00000000000E+00  0.18970808509E+04  0.18970808509E+04  0.25500000920E-02 0.  1.
       -2   -1    0    0    0  501  0.00000000000E+00  0.00000000000E+00 -0.97066677189E+03  0.97066677190E+03  0.25500000920E-02 0. -1.
    10030    2    1    2    0    0  0.00000000000E+00  0.00000000000E+00  0.92641407900E+03  0.28677476228E+04  0.27139884639E+04 0.  0.
        5    1    3    3  502    0 -0.67342538977E+01 -0.12005694645E+04  0.11314929598E+04  0.16497608303E+04  0.46999998093E+01 0.  1.
       -5    1    3    3    0  502  0.67342538977E+01  0.12005694645E+04 -0.20507888076E+03  0.12179867925E+04  0.46999998093E+01 0. -1.
</event>
<event>
 5   0  0.1878160E-05  0.2618990E+04  0.7818609E-02  0.8361779E-01
        2   -1    0    0  501    0  0.00000000000E+00  0.00000000000E+00  0.83447709314E+03  0.83447709314E+03  0.25500000920E-02 0.  1.
       -2   -1    0    0    0  501  0.00000000000E+00  0.00000000000E+00 -0.20549127256E+04  0.20549127256E+04  0.25500000920E-02 0. -1.
    10030    2    1    2    0    0  0.00000000000E+00  0.00000000000E+00 -0.12204356325E+04  0.28893898188E+04  0.26189903382E+04 0.  0.
        1    1    3    3  502    0  0.37362181398E+03  0.68882076415E+03  0.54724955104E+03  0.95579776948E+03  0.50400001928E-02 0.  1.
       -1    1    3    3    0  502 -0.37362181398E+03 -0.68882076415E+03 -0.17676851835E+04  0.19335920493E+04  0.50400001928E-02 0. -1.
</event>
<event>
 5   0  0.6175875E-06  0.2690781E+04  0.7818609E-02  0.8338002E-01
        3   -1    0    0  501    0  0.00000000000E+00  0.00000000000E+00  0.11085273734E+04  0.11085273780E+04  0.10100000352E+00 0.  1.
       -3   -1    0    0    0  501  0.00000000000E+00  0.00000000000E+00 -0.16328650069E+04  0.16328650100E+04  0.10100000352E+00 0. -1.
    10030    2    1    2    0    0  0.00000000000E+00  0.00000000000E+00 -0.52433763345E+03  0.27413923881E+04  0.26907809780E+04 0.  0.
        4    1    3    3  502    0 -0.11254942288E+03  0.83774242474E+03  0.80422524579E+03  0.11667303037E+04  0.12699999809E+01 0.  1.
       -4    1    3    3    0  502  0.11254942288E+03 -0.83774242474E+03 -0.13285628792E+04  0.15746620843E+04  0.12699999809E+01 0. -1.
</event>
<event>
 5   0  0.1826851E-05  0.2650594E+04  0.7818609E-02  0.8351216E-01
        2   -1    0    0  501    0  0.00000000000E+00  0.00000000000E+00  0.19236666076E+04  0.19236666076E+04  0.25500000920E-02 0.  1.
       -2   -1    0    0    0  501  0.00000000000E+00  0.00000000000E+00 -0.91305419592E+03  0.91305419593E+03  0.25500000920E-02 0. -1.
    10030    2    1    2    0    0  0.00000000000E+00  0.00000000000E+00  0.10106124117E+04  0.28367208036E+04  0.26505937959E+04 0.  0.
        5    1    3    3  502    0 -0.10668456631E+04  0.78612588537E+03  0.48885815762E+03  0.14125006070E+04  0.46999998093E+01 0.  1.
       -5    1    3    3    0  502  0.10668456631E+04 -0.78612588537E+03  0.52175425409E+03  0.14242201965E+04  0.46999998093E+01 0. -1.
</event>
<event>
 5   0  0.6804685E-06  0.2691651E+04  0.7818609E-02  0.8337719E-01
       -1   -1    0    0    0  501  0.00000000000E+00  0.00000000000E+00  0.55718424684E+03  0.55718424686E+03  0.50400001928E-02 0.  1.
        1   -1    0    0  501    0  0.00000000000E+00  0.00000000000E+00 -0.32507127331E+04  0.32507127331E+04  0.50400001928E-02 0. -1.
    10030    2    1    2    0    0  0.00000000000E+00  0.00000000000E+00 -0.26935284863E+04  0.38078969800E+04  0.26916507396E+04 0.  0.
        2    1    3    3  502    0 -0.55694440301E+03  0.10678756910E+04 -0.49711480285E+03  0.13029461565E+04  0.25500000920E-02 0.  1.
       -2    1    3    3    0  502  0.55694440301E+03 -0.10678756910E+04 -0.21964136834E+04  0.25049508235E+04  0.25500000920E-02 0. -1.
</event>
<event>
 5   0  0.1826851E-05  0.2673969E+04  0.7818609E-02  0.8343501E-01
       -2   -1    0    0    0  501  0.00000000000E+00  0.00000000000E+00  0.18116937421E+04  0.18116937421E+04  0.25500000920E-02 0.  1.
        2   -1    0    0  501    0  0.00000000000E+00  0.00000000000E+00 -0.98666115487E+03  0.98666115487E+03  0.25500000920E-02 0. -1.
    10030    2    1    2    0    0  0.00000000000E+00  0.00000000000E+00  0.82503258727E+03  0.27983548970E+04  0.26739692144E+04 0.  0.
        5    1    3    3  502    0 -0.97759135365E+03  0.91192736463E+03  0.42765925007E+03  0.14036420118E+04  0.46999998093E+01 0. -1.
       -5    1    3    3    0  502  0.97759135365E+03 -0.91192736463E+03  0.39737333721E+03  0.13947128852E+04  0.46999998093E+01 0.  1.
</event>
<event>
 5   0  0.7351590E-06  0.2682014E+04  0.7818609E-02  0.8340864E-01
       -1   -1    0    0    0  501  0.00000000000E+00  0.00000000000E+00  0.13052457063E+04  0.13052457063E+04  0.50400001928E-02 0. -1.
        1   -1    0    0  501    0  0.00000000000E+00  0.00000000000E+00 -0.13777483425E+04  0.13777483425E+04  0.50400001928E-02 0.  1.
    10030    2    1    2    0    0  0.00000000000E+00  0.00000000000E+00 -0.72502636189E+02  0.26829940489E+04  0.26820142494E+04 0.  0.
        3    1    3    3  502    0 -0.13296038672E+04 -0.15662188540E+03 -0.11324201955E+03  0.13435775467E+04  0.10100000352E+00 0.  1.
       -3    1    3    3    0  502  0.13296038672E+04  0.15662188540E+03  0.40739383363E+02  0.13394165022E+04  0.10100000352E+00 0. -1.
</event>
<event>
 5   0  0.7754912E-06  0.2499230E+04  0.7818609E-02  0.8403260E-01
        1   -1    0    0  501    0  0.00000000000E+00  0.00000000000E+00  0.12542938498E+04  0.12542938498E+04  0.50400001928E-02 0. -1.
       -1   -1    0    0    0  501  0.00000000000E+00  0.00000000000E+00 -0.12449532001E+04  0.12449532001E+04  0.50400001928E-02 0.  1.
    10030    2    1    2    0    0  0.00000000000E+00  0.00000000000E+00  0.93406496686E+01  0.24992470500E+04  0.24992295951E+04 0.  0.
        4    1    3    3  502    0  0.62084352627E+03 -0.20830616222E+03 -0.10596196779E+04  0.12456458630E+04  0.12699999809E+01 0.  1.
       -4    1    3    3    0  502 -0.62084352627E+03  0.20830616222E+03  0.10689603275E+04  0.12536011870E+04  0.12699999809E+01 0. -1.
</event>
<event>
 5   0  0.7351590E-06  0.2699939E+04  0.7818609E-02  0.8335025E-01
        1   -1    0    0  501    0  0.00000000000E+00  0.00000000000E+00  0.17736115956E+04  0.17736115956E+04  0.50400001928E-02 0.  1.
       -1   -1    0    0    0  501  0.00000000000E+00  0.00000000000E+00 -0.10275180680E+04  0.10275180680E+04  0.50400001928E-02 0. -1.
    10030    2    1    2    0    0  0.00000000000E+00  0.00000000000E+00  0.74609352756E+03  0.28011296636E+04  0.26999392290E+04 0.  0.
        3    1    3    3  502    0 -0.12975241197E+04 -0.21138959047E+03  0.54685195844E+02  0.13157677914E+04  0.10100000352E+00 0.  1.
       -3    1    3    3    0  502  0.12975241197E+04  0.21138959047E+03  0.69140833171E+03  0.14853618722E+04  0.10100000352E+00 0. -1.
</event>
<event>
 5   0  0.7351590E-06  0.2670497E+04  0.7818609E-02  0.8344642E-01
        1   -1    0    0  501    0  0.00000000000E+00  0.00000000000E+00  0.13113895570E+04  0.13113895570E+04  0.50400001928E-02 0. -1.
       -1   -1    0    0    0  501  0.00000000000E+00  0.00000000000E+00 -0.13595412087E+04  0.13595412087E+04  0.50400001928E-02 0.  1.
    10030    2    1    2    0    0  0.00000000000E+00  0.00000000000E+00 -0.48151651763E+02  0.26709307657E+04  0.26704966904E+04 0.  0.
        3    1    3    3  502    0  0.48225652454E+03 -0.15788491920E+03  0.12111913753E+04  0.13131959340E+04  0.10100000352E+00 0. -1.
       -3    1    3    3    0  502 -0.48225652454E+03  0.15788491920E+03 -0.12593430271E+04  0.13577348317E+04  0.10100000352E+00 0.  1.
</event>
<event>
 5   0  0.1788003E-05  0.2711181E+04  0.7818609E-02  0.8331386E-01
       -2   -1    0    0    0  501  0.00000000000E+00  0.00000000000E+00  0.20575992001E+04  0.20575992001E+04  0.25500000920E-02 0.  1.
        2   -1    0    0  501    0  0.00000000000E+00  0.00000000000E+00 -0.89309178320E+03  0.89309178320E+03  0.25500000920E-02 0. -1.
    10030    2    1    2    0    0  0.00000000000E+00  0.00000000000E+00  0.11645074169E+04  0.29506909833E+04  0.27111805095E+04 0.  0.
        2    1    3    3  502    0 -0.59969779143E+02 -0.60644698833E+03 -0.73560666499E+03  0.95524420419E+03  0.25500000920E-02 0. -1.
       -2    1    3    3    0  502  0.59969779143E+02  0.60644698833E+03  0.19001140819E+04  0.19954467791E+04  0.25500000920E-02 0.  1.
</event>
<event>
 5   0  0.7600052E-06  0.2647330E+04  0.7818609E-02  0.8352300E-01
       -1   -1    0    0    0  501  0.00000000000E+00  0.00000000000E+00  0.97148573313E+03  0.97148573314E+03  0.50400001928E-02 0.  1.
        1   -1    0    0  501    0  0.00000000000E+00  0.00000000000E+00 -0.18035152225E+04  0.18035152225E+04  0.50400001928E-02 0. -1.
    10030    2    1    2    0    0  0.00000000000E+00  0.00000000000E+00 -0.83202948937E+03  0.27750009556E+04  0.26473302085E+04 0.  0.
        5    1    3    3  502    0  0.51545995815E+03  0.14998575298E+03  0.85224045428E+03  0.10072390860E+04  0.46999998093E+01 0.  1.
       -5    1    3    3    0  502 -0.51545995815E+03 -0.14998575298E+03 -0.16842699436E+04  0.17677618696E+04  0.46999998093E+01 0. -1.
</event>
<event>
 5   0  0.6804685E-06  0.2593362E+04  0.7818609E-02  0.8370459E-01
        1   -1    0    0  501    0  0.00000000000E+00  0.00000000000E+00  0.24331384558E+04  0.24331384559E+04  0.50400001928E-02 0. -1.
       -1   -1    0    0    0  501  0.00000000000E+00  0.00000000000E+00 -0.69103428906E+03  0.69103428908E+03  0.50400001928E-02 0.  1.
    10030    2    1    2    0    0  0.00000000000E+00  0.00000000000E+00  0.17421041668E+04  0.31241727449E+04  0.25933623758E+04 0.  0.
        2    1    3    3  502    0 -0.90186746137E+03  0.13565979065E+03 -0.23935586777E+03  0.94289963841E+03  0.25500000920E-02 0.  1.
       -2    1    3    3    0  502  0.90186746137E+03 -0.13565979065E+03  0.19814600346E+04  0.21812731065E+04  0.25500000920E-02 0. -1.
</event>
<event>
 5   0  0.7351590E-06  0.2707170E+04  0.7818609E-02  0.8332682E-01
       -1   -1    0    0    0  501  0.00000000000E+00  0.00000000000E+00  0.11869704704E+04  0.11869704705E+04  0.50400001928E-02 0.  1.
        1   -1    0    0  501    0  0.00000000000E+00  0.00000000000E+00 -0.15435868752E+04  0.15435868752E+04  0.50400001928E-02 0. -1.
    10030    2    1    2    0    0  0.00000000000E+00  0.00000000000E+00 -0.35661640479E+03  0.27305573457E+04  0.27071697690E+04 0.  0.
        3    1    3    3  502    0  0.12932938393E+04  0.97741847797E+02  0.21237459994E+03  0.13142546954E+04  0.10100000352E+00 0.  1.
       -3    1    3    3    0  502 -0.12932938393E+04 -0.97741847797E+02 -0.56899100473E+03  0.14163026503E+04  0.10100000352E+00 0. -1.
</event>
<event>
 5   0  0.1878160E-05  0.2705606E+04  0.7818609E-02  0.8333188E-01
        2   -1    0    0  501    0  0.00000000000E+00  0.00000000000E+00  0.12156327294E+04  0.12156327294E+04  0.25500000920E-02 0.  1.
       -2   -1    0    0    0  501  0.00000000000E+00  0.00000000000E+00 -0.15054512336E+04  0.15054512336E+04  0.25500000920E-02 0. -1.
    10030    2    1    2    0    0  0.00000000000E+00  0.00000000000E+00 -0.28981850419E+03  0.27210839630E+04  0.27056058782E+04 0.  0.
        1    1    3    3  502    0 -0.12593468569E+04 -0.17696966760E+03  0.31903554138E+03  0.13111279289E+04  0.50400001928E-02 0.  1.
       -1    1    3    3    0  502  0.12593468569E+04  0.17696966760E+03 -0.60885404558E+03  0.14099560341E+04  0.50400001928E-02 0. -1.
</event>
<event>
 5   0  0.1788003E-05  0.2850246E+04  0.7818609E-02  0.8287837E-01
       -2   -1    0    0    0  501  0.00000000000E+00  0.00000000000E+00  0.88804105845E+03  0.88804105846E+03  0.25500000920E-02 0.  1.
        2   -1    0    0  501    0  0.00000000000E+00  0.00000000000E+00 -0.22870288441E+04  0.22870288441E+04  0.25500000920E-02 0. -1.
    10030    2    1    2    0    0  0.00000000000E+00  0.00000000000E+00 -0.13989877857E+04  0.31750699026E+04  0.28502459652E+04 0.  0.
        2    1    3    3  502    0 -0.10924424006E+04  0.40603007306E+03  0.21414951593E+03  0.11849687060E+04  0.25500000920E-02 0.  1.
       -2    1    3    3    0  502  0.10924424006E+04 -0.40603007306E+03 -0.16131373016E+04  0.19901011966E+04  0.25500000920E-02 0. -1.
</event>
<event>
 5   0  0.7351590E-06  0.2698899E+04  0.7818609E-02  0.8335362E-01
        1   -1    0    0  501    0  0.00000000000E+00  0.00000000000E+00  0.16284518276E+04  0.16284518276E+04  0.50400001928E-02 0.  1.
       -1   -1    0    0    0  501  0.00000000000E+00  0.00000000000E+00 -0.11182485832E+04  0.11182485832E+04  0.50400001928E-02 0. -1.
    10030    2    1    2    0    0  0.00000000000E+00  0.00000000000E+00  0.51020324445E+03  0.27467004108E+04  0.26988989970E+04 0.  0.
        3    1    3    3  502    0 -0.73332262487E+02 -0.80725619003E+03 -0.84288299534E+03  0.11693981063E+04  0.10100000352E+00 0. -1.
       -3    1    3    3    0  502  0.73332262487E+02  0.80725619003E+03  0.13530862398E+04  0.15773023044E+04  0.10100000352E+00 0.  1.
</event>
<event>
 5   0  0.1878160E-05  0.2699406E+04  0.7818609E-02  0.8335198E-01
       -2   -1    0    0    0  501  0.00000000000E+00  0.00000000000E+00  0.20379374986E+04  0.20379374986E+04  0.25500000920E-02 0. -1.
        2   -1    0    0  501    0  0.00000000000E+00  0.00000000000E+00 -0.89389298490E+03  0.89389298490E+03  0.25500000920E-02 0.  1.
    10030    2    1    2    0    0  0.00000000000E+00  0.00000000000E+00  0.11440445137E+04  0.29318304835E+04  0.26994058855E+04 0.  0.
        1    1    3    3  502    0  0.36958872569E+03  0.77395363571E+03 -0.55987020616E+03  0.10242337156E+04  0.50400001928E-02 0.  1.
       -1    1    3    3    0  502 -0.36958872569E+03 -0.77395363571E+03  0.17039147198E+04  0.19075967679E+04  0.50400001928E-02 0. -1.
</event>
<event>
 5   0  0.7348964E-06  0.2257626E+04  0.7818609E-02  0.8494819E-01
        1   -1    0    0  501    0  0.00000000000E+00  0.00000000000E+00  0.19122739232E+04  0.19122739232E+04  0.50400001928E-02 0. -1.
       -1   -1    0    0    0  501  0.00000000000E+00  0.00000000000E+00 -0.66633674725E+03  0.66633674727E+03  0.50400001928E-02 0.  1.
    10030    2    1    2    0    0  0.00000000000E+00  0.00000000000E+00  0.12459371759E+04  0.25786106704E+04  0.22576256429E+04 0.  0.
        1    1    3    3  502    0  0.42786537793E+03  0.22693496666E+03  0.17875703725E+04  0.18520194646E+04  0.50400001928E-02 0. -1.
       -1    1    3    3    0  502 -0.42786537793E+03 -0.22693496666E+03 -0.54163319657E+03  0.72659120582E+03  0.50400001928E-02 0.  1.
</event>
<event>
 5   0  0.7351590E-06  0.1949453E+04  0.7818609E-02  0.8630624E-01
        1   -1    0    0  501    0  0.00000000000E+00  0.00000000000E+00  0.10844095614E+04  0.10844095614E+04  0.50400001928E-02 0. -1.
       -1   -1    0    0    0  501  0.00000000000E+00  0.00000000000E+00 -0.87613772830E+03  0.87613772832E+03  0.50400001928E-02 0.  1.
    10030    2    1    2    0    0  0.00000000000E+00  0.00000000000E+00  0.20827183306E+03  0.19605472897E+04  0.19494533897E+04 0.  0.
        3    1    3    3  502    0 -0.14235753596E+03  0.37560220901E+02  0.10731625193E+04  0.10832147715E+04  0.10100000352E+00 0. -1.
       -3    1    3    3    0  502  0.14235753596E+03 -0.37560220901E+02 -0.86489068619E+03  0.87733251821E+03  0.10100000352E+00 0.  1.
</event>
<event>
 5   0  0.1881699E-05  0.2686904E+04  0.7818609E-02  0.8339267E-01
       -2   -1    0    0    0  501  0.00000000000E+00  0.00000000000E+00  0.75415174381E+03  0.75415174382E+03  0.25500000920E-02 0. -1.
        2   -1    0    0  501    0  0.00000000000E+00  0.00000000000E+00 -0.23932364309E+04  0.23932364309E+04  0.25500000920E-02 0.  1.
    10030    2    1    2    0    0  0.00000000000E+00  0.00000000000E+00 -0.16390846871E+04  0.31473881747E+04  0.26869041127E+04 0.  0.
        4    1    3    3  502    0  0.12136226965E+04 -0.13282663612E+03 -0.14762879420E+04  0.19157115298E+04  0.12699999809E+01 0.  1.
       -4    1    3    3    0  502 -0.12136226965E+04  0.13282663612E+03 -0.16279674512E+03  0.12316766450E+04  0.12699999809E+01 0. -1.
</event>
<event>
 5   0  0.6804685E-06  0.2606314E+04  0.7818609E-02  0.8366060E-01
       -1   -1    0    0    0  501  0.00000000000E+00  0.00000000000E+00  0.12164168045E+04  0.12164168045E+04  0.50400001928E-02 0.  1.
        1   -1    0    0  501    0  0.00000000000E+00  0.00000000000E+00 -0.13960819648E+04  0.13960819648E+04  0.50400001928E-02 0. -1.
    10030    2    1    2    0    0  0.00000000000E+00  0.00000000000E+00 -0.17966516032E+03  0.26124987692E+04  0.26063135363E+04 0.  0.
        2    1    3    3  502    0  0.11019410134E+04 -0.65655185692E+03 -0.32034185216E+03  0.13221018267E+04  0.25500000920E-02 0.  1.
       -2    1    3    3    0  502 -0.11019410134E+04  0.65655185692E+03  0.14067669184E+03  0.12903969426E+04  0.25500000920E-02 0. -1.
</event>
<event>
 5   0  0.1878160E-05  0.2746892E+04  0.7818609E-02  0.8319948E-01
        2   -1    0    0  501    0  0.00000000000E+00  0.00000000000E+00  0.12852994931E+04  0.12852994931E+04  0.25500000920E-02 0.  1.
       -2   -1    0    0    0  501  0.00000000000E+00  0.00000000000E+00 -0.14676378646E+04  0.14676378646E+04  0.25500000920E-02 0. -1.
    10030    2    1    2    0    0  0.00000000000E+00  0.00000000000E+00 -0.18233837150E+03  0.27529373577E+04  0.27468922101E+04 0.  0.
        1    1    3    3  502    0 -0.68816681640E+03  0.51967542640E+03 -0.11625016424E+04  0.14474274368E+04  0.50400001928E-02 0. -1.
       -1    1    3    3    0  502  0.68816681640E+03 -0.51967542640E+03  0.98016327094E+03  0.13055099210E+04  0.50400001928E-02 0.  1.
</event>
<event>
 5   0  0.1826851E-05  0.2665046E+04  0.7818609E-02  0.8346436E-01
       -2   -1    0    0    0  501  0.00000000000E+00  0.00000000000E+00  0.11996326888E+04  0.11996326888E+04  0.25500000920E-02 0. -1.
        2   -1    0    0  501    0  0.00000000000E+00  0.00000000000E+00 -0.14801339577E+04  0.14801339577E+04  0.25500000920E-02 0.  1.
    10030    2    1    2    0    0  0.00000000000E+00  0.00000000000E+00 -0.28050126889E+03  0.26797666465E+04  0.26650456503E+04 0.  0.
        5    1    3    3  502    0 -0.32037535852E+03  0.77776547656E+03  0.89891593175E+03  0.12311098445E+04  0.46999998093E+01 0. -1.
       -5    1    3    3    0  502  0.32037535852E+03 -0.77776547656E+03 -0.11794172006E+04  0.14486568020E+04  0.46999998093E+01 0.  1.
</event>
<event>
 5   0  0.1881699E-05  0.2801957E+04  0.7818609E-02  0.8302661E-01
        2   -1    0    0  501    0  0.00000000000E+00  0.00000000000E+00  0.13685697891E+04  0.13685697891E+04  0.25500000920E-02 0. -1.
       -2   -1    0    0    0  501  0.00000000000E+00  0.00000000000E+00 -0.14341546933E+04  0.14341546933E+04  0.25500000920E-02 0.  1.
    10030    2    1    2    0    0  0.00000000000E+00  0.00000000000E+00 -0.65584904286E+02  0.28027244824E+04  0.28019570205E+04 0.  0.
        4    1    3    3  502    0  0.12565708777E+04 -0.57087183866E+03 -0.27342880512E+03  0.14069932307E+04  0.12699999809E+01 0.  1.
       -4    1    3    3    0  502 -0.12565708777E+04  0.57087183866E+03  0.20784390083E+03  0.13957312517E+04  0.12699999809E+01 0. -1.
</event>
<event>
 5   0  0.7351590E-06  0.2632100E+04  0.7818609E-02  0.8357379E-01
        1   -1    0    0  501    0  0.00000000000E+00  0.00000000000E+00  0.15070470289E+04  0.15070470289E+04  0.50400001928E-02 0.  1.
       -1   -1    0    0    0  501  0.00000000000E+00  0.00000000000E+00 -0.11492594440E+04  0.11492594440E+04  0.50400001928E-02 0. -1.
    10030    2    1    2    0    0  0.00000000000E+00  0.00000000000E+00  0.35778758494E+03  0.26563064729E+04  0.26321003253E+04 0.  0.
        3    1    3    3  502    0  0.87938290663E+03  0.75896361995E+03  0.80316806290E+03  0.14122390096E+04  0.10100000352E+00 0.  1.
       -3    1    3    3    0  502 -0.87938290663E+03 -0.75896361995E+03 -0.44538047796E+03  0.12440674633E+04  0.10100000352E+00 0. -1.
</event>
<event>
 5   0  0.7351590E-06  0.2536321E+04  0.7818609E-02  0.8390159E-01
        1   -1    0    0  501    0  0.00000000000E+00  0.00000000000E+00  0.16733094370E+04  0.16733094370E+04  0.50400001928E-02 0. -1.
       -1   -1    0    0    0  501  0.00000000000E+00  0.00000000000E+00 -0.96110793834E+03  0.96110793835E+03  0.50400001928E-02 0.  1.
    10030    2    1    2    0    0  0.00000000000E+00  0.00000000000E+00  0.71220149868E+03  0.26344173754E+04  0.25363209444E+04 0.  0.
        3    1    3    3  502    0 -0.26109873870E+03 -0.92111338306E+03  0.12198954854E+04  0.15507312538E+04  0.10100000352E+00 0. -1.
       -3    1    3    3    0  502  0.26109873870E+03  0.92111338306E+03 -0.50769398676E+03  0.10836861216E+04  0.10100000352E+00 0.  1.
</event>
<event>
 5   0  0.1931119E-05  0.2751615E+04  0.7818609E-02  0.8318449E-01
        2   -1    0    0  501    0  0.00000000000E+00  0.00000000000E+00  0.12967025395E+04  0.12967025395E+04  0.25500000920E-02 0.  1.
       -2   -1    0    0    0  501  0.00000000000E+00  0.00000000000E+00 -0.14597382400E+04  0.14597382400E+04  0.25500000920E-02 0. -1.
    10030    2    1    2    0    0  0.00000000000E+00  0.00000000000E+00 -0.16303570055E+03  0.27564407795E+04  0.27516150042E+04 0.  0.
        3    1    3    3  502    0 -0.33720357583E+03 -0.43103040740E+02  0.12539676799E+04  0.12992301859E+04  0.10100000352E+00 0.  1.
       -3    1    3    3    0  502  0.33720357583E+03  0.43103040740E+02 -0.14170033804E+04  0.14572105936E+04  0.10100000352E+00 0. -1.
</event>
<event>
 5   0  0.1881699E-05  0.1996037E+04  0.7818609E-02  0.8608476E-01
       -2   -1    0    0    0  501  0.00000000000E+00  0.00000000000E+00  0.55470487680E+03  0.55470487681E+03  0.25500000920E-02 0.  1.
        2   -1    0    0  501    0  0.00000000000E+00  0.00000000000E+00 -0.17956228683E+04  0.17956228683E+04  0.25500000920E-02 0. -1.
    10030    2    1    2    0    0  0.00000000000E+00  0.00000000000E+00 -0.12409179915E+04  0.23503277451E+04  0.19960368353E+04 0.  0.
        4    1    3    3  502    0  0.73468165301E+03 -0.57064164201E+03 -0.19484607300E+03  0.95045021960E+03  0.12699999809E+01 0.  1.
       -4    1    3    3    0  502 -0.73468165301E+03  0.57064164201E+03 -0.10460719185E+04  0.13998775255E+04  0.12699999809E+01 0. -1.
</event>
<event>
 5   0  0.6804685E-06  0.2695437E+04  0.7818609E-02  0.8336487E-01
       -1   -1    0    0    0  501  0.00000000000E+00  0.00000000000E+00  0.16785223195E+04  0.16785223195E+04  0.50400001928E-02 0.  1.
        1   -1    0    0  501    0  0.00000000000E+00  0.00000000000E+00 -0.10821093151E+04  0.10821093151E+04  0.50400001928E-02 0. -1.
    10030    2    1    2    0    0  0.00000000000E+00  0.00000000000E+00  0.59641300440E+03  0.27606316346E+04  0.26954366159E+04 0.  0.
        2    1    3    3  502    0  0.11339522705E+04 -0.72655460051E+03  0.24582958305E+03  0.13690001911E+04  0.25500000920E-02 0.  1.
       -2    1    3    3    0  502 -0.11339522705E+04  0.72655460051E+03  0.35058342135E+03  0.13916314435E+04  0.25500000920E-02 0. -1.
</event>
<event>
 5   0  0.7348964E-06  0.2690453E+04  0.7818609E-02  0.8338109E-01
        1   -1    0    0  501    0  0.00000000000E+00  0.00000000000E+00  0.90005190668E+03  0.90005190669E+03  0.50400001928E-02 0. -1.
       -1   -1    0    0    0  501  0.00000000000E+00  0.00000000000E+00 -0.20105890333E+04  0.20105890334E+04  0.50400001928E-02 0.  1.
    10030    2    1    2    0    0  0.00000000000E+00  0.00000000000E+00 -0.11105371267E+04  0.29106409400E+04  0.26904531165E+04 0.  0.
        1    1    3    3  502    0 -0.36088363187E+03 -0.23468926851E+03  0.82352355805E+03  0.92925082684E+03  0.50400001928E-02 0. -1.
       -1    1    3    3    0  502  0.36088363187E+03  0.23468926851E+03 -0.19340606847E+04  0.19813901132E+04  0.50400001928E-02 0.  1.
</event>
<event>
 5   0  0.6804685E-06  0.2707699E+04  0.7818609E-02  0.8332511E-01
        1   -1    0    0  501    0  0.00000000000E+00  0.00000000000E+00  0.19015883020E+04  0.19015883020E+04  0.50400001928E-02 0. -1.
       -1   -1    0    0    0  501  0.00000000000E+00  0.00000000000E+00 -0.96388257525E+03  0.96388257526E+03  0.50400001928E-02 0.  1.
    10030    2    1    2    0    0  0.00000000000E+00  0.00000000000E+00  0.93770572678E+03  0.28654708773E+04  0.27076985280E+04 0.  0.
        2    1    3    3  502    0 -0.70078465270E+03 -0.16161070812E+03  0.16827240117E+04  0.18299664614E+04  0.25500000920E-02 0. -1.
       -2    1    3    3    0  502  0.70078465270E+03  0.16161070812E+03 -0.74501828490E+03  0.10355044159E+04  0.25500000920E-02 0.  1.
</event>
<event>
 5   0  0.1881699E-05  0.2705877E+04  0.7818609E-02  0.8333101E-01
        2   -1    0    0  501    0  0.00000000000E+00  0.00000000000E+00  0.16528605215E+04  0.16528605215E+04  0.25500000920E-02 0. -1.
       -2   -1    0    0    0  501  0.00000000000E+00  0.00000000000E+00 -0.11074393621E+04  0.11074393621E+04  0.25500000920E-02 0.  1.
    10030    2    1    2    0    0  0.00000000000E+00  0.00000000000E+00  0.54542115939E+03  0.27602998835E+04  0.27058771602E+04 0.  0.
        4    1    3    3  502    0 -0.49418183287E+03  0.12124144233E+04  0.62056271306E+03  0.14488837467E+04  0.12699999809E+01 0.  1.
       -4    1    3    3    0  502  0.49418183287E+03 -0.12124144233E+04 -0.75141553675E+02  0.13114161368E+04  0.12699999809E+01 0. -1.
</event>
<event>
 5   0  0.1881699E-05  0.2683967E+04  0.7818609E-02  0.8340226E-01
        2   -1    0    0  501    0  0.00000000000E+00  0.00000000000E+00  0.22302288038E+04  0.22302288038E+04  0.25500000920E-02 0. -1.
       -2   -1    0    0    0  501  0.00000000000E+00  0.00000000000E+00 -0.80750417346E+03  0.80750417346E+03  0.25500000920E-02 0.  1.
    10030    2    1    2    0    0  0.00000000000E+00  0.00000000000E+00  0.14227246303E+04  0.30377329772E+04  0.26839665175E+04 0.  0.
        4    1    3    3  502    0 -0.57605924166E+03  0.11387132660E+04  0.24141647395E+03  0.12987669841E+04  0.12699999809E+01 0.  1.
       -4    1    3    3    0  502  0.57605924166E+03 -0.11387132660E+04  0.11813081564E+04  0.17389659931E+04  0.12699999809E+01 0. -1.
</event>
<event>
 5   0  0.1826851E-05  0.2535267E+04  0.7818609E-02  0.8390528E-01
       -2   -1    0    0    0  501  0.00000000000E+00  0.00000000000E+00  0.75933854701E+03  0.75933854702E+03  0.25500000920E-02 0. -1.
        2   -1    0    0  501    0  0.00000000000E+00  0.00000000000E+00 -0.21161774916E+04  0.21161774916E+04  0.25500000920E-02 0.  1.
    10030    2    1    2    0    0  0.00000000000E+00  0.00000000000E+00 -0.13568389446E+04  0.28755160387E+04  0.25352673561E+04 0.  0.
        5    1    3    3  502    0 -0.36338740283E+03 -0.84631568740E+03 -0.16662684384E+04  0.19038837271E+04  0.46999998093E+01 0.  1.
       -5    1    3    3    0  502  0.36338740283E+03  0.84631568740E+03  0.30942949381E+03  0.97163231159E+03  0.46999998093E+01 0. -1.
</event>
<event>
 5   0  0.7351590E-06  0.2705610E+04  0.7818609E-02  0.8333187E-01
       -1   -1    0    0    0  501  0.00000000000E+00  0.00000000000E+00  0.15654011461E+04  0.15654011461E+04  0.50400001928E-02 0.  1.
        1   -1    0    0  501    0  0.00000000000E+00  0.00000000000E+00 -0.11690817522E+04  0.11690817522E+04  0.50400001928E-02 0. -1.
    10030    2    1    2    0    0  0.00000000000E+00  0.00000000000E+00  0.39631939392E+03  0.27344828983E+04  0.27056104041E+04 0.  0.
        3    1    3    3  502    0 -0.12907465260E+04  0.40269161816E+03  0.15416621985E+03  0.13608653009E+04  0.10100000352E+00 0. -1.
       -3    1    3    3    0  502  0.12907465260E+04 -0.40269161816E+03  0.24215317407E+03  0.13736175973E+04  0.10100000352E+00 0.  1.
</event>
<event>
 5   0  0.6804685E-06  0.2695406E+04  0.7818609E-02  0.8336497E-01
        1   -1    0    0  501    0  0.00000000000E+00  0.00000000000E+00  0.17158425275E+04  0.17158425275E+04  0.50400001928E-02 0.  1.
       -1   -1    0    0    0  501  0.00000000000E+00  0.00000000000E+00 -0.10585490854E+04  0.10585490854E+04  0.50400001928E-02 0. -1.
    10030    2    1    2    0    0  0.00000000000E+00  0.00000000000E+00  0.65729344210E+03  0.27743916129E+04  0.26954061202E+04 0.  0.
        2    1    3    3  502    0 -0.11894655958E+04  0.23829546623E+03  0.93295445190E+03  0.15303650356E+04  0.25500000920E-02 0. -1.
       -2    1    3    3    0  502  0.11894655958E+04 -0.23829546623E+03 -0.27566100980E+03  0.12440265773E+04  0.25500000920E-02 0.  1.
</event>
<event>
 5   0  0.1878160E-05  0.2689953E+04  0.7818609E-02  0.8338272E-01
        2   -1    0    0  501    0  0.00000000000E+00  0.00000000000E+00  0.10763120349E+04  0.10763120349E+04  0.25500000920E-02 0. -1.
       -2   -1    0    0    0  501  0.00000000000E+00  0.00000000000E+00 -0.16807044428E+04  0.16807044428E+04  0.25500000920E-02 0.  1.
    10030    2    1    2    0    0  0.00000000000E+00  0.00000000000E+00 -0.60439240789E+03  0.27570164778E+04  0.26899534710E+04 0.  0.
        1    1    3    3  502    0 -0.12345964560E+04 -0.49831553441E+03 -0.10660984796E+03  0.13356318507E+04  0.50400001928E-02 0. -1.
       -1    1    3    3    0  502  0.12345964560E+04  0.49831553441E+03 -0.49778255993E+03  0.14213846270E+04  0.50400001928E-02 0.  1.
</event>
<event>
 5   0  0.7754912E-06  0.2686048E+04  0.7818609E-02  0.8339546E-01
       -1   -1    0    0    0  501  0.00000000000E+00  0.00000000000E+00  0.88530393006E+03  0.88530393007E+03  0.50400001928E-02 0. -1.
        1   -1    0    0  501    0  0.00000000000E+00  0.00000000000E+00 -0.20373950917E+04  0.20373950917E+04  0.50400001928E-02 0.  1.
    10030    2    1    2    0    0  0.00000000000E+00  0.00000000000E+00 -0.11520911616E+04  0.29226990218E+04  0.26860483106E+04 0.  0.
        4    1    3    3  502    0 -0.11427552531E+04  0.26417839849E+03 -0.12879286013E+04  0.17419648359E+04  0.12699999809E+01 0.  1.
       -4    1    3    3    0  502  0.11427552531E+04 -0.26417839849E+03  0.13583743965E+03  0.11807341858E+04  0.12699999809E+01 0. -1.
</event>
<event>
 5   0  0.1881699E-05  0.2635345E+04  0.7818609E-02  0.8356294E-01
        2   -1    0    0  501    0  0.00000000000E+00  0.00000000000E+00  0.19808393340E+04  0.19808393340E+04  0.25500000920E-02 0. -1.
       -2   -1    0    0    0  501  0.00000000000E+00  0.00000000000E+00 -0.87652756583E+03  0.87652756583E+03  0.25500000920E-02 0.  1.
    10030    2    1    2    0    0  0.00000000000E+00  0.00000000000E+00  0.11043117681E+04  0.28573668998E+04  0.26353445920E+04 0.  0.
        4    1    3    3  502    0 -0.93280738571E+03  0.75553075046E+03 -0.37043165885E+02  0.12009705004E+04  0.12699999809E+01 0. -1.
       -4    1    3    3    0  502  0.93280738571E+03 -0.75553075046E+03  0.11413549340E+04  0.16563963994E+04  0.12699999809E+01 0.  1.
</event>
<event>
 5   0  0.1788003E-05  0.2686945E+04  0.7818609E-02  0.8339253E-01
       -2   -1    0    0    0  501  0.00000000000E+00  0.00000000000E+00  0.13689623849E+04  0.13689623849E+04  0.25500000920E-02 0.  1.
        2   -1    0    0  501    0  0.00000000000E+00  0.00000000000E+00 -0.13184569152E+04  0.13184569152E+04  0.25500000920E-02 0. -1.
    10030    2    1    2    0    0  0.00000000000E+00  0.00000000000E+00  0.50505469634E+02  0.26874193001E+04  0.26869446760E+04 0.  0.
        2    1    3    3  502    0 -0.13377075280E+04  0.73060663329E+02 -0.75356444555E+02  0.13418188718E+04  0.25500000920E-02 0. -1.
       -2    1    3    3    0  502  0.13377075280E+04 -0.73060663329E+02  0.12586191419E+03  0.13456004283E+04  0.25500000920E-02 0.  1.
</event>
<event>
 5   0  0.7348964E-06  0.2701167E+04  0.7818609E-02  0.8334626E-01
        1   -1    0    0  501    0  0.00000000000E+00  0.00000000000E+00  0.88982467747E+03  0.88982467748E+03  0.50400001928E-02 0. -1.
       -1   -1    0    0    0  501  0.00000000000E+00  0.00000000000E+00 -0.20499271311E+04  0.20499271311E+04  0.50400001928E-02 0.  1.
    10030    2    1    2    0    0  0.00000000000E+00  0.00000000000E+00 -0.11601024537E+04  0.29397518086E+04  0.27011669688E+04 0.  0.
        1    1    3    3  502    0  0.86836827286E+03 -0.58641480861E+03 -0.15074497819E+04  0.18358514728E+04  0.50400001928E-02 0.  1.
       -1    1    3    3    0  502 -0.86836827286E+03  0.58641480861E+03  0.34734732823E+03  0.11039003359E+04  0.50400001928E-02 0. -1.
</event>
<event>
 5   0  0.1881699E-05  0.3379545E+04  0.7818609E-02  0.8142945E-01
        2   -1    0    0  501    0  0.00000000000E+00  0.00000000000E+00  0.12529771610E+04  0.12529771610E+04  0.25500000920E-02 0. -1.
       -2   -1    0    0    0  501  0.00000000000E+00  0.00000000000E+00 -0.22788371355E+04  0.22788371355E+04  0.25500000920E-02 0.  1.
    10030    2    1    2    0    0  0.00000000000E+00  0.00000000000E+00 -0.10258599745E+04  0.35318142965E+04  0.33795448714E+04 0.  0.
        4    1    3    3  502    0 -0.14628886395E+04  0.36812916433E+03 -0.13086612041E+04  0.19970373089E+04  0.12699999809E+01 0.  1.
       -4    1    3    3    0  502  0.14628886395E+04 -0.36812916433E+03  0.28280122960E+03  0.15347769876E+04  0.12699999809E+01 0. -1.
</event>
<event>
 5   0  0.7351590E-06  0.2728741E+04  0.7818609E-02  0.8325739E-01
       -1   -1    0    0    0  501  0.00000000000E+00  0.00000000000E+00  0.95620025594E+03  0.95620025595E+03  0.50400001928E-02 0.  1.
        1   -1    0    0  501    0  0.00000000000E+00  0.00000000000E+00 -0.19467753862E+04  0.19467753862E+04  0.50400001928E-02 0. -1.
    10030    2    1    2    0    0  0.00000000000E+00  0.00000000000E+00 -0.99057513022E+03  0.29029756421E+04  0.27287411915E+04 0.  0.
        3    1    3    3  502    0  0.12983455829E+04  0.39681438844E+03 -0.35119869217E+03  0.14023207347E+04  0.10100000352E+00 0. -1.
       -3    1    3    3    0  502 -0.12983455829E+04 -0.39681438844E+03 -0.63937643805E+03  0.15006549074E+04  0.10100000352E+00 0.  1.
</event>
<event>
 5   0  0.1826851E-05  0.2681246E+04  0.7818609E-02  0.8341116E-01
       -2   -1    0    0    0  501  0.00000000000E+00  0.00000000000E+00  0.12814742864E+04  0.12814742864E+04  0.25500000920E-02 0. -1.
        2   -1    0    0  501    0  0.00000000000E+00  0.00000000000E+00 -0.14025013587E+04  0.14025013587E+04  0.25500000920E-02 0.  1.
    10030    2    1    2    0    0  0.00000000000E+00  0.00000000000E+00 -0.12102707228E+03  0.26839756450E+04  0.26812455522E+04 0.  0.
        5    1    3    3  502    0  0.56946772651E+03  0.10925313059E+04 -0.58956770871E+03  0.13658441782E+04  0.46999998093E+01 0.  1.
       -5    1    3    3    0  502 -0.56946772651E+03 -0.10925313059E+04  0.46854063643E+03  0.13181314669E+04  0.46999998093E+01 0. -1.
</event>
<event>
 5   0  0.1826851E-05  0.2349191E+04  0.7818609E-02  0.8458774E-01
        2   -1    0    0  501    0  0.00000000000E+00  0.00000000000E+00  0.12757681170E+04  0.12757681170E+04  0.25500000920E-02 0. -1.
       -2   -1    0    0    0  501  0.00000000000E+00  0.00000000000E+00 -0.10814461194E+04  0.10814461194E+04  0.25500000920E-02 0.  1.
    10030    2    1    2    0    0  0.00000000000E+00  0.00000000000E+00  0.19432199764E+03  0.23572142364E+04  0.23491909070E+04 0.  0.
        5    1    3    3  502    0 -0.84793241343E+03 -0.42014104328E+03  0.79534236280E+03  0.12361631923E+04  0.46999998093E+01 0. -1.
       -5    1    3    3    0  502  0.84793241343E+03  0.42014104328E+03 -0.60102036516E+03  0.11210510440E+04  0.46999998093E+01 0.  1.
</event>
<event>
 5   0  0.1878160E-05  0.2608543E+04  0.7818609E-02  0.8365305E-01
       -2   -1    0    0    0  501  0.00000000000E+00  0.00000000000E+00  0.11845585818E+04  0.11845585818E+04  0.25500000920E-02 0.  1.
        2   -1    0    0  501    0  0.00000000000E+00  0.00000000000E+00 -0.14360825860E+04  0.14360825860E+04  0.25500000920E-02 0. -1.
    10030    2    1    2    0    0  0.00000000000E+00  0.00000000000E+00 -0.25152400416E+03  0.26206411678E+04  0.26085428510E+04 0.  0.
        1    1    3    3  502    0 -0.58277116885E+03  0.24515645115E+03  0.10203181463E+04  0.12003220570E+04  0.50400001928E-02 0.  1.
       -1    1    3    3    0  502  0.58277116885E+03 -0.24515645115E+03 -0.12718421505E+04  0.14203191108E+04  0.50400001928E-02 0. -1.
</event>
<event>
 5   0  0.7754912E-06  0.2774568E+04  0.7818609E-02  0.8311208E-01
        1   -1    0    0  501    0  0.00000000000E+00  0.00000000000E+00  0.10665872292E+04  0.10665872292E+04  0.50400001928E-02 0. -1.
       -1   -1    0    0    0  501  0.00000000000E+00  0.00000000000E+00 -0.18044070654E+04  0.18044070654E+04  0.50400001928E-02 0.  1.
    10030    2    1    2    0    0  0.00000000000E+00  0.00000000000E+00 -0.73781983623E+03  0.28709942946E+04  0.27745684581E+04 0.  0.
        4    1    3    3  502    0 -0.27074462641E+03 -0.13567185645E+04 -0.26253644109E+03  0.14081601158E+04  0.12699999809E+01 0. -1.
       -4    1    3    3    0  502  0.27074462641E+03  0.13567185645E+04 -0.47528339514E+03  0.14628341788E+04  0.12699999809E+01 0.  1.
</event>
<event>
 5   0  0.7351590E-06  0.2567392E+04  0.7818609E-02  0.8379363E-01
        1   -1    0    0  501    0  0.00000000000E+00  0.00000000000E+00  0.23022499808E+04  0.23022499808E+04  0.50400001928E-02 0.  1.
       -1   -1    0    0    0  501  0.00000000000E+00  0.00000000000E+00 -0.71576729559E+03  0.71576729561E+03  0.50400001928E-02 0. -1.
    10030    2    1    2    0    0  0.00000000000E+00  0.00000000000E+00  0.15864826852E+04  0.30180172764E+04  0.25673918615E+04 0.  0.
        3    1    3    3  502    0 -0.29011434411E+03  0.35788882258E+03  0.22017190920E+04  0.22494038571E+04  0.10100000352E+00 0.  1.
       -3    1    3    3    0  502  0.29011434411E+03 -0.35788882258E+03 -0.61523640677E+03  0.76861341935E+03  0.10100000352E+00 0. -1.
</event>
<event>
 5   0  0.7351590E-06  0.2197371E+04  0.7818609E-02  0.8519523E-01
        1   -1    0    0  501    0  0.00000000000E+00  0.00000000000E+00  0.12423118194E+04  0.12423118194E+04  0.50400001928E-02 0. -1.
       -1   -1    0    0    0  501  0.00000000000E+00  0.00000000000E+00 -0.97166407284E+03  0.97166407286E+03  0.50400001928E-02 0.  1.
    10030    2    1    2    0    0  0.00000000000E+00  0.00000000000E+00  0.27064774654E+03  0.22139758923E+04  0.21973709402E+04 0.  0.
        3    1    3    3  502    0  0.53305196078E+03 -0.45786158813E+03 -0.71564599924E+03  0.10029610327E+04  0.10100000352E+00 0.  1.
       -3    1    3    3    0  502 -0.53305196078E+03  0.45786158813E+03  0.98629374578E+03  0.12110148595E+04  0.10100000352E+00 0. -1.
</event>
<event>
 5   0  0.1881699E-05  0.2707544E+04  0.7818609E-02  0.8332561E-01
       -2   -1    0    0    0  501  0.00000000000E+00  0.00000000000E+00  0.13332061968E+04  0.13332061968E+04  0.25500000920E-02 0.  1.
        2   -1    0    0  501    0  0.00000000000E+00  0.00000000000E+00 -0.13746548638E+04  0.13746548638E+04  0.25500000920E-02 0. -1.
    10030    2    1    2    0    0  0.00000000000E+00  0.00000000000E+00 -0.41448666997E+02  0.27078610607E+04  0.27075438190E+04 0.  0.
        4    1    3    3  502    0 -0.19112143238E+02 -0.66431011428E+03  0.11588304801E+04  0.13358753297E+04  0.12699999809E+01 0.  1.
       -4    1    3    3    0  502  0.19112143238E+02  0.66431011428E+03 -0.12002791471E+04  0.13719857309E+04  0.12699999809E+01 0. -1.
</event>
<event>
 5   0  0.7600052E-06  0.2545676E+04  0.7818609E-02  0.8386892E-01
        1   -1    0    0  501    0  0.00000000000E+00  0.00000000000E+00  0.25255740910E+04  0.25255740910E+04  0.50400001928E-02 0.  1.
       -1   -1    0    0    0  501  0.00000000000E+00  0.00000000000E+00 -0.64148424440E+03  0.64148424441E+03  0.50400001928E-02 0. -1.
    10030    2    1    2    0    0  0.00000000000E+00  0.00000000000E+00  0.18840898466E+04  0.31670583354E+04  0.25456755390E+04 0.  0.
        5    1    3    3  502    0 -0.74649792103E+03  0.10172848535E+04  0.11500961831E+04  0.17072993117E+04  0.46999998093E+01 0. -1.
       -5    1    3    3    0  502  0.74649792103E+03 -0.10172848535E+04  0.73399366349E+03  0.14597590237E+04  0.46999998093E+01 0.  1.
</event>
<event>
 5   0  0.7348964E-06  0.2690303E+04  0.7818609E-02  0.8338158E-01
        1   -1    0    0  501    0  0.00000000000E+00  0.00000000000E+00  0.15003143061E+04  0.15003143061E+04  0.50400001928E-02 0. -1.
       -1   -1    0    0    0  501  0.00000000000E+00  0.00000000000E+00 -0.12060360676E+04  0.12060360676E+04  0.50400001928E-02 0.  1.
    10030    2    1    2    0    0  0.00000000000E+00  0.00000000000E+00  0.29427823854E+03  0.27063503737E+04  0.26903034519E+04 0.  0.
        1    1    3    3  502    0 -0.19989818519E+03 -0.95085525785E+02 -0.11875879134E+04  0.12080420496E+04  0.50400001928E-02 0.  1.
       -1    1    3    3    0  502  0.19989818519E+03  0.95085525785E+02  0.14818661519E+04  0.14983083240E+04  0.50400001928E-02 0. -1.
</event>
<event>
 5   0  0.6804685E-06  0.2714241E+04  0.7818609E-02  0.8330399E-01
        1   -1    0    0  501    0  0.00000000000E+00  0.00000000000E+00  0.12298668661E+04  0.12298668661E+04  0.50400001928E-02 0.  1.
       -1   -1    0    0    0  501  0.00000000000E+00  0.00000000000E+00 -0.14975411618E+04  0.14975411618E+04  0.50400001928E-02 0. -1.
    10030    2    1    2    0    0  0.00000000000E+00  0.00000000000E+00 -0.26767429578E+03  0.27274080279E+04  0.27142411503E+04 0.  0.
        2    1    3    3  502    0  0.34733518333E+02 -0.16618605649E+03  0.12191536437E+04  0.12309182871E+04  0.25500000920E-02 0.  1.
       -2    1    3    3    0  502 -0.34733518333E+02  0.16618605649E+03 -0.14868279395E+04  0.14964897408E+04  0.25500000920E-02 0. -1.
</event>
<event>
 5   0  0.1931119E-05  0.2648159E+04  0.7818609E-02  0.8352024E-01
       -2   -1    0    0    0  501  0.00000000000E+00  0.00000000000E+00  0.56952973722E+03  0.56952973723E+03  0.25500000920E-02 0.  1.
        2   -1    0    0  501    0  0.00000000000E+00  0.00000000000E+00 -0.30783048648E+04  0.30783048648E+04  0.25500000920E-02 0. -1.
    10030    2    1    2    0    0  0.00000000000E+00  0.00000000000E+00 -0.25087751276E+04  0.36478346020E+04  0.26481587269E+04 0.  0.
        3    1    3    3  502    0  0.26280533010E+03  0.12943363493E+04 -0.13837032287E+04  0.19128533300E+04  0.10100000352E+00 0. -1.
       -3    1    3    3    0  502 -0.26280533010E+03 -0.12943363493E+04 -0.11250718989E+04  0.17349812721E+04  0.10100000352E+00 0.  1.
</event>
<event>
 5   0  0.1881699E-05  0.2659368E+04  0.7818609E-02  0.8348310E-01
       -2   -1    0    0    0  501  0.00000000000E+00  0.00000000000E+00  0.11415990751E+04  0.11415990751E+04  0.25500000920E-02 0. -1.
        2   -1    0    0  501    0  0.00000000000E+00  0.00000000000E+00 -0.15487568067E+04  0.15487568067E+04  0.25500000920E-02 0.  1.
    10030    2    1    2    0    0  0.00000000000E+00  0.00000000000E+00 -0.40715773158E+03  0.26903558818E+04  0.26593678482E+04 0.  0.
        4    1    3    3  502    0  0.58231700260E+03  0.80366350263E+03  0.69165612619E+03  0.12096933193E+04  0.12699999809E+01 0. -1.
       -4    1    3    3    0  502 -0.58231700260E+03 -0.80366350263E+03 -0.10988138578E+04  0.14806625625E+04  0.12699999809E+01 0.  1.
</event>
<event>
 5   0  0.1878160E-05  0.2707134E+04  0.7818609E-02  0.8332694E-01
       -2   -1    0    0    0  501  0.00000000000E+00  0.00000000000E+00  0.11615020700E+04  0.11615020700E+04  0.25500000920E-02 0.  1.
        2   -1    0    0  501    0  0.00000000000E+00  0.00000000000E+00 -0.15773920462E+04  0.15773920462E+04  0.25500000920E-02 0. -1.
    10030    2    1    2    0    0  0.00000000000E+00  0.00000000000E+00 -0.41588997627E+03  0.27388941162E+04  0.27071343719E+04 0.  0.
        1    1    3    3  502    0  0.69292428728E+03 -0.11599807778E+04 -0.28916540851E+03  0.13817800499E+04  0.50400001928E-02 0. -1.
       -1    1    3    3    0  502 -0.69292428728E+03  0.11599807778E+04 -0.12672456776E+03  0.13571140663E+04  0.50400001928E-02 0.  1.
</event>
<event>
 5   0  0.1931119E-05  0.2540654E+04  0.7818609E-02  0.8388644E-01
        2   -1    0    0  501    0  0.00000000000E+00  0.00000000000E+00  0.75357730974E+03  0.75357730974E+03  0.25500000920E-02 0. -1.
       -2   -1    0    0    0  501  0.00000000000E+00  0.00000000000E+00 -0.21414264059E+04  0.21414264059E+04  0.25500000920E-02 0.  1.
    10030    2    1    2    0    0  0.00000000000E+00  0.00000000000E+00 -0.13878490962E+04  0.28950037157E+04  0.25406537348E+04 0.  0.
        3    1    3    3  502    0 -0.97901870968E+03  0.56766918860E+03 -0.13514743194E+04  0.17627276556E+04  0.10100000352E+00 0.  1.
       -3    1    3    3    0  502  0.97901870968E+03 -0.56766918860E+03 -0.36374776765E+02  0.11322760601E+04  0.10100000352E+00 0. -1.
</event>
<event>
 5   0  0.7600052E-06  0.2672052E+04  0.7818609E-02  0.8344130E-01
        1   -1    0    0  501    0  0.00000000000E+00  0.00000000000E+00  0.24359812256E+04  0.24359812257E+04  0.50400001928E-02 0. -1.
       -1   -1    0    0    0  501  0.00000000000E+00  0.00000000000E+00 -0.73275025647E+03  0.73275025649E+03  0.50400001928E-02 0.  1.
    10030    2    1    2    0    0  0.00000000000E+00  0.00000000000E+00  0.17032309692E+04  0.31687314821E+04  0.26720522958E+04 0.  0.
        5    1    3    3  502    0  0.72265688944E+02 -0.99506272926E+03 -0.20213126509E+03  0.10179642937E+04  0.46999998093E+01 0.  1.
       -5    1    3    3    0  502 -0.72265688944E+02  0.99506272926E+03  0.19053622343E+04  0.21507671884E+04  0.46999998093E+01 0. -1.
</event>
<event>
 5   0  0.7754912E-06  0.2693465E+04  0.7818609E-02  0.8337129E-01
       -1   -1    0    0    0  501  0.00000000000E+00  0.00000000000E+00  0.93160549837E+03  0.93160549838E+03  0.50400001928E-02 0. -1.
        1   -1    0    0  501    0  0.00000000000E+00  0.00000000000E+00 -0.19468411904E+04  0.19468411904E+04  0.50400001928E-02 0.  1.
    10030    2    1    2    0    0  0.00000000000E+00  0.00000000000E+00 -0.10152356920E+04  0.28784466888E+04  0.26934646517E+04 0.  0.
        4    1    3    3  502    0 -0.93411113767E+03  0.11699324980E+03 -0.15367916480E+04  0.18022156420E+04  0.12699999809E+01 0.  1.
       -4    1    3    3    0  502  0.93411113767E+03 -0.11699324980E+03  0.52155595595E+03  0.10762310468E+04  0.12699999809E+01 0. -1.
</event>
<event>
 5   0  0.7600052E-06  0.2739485E+04  0.7818609E-02  0.8322306E-01
       -1   -1    0    0    0  501  0.00000000000E+00  0.00000000000E+00  0.13668425521E+04  0.13668425521E+04  0.50400001928E-02 0.  1.
        1   -1    0    0  501    0  0.00000000000E+00  0.00000000000E+00 -0.13726488207E+04  0.13726488207E+04  0.50400001928E-02 0. -1.
    10030    2    1    2    0    0  0.00000000000E+00  0.00000000000E+00 -0.58062685814E+01  0.27394913728E+04  0.27394852197E+04 0.  0.
        5    1    3    3  502    0 -0.49759108950E+03 -0.62518301321E+03  0.11096289304E+04  0.13673877085E+04  0.46999998093E+01 0.  1.
       -5    1    3    3    0  502  0.49759108950E+03  0.62518301321E+03 -0.11154351990E+04  0.13721036642E+04  0.46999998093E+01 0. -1.
</event>
<event>
 5   0  0.7351590E-06  0.2669972E+04  0.7818609E-02  0.8344814E-01
        1   -1    0    0  501    0  0.00000000000E+00  0.00000000000E+00  0.18775665970E+04  0.18775665970E+04  0.50400001928E-02 0. -1.
       -1   -1    0    0    0  501  0.00000000000E+00  0.00000000000E+00 -0.94920086542E+03  0.94920086543E+03  0.50400001928E-02 0.  1.
    10030    2    1    2    0    0  0.00000000000E+00  0.00000000000E+00  0.92836573159E+03  0.28267674625E+04  0.26699721637E+04 0.  0.
        3    1    3    3  502    0  0.50428232950E+03 -0.90204129419E+03  0.13589209171E+04  0.17072332101E+04  0.10100000352E+00 0.  1.
       -3    1    3    3    0  502 -0.50428232950E+03  0.90204129419E+03 -0.43055518555E+03  0.11195342524E+04  0.10100000352E+00 0. -1.
</event>
<event>
 5   0  0.1881699E-05  0.2680054E+04  0.7818609E-02  0.8341506E-01
       -2   -1    0    0    0  501  0.00000000000E+00  0.00000000000E+00  0.97434673909E+03  0.97434673910E+03  0.25500000920E-02 0. -1.
        2   -1    0    0  501    0  0.00000000000E+00  0.00000000000E+00 -0.18429498667E+04  0.18429498667E+04  0.25500000920E-02 0.  1.
    10030    2    1    2    0    0  0.00000000000E+00  0.00000000000E+00 -0.86860312759E+03  0.28172966058E+04  0.26800538748E+04 0.  0.
        4    1    3    3  502    0  0.73769436818E+03  0.11139794349E+04 -0.54215897110E+03  0.14419019124E+04  0.12699999809E+01 0.  1.
       -4    1    3    3    0  502 -0.73769436818E+03 -0.11139794349E+04 -0.32644415648E+03  0.13753946933E+04  0.12699999809E+01 0. -1.
</event>
<event>
 5   0  0.1878160E-05  0.2695903E+04  0.7818609E-02  0.8336335E-01
        2   -1    0    0  501    0  0.00000000000E+00  0.00000000000E+00  0.19644690778E+04  0.19644690778E+04  0.25500000920E-02 0.  1.
       -2   -1    0    0    0  501  0.00000000000E+00  0.00000000000E+00 -0.92491827068E+03  0.92491827068E+03  0.25500000920E-02 0. -1.
    10030    2    1    2    0    0  0.00000000000E+00  0.00000000000E+00  0.10395508071E+04  0.28893873485E+04  0.26959030712E+04 0.  0.
        1    1    3    3  502    0 -0.13067434092E+04  0.32962165433E+03  0.54902057692E+03  0.14552155738E+04  0.50400001928E-02 0. -1.
       -1    1    3    3    0  502  0.13067434092E+04 -0.32962165433E+03  0.49053023022E+03  0.14341717747E+04  0.50400001928E-02 0.  1.
</event>
<event>
 5   0  0.1788003E-05  0.2713345E+04  0.7818609E-02  0.8330688E-01
       -2   -1    0    0    0  501  0.00000000000E+00  0.00000000000E+00  0.20701490020E+04  0.20701490020E+04  0.25500000920E-02 0.  1.
        2   -1    0    0  501    0  0.00000000000E+00  0.00000000000E+00 -0.88909587204E+03  0.88909587204E+03  0.25500000920E-02 0. -1.
    10030    2    1    2    0    0  0.00000000000E+00  0.00000000000E+00  0.11810531299E+04  0.29592448740E+04  0.27133454864E+04 0.  0.
        2    1    3    3  502    0 -0.69706275743E+03 -0.13076323441E+03 -0.67081679409E+03  0.97621241669E+03  0.25500000920E-02 0. -1.
       -2    1    3    3    0  502  0.69706275743E+03  0.13076323441E+03  0.18518699240E+04  0.19830324573E+04  0.25500000920E-02 0.  1.
</event>
<event>
 5   0  0.7351590E-06  0.2699691E+04  0.7818609E-02  0.8335105E-01
        1   -1    0    0  501    0  0.00000000000E+00  0.00000000000E+00  0.19072953180E+04  0.19072953180E+04  0.50400001928E-02 0. -1.
       -1   -1    0    0    0  501  0.00000000000E+00  0.00000000000E+00 -0.95532298013E+03  0.95532298014E+03  0.50400001928E-02 0.  1.
    10030    2    1    2    0    0  0.00000000000E+00  0.00000000000E+00  0.95197233791E+03  0.28626182982E+04  0.26996911284E+04 0.  0.
        3    1    3    3  502    0 -0.92427621451E+03  0.94097896782E+03  0.17169131427E+03  0.13301149786E+04  0.10100000352E+00 0. -1.
       -3    1    3    3    0  502  0.92427621451E+03 -0.94097896782E+03  0.78028102364E+03  0.15325033196E+04  0.10100000352E+00 0.  1.
</event>
<event>
 5   0  0.1931119E-05  0.2698198E+04  0.7818609E-02  0.8335590E-01
        2   -1    0    0  501    0  0.00000000000E+00  0.00000000000E+00  0.19680109812E+04  0.19680109812E+04  0.25500000920E-02 0. -1.
       -2   -1    0    0    0  501  0.00000000000E+00  0.00000000000E+00 -0.92482625269E+03  0.92482625269E+03  0.25500000920E-02 0.  1.
    10030    2    1    2    0    0  0.00000000000E+00  0.00000000000E+00  0.10431847285E+04  0.28928372339E+04  0.26981980810E+04 0.  0.
        3    1    3    3  502    0  0.74512334153E+03 -0.46474081016E+03  0.16196170870E+04  0.18423768164E+04  0.10100000352E+00 0. -1.
       -3    1    3    3    0  502 -0.74512334153E+03  0.46474081016E+03 -0.57643235850E+03  0.10504604175E+04  0.10100000352E+00 0.  1.
</event>
<event>
 5   0  0.1826851E-05  0.2697275E+04  0.7818609E-02  0.8335890E-01
       -2   -1    0    0    0  501  0.00000000000E+00  0.00000000000E+00  0.12979599860E+04  0.12979599860E+04  0.25500000920E-02 0. -1.
        2   -1    0    0  501    0  0.00000000000E+00  0.00000000000E+00 -0.14012941106E+04  0.14012941106E+04  0.25500000920E-02 0.  1.
    10030    2    1    2    0    0  0.00000000000E+00  0.00000000000E+00 -0.10333412455E+03  0.26992540966E+04  0.26972754284E+04 0.  0.
        5    1    3    3  502    0  0.82223850019E+03 -0.34828628462E+03 -0.10630627549E+04  0.13883457775E+04  0.46999998093E+01 0.  1.
       -5    1    3    3    0  502 -0.82223850019E+03  0.34828628462E+03  0.95972863030E+03  0.13109083191E+04  0.46999998093E+01 0. -1.
</event>
<event>
 5   0  0.1878160E-05  0.2659298E+04  0.7818609E-02  0.8348333E-01
        2   -1    0    0  501    0  0.00000000000E+00  0.00000000000E+00  0.28526302139E+04  0.28526302139E+04  0.25500000920E-02 0. -1.
       -2   -1    0    0    0  501  0.00000000000E+00  0.00000000000E+00 -0.61976715445E+03  0.61976715446E+03  0.25500000920E-02 0.  1.
    10030    2    1    2    0    0  0.00000000000E+00  0.00000000000E+00  0.22328630595E+04  0.34723973684E+04  0.26592980355E+04 0.  0.
        1    1    3    3  502    0 -0.52843894176E+02  0.60469913356E+03  0.26611554538E+04  0.27295057920E+04  0.50400001928E-02 0. -1.
       -1    1    3    3    0  502  0.52843894176E+02 -0.60469913356E+03 -0.42829239428E+03  0.74289157642E+03  0.50400001928E-02 0.  1.
</event>
<event>
 5   0  0.7351590E-06  0.2725054E+04  0.7818609E-02  0.8326921E-01
        1   -1    0    0  501    0  0.00000000000E+00  0.00000000000E+00  0.17153002071E+04  0.17153002071E+04  0.50400001928E-02 0.  1.
       -1   -1    0    0    0  501  0.00000000000E+00  0.00000000000E+00 -0.10823057853E+04  0.10823057853E+04  0.50400001928E-02 0. -1.
    10030    2    1    2    0    0  0.00000000000E+00  0.00000000000E+00  0.63299442178E+03  0.27976059925E+04  0.27250536419E+04 0.  0.
        3    1    3    3  502    0  0.12422575308E+04  0.33144404843E+03 -0.14653237666E+03  0.12940365828E+04  0.10100000352E+00 0. -1.
       -3    1    3    3    0  502 -0.12422575308E+04 -0.33144404843E+03  0.77952679844E+03  0.15035694097E+04  0.10100000352E+00 0.  1.
</event>
<event>
 5   0  0.7754912E-06  0.2685078E+04  0.7818609E-02  0.8339863E-01
        1   -1    0    0  501    0  0.00000000000E+00  0.00000000000E+00  0.15523253482E+04  0.15523253482E+04  0.50400001928E-02 0.  1.
       -1   -1    0    0    0  501  0.00000000000E+00  0.00000000000E+00 -0.11611034507E+04  0.11611034507E+04  0.50400001928E-02 0. -1.
    10030    2    1    2    0    0  0.00000000000E+00  0.00000000000E+00  0.39122189748E+03  0.27134287990E+04  0.26850775173E+04 0.  0.
        4    1    3    3  502    0  0.49091166244E+02  0.72128088539E+03  0.13388172780E+04  0.15215417756E+04  0.12699999809E+01 0.  1.
       -4    1    3    3    0  502 -0.49091166244E+02 -0.72128088539E+03 -0.94759538054E+03  0.11918870233E+04  0.12699999809E+01 0. -1.
</event>
<event>
 5   0  0.7351590E-06  0.1959624E+04  0.7818609E-02  0.8625734E-01
        1   -1    0    0  501    0  0.00000000000E+00  0.00000000000E+00  0.11620328817E+04  0.11620328817E+04  0.50400001928E-02 0.  1.
       -1   -1    0    0    0  501  0.00000000000E+00  0.00000000000E+00 -0.82616515380E+03  0.82616515382E+03  0.50400001928E-02 0. -1.
    10030    2    1    2    0    0  0.00000000000E+00  0.00000000000E+00  0.33586772790E+03  0.19881980355E+04  0.19596235092E+04 0.  0.
        3    1    3    3  502    0 -0.28367341048E+03  0.21298239683E+03 -0.75872913269E+03  0.83755716950E+03  0.10100000352E+00 0. -1.
       -3    1    3    3    0  502  0.28367341048E+03 -0.21298239683E+03  0.10945968606E+04  0.11506408660E+04  0.10100000352E+00 0.  1.
</event>
<event>
 5   0  0.1881699E-05  0.2642291E+04  0.7818609E-02  0.8353976E-01
       -2   -1    0    0    0  501  0.00000000000E+00  0.00000000000E+00  0.10592568064E+04  0.10592568064E+04  0.25500000920E-02 0. -1.
        2   -1    0    0  501    0  0.00000000000E+00  0.00000000000E+00 -0.16477830653E+04  0.16477830653E+04  0.25500000920E-02 0.  1.
    10030    2    1    2    0    0  0.00000000000E+00  0.00000000000E+00 -0.58852625892E+03  0.27070398717E+04  0.26422909964E+04 0.  0.
        4    1    3    3  502    0 -0.66066723431E+03 -0.62699515641E+02 -0.14646276798E+04  0.16079640161E+04  0.12699999809E+01 0.  1.
       -4    1    3    3    0  502  0.66066723431E+03  0.62699515641E+02  0.87610142091E+03  0.10990758556E+04  0.12699999809E+01 0. -1.
</event>
<event>
 5   0  0.1826851E-05  0.2698303E+04  0.7818609E-02  0.8335556E-01
       -2   -1    0    0    0  501  0.00000000000E+00  0.00000000000E+00  0.82022746893E+03  0.82022746894E+03  0.25500000920E-02 0.  1.
        2   -1    0    0  501    0  0.00000000000E+00  0.00000000000E+00 -0.22191516837E+04  0.22191516837E+04  0.25500000920E-02 0. -1.
    10030    2    1    2    0    0  0.00000000000E+00  0.00000000000E+00 -0.13989242147E+04  0.30393791526E+04  0.26983025543E+04 0.  0.
        5    1    3    3  502    0 -0.85559076332E+03  0.92105369784E+02 -0.18698757511E+04  0.20583916945E+04  0.46999998093E+01 0. -1.
       -5    1    3    3    0  502  0.85559076332E+03 -0.92105369784E+02  0.47095153635E+03  0.98098745813E+03  0.46999998093E+01 0.  1.
</event>
<event>
 5   0  0.1788003E-05  0.2723966E+04  0.7818609E-02  0.8327270E-01
       -2   -1    0    0    0  501  0.00000000000E+00  0.00000000000E+00  0.11312866096E+04  0.11312866096E+04  0.25500000920E-02 0.  1.
        2   -1    0    0  501    0  0.00000000000E+00  0.00000000000E+00 -0.16397239768E+04  0.16397239768E+04  0.25500000920E-02 0. -1.
    10030    2    1    2    0    0  0.00000000000E+00  0.00000000000E+00 -0.50843736715E+03  0.27710105864E+04  0.27239660632E+04 0.  0.
        2    1    3    3  502    0  0.17495673430E+03  0.13306060576E+04 -0.18099157479E+02  0.13421810306E+04  0.25500000920E-02 0.  1.
       -2    1    3    3    0  502 -0.17495673430E+03 -0.13306060576E+04 -0.49033820967E+03  0.14288295557E+04  0.25500000920E-02 0. -1.
</event>
<event>
 5   0  0.1931119E-05  0.2745538E+04  0.7818609E-02  0.8320379E-01
       -2   -1    0    0    0  501  0.00000000000E+00  0.00000000000E+00  0.67397336782E+03  0.67397336782E+03  0.25500000920E-02 0. -1.
        2   -1    0    0  501    0  0.00000000000E+00  0.00000000000E+00 -0.27960965566E+04  0.27960965566E+04  0.25500000920E-02 0.  1.
    10030    2    1    2    0    0  0.00000000000E+00  0.00000000000E+00 -0.21221231888E+04  0.34700699245E+04  0.27455379167E+04 0.  0.
        3    1    3    3  502    0 -0.52506592956E+03 -0.14780820986E+03  0.53112083589E+03  0.76133491304E+03  0.10100000352E+00 0. -1.
       -3    1    3    3    0  502  0.52506592956E+03  0.14780820986E+03 -0.26532440247E+04  0.27087350114E+04  0.10100000352E+00 0.  1.
</event>
<event>
 5   0  0.1788003E-05  0.2647272E+04  0.7818609E-02  0.8352319E-01
        2   -1    0    0  501    0  0.00000000000E+00  0.00000000000E+00  0.17439638008E+04  0.17439638008E+04  0.25500000920E-02 0.  1.
       -2   -1    0    0    0  501  0.00000000000E+00  0.00000000000E+00 -0.10046151239E+04  0.10046151239E+04  0.25500000920E-02 0. -1.
    10030    2    1    2    0    0  0.00000000000E+00  0.00000000000E+00  0.73934867686E+03  0.27485789247E+04  0.26472721128E+04 0.  0.
        2    1    3    3  502    0  0.67822424683E+02 -0.36370116618E+03  0.16891880451E+04  0.17292295022E+04  0.25500000920E-02 0.  1.
       -2    1    3    3    0  502 -0.67822424683E+02  0.36370116618E+03 -0.94983936825E+03  0.10193494225E+04  0.25500000920E-02 0. -1.
</event>
<event>
 5   0  0.1931119E-05  0.2732532E+04  0.7818609E-02  0.8324526E-01
       -2   -1    0    0    0  501  0.00000000000E+00  0.00000000000E+00  0.80948800294E+03  0.80948800294E+03  0.25500000920E-02 0. -1.
        2   -1    0    0  501    0  0.00000000000E+00  0.00000000000E+00 -0.23060050543E+04  0.23060050543E+04  0.25500000920E-02 0.  1.
    10030    2    1    2    0    0  0.00000000000E+00  0.00000000000E+00 -0.14965170513E+04  0.31154930572E+04  0.27325324709E+04 0.  0.
        3    1    3    3  502    0 -0.40148797763E+03  0.29419557137E+03 -0.21989558311E+04  0.22545843048E+04  0.10100000352E+00 0.  1.
       -3    1    3    3    0  502  0.40148797763E+03 -0.29419557137E+03  0.70243877975E+03  0.86090875236E+03  0.10100000352E+00 0. -1.
</event>
<event>
 5   0  0.1931119E-05  0.2681908E+04  0.7818609E-02  0.8340899E-01
       -2   -1    0    0    0  501  0.00000000000E+00  0.00000000000E+00  0.12523029894E+04  0.12523029894E+04  0.25500000920E-02 0. -1.
        2   -1    0    0  501    0  0.00000000000E+00  0.00000000000E+00 -0.14358801732E+04  0.14358801732E+04  0.25500000920E-02 0.  1.
    10030    2    1    2    0    0  0.00000000000E+00  0.00000000000E+00 -0.18357718377E+03  0.26881831626E+04  0.26819075549E+04 0.  0.
        3    1    3    3  502    0 -0.77135815642E+03  0.32032183184E+02  0.10071973465E+04  0.12690413591E+04  0.10100000352E+00 0. -1.
       -3    1    3    3    0  502  0.77135815642E+03 -0.32032183184E+02 -0.11907745302E+04  0.14191418034E+04  0.10100000352E+00 0.  1.
</event>
<event>
 5   0  0.1881699E-05  0.1934225E+04  0.7818609E-02  0.8638006E-01
        2   -1    0    0  501    0  0.00000000000E+00  0.00000000000E+00  0.13869633196E+04  0.13869633196E+04  0.25500000920E-02 0.  1.
       -2   -1    0    0    0  501  0.00000000000E+00  0.00000000000E+00 -0.67435549273E+03  0.67435549273E+03  0.25500000920E-02 0. -1.
    10030    2    1    2    0    0  0.00000000000E+00  0.00000000000E+00  0.71260782687E+03  0.20613188123E+04  0.19342247365E+04 0.  0.
        4    1    3    3  502    0 -0.75460318798E+03  0.40222581776E+03  0.83775529525E+03  0.11970994643E+04  0.12699999809E+01 0. -1.
       -4    1    3    3    0  502  0.75460318798E+03 -0.40222581776E+03 -0.12514746838E+03  0.86421934804E+03  0.12699999809E+01 0.  1.
</event>
<event>
 5   0  0.7600052E-06  0.2660101E+04  0.7818609E-02  0.8348068E-01
       -1   -1    0    0    0  501  0.00000000000E+00  0.00000000000E+00  0.11114034749E+04  0.11114034749E+04  0.50400001928E-02 0. -1.
        1   -1    0    0  501    0  0.00000000000E+00  0.00000000000E+00 -0.15917116570E+04  0.15917116571E+04  0.50400001928E-02 0.  1.
    10030    2    1    2    0    0  0.00000000000E+00  0.00000000000E+00 -0.48030818214E+03  0.27031151320E+04  0.26601006498E+04 0.  0.
        5    1    3    3  502    0 -0.61979200399E+03 -0.86658634185E+03 -0.10492054342E+04  0.14953154013E+04  0.46999998093E+01 0.  1.
       -5    1    3    3    0  502  0.61979200399E+03  0.86658634185E+03  0.56889725206E+03  0.12077997307E+04  0.46999998093E+01 0. -1.
</event>
<event>
 5   0  0.6804685E-06  0.2759314E+04  0.7818609E-02  0.8316012E-01
        1   -1    0    0  501    0  0.00000000000E+00  0.00000000000E+00  0.28875402475E+04  0.28875402475E+04  0.50400001928E-02 0.  1.
       -1   -1    0    0    0  501  0.00000000000E+00  0.00000000000E+00 -0.65919566960E+03  0.65919566962E+03  0.50400001928E-02 0. -1.
    10030    2    1    2    0    0  0.00000000000E+00  0.00000000000E+00  0.22283445779E+04  0.35467359172E+04  0.27593144272E+04 0.  0.
        2    1    3    3  502    0  0.80496675787E+03  0.32894506099E+03 -0.26259942889E+03  0.90836930512E+03  0.25500000920E-02 0. -1.
       -2    1    3    3    0  502 -0.80496675787E+03 -0.32894506099E+03  0.24909440068E+04  0.26383666121E+04  0.25500000920E-02 0.  1.
</event>
<event>
 5   0  0.6804685E-06  0.2007998E+04  0.7818609E-02  0.8602890E-01
       -1   -1    0    0    0  501  0.00000000000E+00  0.00000000000E+00  0.61679530272E+03  0.61679530274E+03  0.50400001928E-02 0.  1.
        1   -1    0    0  501    0  0.00000000000E+00  0.00000000000E+00 -0.16342764380E+04  0.16342764380E+04  0.50400001928E-02 0. -1.
    10030    2    1    2    0    0  0.00000000000E+00  0.00000000000E+00 -0.10174811353E+04  0.22510717407E+04  0.20079980382E+04 0.  0.
        2    1    3    3  502    0 -0.43622719161E+03  0.95235164454E+02 -0.15168469922E+04  0.15811985002E+04  0.25500000920E-02 0. -1.
       -2    1    3    3    0  502  0.43622719161E+03 -0.95235164454E+02  0.49936585697E+03  0.66987324052E+03  0.25500000920E-02 0.  1.
</event>
<event>
 5   0  0.7351590E-06  0.2021249E+04  0.7818609E-02  0.8596750E-01
        1   -1    0    0  501    0  0.00000000000E+00  0.00000000000E+00  0.57804356877E+03  0.57804356879E+03  0.50400001928E-02 0.  1.
       -1   -1    0    0    0  501  0.00000000000E+00  0.00000000000E+00 -0.17669286811E+04  0.17669286811E+04  0.50400001928E-02 0. -1.
    10030    2    1    2    0    0  0.00000000000E+00  0.00000000000E+00 -0.11888851123E+04  0.23449722499E+04  0.20212488819E+04 0.  0.
        3    1    3    3  502    0 -0.64295748678E+03 -0.12880234954E+03 -0.14866180045E+04  0.16248130589E+04  0.10100000352E+00 0. -1.
       -3    1    3    3    0  502  0.64295748678E+03  0.12880234954E+03  0.29773289215E+03  0.72015919096E+03  0.10100000352E+00 0.  1.
</event>
<event>
 5   0  0.1878160E-05  0.2680549E+04  0.7818609E-02  0.8341344E-01
        2   -1    0    0  501    0  0.00000000000E+00  0.00000000000E+00  0.12554550547E+04  0.12554550547E+04  0.25500000920E-02 0. -1.
       -2   -1    0    0    0  501  0.00000000000E+00  0.00000000000E+00 -0.14308246515E+04  0.14308246515E+04  0.25500000920E-02 0.  1.
    10030    2    1    2    0    0  0.00000000000E+00  0.00000000000E+00 -0.17536959683E+03  0.26862797062E+04  0.26805492281E+04 0.  0.
        1    1    3    3  502    0  0.72716155468E+03  0.93890329605E+03  0.53495875998E+03  0.13024915358E+04  0.50400001928E-02 0. -1.
       -1    1    3    3    0  502 -0.72716155468E+03 -0.93890329605E+03 -0.71032835682E+03  0.13837881704E+04  0.50400001928E-02 0.  1.
</event>
<event>
 5   0  0.7351590E-06  0.2693446E+04  0.7818609E-02  0.8337134E-01
        1   -1    0    0  501    0  0.00000000000E+00  0.00000000000E+00  0.28865788258E+04  0.28865788258E+04  0.50400001928E-02 0.  1.
       -1   -1    0    0    0  501  0.00000000000E+00  0.00000000000E+00 -0.62830901536E+03  0.62830901538E+03  0.50400001928E-02 0. -1.
    10030    2    1    2    0    0  0.00000000000E+00  0.00000000000E+00  0.22582698104E+04  0.35148878412E+04  0.26934464909E+04 0.  0.
        3    1    3    3  502    0 -0.72073590603E+03  0.10502172547E+04  0.55844473632E+03  0.13907828953E+04  0.10100000352E+00 0. -1.
       -3    1    3    3    0  502  0.72073590603E+03 -0.10502172547E+04  0.16998250741E+04  0.21241049459E+04  0.10100000352E+00 0.  1.
</event>
<event>
 5   0  0.1931119E-05  0.2682171E+04  0.7818609E-02  0.8340813E-01
       -2   -1    0    0    0  501  0.00000000000E+00  0.00000000000E+00  0.77690180669E+03  0.77690180669E+03  0.25500000920E-02 0. -1.
        2   -1    0    0  501    0  0.00000000000E+00  0.00000000000E+00 -0.23149784774E+04  0.23149784774E+04  0.25500000920E-02 0.  1.
    10030    2    1    2    0    0  0.00000000000E+00  0.00000000000E+00 -0.15380766707E+04  0.30918802841E+04  0.26821714796E+04 0.  0.
        3    1    3    3  502    0  0.78690435395E+03 -0.23292952318E+02  0.48250810467E+03  0.92334993646E+03  0.10100000352E+00 0. -1.
       -3    1    3    3    0  502 -0.78690435395E+03  0.23292952318E+02 -0.20205847754E+04  0.21685303476E+04  0.10100000352E+00 0.  1.
</event>
<event>
 5   0  0.7348964E-06  0.2581076E+04  0.7818609E-02  0.8374658E-01
       -1   -1    0    0    0  501  0.00000000000E+00  0.00000000000E+00  0.16283132922E+04  0.16283132922E+04  0.50400001928E-02 0.  1.
        1   -1    0    0  501    0  0.00000000000E+00  0.00000000000E+00 -0.10228303346E+04  0.10228303346E+04  0.50400001928E-02 0. -1.
    10030    2    1    2    0    0  0.00000000000E+00  0.00000000000E+00  0.60548295760E+03  0.26511436267E+04  0.25810759225E+04 0.  0.
        1    1    3    3  502    0 -0.77092832369E+03 -0.77437533994E+03  0.10080410073E+04  0.14866520507E+04  0.50400001928E-02 0.  1.
       -1    1    3    3    0  502  0.77092832369E+03  0.77437533994E+03 -0.40255804967E+03  0.11644915761E+04  0.50400001928E-02 0. -1.
</event>
<event>
 5   0  0.1881699E-05  0.2634178E+04  0.7818609E-02  0.8356684E-01
       -2   -1    0    0    0  501  0.00000000000E+00  0.00000000000E+00  0.87824517328E+03  0.87824517328E+03  0.25500000920E-02 0. -1.
        2   -1    0    0  501    0  0.00000000000E+00  0.00000000000E+00 -0.19752155402E+04  0.19752155402E+04  0.25500000920E-02 0.  1.
    10030    2    1    2    0    0  0.00000000000E+00  0.00000000000E+00 -0.10969703669E+04  0.28534607135E+04  0.26341780611E+04 0.  0.
        4    1    3    3  502    0 -0.71329437132E+03  0.83789694374E+03 -0.13325195782E+04  0.17281406735E+04  0.12699999809E+01 0.  1.
       -4    1    3    3    0  502  0.71329437132E+03 -0.83789694374E+03  0.23554921124E+03  0.11253200399E+04  0.12699999809E+01 0. -1.
</event>
<event>
 5   0  0.1881699E-05  0.2705492E+04  0.7818609E-02  0.8333225E-01
       -2   -1    0    0    0  501  0.00000000000E+00  0.00000000000E+00  0.86278583380E+03  0.86278583380E+03  0.25500000920E-02 0. -1.
        2   -1    0    0  501    0  0.00000000000E+00  0.00000000000E+00 -0.21209455921E+04  0.21209455921E+04  0.25500000920E-02 0.  1.
    10030    2    1    2    0    0  0.00000000000E+00  0.00000000000E+00 -0.12581597583E+04  0.29837314259E+04  0.27054920522E+04 0.  0.
        4    1    3    3  502    0  0.11422266641E+04 -0.83445660662E+02  0.16487113606E+03  0.11570777998E+04  0.12699999809E+01 0. -1.
       -4    1    3    3    0  502 -0.11422266641E+04  0.83445660662E+02 -0.14230308943E+04  0.18266536260E+04  0.12699999809E+01 0.  1.
</event>
<event>
 5   0  0.7600052E-06  0.2857652E+04  0.7818609E-02  0.8285590E-01
       -1   -1    0    0    0  501  0.00000000000E+00  0.00000000000E+00  0.18114714304E+04  0.18114714304E+04  0.50400001928E-02 0.  1.
        1   -1    0    0  501    0  0.00000000000E+00  0.00000000000E+00 -0.11270084528E+04  0.11270084528E+04  0.50400001928E-02 0. -1.
    10030    2    1    2    0    0  0.00000000000E+00  0.00000000000E+00  0.68446297762E+03  0.29384798833E+04  0.28576519131E+04 0.  0.
        5    1    3    3  502    0 -0.93708109509E+03  0.41139661682E+03  0.13675058315E+04  0.17080580916E+04  0.46999998093E+01 0.  1.
       -5    1    3    3    0  502  0.93708109509E+03 -0.41139661682E+03 -0.68304285389E+03  0.12304217916E+04  0.46999998093E+01 0. -1.
</event>
<event>
 5   0  0.7351590E-06  0.2747259E+04  0.7818609E-02  0.8319832E-01
       -1   -1    0    0    0  501  0.00000000000E+00  0.00000000000E+00  0.19421161903E+04  0.19421161903E+04  0.50400001928E-02 0.  1.
        1   -1    0    0  501    0  0.00000000000E+00  0.00000000000E+00 -0.97154776249E+03  0.97154776250E+03  0.50400001928E-02 0. -1.
    10030    2    1    2    0    0  0.00000000000E+00  0.00000000000E+00  0.97056842784E+03  0.29136639528E+04  0.27472594630E+04 0.  0.
        3    1    3    3  502    0 -0.12849392262E+04  0.42445819637E+03  0.23514890340E+03  0.13735095896E+04  0.10100000352E+00 0.  1.
       -3    1    3    3    0  502  0.12849392262E+04 -0.42445819637E+03  0.73541952444E+03  0.15401543633E+04  0.10100000352E+00 0. -1.
</event>
<event>
 5   0  0.6804685E-06  0.2718716E+04  0.7818609E-02  0.8328958E-01
        1   -1    0    0  501    0  0.00000000000E+00  0.00000000000E+00  0.11573997458E+04  0.11573997458E+04  0.50400001928E-02 0. -1.
       -1   -1    0    0    0  501  0.00000000000E+00  0.00000000000E+00 -0.15965560564E+04  0.15965560564E+04  0.50400001928E-02 0.  1.
    10030    2    1    2    0    0  0.00000000000E+00  0.00000000000E+00 -0.43915631056E+03  0.27539558022E+04  0.27187155599E+04 0.  0.
        2    1    3    3  502    0  0.75513987355E+03 -0.11286619215E+04 -0.15763312407E+03  0.13670999098E+04  0.25500000920E-02 0. -1.
       -2    1    3    3    0  502 -0.75513987355E+03  0.11286619215E+04 -0.28152318649E+03  0.13868558924E+04  0.25500000920E-02 0.  1.
</event>
<event>
 5   0  0.1881699E-05  0.2693889E+04  0.7818609E-02  0.8336990E-01
       -2   -1    0    0    0  501  0.00000000000E+00  0.00000000000E+00  0.14026342261E+04  0.14026342261E+04  0.25500000920E-02 0.  1.
        2   -1    0    0  501    0  0.00000000000E+00  0.00000000000E+00 -0.12934662096E+04  0.12934662096E+04  0.25500000920E-02 0. -1.
    10030    2    1    2    0    0  0.00000000000E+00  0.00000000000E+00  0.10916801654E+03  0.26961004357E+04  0.26938893636E+04 0.  0.
        4    1    3    3  502    0 -0.62904221711E+03 -0.10450878694E+03 -0.11328307565E+04  0.12999705124E+04  0.12699999809E+01 0. -1.
       -4    1    3    3    0  502  0.62904221711E+03  0.10450878694E+03  0.12419987730E+04  0.13961299232E+04  0.12699999809E+01 0.  1.
</event>
<event>
 5   0  0.7351590E-06  0.2676888E+04  0.7818609E-02  0.8342543E-01
       -1   -1    0    0    0  501  0.00000000000E+00  0.00000000000E+00  0.11713017575E+04  0.11713017575E+04  0.50400001928E-02 0. -1.
        1   -1    0    0  501    0  0.00000000000E+00  0.00000000000E+00 -0.15294376253E+04  0.15294376253E+04  0.50400001928E-02 0.  1.
    10030    2    1    2    0    0  0.00000000000E+00  0.00000000000E+00 -0.35813586780E+03  0.27007393827E+04  0.26768884761E+04 0.  0.
        3    1    3    3  502    0  0.53472198990E+03  0.10594400652E+04  0.44539117230E+03  0.12675622923E+04  0.10100000352E+00 0.  1.
       -3    1    3    3    0  502 -0.53472198990E+03 -0.10594400652E+04 -0.80352704010E+03  0.14331770905E+04  0.10100000352E+00 0. -1.
</event>
<event>
 5   0  0.1788003E-05  0.2695270E+04  0.7818609E-02  0.8336541E-01
       -2   -1    0    0    0  501  0.00000000000E+00  0.00000000000E+00  0.97752271651E+03  0.97752271651E+03  0.25500000920E-02 0. -1.
        2   -1    0    0  501    0  0.00000000000E+00  0.00000000000E+00 -0.18578805709E+04  0.18578805709E+04  0.25500000920E-02 0.  1.
    10030    2    1    2    0    0  0.00000000000E+00  0.00000000000E+00 -0.88035785438E+03  0.28354032874E+04  0.26952702741E+04 0.  0.
        2    1    3    3  502    0 -0.56135189742E+03  0.49788072905E+03 -0.16178085581E+04  0.17833411630E+04  0.25500000920E-02 0.  1.
       -2    1    3    3    0  502  0.56135189742E+03 -0.49788072905E+03  0.73745070373E+03  0.10520621244E+04  0.25500000920E-02 0. -1.
</event>
<event>
 5   0  0.1881699E-05  0.2631894E+04  0.7818609E-02  0.8357448E-01
        2   -1    0    0  501    0  0.00000000000E+00  0.00000000000E+00  0.16475949802E+04  0.16475949802E+04  0.25500000920E-02 0. -1.
       -2   -1    0    0    0  501  0.00000000000E+00  0.00000000000E+00 -0.10510570604E+04  0.10510570604E+04  0.25500000920E-02 0.  1.
    10030    2    1    2    0    0  0.00000000000E+00  0.00000000000E+00  0.59653791985E+03  0.26986520406E+04  0.26318938706E+04 0.  0.
        4    1    3    3  502    0 -0.62697873383E+03 -0.96391428268E+03  0.95440778839E+03  0.14943657238E+04  0.12699999809E+01 0. -1.
       -4    1    3    3    0  502  0.62697873383E+03  0.96391428268E+03 -0.35786986854E+03  0.12042863168E+04  0.12699999809E+01 0.  1.
</event>
<event>
 5   0  0.7600052E-06  0.2728983E+04  0.7818609E-02  0.8325662E-01
       -1   -1    0    0    0  501  0.00000000000E+00  0.00000000000E+00  0.10149953783E+04  0.10149953783E+04  0.50400001928E-02 0.  1.
        1   -1    0    0  501    0  0.00000000000E+00  0.00000000000E+00 -0.18343300909E+04  0.18343300909E+04  0.50400001928E-02 0. -1.
    10030    2    1    2    0    0  0.00000000000E+00  0.00000000000E+00 -0.81933471267E+03  0.28493254692E+04  0.27289826416E+04 0.  0.
        5    1    3    3  502    0 -0.15531727010E+03 -0.35596546010E+03  0.95605904212E+03  0.10319427529E+04  0.46999998093E+01 0.  1.
       -5    1    3    3    0  502  0.15531727010E+03  0.35596546010E+03 -0.17753937548E+04  0.18173827164E+04  0.46999998093E+01 0. -1.
</event>
<event>
 5   0  0.6804685E-06  0.2756774E+04  0.7818609E-02  0.8316815E-01
       -1   -1    0    0    0  501  0.00000000000E+00  0.00000000000E+00  0.84905950450E+03  0.84905950452E+03  0.50400001928E-02 0. -1.
        1   -1    0    0  501    0  0.00000000000E+00  0.00000000000E+00 -0.22377113940E+04  0.22377113940E+04  0.50400001928E-02 0.  1.
    10030    2    1    2    0    0  0.00000000000E+00  0.00000000000E+00 -0.13886518895E+04  0.30867708985E+04  0.27567735688E+04 0.  0.
        2    1    3    3  502    0 -0.36782793821E+03  0.10488236758E+03  0.78844839222E+03  0.87632674862E+03  0.25500000920E-02 0. -1.
       -2    1    3    3    0  502  0.36782793821E+03 -0.10488236758E+03 -0.21771002817E+04  0.22104441499E+04  0.25500000920E-02 0.  1.
</event>
<event>
 5   0  0.1788003E-05  0.2155228E+04  0.7818609E-02  0.8537298E-01
       -2   -1    0    0    0  501  0.00000000000E+00  0.00000000000E+00  0.73569628477E+03  0.73569628478E+03  0.25500000920E-02 0. -1.
        2   -1    0    0  501    0  0.00000000000E+00  0.00000000000E+00 -0.15784387103E+04  0.15784387103E+04  0.25500000920E-02 0.  1.
    10030    2    1    2    0    0  0.00000000000E+00  0.00000000000E+00 -0.84274242556E+03  0.23141349951E+04  0.21552275935E+04 0.  0.
        2    1    3    3  502    0  0.97127730006E+03  0.73054359046E+02  0.73635105153E+02  0.97680021586E+03  0.25500000920E-02 0. -1.
       -2    1    3    3    0  502 -0.97127730006E+03 -0.73054359046E+02 -0.91637753071E+03  0.13373347793E+04  0.25500000920E-02 0.  1.
</event>
<event>
 5   0  0.1931119E-05  0.2708180E+04  0.7818609E-02  0.8332356E-01
       -2   -1    0    0    0  501  0.00000000000E+00  0.00000000000E+00  0.91313563084E+03  0.91313563084E+03  0.25500000920E-02 0.  1.
        2   -1    0    0  501    0  0.00000000000E+00  0.00000000000E+00 -0.20079811701E+04  0.20079811701E+04  0.25500000920E-02 0. -1.
    10030    2    1    2    0    0  0.00000000000E+00  0.00000000000E+00 -0.10948455392E+04  0.29211168009E+04  0.27081795749E+04 0.  0.
        3    1    3    3  502    0 -0.54813469755E+03 -0.16739481567E+03  0.77585857611E+03  0.96458758612E+03  0.10100000352E+00 0.  1.
       -3    1    3    3    0  502  0.54813469755E+03  0.16739481567E+03 -0.18707041154E+04  0.19565292148E+04  0.10100000352E+00 0. -1.
</event>
<event>
 5   0  0.1826851E-05  0.2686350E+04  0.7818609E-02  0.8339447E-01
       -2   -1    0    0    0  501  0.00000000000E+00  0.00000000000E+00  0.99368463086E+03  0.99368463087E+03  0.25500000920E-02 0.  1.
        2   -1    0    0  501    0  0.00000000000E+00  0.00000000000E+00 -0.18155858090E+04  0.18155858090E+04  0.25500000920E-02 0. -1.
    10030    2    1    2    0    0  0.00000000000E+00  0.00000000000E+00 -0.82190117818E+03  0.28092704399E+04  0.26863504719E+04 0.  0.
        5    1    3    3  502    0 -0.73780084100E+03  0.22619723554E+03  0.73870830143E+03  0.10682824135E+04  0.46999998093E+01 0.  1.
       -5    1    3    3    0  502  0.73780084100E+03 -0.22619723554E+03 -0.15606094796E+04  0.17409880264E+04  0.46999998093E+01 0. -1.
</event>
<event>
 5   0  0.6804685E-06  0.2724515E+04  0.7818609E-02  0.8327094E-01
        1   -1    0    0  501    0  0.00000000000E+00  0.00000000000E+00  0.13967844537E+04  0.13967844537E+04  0.50400001928E-02 0. -1.
       -1   -1    0    0    0  501  0.00000000000E+00  0.00000000000E+00 -0.13285839977E+04  0.13285839977E+04  0.50400001928E-02 0.  1.
    10030    2    1    2    0    0  0.00000000000E+00  0.00000000000E+00  0.68200455971E+02  0.27253684514E+04  0.27245149832E+04 0.  0.
        2    1    3    3  502    0 -0.10351673503E+03 -0.24517414057E+03 -0.13023270409E+04  0.13292410598E+04  0.25500000920E-02 0.  1.
       -2    1    3    3    0  502  0.10351673503E+03  0.24517414057E+03  0.13705274969E+04  0.13961273915E+04  0.25500000920E-02 0. -1.
</event>
<event>
 5   0  0.1788003E-05  0.2716902E+04  0.7818609E-02  0.8329542E-01
       -2   -1    0    0    0  501  0.00000000000E+00  0.00000000000E+00  0.13749337925E+04  0.13749337925E+04  0.25500000920E-02 0. -1.
        2   -1    0    0  501    0  0.00000000000E+00  0.00000000000E+00 -0.13421660533E+04  0.13421660533E+04  0.25500000920E-02 0.  1.
    10030    2    1    2    0    0  0.00000000000E+00  0.00000000000E+00  0.32767739135E+02  0.27170998458E+04  0.27169022521E+04 0.  0.
        2    1    3    3  502    0 -0.63310386412E+03  0.91197100678E+03 -0.76653821556E+03  0.13491080223E+04  0.25500000920E-02 0.  1.
       -2    1    3    3    0  502  0.63310386412E+03 -0.91197100678E+03  0.79930595469E+03  0.13679918235E+04  0.25500000920E-02 0. -1.
</event>
<event>
 5   0  0.6804685E-06  0.2715942E+04  0.7818609E-02  0.8329851E-01
       -1   -1    0    0    0  501  0.00000000000E+00  0.00000000000E+00  0.13251351963E+04  0.13251351963E+04  0.50400001928E-02 0. -1.
        1   -1    0    0  501    0  0.00000000000E+00  0.00000000000E+00 -0.13916199497E+04  0.13916199497E+04  0.50400001928E-02 0.  1.
    10030    2    1    2    0    0  0.00000000000E+00  0.00000000000E+00 -0.66484753404E+02  0.27167551460E+04  0.27159415128E+04 0.  0.
        2    1    3    3  502    0  0.23965166965E+03 -0.51099529452E+03  0.12022533249E+04  0.13281423760E+04  0.25500000920E-02 0. -1.
       -2    1    3    3    0  502 -0.23965166965E+03  0.51099529452E+03 -0.12687380783E+04  0.13886127700E+04  0.25500000920E-02 0.  1.
</event>
<event>
 5   0  0.1826851E-05  0.2673847E+04  0.7818609E-02  0.8343541E-01
        2   -1    0    0  501    0  0.00000000000E+00  0.00000000000E+00  0.13855165345E+04  0.13855165345E+04  0.25500000920E-02 0. -1.
       -2   -1    0    0    0  501  0.00000000000E+00  0.00000000000E+00 -0.12900343726E+04  0.12900343726E+04  0.25500000920E-02 0.  1.
    10030    2    1    2    0    0  0.00000000000E+00  0.00000000000E+00  0.95482161974E+02  0.26755509071E+04  0.26738466324E+04 0.  0.
        5    1    3    3  502    0  0.74069136000E+03 -0.10144559447E+04  0.50585087466E+03  0.13541239795E+04  0.46999998093E+01 0. -1.
       -5    1    3    3    0  502 -0.74069136000E+03  0.10144559447E+04 -0.41036871268E+03  0.13214269276E+04  0.46999998093E+01 0.  1.
</event>
<event>
 5   0  0.7348964E-06  0.2670321E+04  0.7818609E-02  0.8344699E-01
        1   -1    0    0  501    0  0.00000000000E+00  0.00000000000E+00  0.18095717632E+04  0.18095717632E+04  0.50400001928E-02 0. -1.
       -1   -1    0    0    0  501  0.00000000000E+00  0.00000000000E+00 -0.98512459121E+03  0.98512459122E+03  0.50400001928E-02 0.  1.
    10030    2    1    2    0    0  0.00000000000E+00  0.00000000000E+00  0.82444717195E+03  0.27946963544E+04  0.26703210619E+04 0.  0.
        1    1    3    3  502    0  0.35417878550E+03  0.55135605379E+03 -0.80523712611E+03  0.10381921496E+04  0.50400001928E-02 0.  1.
       -1    1    3    3    0  502 -0.35417878550E+03 -0.55135605379E+03  0.16296842981E+04  0.17565042048E+04  0.50400001928E-02 0. -1.
</event>
<event>
 5   0  0.6804685E-06  0.2679841E+04  0.7818609E-02  0.8341576E-01
       -1   -1    0    0    0  501  0.00000000000E+00  0.00000000000E+00  0.16428271402E+04  0.16428271402E+04  0.50400001928E-02 0. -1.
        1   -1    0    0  501    0  0.00000000000E+00  0.00000000000E+00 -0.10928641265E+04  0.10928641265E+04  0.50400001928E-02 0.  1.
    10030    2    1    2    0    0  0.00000000000E+00  0.00000000000E+00  0.54996301374E+03  0.27356912667E+04  0.26798409263E+04 0.  0.
        2    1    3    3  502    0 -0.85468130017E+03 -0.33712812761E+03 -0.72066623093E+03  0.11676880216E+04  0.25500000920E-02 0.  1.
       -2    1    3    3    0  502  0.85468130017E+03  0.33712812761E+03  0.12706292447E+04  0.15680032451E+04  0.25500000920E-02 0. -1.
</event>
<event>
 5   0  0.7348964E-06  0.2695536E+04  0.7818609E-02  0.8336455E-01
       -1   -1    0    0    0  501  0.00000000000E+00  0.00000000000E+00  0.52767503892E+03  0.52767503895E+03  0.50400001928E-02 0.  1.
        1   -1    0    0  501    0  0.00000000000E+00  0.00000000000E+00 -0.34424183763E+04  0.34424183763E+04  0.50400001928E-02 0. -1.
    10030    2    1    2    0    0  0.00000000000E+00  0.00000000000E+00 -0.29147433373E+04  0.39700934152E+04  0.26955357543E+04 0.  0.
        1    1    3    3  502    0  0.11192855912E+04  0.26276052680E+03 -0.42151893563E+03  0.12245495262E+04  0.50400001928E-02 0.  1.
       -1    1    3    3    0  502 -0.11192855912E+04 -0.26276052680E+03 -0.24932244017E+04  0.27455438890E+04  0.50400001928E-02 0. -1.
</event>
<event>
 5   0  0.1826851E-05  0.2764126E+04  0.7818609E-02  0.8314493E-01
        2   -1    0    0  501    0  0.00000000000E+00  0.00000000000E+00  0.25080042147E+04  0.25080042147E+04  0.25500000920E-02 0. -1.
       -2   -1    0    0    0  501  0.00000000000E+00  0.00000000000E+00 -0.76160073885E+03  0.76160073885E+03  0.25500000920E-02 0.  1.
    10030    2    1    2    0    0  0.00000000000E+00  0.00000000000E+00  0.17464034759E+04  0.32696049536E+04  0.27641258025E+04 0.  0.
        5    1    3    3  502    0  0.12716327595E+04  0.31105776614E+03  0.13972403562E+04  0.19147087277E+04  0.46999998093E+01 0. -1.
       -5    1    3    3    0  502 -0.12716327595E+04 -0.31105776614E+03  0.34916311963E+03  0.13548962259E+04  0.46999998093E+01 0.  1.
</event>
<event>
 5   0  0.7600052E-06  0.2657509E+04  0.7818609E-02  0.8348925E-01
        1   -1    0    0  501    0  0.00000000000E+00  0.00000000000E+00  0.11433748947E+04  0.11433748947E+04  0.50400001928E-02 0.  1.
       -1   -1    0    0    0  501  0.00000000000E+00  0.00000000000E+00 -0.15441905594E+04  0.15441905594E+04  0.50400001928E-02 0. -1.
    10030    2    1    2    0    0  0.00000000000E+00  0.00000000000E+00 -0.40081566466E+03  0.26875654541E+04  0.26575091482E+04 0.  0.
        5    1    3    3  502    0 -0.54868469282E+03 -0.80199222589E+03  0.71610918998E+03  0.12070960544E+04  0.46999998093E+01 0.  1.
       -5    1    3    3    0  502  0.54868469282E+03  0.80199222589E+03 -0.11169248546E+04  0.14804693997E+04  0.46999998093E+01 0. -1.
</event>
<event>
 5   0  0.7351590E-06  0.2149312E+04  0.7818609E-02  0.8539827E-01
       -1   -1    0    0    0  501  0.00000000000E+00  0.00000000000E+00  0.15647598759E+04  0.15647598759E+04  0.50400001928E-02 0. -1.
        1   -1    0    0  501    0  0.00000000000E+00  0.00000000000E+00 -0.73805922503E+03  0.73805922505E+03  0.50400001928E-02 0.  1.
    10030    2    1    2    0    0  0.00000000000E+00  0.00000000000E+00  0.82670065087E+03  0.23028191010E+04  0.21493119470E+04 0.  0.
        3    1    3    3  502    0 -0.92945758288E+03 -0.45256587779E+03  0.72787811807E+03  0.12643234701E+04  0.10100000352E+00 0. -1.
       -3    1    3    3    0  502  0.92945758288E+03  0.45256587779E+03  0.98822532804E+02  0.10384956309E+04  0.10100000352E+00 0.  1.
</event>
<event>
 5   0  0.1878160E-05  0.2705955E+04  0.7818609E-02  0.8333075E-01
        2   -1    0    0  501    0  0.00000000000E+00  0.00000000000E+00  0.21977916206E+04  0.21977916206E+04  0.25500000920E-02 0.  1.
       -2   -1    0    0    0  501  0.00000000000E+00  0.00000000000E+00 -0.83290355324E+03  0.83290355324E+03  0.25500000920E-02 0. -1.
    10030    2    1    2    0    0  0.00000000000E+00  0.00000000000E+00  0.13648880674E+04  0.30306951739E+04  0.27059552473E+04 0.  0.
        1    1    3    3  502    0  0.11621727760E+04 -0.10167689690E+03  0.14499280983E+04  0.18609877063E+04  0.50400001928E-02 0. -1.
       -1    1    3    3    0  502 -0.11621727760E+04  0.10167689690E+03 -0.85040030943E+02  0.11697074675E+04  0.50400001928E-02 0.  1.
</event>
<event>
 5   0  0.7351590E-06  0.2736041E+04  0.7818609E-02  0.8323405E-01
       -1   -1    0    0    0  501  0.00000000000E+00  0.00000000000E+00  0.11072987552E+04  0.11072987552E+04  0.50400001928E-02 0. -1.
        1   -1    0    0  501    0  0.00000000000E+00  0.00000000000E+00 -0.16901308428E+04  0.16901308428E+04  0.50400001928E-02 0.  1.
    10030    2    1    2    0    0  0.00000000000E+00  0.00000000000E+00 -0.58283208754E+03  0.27974295980E+04  0.27360407734E+04 0.  0.
        3    1    3    3  502    0  0.26831090441E+03  0.80885419872E+03  0.80275595486E+03  0.11707489011E+04  0.10100000352E+00 0. -1.
       -3    1    3    3    0  502 -0.26831090441E+03 -0.80885419872E+03 -0.13855880424E+04  0.16266806969E+04  0.10100000352E+00 0.  1.
</event>
<event>
 5   0  0.1931119E-05  0.2690127E+04  0.7818609E-02  0.8338215E-01
        2   -1    0    0  501    0  0.00000000000E+00  0.00000000000E+00  0.96905671628E+03  0.96905671629E+03  0.25500000920E-02 0.  1.
       -2   -1    0    0    0  501  0.00000000000E+00  0.00000000000E+00 -0.18669660288E+04  0.18669660288E+04  0.25500000920E-02 0. -1.
    10030    2    1    2    0    0  0.00000000000E+00  0.00000000000E+00 -0.89790931247E+03  0.28360227450E+04  0.26901271117E+04 0.  0.
        3    1    3    3  502    0  0.33587118678E+03 -0.12281197898E+04  0.82818232870E+01  0.12732463513E+04  0.10100000352E+00 0. -1.
       -3    1    3    3    0  502 -0.33587118678E+03  0.12281197898E+04 -0.90619113576E+03  0.15627763938E+04  0.10100000352E+00 0.  1.
</event>
<event>
 5   0  0.7348964E-06  0.2174879E+04  0.7818609E-02  0.8528957E-01
       -1   -1    0    0    0  501  0.00000000000E+00  0.00000000000E+00  0.77820556600E+03  0.77820556602E+03  0.50400001928E-02 0. -1.
        1   -1    0    0  501    0  0.00000000000E+00  0.00000000000E+00 -0.15195529127E+04  0.15195529127E+04  0.50400001928E-02 0.  1.
    10030    2    1    2    0    0  0.00000000000E+00  0.00000000000E+00 -0.74134734669E+03  0.22977584787E+04  0.21748788789E+04 0.  0.
        1    1    3    3  502    0 -0.18843119290E+02 -0.43117834267E+03 -0.14251928819E+04  0.14891086519E+04  0.50400001928E-02 0.  1.
       -1    1    3    3    0  502  0.18843119290E+02  0.43117834267E+03  0.68384553525E+03  0.80864982684E+03  0.50400001928E-02 0. -1.
</event>
<event>
 5   0  0.7348964E-06  0.2576115E+04  0.7818609E-02  0.8376360E-01
        1   -1    0    0  501    0  0.00000000000E+00  0.00000000000E+00  0.13837007237E+04  0.13837007237E+04  0.50400001928E-02 0.  1.
       -1   -1    0    0    0  501  0.00000000000E+00  0.00000000000E+00 -0.11990253788E+04  0.11990253788E+04  0.50400001928E-02 0. -1.
    10030    2    1    2    0    0  0.00000000000E+00  0.00000000000E+00  0.18467534494E+03  0.25827261025E+04  0.25761151251E+04 0.  0.
        1    1    3    3  502    0  0.11212374145E+04  0.53030746809E+03  0.44063809949E+03  0.13162679382E+04  0.50400001928E-02 0.  1.
       -1    1    3    3    0  502 -0.11212374145E+04 -0.53030746809E+03 -0.25596275456E+03  0.12664581644E+04  0.50400001928E-02 0. -1.
</event>
<event>
 5   0  0.1878160E-05  0.2702905E+04  0.7818609E-02  0.8334063E-01
        2   -1    0    0  501    0  0.00000000000E+00  0.00000000000E+00  0.95679212991E+03  0.95679212992E+03  0.25500000920E-02 0. -1.
       -2   -1    0    0    0  501  0.00000000000E+00  0.00000000000E+00 -0.19089039383E+04  0.19089039383E+04  0.25500000920E-02 0.  1.
    10030    2    1    2    0    0  0.00000000000E+00  0.00000000000E+00 -0.95211180841E+03  0.28656960682E+04  0.27029052998E+04 0.  0.
        1    1    3    3  502    0 -0.48209038457E+03  0.12284193481E+04 -0.78516108635E+03  0.15355465363E+04  0.50400001928E-02 0. -1.
       -1    1    3    3    0  502  0.48209038457E+03 -0.12284193481E+04 -0.16695072206E+03  0.13301495319E+04  0.50400001928E-02 0.  1.
</event>
<event>
 5   0  0.7351590E-06  0.2754429E+04  0.7818609E-02  0.8317558E-01
       -1   -1    0    0    0  501  0.00000000000E+00  0.00000000000E+00  0.15619357666E+04  0.15619357666E+04  0.50400001928E-02 0. -1.
        1   -1    0    0  501    0  0.00000000000E+00  0.00000000000E+00 -0.12143391457E+04  0.12143391457E+04  0.50400001928E-02 0.  1.
    10030    2    1    2    0    0  0.00000000000E+00  0.00000000000E+00  0.34759662091E+03  0.27762749124E+04  0.27544289750E+04 0.  0.
        3    1    3    3  502    0 -0.10493023160E+04  0.23019807214E+03 -0.69483328730E+03  0.12793825894E+04  0.10100000352E+00 0. -1.
       -3    1    3    3    0  502  0.10493023160E+04 -0.23019807214E+03  0.10424299082E+04  0.14968923230E+04  0.10100000352E+00 0.  1.
</event>
<event>
 5   0  0.7348964E-06  0.2707797E+04  0.7818609E-02  0.8332480E-01
        1   -1    0    0  501    0  0.00000000000E+00  0.00000000000E+00  0.14662832674E+04  0.14662832674E+04  0.50400001928E-02 0. -1.
       -1   -1    0    0    0  501  0.00000000000E+00  0.00000000000E+00 -0.12501273532E+04  0.12501273532E+04  0.50400001928E-02 0.  1.
    10030    2    1    2    0    0  0.00000000000E+00  0.00000000000E+00  0.21615591416E+03  0.27164106206E+04  0.27077967576E+04 0.  0.
        1    1    3    3  502    0  0.11607361342E+04 -0.17306283258E+03  0.78534165754E+03  0.14120979557E+04  0.50400001928E-02 0. -1.
       -1    1    3    3    0  502 -0.11607361342E+04  0.17306283258E+03 -0.56918574337E+03  0.13043126649E+04  0.50400001928E-02 0.  1.
</event>
<event>
 5   0  0.1931119E-05  0.2730062E+04  0.7818609E-02  0.8325316E-01
       -2   -1    0    0    0  501  0.00000000000E+00  0.00000000000E+00  0.10683666890E+04  0.10683666890E+04  0.25500000920E-02 0. -1.
        2   -1    0    0  501    0  0.00000000000E+00  0.00000000000E+00 -0.17440731162E+04  0.17440731162E+04  0.25500000920E-02 0.  1.
    10030    2    1    2    0    0  0.00000000000E+00  0.00000000000E+00 -0.67570642717E+03  0.28124398052E+04  0.27300619924E+04 0.  0.
        3    1    3    3  502    0  0.97577858032E+03 -0.12547057888E+03  0.63696767620E+03  0.11720130267E+04  0.10100000352E+00 0. -1.
       -3    1    3    3    0  502 -0.97577858032E+03  0.12547057888E+03 -0.13126741034E+04  0.16404267786E+04  0.10100000352E+00 0.  1.
</event>
<event>
 5   0  0.1826851E-05  0.2685435E+04  0.7818609E-02  0.8339746E-01
       -2   -1    0    0    0  501  0.00000000000E+00  0.00000000000E+00  0.13489385529E+04  0.13489385529E+04  0.25500000920E-02 0. -1.
        2   -1    0    0  501    0  0.00000000000E+00  0.00000000000E+00 -0.13365255445E+04  0.13365255445E+04  0.25500000920E-02 0.  1.
    10030    2    1    2    0    0  0.00000000000E+00  0.00000000000E+00  0.12413008345E+02  0.26854640974E+04  0.26854354090E+04 0.  0.
        5    1    3    3  502    0  0.65504150288E+03 -0.18932051818E+03  0.11629155002E+04  0.13480786994E+04  0.46999998093E+01 0. -1.
       -5    1    3    3    0  502 -0.65504150288E+03  0.18932051818E+03 -0.11505024919E+04  0.13373853980E+04  0.46999998093E+01 0.  1.
</event>
<event>
 5   0  0.1788003E-05  0.2785517E+04  0.7818609E-02  0.8307779E-01
        2   -1    0    0  501    0  0.00000000000E+00  0.00000000000E+00  0.25249835224E+04  0.25249835224E+04  0.25500000920E-02 0.  1.
       -2   -1    0    0    0  501  0.00000000000E+00  0.00000000000E+00 -0.76823300599E+03  0.76823300599E+03  0.25500000920E-02 0. -1.
    10030    2    1    2    0    0  0.00000000000E+00  0.00000000000E+00  0.17567505164E+04  0.32932165284E+04  0.27855165995E+04 0.  0.
        2    1    3    3  502    0  0.56790589360E+03 -0.19230294106E+03 -0.60783859156E+03  0.85379463486E+03  0.25500000920E-02 0. -1.
       -2    1    3    3    0  502 -0.56790589360E+03  0.19230294106E+03  0.23645891080E+04  0.24394218935E+04  0.25500000920E-02 0.  1.
</event>
<event>
 5   0  0.1788003E-05  0.2703813E+04  0.7818609E-02  0.8333769E-01
        2   -1    0    0  501    0  0.00000000000E+00  0.00000000000E+00  0.21323931651E+04  0.21323931651E+04  0.25500000920E-02 0.  1.
       -2   -1    0    0    0  501  0.00000000000E+00  0.00000000000E+00 -0.85708950140E+03  0.85708950141E+03  0.25500000920E-02 0. -1.
    10030    2    1    2    0    0  0.00000000000E+00  0.00000000000E+00  0.12753036637E+04  0.29894826665E+04  0.27038134512E+04 0.  0.
        2    1    3    3  502    0  0.49208076049E+03 -0.10351862876E+04  0.14302583501E+04  0.18328647176E+04  0.25500000920E-02 0.  1.
       -2    1    3    3    0  502 -0.49208076049E+03  0.10351862876E+04 -0.15495468637E+03  0.11566179489E+04  0.25500000920E-02 0. -1.
</event>
<event>
 5   0  0.1931119E-05  0.2693796E+04  0.7818609E-02  0.8337021E-01
        2   -1    0    0  501    0  0.00000000000E+00  0.00000000000E+00  0.23161159127E+04  0.23161159127E+04  0.25500000920E-02 0. -1.
       -2   -1    0    0    0  501  0.00000000000E+00  0.00000000000E+00 -0.78326582042E+03  0.78326582043E+03  0.25500000920E-02 0.  1.
    10030    2    1    2    0    0  0.00000000000E+00  0.00000000000E+00  0.15328500923E+04  0.30993817331E+04  0.26937961545E+04 0.  0.
        3    1    3    3  502    0 -0.66184475441E+03 -0.34633027391E+03 -0.52310454837E+03  0.91193284637E+03  0.10100000352E+00 0.  1.
       -3    1    3    3    0  502  0.66184475441E+03  0.34633027391E+03  0.20559546407E+04  0.21874488868E+04  0.10100000352E+00 0. -1.
</event>
<event>
 5   0  0.6804685E-06  0.2721116E+04  0.7818609E-02  0.8328186E-01
        1   -1    0    0  501    0  0.00000000000E+00  0.00000000000E+00  0.24762564815E+04  0.24762564815E+04  0.50400001928E-02 0.  1.
       -1   -1    0    0    0  501  0.00000000000E+00  0.00000000000E+00 -0.74754676982E+03  0.74754676983E+03  0.50400001928E-02 0. -1.
    10030    2    1    2    0    0  0.00000000000E+00  0.00000000000E+00  0.17287097117E+04  0.32238032513E+04  0.27211156051E+04 0.  0.
        2    1    3    3  502    0 -0.13004250957E+03 -0.84931915111E+03  0.21141604877E+04  0.22820886579E+04  0.25500000920E-02 0.  1.
       -2    1    3    3    0  502  0.13004250957E+03  0.84931915111E+03 -0.38545077603E+03  0.94171459343E+03  0.25500000920E-02 0. -1.
</event>
<event>
 5   0  0.1878160E-05  0.2656378E+04  0.7818609E-02  0.8349299E-01
       -2   -1    0    0    0  501  0.00000000000E+00  0.00000000000E+00  0.87460681250E+03  0.87460681250E+03  0.25500000920E-02 0. -1.
        2   -1    0    0  501    0  0.00000000000E+00  0.00000000000E+00 -0.20170047256E+04  0.20170047256E+04  0.25500000920E-02 0.  1.
    10030    2    1    2    0    0  0.00000000000E+00  0.00000000000E+00 -0.11423979131E+04  0.28916115381E+04  0.26563780408E+04 0.  0.
        1    1    3    3  502    0  0.96468161445E+03  0.91253302898E+03 -0.60118714652E+03  0.14576532960E+04  0.50400001928E-02 0.  1.
       -1    1    3    3    0  502 -0.96468161445E+03 -0.91253302898E+03 -0.54121076663E+03  0.14339582421E+04  0.50400001928E-02 0. -1.
</event>
<event>
 5   0  0.7351590E-06  0.2714569E+04  0.7818609E-02  0.8330293E-01
       -1   -1    0    0    0  501  0.00000000000E+00  0.00000000000E+00  0.89853156386E+03  0.89853156388E+03  0.50400001928E-02 0. -1.
        1   -1    0    0  501    0  0.00000000000E+00  0.00000000000E+00 -0.20502582163E+04  0.20502582163E+04  0.50400001928E-02 0.  1.
    10030    2    1    2    0    0  0.00000000000E+00  0.00000000000E+00 -0.11517266525E+04  0.29487897802E+04  0.27145693739E+04 0.  0.
        3    1    3    3  502    0  0.26572608655E+03 -0.33489057373E+03  0.82348624064E+03  0.92784246948E+03  0.10100000352E+00 0. -1.
       -3    1    3    3    0  502 -0.26572608655E+03  0.33489057373E+03 -0.19752128931E+04  0.20209473107E+04  0.10100000352E+00 0.  1.
</event>
<event>
 5   0  0.7351590E-06  0.2764436E+04  0.7818609E-02  0.8314395E-01
       -1   -1    0    0    0  501  0.00000000000E+00  0.00000000000E+00  0.86103675168E+03  0.86103675169E+03  0.50400001928E-02 0.  1.
        1   -1    0    0  501    0  0.00000000000E+00  0.00000000000E+00 -0.22188671470E+04  0.22188671470E+04  0.50400001928E-02 0. -1.
    10030    2    1    2    0    0  0.00000000000E+00  0.00000000000E+00 -0.13578303954E+04  0.30799038987E+04  0.27644356825E+04 0.  0.
        3    1    3    3  502    0 -0.13091025527E+04  0.39340554276E+03 -0.45056547798E+03  0.14392799153E+04  0.10100000352E+00 0. -1.
       -3    1    3    3    0  502  0.13091025527E+04 -0.39340554276E+03 -0.90726491738E+03  0.16406239834E+04  0.10100000352E+00 0.  1.
</event>
<event>
 5   0  0.7754912E-06  0.2628452E+04  0.7818609E-02  0.8358600E-01
       -1   -1    0    0    0  501  0.00000000000E+00  0.00000000000E+00  0.68858852342E+03  0.68858852344E+03  0.50400001928E-02 0. -1.
        1   -1    0    0  501    0  0.00000000000E+00  0.00000000000E+00 -0.25083058198E+04  0.25083058198E+04  0.50400001928E-02 0.  1.
    10030    2    1    2    0    0  0.00000000000E+00  0.00000000000E+00 -0.18197172964E+04  0.31968943432E+04  0.26284524730E+04 0.  0.
        4    1    3    3  502    0  0.90340877431E+03 -0.72607488937E+03 -0.16634098909E+04  0.20273791546E+04  0.12699999809E+01 0.  1.
       -4    1    3    3    0  502 -0.90340877431E+03  0.72607488937E+03 -0.15630740544E+03  0.11695151886E+04  0.12699999809E+01 0. -1.
</event>
<event>
 5   0  0.1881699E-05  0.2753132E+04  0.7818609E-02  0.8317968E-01
       -2   -1    0    0    0  501  0.00000000000E+00  0.00000000000E+00  0.75053804434E+03  0.75053804434E+03  0.25500000920E-02 0. -1.
        2   -1    0    0  501    0  0.00000000000E+00  0.00000000000E+00 -0.25247678544E+04  0.25247678544E+04  0.25500000920E-02 0.  1.
    10030    2    1    2    0    0  0.00000000000E+00  0.00000000000E+00 -0.17742298100E+04  0.32753058987E+04  0.27531322728E+04 0.  0.
        4    1    3    3  502    0  0.33282790148E+03  0.13294435867E+04 -0.10410285972E+04  0.17210278369E+04  0.12699999809E+01 0. -1.
       -4    1    3    3    0  502 -0.33282790148E+03 -0.13294435867E+04 -0.73320121278E+03  0.15542780618E+04  0.12699999809E+01 0.  1.
</event>
<event>
 5   0  0.7351590E-06  0.2705590E+04  0.7818609E-02  0.8333194E-01
        1   -1    0    0  501    0  0.00000000000E+00  0.00000000000E+00  0.92665020334E+03  0.92665020335E+03  0.50400001928E-02 0. -1.
       -1   -1    0    0    0  501  0.00000000000E+00  0.00000000000E+00 -0.19749135032E+04  0.19749135033E+04  0.50400001928E-02 0.  1.
    10030    2    1    2    0    0  0.00000000000E+00  0.00000000000E+00 -0.10482632999E+04  0.29015637066E+04  0.27055897689E+04 0.  0.
        3    1    3    3  502    0 -0.30639432540E+03  0.10491803660E+04 -0.13789872577E+04  0.17596200699E+04  0.10100000352E+00 0.  1.
       -3    1    3    3    0  502  0.30639432540E+03 -0.10491803660E+04  0.33072395782E+03  0.11419436368E+04  0.10100000352E+00 0. -1.
</event>
<event>
 5   0  0.1826851E-05  0.2705578E+04  0.7818609E-02  0.8333197E-01
       -2   -1    0    0    0  501  0.00000000000E+00  0.00000000000E+00  0.11355953889E+04  0.11355953889E+04  0.25500000920E-02 0.  1.
        2   -1    0    0  501    0  0.00000000000E+00  0.00000000000E+00 -0.16115228442E+04  0.16115228442E+04  0.25500000920E-02 0. -1.
    10030    2    1    2    0    0  0.00000000000E+00  0.00000000000E+00 -0.47592745531E+03  0.27471182330E+04  0.27055778761E+04 0.  0.
        5    1    3    3  502    0 -0.42540983369E+03  0.28013868277E+03  0.10344994287E+04  0.11531098673E+04  0.46999998093E+01 0.  1.
       -5    1    3    3    0  502  0.42540983369E+03 -0.28013868277E+03 -0.15104268840E+04  0.15940083657E+04  0.46999998093E+01 0. -1.
</event>
<event>
 5   0  0.7351590E-06  0.2760621E+04  0.7818609E-02  0.8315599E-01
        1   -1    0    0  501    0  0.00000000000E+00  0.00000000000E+00  0.25272787486E+04  0.25272787486E+04  0.50400001928E-02 0.  1.
       -1   -1    0    0    0  501  0.00000000000E+00  0.00000000000E+00 -0.75387699043E+03  0.75387699045E+03  0.50400001928E-02 0. -1.
    10030    2    1    2    0    0  0.00000000000E+00  0.00000000000E+00  0.17734017581E+04  0.32811557390E+04  0.27606211598E+04 0.  0.
        3    1    3    3  502    0  0.64877739583E+03 -0.11881707072E+04  0.12069404727E+04  0.18136612290E+04  0.10100000352E+00 0.  1.
       -3    1    3    3    0  502 -0.64877739583E+03  0.11881707072E+04  0.56646128544E+03  0.14674945100E+04  0.10100000352E+00 0. -1.
</event>
<event>
 5   0  0.1878160E-05  0.2742858E+04  0.7818609E-02  0.8321231E-01
        2   -1    0    0  501    0  0.00000000000E+00  0.00000000000E+00  0.12745703044E+04  0.12745703044E+04  0.25500000920E-02 0.  1.
       -2   -1    0    0    0  501  0.00000000000E+00  0.00000000000E+00 -0.14756483769E+04  0.14756483769E+04  0.25500000920E-02 0. -1.
    10030    2    1    2    0    0  0.00000000000E+00  0.00000000000E+00 -0.20107807247E+03  0.27502186813E+04  0.27428580721E+04 0.  0.
        1    1    3    3  502    0 -0.13537951266E+04  0.19348332822E+03  0.27936104158E+01  0.13675543307E+04  0.50400001928E-02 0. -1.
       -1    1    3    3    0  502  0.13537951266E+04 -0.19348332822E+03 -0.20387168288E+03  0.13826643506E+04  0.50400001928E-02 0.  1.
</event>
<event>
 5   0  0.7351590E-06  0.2732242E+04  0.7818609E-02  0.8324619E-01
       -1   -1    0    0    0  501  0.00000000000E+00  0.00000000000E+00  0.12185633906E+04  0.12185633906E+04  0.50400001928E-02 0. -1.
        1   -1    0    0  501    0  0.00000000000E+00  0.00000000000E+00 -0.15315467519E+04  0.15315467519E+04  0.50400001928E-02 0.  1.
    10030    2    1    2    0    0  0.00000000000E+00  0.00000000000E+00 -0.31298336132E+03  0.27501101426E+04  0.27322421583E+04 0.  0.
        3    1    3    3  502    0 -0.66208405647E+03 -0.57174202554E+03  0.89967618838E+03  0.12548551692E+04  0.10100000352E+00 0. -1.
       -3    1    3    3    0  502  0.66208405647E+03  0.57174202554E+03 -0.12126595497E+04  0.14952549733E+04  0.10100000352E+00 0.  1.
</event>
<event>
 5   0  0.1826851E-05  0.2687367E+04  0.7818609E-02  0.8339116E-01
       -2   -1    0    0    0  501  0.00000000000E+00  0.00000000000E+00  0.10069164939E+04  0.10069164939E+04  0.25500000920E-02 0.  1.
        2   -1    0    0  501    0  0.00000000000E+00  0.00000000000E+00 -0.17930836970E+04  0.17930836970E+04  0.25500000920E-02 0. -1.
    10030    2    1    2    0    0  0.00000000000E+00  0.00000000000E+00 -0.78616720311E+03  0.28000001909E+04  0.26873671498E+04 0.  0.
        5    1    3    3  502    0 -0.84361037256E+03 -0.95153632330E+03 -0.84528257891E+03  0.15269658030E+04  0.46999998093E+01 0. -1.
       -5    1    3    3    0  502  0.84361037256E+03  0.95153632330E+03  0.59115375794E+02  0.12730343880E+04  0.46999998093E+01 0.  1.
</event>
<event>
 5   0  0.1931119E-05  0.2616454E+04  0.7818609E-02  0.8362634E-01
       -2   -1    0    0    0  501  0.00000000000E+00  0.00000000000E+00  0.72409759885E+03  0.72409759885E+03  0.25500000920E-02 0. -1.
        2   -1    0    0  501    0  0.00000000000E+00  0.00000000000E+00 -0.23635735698E+04  0.23635735698E+04  0.25500000920E-02 0.  1.
    10030    2    1    2    0    0  0.00000000000E+00  0.00000000000E+00 -0.16394759710E+04  0.30876711687E+04  0.26164540482E+04 0.  0.
        3    1    3    3  502    0  0.36736366467E+03  0.17016858635E+03 -0.22877834564E+04  0.23233309200E+04  0.10100000352E+00 0.  1.
       -3    1    3    3    0  502 -0.36736366467E+03 -0.17016858635E+03  0.64830748546E+03  0.76434024872E+03  0.10100000352E+00 0. -1.
</event>
<event>
 5   0  0.1931119E-05  0.2659164E+04  0.7818609E-02  0.8348378E-01
        2   -1    0    0  501    0  0.00000000000E+00  0.00000000000E+00  0.26582723204E+04  0.26582723204E+04  0.25500000920E-02 0.  1.
       -2   -1    0    0    0  501  0.00000000000E+00  0.00000000000E+00 -0.66501409550E+03  0.66501409551E+03  0.25500000920E-02 0. -1.
    10030    2    1    2    0    0  0.00000000000E+00  0.00000000000E+00  0.19932582249E+04  0.33232864159E+04  0.26591642016E+04 0.  0.
        3    1    3    3  502    0 -0.10691836579E+04 -0.69837820739E+03  0.14590406731E+04  0.19389908486E+04  0.10100000352E+00 0.  1.
       -3    1    3    3    0  502  0.10691836579E+04  0.69837820739E+03  0.53421755177E+03  0.13842955673E+04  0.10100000352E+00 0. -1.
</event>
<event>
 5   0  0.7348964E-06  0.2715480E+04  0.7818609E-02  0.8330000E-01
        1   -1    0    0  501    0  0.00000000000E+00  0.00000000000E+00  0.16328751543E+04  0.16328751543E+04  0.50400001928E-02 0. -1.
       -1   -1    0    0    0  501  0.00000000000E+00  0.00000000000E+00 -0.11289647613E+04  0.11289647613E+04  0.50400001928E-02 0.  1.
    10030    2    1    2    0    0  0.00000000000E+00  0.00000000000E+00  0.50391039306E+03  0.27618399156E+04  0.27154804428E+04 0.  0.
        1    1    3    3  502    0 -0.51147751762E+03 -0.69000775402E+03  0.13214484506E+04  0.15760539201E+04  0.50400001928E-02 0. -1.
       -1    1    3    3    0  502  0.51147751762E+03  0.69000775402E+03 -0.81753805751E+03  0.11857859955E+04  0.50400001928E-02 0.  1.
</event>
<event>
 5   0  0.7754912E-06  0.2686492E+04  0.7818609E-02  0.8339401E-01
       -1   -1    0    0    0  501  0.00000000000E+00  0.00000000000E+00  0.10711824250E+04  0.10711824250E+04  0.50400001928E-02 0.  1.
        1   -1    0    0  501    0  0.00000000000E+00  0.00000000000E+00 -0.16844097646E+04  0.16844097646E+04  0.50400001928E-02 0. -1.
    10030    2    1    2    0    0  0.00000000000E+00  0.00000000000E+00 -0.61322733963E+03  0.27555921896E+04  0.26864922381E+04 0.  0.
        4    1    3    3  502    0  0.11703091130E+03 -0.57914108292E+03  0.93073437430E+03  0.11024376248E+04  0.12699999809E+01 0.  1.
       -4    1    3    3    0  502 -0.11703091130E+03  0.57914108292E+03 -0.15439617139E+04  0.16531545648E+04  0.12699999809E+01 0. -1.
</event>
<event>
 5   0  0.7348964E-06  0.2480290E+04  0.7818609E-02  0.8410041E-01
       -1   -1    0    0    0  501  0.00000000000E+00  0.00000000000E+00  0.10184443790E+04  0.10184443790E+04  0.50400001928E-02 0. -1.
        1   -1    0    0  501    0  0.00000000000E+00  0.00000000000E+00 -0.15101070294E+04  0.15101070294E+04  0.50400001928E-02 0.  1.
    10030    2    1    2    0    0  0.00000000000E+00  0.00000000000E+00 -0.49166265041E+03  0.25285514085E+04  0.24802903184E+04 0.  0.
        1    1    3    3  502    0  0.10957249326E+03  0.29410697717E+02  0.10131429297E+04  0.10194752162E+04  0.50400001928E-02 0. -1.
       -1    1    3    3    0  502 -0.10957249326E+03 -0.29410697717E+02 -0.15048055801E+04  0.15090761923E+04  0.50400001928E-02 0.  1.
</event>
<event>
 5   0  0.6175875E-06  0.2147419E+04  0.7818609E-02  0.8540638E-01
        3   -1    0    0  501    0  0.00000000000E+00  0.00000000000E+00  0.15662322511E+04  0.15662322544E+04  0.10100000352E+00 0. -1.
       -3   -1    0    0    0  501  0.00000000000E+00  0.00000000000E+00 -0.73606688462E+03  0.73606689155E+03  0.10100000352E+00 0.  1.
    10030    2    1    2    0    0  0.00000000000E+00  0.00000000000E+00  0.83016536650E+03  0.23022991459E+04  0.21474186414E+04 0.  0.
        5    1    3    3  502    0  0.81601692228E+03 -0.21751532496E+03  0.11259527311E+04  0.14074758175E+04  0.46999998093E+01 0.  1.
       -5    1    3    3    0  502 -0.81601692228E+03  0.21751532496E+03 -0.29578736464E+03  0.89482332844E+03  0.46999998093E+01 0. -1.
</event>
<event>
 5   0  0.7600052E-06  0.2306514E+04  0.7818609E-02  0.8475357E-01
        1   -1    0    0  501    0  0.00000000000E+00  0.00000000000E+00  0.12969537252E+04  0.12969537252E+04  0.50400001928E-02 0.  1.
       -1   -1    0    0    0  501  0.00000000000E+00  0.00000000000E+00 -0.10254809091E+04  0.10254809091E+04  0.50400001928E-02 0. -1.
    10030    2    1    2    0    0  0.00000000000E+00  0.00000000000E+00  0.27147281609E+03  0.23224346344E+04  0.23065136334E+04 0.  0.
        5    1    3    3  502    0  0.66674353081E+03 -0.39727348828E+03 -0.72314978189E+03  0.10608208413E+04  0.46999998093E+01 0. -1.
       -5    1    3    3    0  502 -0.66674353081E+03  0.39727348828E+03  0.99462259798E+03  0.12616137930E+04  0.46999998093E+01 0.  1.
</event>
<event>
 5   0  0.7754912E-06  0.2611908E+04  0.7818609E-02  0.8364167E-01
       -1   -1    0    0    0  501  0.00000000000E+00  0.00000000000E+00  0.17869501205E+04  0.17869501205E+04  0.50400001928E-02 0. -1.
        1   -1    0    0  501    0  0.00000000000E+00  0.00000000000E+00 -0.95442847352E+03  0.95442847353E+03  0.50400001928E-02 0.  1.
    10030    2    1    2    0    0  0.00000000000E+00  0.00000000000E+00  0.83252164699E+03  0.27413785940E+04  0.26119081728E+04 0.  0.
        4    1    3    3  502    0 -0.11090561107E+04 -0.23441386860E+03 -0.26439043714E+03  0.11639842072E+04  0.12699999809E+01 0.  1.
       -4    1    3    3    0  502  0.11090561107E+04  0.23441386860E+03  0.10969120841E+04  0.15773943868E+04  0.12699999809E+01 0. -1.
</event>
<event>
 5   0  0.6804685E-06  0.2696799E+04  0.7818609E-02  0.8336044E-01
       -1   -1    0    0    0  501  0.00000000000E+00  0.00000000000E+00  0.80260997559E+03  0.80260997560E+03  0.50400001928E-02 0. -1.
        1   -1    0    0  501    0  0.00000000000E+00  0.00000000000E+00 -0.22653353109E+04  0.22653353110E+04  0.50400001928E-02 0.  1.
    10030    2    1    2    0    0  0.00000000000E+00  0.00000000000E+00 -0.14627253354E+04  0.30679452866E+04  0.26967986344E+04 0.  0.
        2    1    3    3  502    0  0.10828844931E+04  0.14445156573E+03 -0.16305007148E+04  0.19626608625E+04  0.25500000920E-02 0. -1.
       -2    1    3    3    0  502 -0.10828844931E+04 -0.14445156573E+03  0.16777537942E+03  0.11052844241E+04  0.25500000920E-02 0.  1.
</event>
<event>
 5   0  0.1788003E-05  0.2720049E+04  0.7818609E-02  0.8328529E-01
        2   -1    0    0  501    0  0.00000000000E+00  0.00000000000E+00  0.11007533696E+04  0.11007533696E+04  0.25500000920E-02 0. -1.
       -2   -1    0    0    0  501  0.00000000000E+00  0.00000000000E+00 -0.16803645103E+04  0.16803645103E+04  0.25500000920E-02 0.  1.
    10030    2    1    2    0    0  0.00000000000E+00  0.00000000000E+00 -0.57961114072E+03  0.27811178799E+04  0.27200491884E+04 0.  0.
        2    1    3    3  502    0  0.63607050778E+03  0.25717227217E+02 -0.15186286525E+04  0.16466572353E+04  0.25500000920E-02 0.  1.
       -2    1    3    3    0  502 -0.63607050778E+03 -0.25717227217E+02  0.93901751175E+03  0.11344606445E+04  0.25500000920E-02 0. -1.
</event>
<event>
 5   0  0.7600052E-06  0.2664639E+04  0.7818609E-02  0.8346571E-01
       -1   -1    0    0    0  501  0.00000000000E+00  0.00000000000E+00  0.11902687909E+04  0.11902687909E+04  0.50400001928E-02 0.  1.
        1   -1    0    0  501    0  0.00000000000E+00  0.00000000000E+00 -0.14913225160E+04  0.14913225160E+04  0.50400001928E-02 0. -1.
    10030    2    1    2    0    0  0.00000000000E+00  0.00000000000E+00 -0.30105372509E+03  0.26815913069E+04  0.26646385481E+04 0.  0.
        5    1    3    3  502    0  0.59919336298E+03 -0.10744890994E+04  0.36409040624E+03  0.12830212098E+04  0.46999998093E+01 0.  1.
       -5    1    3    3    0  502 -0.59919336298E+03  0.10744890994E+04 -0.66514413133E+03  0.13985700971E+04  0.46999998093E+01 0. -1.
</event>
<event>
 5   0  0.7351590E-06  0.2638347E+04  0.7818609E-02  0.8355291E-01
        1   -1    0    0  501    0  0.00000000000E+00  0.00000000000E+00  0.12217288770E+04  0.12217288770E+04  0.50400001928E-02 0. -1.
       -1   -1    0    0    0  501  0.00000000000E+00  0.00000000000E+00 -0.14243899389E+04  0.14243899389E+04  0.50400001928E-02 0.  1.
    10030    2    1    2    0    0  0.00000000000E+00  0.00000000000E+00 -0.20266106190E+03  0.26461188159E+04  0.26383466948E+04 0.  0.
        3    1    3    3  502    0  0.37111952551E+03  0.92648308695E+03  0.76383317820E+03  0.12567982125E+04  0.10100000352E+00 0. -1.
       -3    1    3    3    0  502 -0.37111952551E+03 -0.92648308695E+03 -0.96649424010E+03  0.13893206034E+04  0.10100000352E+00 0.  1.
</event>
<event>
 5   0  0.1788003E-05  0.2675830E+04  0.7818609E-02  0.8342890E-01
       -2   -1    0    0    0  501  0.00000000000E+00  0.00000000000E+00  0.11683994070E+04  0.11683994070E+04  0.25500000920E-02 0.  1.
        2   -1    0    0  501    0  0.00000000000E+00  0.00000000000E+00 -0.15320243071E+04  0.15320243071E+04  0.25500000920E-02 0. -1.
    10030    2    1    2    0    0  0.00000000000E+00  0.00000000000E+00 -0.36362490011E+03  0.27004237141E+04  0.26758298092E+04 0.  0.
        2    1    3    3  502    0  0.16343294454E+03  0.13101287669E+04 -0.40029377331E+03  0.13796314067E+04  0.25500000920E-02 0.  1.
       -2    1    3    3    0  502 -0.16343294454E+03 -0.13101287669E+04  0.36668873202E+02  0.13207923075E+04  0.25500000920E-02 0. -1.
</event>
<event>
 5   0  0.6804685E-06  0.2670085E+04  0.7818609E-02  0.8344777E-01
        1   -1    0    0  501    0  0.00000000000E+00  0.00000000000E+00  0.17007577977E+04  0.17007577977E+04  0.50400001928E-02 0. -1.
       -1   -1    0    0    0  501  0.00000000000E+00  0.00000000000E+00 -0.10479671421E+04  0.10479671421E+04  0.50400001928E-02 0.  1.
    10030    2    1    2    0    0  0.00000000000E+00  0.00000000000E+00  0.65279065562E+03  0.27487249398E+04  0.26700848590E+04 0.  0.
        2    1    3    3  502    0  0.81728699636E+03 -0.59967076803E+03  0.12207608251E+04  0.15867640205E+04  0.25500000920E-02 0. -1.
       -2    1    3    3    0  502 -0.81728699636E+03  0.59967076803E+03 -0.56797016953E+03  0.11619609193E+04  0.25500000920E-02 0.  1.
</event>
<event>
 5   0  0.7600052E-06  0.2697751E+04  0.7818609E-02  0.8335735E-01
       -1   -1    0    0    0  501  0.00000000000E+00  0.00000000000E+00  0.14286557156E+04  0.14286557156E+04  0.50400001928E-02 0.  1.
        1   -1    0    0  501    0  0.00000000000E+00  0.00000000000E+00 -0.12735508983E+04  0.12735508983E+04  0.50400001928E-02 0. -1.
    10030    2    1    2    0    0  0.00000000000E+00  0.00000000000E+00  0.15510481729E+03  0.27022066139E+04  0.26977514859E+04 0.  0.
        5    1    3    3  502    0 -0.39718755275E+03  0.69324198920E+03  0.11661319823E+04  0.14135870323E+04  0.46999998093E+01 0.  1.
       -5    1    3    3    0  502  0.39718755275E+03 -0.69324198920E+03 -0.10110271650E+04  0.12886195816E+04  0.46999998093E+01 0. -1.
</event>
<event>
 5   0  0.1878160E-05  0.2505365E+04  0.7818609E-02  0.8401077E-01
       -2   -1    0    0    0  501  0.00000000000E+00  0.00000000000E+00  0.10343806283E+04  0.10343806283E+04  0.25500000920E-02 0.  1.
        2   -1    0    0  501    0  0.00000000000E+00  0.00000000000E+00 -0.15170556978E+04  0.15170556978E+04  0.25500000920E-02 0. -1.
    10030    2    1    2    0    0  0.00000000000E+00  0.00000000000E+00 -0.48267506949E+03  0.25514363260E+04  0.25053646647E+04 0.  0.
        1    1    3    3  502    0 -0.30921971141E+02 -0.12463403746E+04 -0.36561660590E+03  0.12992290023E+04  0.50400001928E-02 0.  1.
       -1    1    3    3    0  502  0.30921971141E+02  0.12463403746E+04 -0.11705846359E+03  0.12522073238E+04  0.50400001928E-02 0. -1.
</event>
<event>
 5   0  0.1788003E-05  0.2708287E+04  0.7818609E-02  0.8332321E-01
       -2   -1    0    0    0  501  0.00000000000E+00  0.00000000000E+00  0.10736992426E+04  0.10736992426E+04  0.25500000920E-02 0. -1.
        2   -1    0    0  501    0  0.00000000000E+00  0.00000000000E+00 -0.17078379875E+04  0.17078379875E+04  0.25500000920E-02 0.  1.
    10030    2    1    2    0    0  0.00000000000E+00  0.00000000000E+00 -0.63413874488E+03  0.27815372301E+04  0.27082868044E+04 0.  0.
        2    1    3    3  502    0 -0.17432753531E+03  0.63381616180E+03 -0.15329779601E+04  0.16679731541E+04  0.25500000920E-02 0.  1.
       -2    1    3    3    0  502  0.17432753531E+03 -0.63381616180E+03  0.89883921526E+03  0.11135640760E+04  0.25500000920E-02 0. -1.
</event>
<event>
 5   0  0.1881699E-05  0.2697303E+04  0.7818609E-02  0.8335880E-01
        2   -1    0    0  501    0  0.00000000000E+00  0.00000000000E+00  0.21798709285E+04  0.21798709285E+04  0.25500000920E-02 0. -1.
       -2   -1    0    0    0  501  0.00000000000E+00  0.00000000000E+00 -0.83438946192E+03  0.83438946193E+03  0.25500000920E-02 0.  1.
    10030    2    1    2    0    0  0.00000000000E+00  0.00000000000E+00  0.13454814666E+04  0.30142603905E+04  0.26973033431E+04 0.  0.
        4    1    3    3  502    0 -0.52666344446E+03  0.62870612936E+03 -0.52367969136E+03  0.97308160648E+03  0.12699999809E+01 0.  1.
       -4    1    3    3    0  502  0.52666344446E+03 -0.62870612936E+03  0.18691611580E+04  0.20411787840E+04  0.12699999809E+01 0. -1.
</event>
<event>
 5   0  0.1826851E-05  0.2728661E+04  0.7818609E-02  0.8325765E-01
        2   -1    0    0  501    0  0.00000000000E+00  0.00000000000E+00  0.10786400623E+04  0.10786400623E+04  0.25500000920E-02 0.  1.
       -2   -1    0    0    0  501  0.00000000000E+00  0.00000000000E+00 -0.17256888283E+04  0.17256888283E+04  0.25500000920E-02 0. -1.
    10030    2    1    2    0    0  0.00000000000E+00  0.00000000000E+00 -0.64704876602E+03  0.28043288906E+04  0.27286605544E+04 0.  0.
        5    1    3    3  502    0  0.82014202125E+02 -0.31927742916E+03  0.10370883821E+04  0.10882273698E+04  0.46999998093E+01 0.  1.
       -5    1    3    3    0  502 -0.82014202125E+02  0.31927742916E+03 -0.16841371481E+04  0.17161015208E+04  0.46999998093E+01 0. -1.
</event>
<event>
 5   0  0.1881699E-05  0.1932103E+04  0.7818609E-02  0.8639040E-01
       -2   -1    0    0    0  501  0.00000000000E+00  0.00000000000E+00  0.71165930173E+03  0.71165930173E+03  0.25500000920E-02 0. -1.
        2   -1    0    0  501    0  0.00000000000E+00  0.00000000000E+00 -0.13113799848E+04  0.13113799848E+04  0.25500000920E-02 0.  1.
    10030    2    1    2    0    0  0.00000000000E+00  0.00000000000E+00 -0.59972068306E+03  0.20230392865E+04  0.19321032729E+04 0.  0.
        4    1    3    3  502    0 -0.70168187207E+03  0.40093024941E+03  0.25434481544E+03  0.84722807586E+03  0.12699999809E+01 0. -1.
       -4    1    3    3    0  502  0.70168187207E+03 -0.40093024941E+03 -0.85406549850E+03  0.11758112107E+04  0.12699999809E+01 0.  1.
</event>
<event>
 5   0  0.1878160E-05  0.2734663E+04  0.7818609E-02  0.8323845E-01
        2   -1    0    0  501    0  0.00000000000E+00  0.00000000000E+00  0.17762738422E+04  0.17762738422E+04  0.25500000920E-02 0. -1.
       -2   -1    0    0    0  501  0.00000000000E+00  0.00000000000E+00 -0.10525376835E+04  0.10525376835E+04  0.25500000920E-02 0.  1.
    10030    2    1    2    0    0  0.00000000000E+00  0.00000000000E+00  0.72373615871E+03  0.28288115258E+04  0.27346627984E+04 0.  0.
        1    1    3    3  502    0  0.21581097227E+03 -0.20829382151E+03 -0.10180891751E+04  0.10613511485E+04  0.50400001928E-02 0.  1.
       -1    1    3    3    0  502 -0.21581097227E+03  0.20829382151E+03  0.17418253338E+04  0.17674603773E+04  0.50400001928E-02 0. -1.
</event>
<event>
 5   0  0.7754912E-06  0.2683724E+04  0.7818609E-02  0.8340305E-01
       -1   -1    0    0    0  501  0.00000000000E+00  0.00000000000E+00  0.11171780690E+04  0.11171780690E+04  0.50400001928E-02 0.  1.
        1   -1    0    0  501    0  0.00000000000E+00  0.00000000000E+00 -0.16117340643E+04  0.16117340643E+04  0.50400001928E-02 0. -1.
    10030    2    1    2    0    0  0.00000000000E+00  0.00000000000E+00 -0.49455599535E+03  0.27289121333E+04  0.26837242405E+04 0.  0.
        4    1    3    3  502    0  0.52985220494E+03 -0.12323561462E+04 -0.28172023943E+03  0.13706979742E+04  0.12699999809E+01 0.  1.
       -4    1    3    3    0  502 -0.52985220494E+03  0.12323561462E+04 -0.21283575592E+03  0.13582141591E+04  0.12699999809E+01 0. -1.
</event>
<event>
 5   0  0.1788003E-05  0.2748425E+04  0.7818609E-02  0.8319462E-01
        2   -1    0    0  501    0  0.00000000000E+00  0.00000000000E+00  0.14535117196E+04  0.14535117196E+04  0.25500000920E-02 0.  1.
       -2   -1    0    0    0  501  0.00000000000E+00  0.00000000000E+00 -0.12992393844E+04  0.12992393844E+04  0.25500000920E-02 0. -1.
    10030    2    1    2    0    0  0.00000000000E+00  0.00000000000E+00  0.15427233515E+03  0.27527511040E+04  0.27484247647E+04 0.  0.
        2    1    3    3  502    0  0.48145016873E+03  0.10704857720E+04 -0.63863947254E+03  0.13362613625E+04  0.25500000920E-02 0. -1.
       -2    1    3    3    0  502 -0.48145016873E+03 -0.10704857720E+04  0.79291180769E+03  0.14164897415E+04  0.25500000920E-02 0.  1.
</event>
<event>
 5   0  0.1931119E-05  0.2603326E+04  0.7818609E-02  0.8367072E-01
        2   -1    0    0  501    0  0.00000000000E+00  0.00000000000E+00  0.15773556526E+04  0.15773556526E+04  0.25500000920E-02 0. -1.
       -2   -1    0    0    0  501  0.00000000000E+00  0.00000000000E+00 -0.10741564249E+04  0.10741564249E+04  0.25500000920E-02 0.  1.
    10030    2    1    2    0    0  0.00000000000E+00  0.00000000000E+00  0.50319922773E+03  0.26515120775E+04  0.26033261099E+04 0.  0.
        3    1    3    3  502    0 -0.11917803946E+04  0.28694132782E+03 -0.19428288473E+03  0.12411372543E+04  0.10100000352E+00 0. -1.
       -3    1    3    3    0  502  0.11917803946E+04 -0.28694132782E+03  0.69748211246E+03  0.14103748232E+04  0.10100000352E+00 0.  1.
</event>
<event>
 5   0  0.6175875E-06  0.2720391E+04  0.7818609E-02  0.8328419E-01
        4   -1    0    0  501    0  0.00000000000E+00  0.00000000000E+00  0.99259205213E+03  0.99259286460E+03  0.12699999809E+01 0.  1.
       -4   -1    0    0    0  501  0.00000000000E+00  0.00000000000E+00 -0.18639380458E+04  0.18639384785E+04  0.12699999809E+01 0. -1.
    10030    2    1    2    0    0  0.00000000000E+00  0.00000000000E+00 -0.87134599370E+03  0.28565313431E+04  0.27203910515E+04 0.  0.
        5    1    3    3  502    0  0.22155137227E+03  0.52428484625E+03  0.86152506303E+03  0.10325730651E+04  0.46999998093E+01 0.  1.
       -5    1    3    3    0  502 -0.22155137227E+03 -0.52428484625E+03 -0.17328710567E+04  0.18239582780E+04  0.46999998093E+01 0. -1.
</event>
<event>
 5   0  0.1878160E-05  0.2701373E+04  0.7818609E-02  0.8334560E-01
       -2   -1    0    0    0  501  0.00000000000E+00  0.00000000000E+00  0.18826862232E+04  0.18826862232E+04  0.25500000920E-02 0. -1.
        2   -1    0    0  501    0  0.00000000000E+00  0.00000000000E+00 -0.96901633284E+03  0.96901633284E+03  0.25500000920E-02 0.  1.
    10030    2    1    2    0    0  0.00000000000E+00  0.00000000000E+00  0.91366989040E+03  0.28517025561E+04  0.27013727621E+04 0.  0.
        1    1    3    3  502    0 -0.96423397955E+03  0.19693884034E+02 -0.54142024791E+03  0.11060157780E+04  0.50400001928E-02 0.  1.
       -1    1    3    3    0  502  0.96423397955E+03 -0.19693884034E+02  0.14550901383E+04  0.17456867780E+04  0.50400001928E-02 0. -1.
</event>
<event>
 5   0  0.7348964E-06  0.2716090E+04  0.7818609E-02  0.8329803E-01
       -1   -1    0    0    0  501  0.00000000000E+00  0.00000000000E+00  0.94843861783E+03  0.94843861785E+03  0.50400001928E-02 0. -1.
        1   -1    0    0  501    0  0.00000000000E+00  0.00000000000E+00 -0.19445492932E+04  0.19445492932E+04  0.50400001928E-02 0.  1.
    10030    2    1    2    0    0  0.00000000000E+00  0.00000000000E+00 -0.99611067536E+03  0.28929879110E+04  0.27160895743E+04 0.  0.
        1    1    3    3  502    0 -0.45318060432E+03  0.12666756009E+04 -0.69573925394E+03  0.15145602819E+04  0.50400001928E-02 0.  1.
       -1    1    3    3    0  502  0.45318060432E+03 -0.12666756009E+04 -0.30037142142E+03  0.13784276292E+04  0.50400001928E-02 0. -1.
</event>
<event>
 5   0  0.1788003E-05  0.2714932E+04  0.7818609E-02  0.8330176E-01
        2   -1    0    0  501    0  0.00000000000E+00  0.00000000000E+00  0.18399646591E+04  0.18399646591E+04  0.25500000920E-02 0. -1.
       -2   -1    0    0    0  501  0.00000000000E+00  0.00000000000E+00 -0.10014941549E+04  0.10014941549E+04  0.25500000920E-02 0.  1.
    10030    2    1    2    0    0  0.00000000000E+00  0.00000000000E+00  0.83847050415E+03  0.28414588140E+04  0.27149319339E+04 0.  0.
        2    1    3    3  502    0 -0.12351212085E+03  0.94792889526E+03 -0.58947033670E+03  0.11230760047E+04  0.25500000920E-02 0.  1.
       -2    1    3    3    0  502  0.12351212085E+03 -0.94792889526E+03  0.14279408409E+04  0.17183828093E+04  0.25500000920E-02 0. -1.
</event>
<event>
 5   0  0.7600052E-06  0.2695901E+04  0.7818609E-02  0.8336336E-01
       -1   -1    0    0    0  501  0.00000000000E+00  0.00000000000E+00  0.10176225956E+04  0.10176225956E+04  0.50400001928E-02 0.  1.
        1   -1    0    0  501    0  0.00000000000E+00  0.00000000000E+00 -0.17855056301E+04  0.17855056301E+04  0.50400001928E-02 0. -1.
    10030    2    1    2    0    0  0.00000000000E+00  0.00000000000E+00 -0.76788303450E+03  0.28031282257E+04  0.26959012399E+04 0.  0.
        5    1    3    3  502    0  0.88939094246E+03 -0.83052463253E+02  0.66568186969E+03  0.11140324959E+04  0.46999998093E+01 0.  1.
       -5    1    3    3    0  502 -0.88939094246E+03  0.83052463253E+02 -0.14335649042E+04  0.16890957299E+04  0.46999998093E+01 0. -1.
</event>
<event>
 5   0  0.1826851E-05  0.2219365E+04  0.7818609E-02  0.8510411E-01
       -2   -1    0    0    0  501  0.00000000000E+00  0.00000000000E+00  0.57909050944E+03  0.57909050945E+03  0.25500000920E-02 0. -1.
        2   -1    0    0  501    0  0.00000000000E+00  0.00000000000E+00 -0.21264288842E+04  0.21264288842E+04  0.25500000920E-02 0.  1.
    10030    2    1    2    0    0  0.00000000000E+00  0.00000000000E+00 -0.15473383747E+04  0.27055193936E+04  0.22193645810E+04 0.  0.
        5    1    3    3  502    0 -0.53991433173E+03 -0.36016578535E+03  0.32357578011E+03  0.72522427842E+03  0.46999998093E+01 0. -1.
       -5    1    3    3    0  502  0.53991433173E+03  0.36016578535E+03 -0.18709141548E+04  0.19802951152E+04  0.46999998093E+01 0.  1.
</event>
<event>
 5   0  0.7754912E-06  0.2658778E+04  0.7818609E-02  0.8348505E-01
       -1   -1    0    0    0  501  0.00000000000E+00  0.00000000000E+00  0.10055221846E+04  0.10055221846E+04  0.50400001928E-02 0.  1.
        1   -1    0    0  501    0  0.00000000000E+00  0.00000000000E+00 -0.17575699417E+04  0.17575699417E+04  0.50400001928E-02 0. -1.
    10030    2    1    2    0    0  0.00000000000E+00  0.00000000000E+00 -0.75204775706E+03  0.27630921263E+04  0.26587783415E+04 0.  0.
        4    1    3    3  502    0 -0.11871768910E+04  0.15952868499E+03  0.22316947077E+03  0.12184599285E+04  0.12699999809E+01 0.  1.
       -4    1    3    3    0  502  0.11871768910E+04 -0.15952868499E+03 -0.97521722783E+03  0.15446321977E+04  0.12699999809E+01 0. -1.
</event>
<event>
 5   0  0.1881699E-05  0.2690273E+04  0.7818609E-02  0.8338168E-01
       -2   -1    0    0    0  501  0.00000000000E+00  0.00000000000E+00  0.11414732870E+04  0.11414732870E+04  0.25500000920E-02 0.  1.
        2   -1    0    0  501    0  0.00000000000E+00  0.00000000000E+00 -0.15851372219E+04  0.15851372219E+04  0.25500000920E-02 0. -1.
    10030    2    1    2    0    0  0.00000000000E+00  0.00000000000E+00 -0.44366393490E+03  0.27266105089E+04  0.26902726963E+04 0.  0.
        4    1    3    3  502    0 -0.11316029376E+04  0.64981317933E+03  0.10908672719E+03  0.13094593936E+04  0.12699999809E+01 0. -1.
       -4    1    3    3    0  502  0.11316029376E+04 -0.64981317933E+03 -0.55275066209E+03  0.14171511154E+04  0.12699999809E+01 0.  1.
</event>
<event>
 5   0  0.7348964E-06  0.2695731E+04  0.7818609E-02  0.8336391E-01
        1   -1    0    0  501    0  0.00000000000E+00  0.00000000000E+00  0.17975521183E+04  0.17975521183E+04  0.50400001928E-02 0.  1.
       -1   -1    0    0    0  501  0.00000000000E+00  0.00000000000E+00 -0.10106750991E+04  0.10106750992E+04  0.50400001928E-02 0. -1.
    10030    2    1    2    0    0  0.00000000000E+00  0.00000000000E+00  0.78687701912E+03  0.28082272174E+04  0.26957308214E+04 0.  0.
        1    1    3    3  502    0  0.19358190277E+03  0.65216712517E+02  0.17813335077E+04  0.17930075957E+04  0.50400001928E-02 0.  1.
       -1    1    3    3    0  502 -0.19358190277E+03 -0.65216712517E+02 -0.99445648855E+03  0.10152196217E+04  0.50400001928E-02 0. -1.
</event>
<event>
 5   0  0.1878160E-05  0.2710442E+04  0.7818609E-02  0.8331625E-01
       -2   -1    0    0    0  501  0.00000000000E+00  0.00000000000E+00  0.87696187130E+03  0.87696187130E+03  0.25500000920E-02 0. -1.
        2   -1    0    0  501    0  0.00000000000E+00  0.00000000000E+00 -0.20943031144E+04  0.20943031144E+04  0.25500000920E-02 0.  1.
    10030    2    1    2    0    0  0.00000000000E+00  0.00000000000E+00 -0.12173412431E+04  0.29712649857E+04  0.27104420144E+04 0.  0.
        1    1    3    3  502    0 -0.10849063296E+04  0.79336429411E+02 -0.14947247248E+04  0.18486530274E+04  0.50400001928E-02 0.  1.
       -1    1    3    3    0  502  0.10849063296E+04 -0.79336429411E+02  0.27738348164E+03  0.11226119583E+04  0.50400001928E-02 0. -1.
</event>
<event>
 5   0  0.7754912E-06  0.2764438E+04  0.7818609E-02  0.8314395E-01
        1   -1    0    0  501    0  0.00000000000E+00  0.00000000000E+00  0.20891204083E+04  0.20891204083E+04  0.50400001928E-02 0.  1.
       -1   -1    0    0    0  501  0.00000000000E+00  0.00000000000E+00 -0.91451401090E+03  0.91451401091E+03  0.50400001928E-02 0. -1.
    10030    2    1    2    0    0  0.00000000000E+00  0.00000000000E+00  0.11746063974E+04  0.30036344192E+04  0.27644383762E+04 0.  0.
        4    1    3    3  502    0 -0.19448385755E+02 -0.75305844853E+03  0.18464800628E+04  0.19942330611E+04  0.12699999809E+01 0.  1.
       -4    1    3    3    0  502  0.19448385755E+02  0.75305844853E+03 -0.67187366543E+03  0.10094013581E+04  0.12699999809E+01 0. -1.
</event>
<event>
 5   0  0.1931119E-05  0.2736486E+04  0.7818609E-02  0.8323263E-01
       -2   -1    0    0    0  501  0.00000000000E+00  0.00000000000E+00  0.83738282479E+03  0.83738282479E+03  0.25500000920E-02 0. -1.
        2   -1    0    0  501    0  0.00000000000E+00  0.00000000000E+00 -0.22356426909E+04  0.22356426909E+04  0.25500000920E-02 0.  1.
    10030    2    1    2    0    0  0.00000000000E+00  0.00000000000E+00 -0.13982598661E+04  0.30730255157E+04  0.27364859157E+04 0.  0.
        3    1    3    3  502    0  0.15563123411E+03 -0.12744484712E+04 -0.12302053884E+04  0.17781578374E+04  0.10100000352E+00 0.  1.
       -3    1    3    3    0  502 -0.15563123411E+03  0.12744484712E+04 -0.16805447769E+03  0.12948676783E+04  0.10100000352E+00 0. -1.
</event>
<event>
 5   0  0.7351590E-06  0.2686710E+04  0.7818609E-02  0.8339330E-01
        1   -1    0    0  501    0  0.00000000000E+00  0.00000000000E+00  0.17480398019E+04  0.17480398019E+04  0.50400001928E-02 0.  1.
       -1   -1    0    0    0  501  0.00000000000E+00  0.00000000000E+00 -0.10323576870E+04  0.10323576870E+04  0.50400001928E-02 0. -1.
    10030    2    1    2    0    0  0.00000000000E+00  0.00000000000E+00  0.71568211490E+03  0.27803974889E+04  0.26867097548E+04 0.  0.
        3    1    3    3  502    0  0.12116214137E+04 -0.25878345079E+03 -0.17950208510E+03  0.12518851119E+04  0.10100000352E+00 0. -1.
       -3    1    3    3    0  502 -0.12116214137E+04  0.25878345079E+03  0.89518420000E+03  0.15285123770E+04  0.10100000352E+00 0.  1.
</event>
<event>
 5   0  0.1878160E-05  0.2695044E+04  0.7818609E-02  0.8336615E-01
       -2   -1    0    0    0  501  0.00000000000E+00  0.00000000000E+00  0.63159679865E+03  0.63159679865E+03  0.25500000920E-02 0.  1.
        2   -1    0    0  501    0  0.00000000000E+00  0.00000000000E+00 -0.28749593510E+04  0.28749593510E+04  0.25500000920E-02 0. -1.
    10030    2    1    2    0    0  0.00000000000E+00  0.00000000000E+00 -0.22433625524E+04  0.35065561497E+04  0.26950436897E+04 0.  0.
        1    1    3    3  502    0 -0.13063219900E+04  0.46198263908E+02 -0.15476913584E+04  0.20258232800E+04  0.50400001928E-02 0. -1.
       -1    1    3    3    0  502  0.13063219900E+04 -0.46198263908E+02 -0.69567119399E+03  0.14807328696E+04  0.50400001928E-02 0.  1.
</event>
<event>
 5   0  0.7754912E-06  0.2689158E+04  0.7818609E-02  0.8338532E-01
        1   -1    0    0  501    0  0.00000000000E+00  0.00000000000E+00  0.23495077678E+04  0.23495077678E+04  0.50400001928E-02 0.  1.
       -1   -1    0    0    0  501  0.00000000000E+00  0.00000000000E+00 -0.76947694412E+03  0.76947694414E+03  0.50400001928E-02 0. -1.
    10030    2    1    2    0    0  0.00000000000E+00  0.00000000000E+00  0.15800308237E+04  0.31189847119E+04  0.26891575316E+04 0.  0.
        4    1    3    3  502    0 -0.26865771103E+03 -0.24654969398E+03 -0.71103372238E+03  0.79908340275E+03  0.12699999809E+01 0. -1.
       -4    1    3    3    0  502  0.26865771103E+03  0.24654969398E+03  0.22910645460E+04  0.23199013092E+04  0.12699999809E+01 0.  1.
</event>
<event>
 5   0  0.1931119E-05  0.2685618E+04  0.7818609E-02  0.8339687E-01
        2   -1    0    0  501    0  0.00000000000E+00  0.00000000000E+00  0.54259589180E+03  0.54259589181E+03  0.25500000920E-02 0. -1.
       -2   -1    0    0    0  501  0.00000000000E+00  0.00000000000E+00 -0.33231652422E+04  0.33231652422E+04  0.25500000920E-02 0.  1.
    10030    2    1    2    0    0  0.00000000000E+00  0.00000000000E+00 -0.27805693504E+04  0.38657611340E+04  0.26856178494E+04 0.  0.
        3    1    3    3  502    0 -0.33906134290E+03  0.11722063567E+04 -0.58355404959E+03  0.13526143856E+04  0.10100000352E+00 0.  1.
       -3    1    3    3    0  502  0.33906134290E+03 -0.11722063567E+04 -0.21970153008E+04  0.25131467485E+04  0.10100000352E+00 0. -1.
</event>
<event>
 5   0  0.7754912E-06  0.2608589E+04  0.7818609E-02  0.8365289E-01
        1   -1    0    0  501    0  0.00000000000E+00  0.00000000000E+00  0.23349989194E+04  0.23349989194E+04  0.50400001928E-02 0.  1.
       -1   -1    0    0    0  501  0.00000000000E+00  0.00000000000E+00 -0.72855911279E+03  0.72855911281E+03  0.50400001928E-02 0. -1.
    10030    2    1    2    0    0  0.00000000000E+00  0.00000000000E+00  0.16064398066E+04  0.30635580322E+04  0.26085894588E+04 0.  0.
        4    1    3    3  502    0  0.71125546441E+03 -0.40926045387E+03  0.19938467489E+04  0.21561087462E+04  0.12699999809E+01 0.  1.
       -4    1    3    3    0  502 -0.71125546441E+03  0.40926045387E+03 -0.38740694228E+03  0.90744928596E+03  0.12699999809E+01 0. -1.
</event>
<event>
 5   0  0.6175875E-06  0.2700126E+04  0.7818609E-02  0.8334964E-01
       -3   -1    0    0    0  501  0.00000000000E+00  0.00000000000E+00  0.21923122684E+04  0.21923122708E+04  0.10100000352E+00 0.  1.
        3   -1    0    0  501    0  0.00000000000E+00  0.00000000000E+00 -0.83139145109E+03  0.83139145723E+03  0.10100000352E+00 0. -1.
    10030    2    1    2    0    0  0.00000000000E+00  0.00000000000E+00  0.13609208174E+04  0.30237037280E+04  0.27001256940E+04 0.  0.
        5    1    3    3  502    0  0.12732693915E+04 -0.27555350492E+03  0.28374216271E+03  0.13332953095E+04  0.46999998093E+01 0. -1.
       -5    1    3    3    0  502 -0.12732693915E+04  0.27555350492E+03  0.10771786546E+04  0.16904084185E+04  0.46999998093E+01 0.  1.
</event>
<event>
 5   0  0.7754912E-06  0.2607483E+04  0.7818609E-02  0.8365664E-01
       -1   -1    0    0    0  501  0.00000000000E+00  0.00000000000E+00  0.14698734996E+04  0.14698734996E+04  0.50400001928E-02 0.  1.
        1   -1    0    0  501    0  0.00000000000E+00  0.00000000000E+00 -0.11563867956E+04  0.11563867957E+04  0.50400001928E-02 0. -1.
    10030    2    1    2    0    0  0.00000000000E+00  0.00000000000E+00  0.31348670392E+03  0.26262602952E+04  0.26074833125E+04 0.  0.
        4    1    3    3  502    0 -0.89263573079E+03 -0.94762546466E+03  0.85893895454E+02  0.13046731174E+04  0.12699999809E+01 0. -1.
       -4    1    3    3    0  502  0.89263573079E+03  0.94762546466E+03  0.22759280846E+03  0.13215871778E+04  0.12699999809E+01 0.  1.
</event>
<event>
 5   0  0.7600052E-06  0.2691762E+04  0.7818609E-02  0.8337683E-01
       -1   -1    0    0    0  501  0.00000000000E+00  0.00000000000E+00  0.10459961711E+04  0.10459961711E+04  0.50400001928E-02 0.  1.
        1   -1    0    0  501    0  0.00000000000E+00  0.00000000000E+00 -0.17317427336E+04  0.17317427337E+04  0.50400001928E-02 0. -1.
    10030    2    1    2    0    0  0.00000000000E+00  0.00000000000E+00 -0.68574656251E+03  0.27777389048E+04  0.26917624478E+04 0.  0.
        5    1    3    3  502    0 -0.11629347157E+04  0.37555324747E+03 -0.92472379189E+03  0.15325121781E+04  0.46999998093E+01 0. -1.
       -5    1    3    3    0  502  0.11629347157E+04 -0.37555324747E+03  0.23897722938E+03  0.12452267267E+04  0.46999998093E+01 0.  1.
</event>
<event>
 5   0  0.1788003E-05  0.2782034E+04  0.7818609E-02  0.8308868E-01
       -2   -1    0    0    0  501  0.00000000000E+00  0.00000000000E+00  0.12439246930E+04  0.12439246930E+04  0.25500000920E-02 0. -1.
        2   -1    0    0  501    0  0.00000000000E+00  0.00000000000E+00 -0.15555024933E+04  0.15555024933E+04  0.25500000920E-02 0.  1.
    10030    2    1    2    0    0  0.00000000000E+00  0.00000000000E+00 -0.31157780027E+03  0.27994271862E+04  0.27820337607E+04 0.  0.
        2    1    3    3  502    0  0.49498531487E+02 -0.67163076487E+03  0.10689442699E+04  0.12634001112E+04  0.25500000920E-02 0. -1.
       -2    1    3    3    0  502 -0.49498531487E+02  0.67163076487E+03 -0.13805220702E+04  0.15360270750E+04  0.25500000920E-02 0.  1.
</event>
<event>
 5   0  0.1881699E-05  0.2683402E+04  0.7818609E-02  0.8340411E-01
        2   -1    0    0  501    0  0.00000000000E+00  0.00000000000E+00  0.11824463252E+04  0.11824463252E+04  0.25500000920E-02 0. -1.
       -2   -1    0    0    0  501  0.00000000000E+00  0.00000000000E+00 -0.15224043003E+04  0.15224043003E+04  0.25500000920E-02 0.  1.
    10030    2    1    2    0    0  0.00000000000E+00  0.00000000000E+00 -0.33995797512E+03  0.27048506254E+04  0.26834018486E+04 0.  0.
        4    1    3    3  502    0 -0.24184518016E+03 -0.93997166842E+02  0.11569149268E+04  0.11856552279E+04  0.12699999809E+01 0. -1.
       -4    1    3    3    0  502  0.24184518016E+03  0.93997166842E+02 -0.14968729019E+04  0.15191953976E+04  0.12699999809E+01 0.  1.
</event>
<event>
 5   0  0.1826851E-05  0.2789226E+04  0.7818609E-02  0.8306621E-01
       -2   -1    0    0    0  501  0.00000000000E+00  0.00000000000E+00  0.65707391838E+03  0.65707391838E+03  0.25500000920E-02 0. -1.
        2   -1    0    0  501    0  0.00000000000E+00  0.00000000000E+00 -0.29600104903E+04  0.29600104903E+04  0.25500000920E-02 0.  1.
    10030    2    1    2    0    0  0.00000000000E+00  0.00000000000E+00 -0.23029365719E+04  0.36170844087E+04  0.27892261947E+04 0.  0.
        5    1    3    3  502    0 -0.21103627017E+01  0.81653130444E+03 -0.26176020574E+04  0.27420048223E+04  0.46999998093E+01 0.  1.
       -5    1    3    3    0  502  0.21103627017E+01 -0.81653130444E+03  0.31466548546E+03  0.87507958638E+03  0.46999998093E+01 0. -1.
</event>
<event>
 5   0  0.6175875E-06  0.2628304E+04  0.7818609E-02  0.8358650E-01
        4   -1    0    0  501    0  0.00000000000E+00  0.00000000000E+00  0.91924781783E+03  0.91924869512E+03  0.12699999809E+01 0.  1.
       -4   -1    0    0    0  501  0.00000000000E+00  0.00000000000E+00 -0.18787035416E+04  0.18787039709E+04  0.12699999809E+01 0. -1.
    10030    2    1    2    0    0  0.00000000000E+00  0.00000000000E+00 -0.95945572377E+03  0.27979526660E+04  0.26283043650E+04 0.  0.
        1    1    3    3  502    0  0.15620365727E+03  0.85750022019E+03 -0.15267189845E+04  0.17580037167E+04  0.50400001928E-02 0. -1.
       -1    1    3    3    0  502 -0.15620365727E+03 -0.85750022019E+03  0.56726326073E+03  0.10399489493E+04  0.50400001928E-02 0.  1.
</event>
<event>
 5   0  0.7754912E-06  0.2783558E+04  0.7818609E-02  0.8308391E-01
       -1   -1    0    0    0  501  0.00000000000E+00  0.00000000000E+00  0.21890050948E+04  0.21890050948E+04  0.50400001928E-02 0. -1.
        1   -1    0    0  501    0  0.00000000000E+00  0.00000000000E+00 -0.88489932563E+03  0.88489932564E+03  0.50400001928E-02 0.  1.
    10030    2    1    2    0    0  0.00000000000E+00  0.00000000000E+00  0.13041057692E+04  0.30739044204E+04  0.27835582496E+04 0.  0.
        4    1    3    3  502    0  0.84965500148E+03  0.99885245061E+03  0.11669820148E+04  0.17554111984E+04  0.12699999809E+01 0. -1.
       -4    1    3    3    0  502 -0.84965500148E+03 -0.99885245061E+03  0.13712375432E+03  0.13184932220E+04  0.12699999809E+01 0.  1.
</event>
<event>
 5   0  0.7348964E-06  0.2698747E+04  0.7818609E-02  0.8335411E-01
       -1   -1    0    0    0  501  0.00000000000E+00  0.00000000000E+00  0.12509218941E+04  0.12509218941E+04  0.50400001928E-02 0. -1.
        1   -1    0    0  501    0  0.00000000000E+00  0.00000000000E+00 -0.14555740390E+04  0.14555740390E+04  0.50400001928E-02 0.  1.
    10030    2    1    2    0    0  0.00000000000E+00  0.00000000000E+00 -0.20465214488E+03  0.27064959331E+04  0.26987474383E+04 0.  0.
        1    1    3    3  502    0 -0.29461851288E+03  0.23284008715E+02  0.12180661350E+04  0.12534062879E+04  0.50400001928E-02 0. -1.
       -1    1    3    3    0  502  0.29461851288E+03 -0.23284008715E+02 -0.14227182799E+04  0.14530896453E+04  0.50400001928E-02 0.  1.
</event>
<event>
 5   0  0.1931119E-05  0.2801269E+04  0.7818609E-02  0.8302874E-01
       -2   -1    0    0    0  501  0.00000000000E+00  0.00000000000E+00  0.11850232984E+04  0.11850232984E+04  0.25500000920E-02 0.  1.
        2   -1    0    0  501    0  0.00000000000E+00  0.00000000000E+00 -0.16554756221E+04  0.16554756221E+04  0.25500000920E-02 0. -1.
    10030    2    1    2    0    0  0.00000000000E+00  0.00000000000E+00 -0.47045232379E+03  0.28404989205E+04  0.28012691282E+04 0.  0.
        3    1    3    3  502    0  0.97737027787E+03 -0.20933795523E+03 -0.12301406619E+04  0.15850303145E+04  0.10100000352E+00 0. -1.
       -3    1    3    3    0  502 -0.97737027787E+03  0.20933795523E+03  0.75968833807E+03  0.12554686060E+04  0.10100000352E+00 0.  1.
</event>
<event>
 5   0  0.1878160E-05  0.2803176E+04  0.7818609E-02  0.8302283E-01
        2   -1    0    0  501    0  0.00000000000E+00  0.00000000000E+00  0.25139441993E+04  0.25139441993E+04  0.25500000920E-02 0.  1.
       -2   -1    0    0    0  501  0.00000000000E+00  0.00000000000E+00 -0.78142108681E+03  0.78142108681E+03  0.25500000920E-02 0. -1.
    10030    2    1    2    0    0  0.00000000000E+00  0.00000000000E+00  0.17325231125E+04  0.32953652861E+04  0.28031760618E+04 0.  0.
        1    1    3    3  502    0  0.27777295377E+03  0.11981794488E+03 -0.74258461972E+03  0.80183918040E+03  0.50400001928E-02 0. -1.
       -1    1    3    3    0  502 -0.27777295377E+03 -0.11981794488E+03  0.24751077322E+04  0.24935261057E+04  0.50400001928E-02 0.  1.
</event>
<event>
 5   0  0.1826851E-05  0.2654704E+04  0.7818609E-02  0.8349853E-01
       -2   -1    0    0    0  501  0.00000000000E+00  0.00000000000E+00  0.91520636424E+03  0.91520636424E+03  0.25500000920E-02 0.  1.
        2   -1    0    0  501    0  0.00000000000E+00  0.00000000000E+00 -0.19250994342E+04  0.19250994342E+04  0.25500000920E-02 0. -1.
    10030    2    1    2    0    0  0.00000000000E+00  0.00000000000E+00 -0.10098930700E+04  0.28403057984E+04  0.26547039413E+04 0.  0.
        5    1    3    3  502    0  0.26264611410E+03 -0.47937877630E+03  0.78918735144E+03  0.96001341558E+03  0.46999998093E+01 0.  1.
       -5    1    3    3    0  502 -0.26264611410E+03  0.47937877630E+03 -0.17990804214E+04  0.18802923829E+04  0.46999998093E+01 0. -1.
</event>
<event>
 5   0  0.7351590E-06  0.2678320E+04  0.7818609E-02  0.8342074E-01
       -1   -1    0    0    0  501  0.00000000000E+00  0.00000000000E+00  0.77260864279E+03  0.77260864281E+03  0.50400001928E-02 0.  1.
        1   -1    0    0  501    0  0.00000000000E+00  0.00000000000E+00 -0.23211613470E+04  0.23211613470E+04  0.50400001928E-02 0. -1.
    10030    2    1    2    0    0  0.00000000000E+00  0.00000000000E+00 -0.15485527042E+04  0.30937699898E+04  0.26783198599E+04 0.  0.
        3    1    3    3  502    0  0.44052850667E+03  0.29464760853E+03  0.64631280577E+03  0.83582464160E+03  0.10100000352E+00 0.  1.
       -3    1    3    3    0  502 -0.44052850667E+03 -0.29464760853E+03 -0.21948655100E+04  0.22579453482E+04  0.10100000352E+00 0. -1.
</event>
<event>
 5   0  0.1788003E-05  0.2678013E+04  0.7818609E-02  0.8342175E-01
       -2   -1    0    0    0  501  0.00000000000E+00  0.00000000000E+00  0.72294924714E+03  0.72294924714E+03  0.25500000920E-02 0. -1.
        2   -1    0    0  501    0  0.00000000000E+00  0.00000000000E+00 -0.24800329350E+04  0.24800329350E+04  0.25500000920E-02 0.  1.
    10030    2    1    2    0    0  0.00000000000E+00  0.00000000000E+00 -0.17570836878E+04  0.32029821821E+04  0.26780126536E+04 0.  0.
        2    1    3    3  502    0 -0.99899688623E+03 -0.42998757298E+03  0.55628303416E+02  0.10890264459E+04  0.25500000920E-02 0. -1.
       -2    1    3    3    0  502  0.99899688623E+03  0.42998757298E+03 -0.18127119912E+04  0.21139557363E+04  0.25500000920E-02 0.  1.
</event>
<event>
 5   0  0.7348964E-06  0.2745161E+04  0.7818609E-02  0.8320499E-01
       -1   -1    0    0    0  501  0.00000000000E+00  0.00000000000E+00  0.28032975659E+04  0.28032975659E+04  0.50400001928E-02 0.  1.
        1   -1    0    0  501    0  0.00000000000E+00  0.00000000000E+00 -0.67205758120E+03  0.67205758122E+03  0.50400001928E-02 0. -1.
    10030    2    1    2    0    0  0.00000000000E+00  0.00000000000E+00  0.21312399847E+04  0.34753551471E+04  0.27451611112E+04 0.  0.
        1    1    3    3  502    0 -0.42399712599E+03  0.74774039161E+03  0.24203439446E+04  0.25684536333E+04  0.50400001928E-02 0.  1.
       -1    1    3    3    0  502  0.42399712599E+03 -0.74774039161E+03 -0.28910395993E+03  0.90690151382E+03  0.50400001928E-02 0. -1.
</event>
<event>
 5   0  0.1931119E-05  0.2688994E+04  0.7818609E-02  0.8338585E-01
       -2   -1    0    0    0  501  0.00000000000E+00  0.00000000000E+00  0.84947463873E+03  0.84947463873E+03  0.25500000920E-02 0.  1.
        2   -1    0    0  501    0  0.00000000000E+00  0.00000000000E+00 -0.21279876168E+04  0.21279876168E+04  0.25500000920E-02 0. -1.
    10030    2    1    2    0    0  0.00000000000E+00  0.00000000000E+00 -0.12785129780E+04  0.29774622555E+04  0.26889935009E+04 0.  0.
        3    1    3    3  502    0 -0.38972130310E+03 -0.11289113864E+04 -0.13230377357E+04  0.17823446560E+04  0.10100000352E+00 0. -1.
       -3    1    3    3    0  502  0.38972130310E+03  0.11289113864E+04  0.44524757675E+02  0.11951175995E+04  0.10100000352E+00 0.  1.
</event>
<event>
 5   0  0.1788003E-05  0.2046604E+04  0.7818609E-02  0.8585137E-01
        2   -1    0    0  501    0  0.00000000000E+00  0.00000000000E+00  0.12750229178E+04  0.12750229178E+04  0.25500000920E-02 0. -1.
       -2   -1    0    0    0  501  0.00000000000E+00  0.00000000000E+00 -0.82127673051E+03  0.82127673052E+03  0.25500000920E-02 0.  1.
    10030    2    1    2    0    0  0.00000000000E+00  0.00000000000E+00  0.45374618731E+03  0.20962996483E+04  0.20466036776E+04 0.  0.
        2    1    3    3  502    0 -0.10065614543E+04  0.17191561421E+03  0.15873166061E+03  0.10334005418E+04  0.25500000920E-02 0. -1.
       -2    1    3    3    0  502  0.10065614543E+04 -0.17191561421E+03  0.29501452671E+03  0.10628991065E+04  0.25500000920E-02 0.  1.
</event>
<event>
 5   0  0.7348964E-06  0.2665398E+04  0.7818609E-02  0.8346320E-01
        1   -1    0    0  501    0  0.00000000000E+00  0.00000000000E+00  0.12478853683E+04  0.12478853683E+04  0.50400001928E-02 0. -1.
       -1   -1    0    0    0  501  0.00000000000E+00  0.00000000000E+00 -0.14232772350E+04  0.14232772350E+04  0.50400001928E-02 0.  1.
    10030    2    1    2    0    0  0.00000000000E+00  0.00000000000E+00 -0.17539186669E+03  0.26711626033E+04  0.26653981591E+04 0.  0.
        1    1    3    3  502    0 -0.35740043493E+03  0.87559142401E+03 -0.10287109214E+04  0.13973695189E+04  0.50400001928E-02 0.  1.
       -1    1    3    3    0  502  0.35740043493E+03 -0.87559142401E+03  0.85331905468E+03  0.12737930844E+04  0.50400001928E-02 0. -1.
</event>
<event>
 5   0  0.1826851E-05  0.2711433E+04  0.7818609E-02  0.8331305E-01
       -2   -1    0    0    0  501  0.00000000000E+00  0.00000000000E+00  0.87794816022E+03  0.87794816022E+03  0.25500000920E-02 0.  1.
        2   -1    0    0  501    0  0.00000000000E+00  0.00000000000E+00 -0.20934806395E+04  0.20934806395E+04  0.25500000920E-02 0. -1.
    10030    2    1    2    0    0  0.00000000000E+00  0.00000000000E+00 -0.12155324793E+04  0.29714287997E+04  0.27114331826E+04 0.  0.
        5    1    3    3  502    0  0.23795418609E+03  0.11432440938E+04 -0.13625114578E+04  0.17944605917E+04  0.46999998093E+01 0.  1.
       -5    1    3    3    0  502 -0.23795418609E+03 -0.11432440938E+04  0.14697897849E+03  0.11769682080E+04  0.46999998093E+01 0. -1.
</event>
<event>
 5   0  0.1788003E-05  0.2637448E+04  0.7818609E-02  0.8355591E-01
        2   -1    0    0  501    0  0.00000000000E+00  0.00000000000E+00  0.20040760539E+04  0.20040760539E+04  0.25500000920E-02 0. -1.
       -2   -1    0    0    0  501  0.00000000000E+00  0.00000000000E+00 -0.86774782924E+03  0.86774782924E+03  0.25500000920E-02 0.  1.
    10030    2    1    2    0    0  0.00000000000E+00  0.00000000000E+00  0.11363282247E+04  0.28718238831E+04  0.26374477401E+04 0.  0.
        2    1    3    3  502    0  0.10102227976E+04 -0.84759674339E+03  0.55956931081E+03  0.14325111357E+04  0.25500000920E-02 0. -1.
       -2    1    3    3    0  502 -0.10102227976E+04  0.84759674339E+03  0.57675891384E+03  0.14393127474E+04  0.25500000920E-02 0.  1.
</event>
<event>
 5   0  0.1826851E-05  0.2263160E+04  0.7818609E-02  0.8492590E-01
        2   -1    0    0  501    0  0.00000000000E+00  0.00000000000E+00  0.25353005379E+04  0.25353005379E+04  0.25500000920E-02 0.  1.
       -2   -1    0    0    0  501  0.00000000000E+00  0.00000000000E+00 -0.50505784455E+03  0.50505784456E+03  0.25500000920E-02 0. -1.
    10030    2    1    2    0    0  0.00000000000E+00  0.00000000000E+00  0.20302426934E+04  0.30403583825E+04  0.22631601136E+04 0.  0.
        5    1    3    3  502    0  0.24390575028E+02  0.80148267509E+03  0.20877353119E+04  0.22364324718E+04  0.46999998093E+01 0.  1.
       -5    1    3    3    0  502 -0.24390575028E+02 -0.80148267509E+03 -0.57492618507E+02  0.80392591064E+03  0.46999998093E+01 0. -1.
</event>
<event>
 5   0  0.7348964E-06  0.2720917E+04  0.7818609E-02  0.8328250E-01
        1   -1    0    0  501    0  0.00000000000E+00  0.00000000000E+00  0.28077960306E+04  0.28077960306E+04  0.50400001928E-02 0.  1.
       -1   -1    0    0    0  501  0.00000000000E+00  0.00000000000E+00 -0.65918153622E+03  0.65918153624E+03  0.50400001928E-02 0. -1.
    10030    2    1    2    0    0  0.00000000000E+00  0.00000000000E+00  0.21486144944E+04  0.34669775668E+04  0.27209169784E+04 0.  0.
        1    1    3    3  502    0  0.73404702493E+03 -0.52632058924E+03  0.23706140011E+04  0.25368581237E+04  0.50400001928E-02 0.  1.
       -1    1    3    3    0  502 -0.73404702493E+03  0.52632058924E+03 -0.22199950675E+03  0.93011944313E+03  0.50400001928E-02 0. -1.
</event>
<event>
 5   0  0.1881699E-05  0.2703524E+04  0.7818609E-02  0.8333862E-01
        2   -1    0    0  501    0  0.00000000000E+00  0.00000000000E+00  0.21988771473E+04  0.21988771473E+04  0.25500000920E-02 0.  1.
       -2   -1    0    0    0  501  0.00000000000E+00  0.00000000000E+00 -0.83099706502E+03  0.83099706502E+03  0.25500000920E-02 0. -1.
    10030    2    1    2    0    0  0.00000000000E+00  0.00000000000E+00  0.13678800823E+04  0.30298742123E+04  0.27035239638E+04 0.  0.
        4    1    3    3  502    0  0.46194187997E+03 -0.76540114985E+03 -0.45237090355E+03  0.10019332652E+04  0.12699999809E+01 0. -1.
       -4    1    3    3    0  502 -0.46194187997E+03  0.76540114985E+03  0.18202509858E+04  0.20279409471E+04  0.12699999809E+01 0.  1.
</event>
<event>
 5   0  0.1931119E-05  0.2643382E+04  0.7818609E-02  0.8353613E-01
        2   -1    0    0  501    0  0.00000000000E+00  0.00000000000E+00  0.14955169018E+04  0.14955169018E+04  0.25500000920E-02 0.  1.
       -2   -1    0    0    0  501  0.00000000000E+00  0.00000000000E+00 -0.11680689850E+04  0.11680689850E+04  0.25500000920E-02 0. -1.
    10030    2    1    2    0    0  0.00000000000E+00  0.00000000000E+00  0.32744791681E+03  0.26635858868E+04  0.26433818563E+04 0.  0.
        3    1    3    3  502    0  0.99903298919E+03 -0.25005639952E+03  0.99847096745E+03  0.14344125625E+04  0.10100000352E+00 0.  1.
       -3    1    3    3    0  502 -0.99903298919E+03  0.25005639952E+03 -0.67102305064E+03  0.12291733243E+04  0.10100000352E+00 0. -1.
</event>
<event>
 5   0  0.6175875E-06  0.2683410E+04  0.7818609E-02  0.8340408E-01
        4   -1    0    0  501    0  0.00000000000E+00  0.00000000000E+00  0.15686899739E+04  0.15686904880E+04  0.12699999809E+01 0. -1.
       -4   -1    0    0    0  501  0.00000000000E+00  0.00000000000E+00 -0.11475632431E+04  0.11475639458E+04  0.12699999809E+01 0.  1.
    10030    2    1    2    0    0  0.00000000000E+00  0.00000000000E+00  0.42112673083E+03  0.27162544338E+04  0.26834102232E+04 0.  0.
        4    1    3    3  502    0  0.81184685790E+03  0.83069199799E+03 -0.46924170125E+03  0.12527305789E+04  0.12699999809E+01 0.  1.
       -4    1    3    3    0  502 -0.81184685790E+03 -0.83069199799E+03  0.89036843208E+03  0.14635238549E+04  0.12699999809E+01 0. -1.
</event>
<event>
 5   0  0.1931119E-05  0.2716310E+04  0.7818609E-02  0.8329732E-01
        2   -1    0    0  501    0  0.00000000000E+00  0.00000000000E+00  0.13928879079E+04  0.13928879079E+04  0.25500000920E-02 0. -1.
       -2   -1    0    0    0  501  0.00000000000E+00  0.00000000000E+00 -0.13242877724E+04  0.13242877724E+04  0.25500000920E-02 0.  1.
    10030    2    1    2    0    0  0.00000000000E+00  0.00000000000E+00  0.68600135489E+02  0.27171756803E+04  0.27163095735E+04 0.  0.
        3    1    3    3  502    0 -0.39182163879E+03  0.12971503080E+04  0.12631470386E+03  0.13609109202E+04  0.10100000352E+00 0.  1.
       -3    1    3    3    0  502  0.39182163879E+03 -0.12971503080E+04 -0.57714568367E+02  0.13562647602E+04  0.10100000352E+00 0. -1.
</event>
<event>
 5   0  0.7351590E-06  0.2674663E+04  0.7818609E-02  0.8343273E-01
       -1   -1    0    0    0  501  0.00000000000E+00  0.00000000000E+00  0.20392465352E+04  0.20392465352E+04  0.50400001928E-02 0. -1.
        1   -1    0    0  501    0  0.00000000000E+00  0.00000000000E+00 -0.87701807415E+03  0.87701807416E+03  0.50400001928E-02 0.  1.
    10030    2    1    2    0    0  0.00000000000E+00  0.00000000000E+00  0.11622284610E+04  0.29162646093E+04  0.26746633949E+04 0.  0.
        3    1    3    3  502    0  0.10319863493E+04  0.46324076555E+03 -0.19667237695E+03  0.11481584673E+04  0.10100000352E+00 0. -1.
       -3    1    3    3    0  502 -0.10319863493E+04 -0.46324076555E+03  0.13589008380E+04  0.17681061421E+04  0.10100000352E+00 0.  1.
</event>
<event>
 5   0  0.7351590E-06  0.2728923E+04  0.7818609E-02  0.8325681E-01
        1   -1    0    0  501    0  0.00000000000E+00  0.00000000000E+00  0.21133546094E+04  0.21133546094E+04  0.50400001928E-02 0. -1.
       -1   -1    0    0    0  501  0.00000000000E+00  0.00000000000E+00 -0.88094792814E+03  0.88094792815E+03  0.50400001928E-02 0.  1.
    10030    2    1    2    0    0  0.00000000000E+00  0.00000000000E+00  0.12324066813E+04  0.29943025376E+04  0.27289231316E+04 0.  0.
        3    1    3    3  502    0 -0.53565259295E+03  0.62052986105E+03  0.18130449401E+04  0.19897519880E+04  0.10100000352E+00 0. -1.
       -3    1    3    3    0  502  0.53565259295E+03 -0.62052986105E+03 -0.58063825883E+03  0.10045505496E+04  0.10100000352E+00 0.  1.
</event>
<event>
 5   0  0.1881699E-05  0.2699351E+04  0.7818609E-02  0.8335215E-01
       -2   -1    0    0    0  501  0.00000000000E+00  0.00000000000E+00  0.98521339218E+03  0.98521339219E+03  0.25500000920E-02 0.  1.
        2   -1    0    0  501    0  0.00000000000E+00  0.00000000000E+00 -0.18489644163E+04  0.18489644163E+04  0.25500000920E-02 0. -1.
    10030    2    1    2    0    0  0.00000000000E+00  0.00000000000E+00 -0.86375102410E+03  0.28341778085E+04  0.26993514070E+04 0.  0.
        4    1    3    3  502    0 -0.12221924702E+04  0.54109005850E+03 -0.23519587931E+03  0.13571483339E+04  0.12699999809E+01 0.  1.
       -4    1    3    3    0  502  0.12221924702E+04 -0.54109005850E+03 -0.62855514479E+03  0.14770294745E+04  0.12699999809E+01 0. -1.
</event>
<event>
 5   0  0.7600052E-06  0.2698245E+04  0.7818609E-02  0.8335575E-01
       -1   -1    0    0    0  501  0.00000000000E+00  0.00000000000E+00  0.86701569158E+03  0.86701569159E+03  0.50400001928E-02 0.  1.
        1   -1    0    0  501    0  0.00000000000E+00  0.00000000000E+00 -0.20993068960E+04  0.20993068961E+04  0.50400001928E-02 0. -1.
    10030    2    1    2    0    0  0.00000000000E+00  0.00000000000E+00 -0.12322912045E+04  0.29663225876E+04  0.26982453709E+04 0.  0.
        5    1    3    3  502    0  0.12900801461E+03  0.37718723115E+03  0.80078135254E+03  0.89453124023E+03  0.46999998093E+01 0.  1.
       -5    1    3    3    0  502 -0.12900801461E+03 -0.37718723115E+03 -0.20330725570E+04  0.20717913474E+04  0.46999998093E+01 0. -1.
</event>
<event>
 5   0  0.7600052E-06  0.2784470E+04  0.7818609E-02  0.8308106E-01
       -1   -1    0    0    0  501  0.00000000000E+00  0.00000000000E+00  0.78779882060E+03  0.78779882062E+03  0.50400001928E-02 0.  1.
        1   -1    0    0  501    0  0.00000000000E+00  0.00000000000E+00 -0.24604230274E+04  0.24604230274E+04  0.50400001928E-02 0. -1.
    10030    2    1    2    0    0  0.00000000000E+00  0.00000000000E+00 -0.16726242068E+04  0.32482218480E+04  0.27844700459E+04 0.  0.
        5    1    3    3  502    0  0.11926589725E+02 -0.86634030560E+03  0.43496370172E+03  0.96948609091E+03  0.46999998093E+01 0.  1.
       -5    1    3    3    0  502 -0.11926589725E+02  0.86634030560E+03 -0.21075879085E+04  0.22787357571E+04  0.46999998093E+01 0. -1.
</event>
<event>
 5   0  0.7351590E-06  0.2557843E+04  0.7818609E-02  0.8382663E-01
        1   -1    0    0  501    0  0.00000000000E+00  0.00000000000E+00  0.19238832728E+04  0.19238832728E+04  0.50400001928E-02 0. -1.
       -1   -1    0    0    0  501  0.00000000000E+00  0.00000000000E+00 -0.85017675495E+03  0.85017675496E+03  0.50400001928E-02 0.  1.
    10030    2    1    2    0    0  0.00000000000E+00  0.00000000000E+00  0.10737065178E+04  0.27740600277E+04  0.25578434962E+04 0.  0.
        3    1    3    3  502    0 -0.68113197479E+03  0.87876324245E+03 -0.14861415011E+03  0.11217182263E+04  0.10100000352E+00 0.  1.
       -3    1    3    3    0  502  0.68113197479E+03 -0.87876324245E+03  0.12223206679E+04  0.16523418015E+04  0.10100000352E+00 0. -1.
</event>
<event>
 5   0  0.1878160E-05  0.2710395E+04  0.7818609E-02  0.8331640E-01
       -2   -1    0    0    0  501  0.00000000000E+00  0.00000000000E+00  0.10931966243E+04  0.10931966243E+04  0.25500000920E-02 0.  1.
        2   -1    0    0  501    0  0.00000000000E+00  0.00000000000E+00 -0.16799905040E+04  0.16799905040E+04  0.25500000920E-02 0. -1.
    10030    2    1    2    0    0  0.00000000000E+00  0.00000000000E+00 -0.58679387973E+03  0.27731871282E+04  0.27103947666E+04 0.  0.
        1    1    3    3  502    0  0.65958886670E+03  0.77070531881E+03 -0.12128342777E+04  0.15811423550E+04  0.50400001928E-02 0. -1.
       -1    1    3    3    0  502 -0.65958886670E+03 -0.77070531881E+03  0.62604039798E+03  0.11920447733E+04  0.50400001928E-02 0.  1.
</event>
<event>
 5   0  0.6804685E-06  0.2641977E+04  0.7818609E-02  0.8354081E-01
        1   -1    0    0  501    0  0.00000000000E+00  0.00000000000E+00  0.13699116570E+04  0.13699116571E+04  0.50400001928E-02 0.  1.
       -1   -1    0    0    0  501  0.00000000000E+00  0.00000000000E+00 -0.12738122538E+04  0.12738122538E+04  0.50400001928E-02 0. -1.
    10030    2    1    2    0    0  0.00000000000E+00  0.00000000000E+00  0.96099403244E+02  0.26437239109E+04  0.26419767262E+04 0.  0.
        2    1    3    3  502    0  0.37878747092E+03  0.14563431948E+03 -0.12098898161E+04  0.12761358354E+04  0.25500000920E-02 0. -1.
       -2    1    3    3    0  502 -0.37878747092E+03 -0.14563431948E+03  0.13059892194E+04  0.13675880755E+04  0.25500000920E-02 0.  1.
</event>
<event>
 5   0  0.7351590E-06  0.2787224E+04  0.7818609E-02  0.8307246E-01
       -1   -1    0    0    0  501  0.00000000000E+00  0.00000000000E+00  0.10882930417E+04  0.10882930417E+04  0.50400001928E-02 0. -1.
        1   -1    0    0  501    0  0.00000000000E+00  0.00000000000E+00 -0.17845876373E+04  0.17845876373E+04  0.50400001928E-02 0.  1.
    10030    2    1    2    0    0  0.00000000000E+00  0.00000000000E+00 -0.69629459562E+03  0.28728806791E+04  0.27872239293E+04 0.  0.
        3    1    3    3  502    0 -0.97130437570E+03 -0.44813666600E+03 -0.12688486301E+04  0.16595889605E+04  0.10100000352E+00 0.  1.
       -3    1    3    3    0  502  0.97130437570E+03  0.44813666600E+03  0.57255403447E+03  0.12132917185E+04  0.10100000352E+00 0. -1.
</event>
<event>
 5   0  0.6804685E-06  0.2352541E+04  0.7818609E-02  0.8457488E-01
       -1   -1    0    0    0  501  0.00000000000E+00  0.00000000000E+00  0.87059151889E+03  0.87059151890E+03  0.50400001928E-02 0. -1.
        1   -1    0    0  501    0  0.00000000000E+00  0.00000000000E+00 -0.15892779666E+04  0.15892779666E+04  0.50400001928E-02 0.  1.
    10030    2    1    2    0    0  0.00000000000E+00  0.00000000000E+00 -0.71868644772E+03  0.24598694855E+04  0.23525406852E+04 0.  0.
        2    1    3    3  502    0  0.13567227512E+03 -0.56862666771E+03 -0.14266306932E+04  0.15417582133E+04  0.25500000920E-02 0.  1.
       -2    1    3    3    0  502 -0.13567227512E+03  0.56862666771E+03  0.70794424548E+03  0.91811127222E+03  0.25500000920E-02 0. -1.
</event>
<event>
 5   0  0.7351590E-06  0.2096445E+04  0.7818609E-02  0.8562811E-01
       -1   -1    0    0    0  501  0.00000000000E+00  0.00000000000E+00  0.74630388398E+03  0.74630388400E+03  0.50400001928E-02 0.  1.
        1   -1    0    0  501    0  0.00000000000E+00  0.00000000000E+00 -0.14722824084E+04  0.14722824084E+04  0.50400001928E-02 0. -1.
    10030    2    1    2    0    0  0.00000000000E+00  0.00000000000E+00 -0.72597852442E+03  0.22185862924E+04  0.20964446854E+04 0.  0.
        3    1    3    3  502    0  0.94198430689E+03 -0.45429950572E+03 -0.43817494265E+03  0.11338958356E+04  0.10100000352E+00 0.  1.
       -3    1    3    3    0  502 -0.94198430689E+03  0.45429950572E+03 -0.28780358177E+03  0.10846904569E+04  0.10100000352E+00 0. -1.
</event>
<event>
 5   0  0.1826851E-05  0.2753607E+04  0.7818609E-02  0.8317818E-01
       -2   -1    0    0    0  501  0.00000000000E+00  0.00000000000E+00  0.94579584135E+03  0.94579584135E+03  0.25500000920E-02 0. -1.
        2   -1    0    0  501    0  0.00000000000E+00  0.00000000000E+00 -0.20042257851E+04  0.20042257851E+04  0.25500000920E-02 0.  1.
    10030    2    1    2    0    0  0.00000000000E+00  0.00000000000E+00 -0.10584299437E+04  0.29500216264E+04  0.27536073886E+04 0.  0.
        5    1    3    3  502    0 -0.39129605604E+02  0.59965698083E+03  0.79787108276E+03  0.99886934851E+03  0.46999998093E+01 0. -1.
       -5    1    3    3    0  502  0.39129605604E+02 -0.59965698083E+03 -0.18563010265E+04  0.19511522779E+04  0.46999998093E+01 0.  1.
</event>
<event>
 5   0  0.1878160E-05  0.2693444E+04  0.7818609E-02  0.8337135E-01
        2   -1    0    0  501    0  0.00000000000E+00  0.00000000000E+00  0.16411661735E+04  0.16411661735E+04  0.25500000920E-02 0.  1.
       -2   -1    0    0    0  501  0.00000000000E+00  0.00000000000E+00 -0.11051048091E+04  0.11051048091E+04  0.25500000920E-02 0. -1.
    10030    2    1    2    0    0  0.00000000000E+00  0.00000000000E+00  0.53606136440E+03  0.27462709825E+04  0.26934443605E+04 0.  0.
        1    1    3    3  502    0  0.51838830599E+03 -0.13994072571E+01 -0.99930043144E+03  0.11257574101E+04  0.50400001928E-02 0. -1.
       -1    1    3    3    0  502 -0.51838830599E+03  0.13994072571E+01  0.15353617958E+04  0.16205135724E+04  0.50400001928E-02 0.  1.
</event>
<event>
 5   0  0.7348964E-06  0.2665224E+04  0.7818609E-02  0.8346378E-01
        1   -1    0    0  501    0  0.00000000000E+00  0.00000000000E+00  0.14626849649E+04  0.14626849649E+04  0.50400001928E-02 0.  1.
       -1   -1    0    0    0  501  0.00000000000E+00  0.00000000000E+00 -0.12141059582E+04  0.12141059582E+04  0.50400001928E-02 0. -1.
    10030    2    1    2    0    0  0.00000000000E+00  0.00000000000E+00  0.24857900669E+03  0.26767909231E+04  0.26652238411E+04 0.  0.
        1    1    3    3  502    0 -0.97261890712E+03  0.34082154295E+03  0.97276820046E+03  0.14171890610E+04  0.50400001928E-02 0.  1.
       -1    1    3    3    0  502  0.97261890712E+03 -0.34082154295E+03 -0.72418919377E+03  0.12596018621E+04  0.50400001928E-02 0. -1.
</event>
<event>
 5   0  0.1788003E-05  0.2712693E+04  0.7818609E-02  0.8330898E-01
       -2   -1    0    0    0  501  0.00000000000E+00  0.00000000000E+00  0.11833452715E+04  0.11833452715E+04  0.25500000920E-02 0. -1.
        2   -1    0    0  501    0  0.00000000000E+00  0.00000000000E+00 -0.15546394953E+04  0.15546394953E+04  0.25500000920E-02 0.  1.
    10030    2    1    2    0    0  0.00000000000E+00  0.00000000000E+00 -0.37129422387E+03  0.27379847668E+04  0.27126926075E+04 0.  0.
        2    1    3    3  502    0 -0.56319185007E+03  0.11922436816E+04  0.13519278791E+03  0.13254837405E+04  0.25500000920E-02 0.  1.
       -2    1    3    3    0  502  0.56319185007E+03 -0.11922436816E+04 -0.50648701179E+03  0.14125010263E+04  0.25500000920E-02 0. -1.
</event>
<event>
 5   0  0.1826851E-05  0.2682630E+04  0.7818609E-02  0.8340663E-01
        2   -1    0    0  501    0  0.00000000000E+00  0.00000000000E+00  0.15426775288E+04  0.15426775288E+04  0.25500000920E-02 0.  1.
       -2   -1    0    0    0  501  0.00000000000E+00  0.00000000000E+00 -0.11662358582E+04  0.11662358582E+04  0.25500000920E-02 0. -1.
    10030    2    1    2    0    0  0.00000000000E+00  0.00000000000E+00  0.37644167056E+03  0.27089133870E+04  0.26826299423E+04 0.  0.
        5    1    3    3  502    0 -0.28677902691E+03 -0.12945744589E+04 -0.16094248803E+02  0.13260642348E+04  0.46999998093E+01 0. -1.
       -5    1    3    3    0  502  0.28677902691E+03  0.12945744589E+04  0.39253591937E+03  0.13828491523E+04  0.46999998093E+01 0.  1.
</event>
<event>
 5   0  0.6804685E-06  0.2666313E+04  0.7818609E-02  0.8346019E-01
       -1   -1    0    0    0  501  0.00000000000E+00  0.00000000000E+00  0.11532873720E+04  0.11532873720E+04  0.50400001928E-02 0.  1.
        1   -1    0    0  501    0  0.00000000000E+00  0.00000000000E+00 -0.15410787145E+04  0.15410787145E+04  0.50400001928E-02 0. -1.
    10030    2    1    2    0    0  0.00000000000E+00  0.00000000000E+00 -0.38779134243E+03  0.26943660865E+04  0.26663132754E+04 0.  0.
        2    1    3    3  502    0  0.93993337354E+03 -0.96313390610E+02 -0.11442991073E+04  0.14839715169E+04  0.25500000920E-02 0. -1.
       -2    1    3    3    0  502 -0.93993337354E+03  0.96313390610E+02  0.75650776486E+03  0.12103945696E+04  0.25500000920E-02 0.  1.
</event>
<event>
 5   0  0.1788003E-05  0.2727384E+04  0.7818609E-02  0.8326174E-01
        2   -1    0    0  501    0  0.00000000000E+00  0.00000000000E+00  0.16140884966E+04  0.16140884966E+04  0.25500000920E-02 0. -1.
       -2   -1    0    0    0  501  0.00000000000E+00  0.00000000000E+00 -0.11521398753E+04  0.11521398753E+04  0.25500000920E-02 0.  1.
    10030    2    1    2    0    0  0.00000000000E+00  0.00000000000E+00  0.46194862130E+03  0.27662283719E+04  0.27273838887E+04 0.  0.
        2    1    3    3  502    0  0.11737032534E+03 -0.13362038852E+04  0.48031936917E+03  0.14247537726E+04  0.25500000920E-02 0.  1.
       -2    1    3    3    0  502 -0.11737032534E+03  0.13362038852E+04 -0.18370747868E+02  0.13414745993E+04  0.25500000920E-02 0. -1.
</event>
<event>
 5   0  0.1931119E-05  0.2732972E+04  0.7818609E-02  0.8324385E-01
       -2   -1    0    0    0  501  0.00000000000E+00  0.00000000000E+00  0.91064238212E+03  0.91064238212E+03  0.25500000920E-02 0. -1.
        2   -1    0    0  501    0  0.00000000000E+00  0.00000000000E+00 -0.20505129429E+04  0.20505129429E+04  0.25500000920E-02 0.  1.
    10030    2    1    2    0    0  0.00000000000E+00  0.00000000000E+00 -0.11398705608E+04  0.29611553250E+04  0.27329720019E+04 0.  0.
        3    1    3    3  502    0  0.81346495498E+03 -0.10131752759E+02  0.61966677154E+03  0.10226508707E+04  0.10100000352E+00 0. -1.
       -3    1    3    3    0  502 -0.81346495498E+03  0.10131752759E+02 -0.17595373323E+04  0.19385044543E+04  0.10100000352E+00 0.  1.
</event>
<event>
 5   0  0.6175875E-06  0.2669346E+04  0.7818609E-02  0.8345020E-01
       -3   -1    0    0    0  501  0.00000000000E+00  0.00000000000E+00  0.10593203423E+04  0.10593203471E+04  0.10100000352E+00 0. -1.
        3   -1    0    0  501    0  0.00000000000E+00  0.00000000000E+00 -0.16815989801E+04  0.16815989831E+04  0.10100000352E+00 0.  1.
    10030    2    1    2    0    0  0.00000000000E+00  0.00000000000E+00 -0.62227863775E+03  0.27409193302E+04  0.26693460008E+04 0.  0.
        5    1    3    3  502    0 -0.58121412864E+03 -0.35504175853E+03  0.86744591203E+03  0.11028821396E+04  0.46999998093E+01 0. -1.
       -5    1    3    3    0  502  0.58121412864E+03  0.35504175853E+03 -0.14897245498E+04  0.16380371906E+04  0.46999998093E+01 0.  1.
</event>
<event>
 5   0  0.7600052E-06  0.2576598E+04  0.7818609E-02  0.8376194E-01
       -1   -1    0    0    0  501  0.00000000000E+00  0.00000000000E+00  0.19410314290E+04  0.19410314290E+04  0.50400001928E-02 0. -1.
        1   -1    0    0  501    0  0.00000000000E+00  0.00000000000E+00 -0.85506855311E+03  0.85506855312E+03  0.50400001928E-02 0.  1.
    10030    2    1    2    0    0  0.00000000000E+00  0.00000000000E+00  0.10859628759E+04  0.27960999821E+04  0.25765984829E+04 0.  0.
        5    1    3    3  502    0  0.90532202393E+02  0.12669509010E+04  0.30939516399E+03  0.13073286208E+04  0.46999998093E+01 0.  1.
       -5    1    3    3    0  502 -0.90532202393E+02 -0.12669509010E+04  0.77656771190E+03  0.14887713613E+04  0.46999998093E+01 0. -1.
</event>
<event>
 5   0  0.1878160E-05  0.2687677E+04  0.7818609E-02  0.8339015E-01
       -2   -1    0    0    0  501  0.00000000000E+00  0.00000000000E+00  0.11443015618E+04  0.11443015618E+04  0.25500000920E-02 0.  1.
        2   -1    0    0  501    0  0.00000000000E+00  0.00000000000E+00 -0.15781693351E+04  0.15781693351E+04  0.25500000920E-02 0. -1.
    10030    2    1    2    0    0  0.00000000000E+00  0.00000000000E+00 -0.43386777336E+03  0.27224708969E+04  0.26876767923E+04 0.  0.
        1    1    3    3  502    0  0.38474174105E+03 -0.74937872090E+03 -0.12775355168E+04  0.15302586943E+04  0.50400001928E-02 0. -1.
       -1    1    3    3    0  502 -0.38474174105E+03  0.74937872090E+03  0.84366774349E+03  0.11922122026E+04  0.50400001928E-02 0.  1.
</event>
<event>
 5   0  0.7754912E-06  0.2668978E+04  0.7818609E-02  0.8345141E-01
        1   -1    0    0  501    0  0.00000000000E+00  0.00000000000E+00  0.20973639404E+04  0.20973639404E+04  0.50400001928E-02 0.  1.
       -1   -1    0    0    0  501  0.00000000000E+00  0.00000000000E+00 -0.84909466329E+03  0.84909466330E+03  0.50400001928E-02 0. -1.
    10030    2    1    2    0    0  0.00000000000E+00  0.00000000000E+00  0.12482692771E+04  0.29464586037E+04  0.26689777285E+04 0.  0.
        4    1    3    3  502    0 -0.67645438666E+03 -0.87872161407E+03  0.14436878966E+04  0.18204336209E+04  0.12699999809E+01 0.  1.
       -4    1    3    3    0  502  0.67645438666E+03  0.87872161407E+03 -0.19541861949E+03  0.11260249829E+04  0.12699999809E+01 0. -1.
</event>
<event>
 5   0  0.6804685E-06  0.2686747E+04  0.7818609E-02  0.8339318E-01
        1   -1    0    0  501    0  0.00000000000E+00  0.00000000000E+00  0.15847008024E+04  0.15847008025E+04  0.50400001928E-02 0. -1.
       -1   -1    0    0    0  501  0.00000000000E+00  0.00000000000E+00 -0.11387966725E+04  0.11387966725E+04  0.50400001928E-02 0.  1.
    10030    2    1    2    0    0  0.00000000000E+00  0.00000000000E+00  0.44590412991E+03  0.27234974750E+04  0.26867467322E+04 0.  0.
        2    1    3    3  502    0 -0.73071687175E+03 -0.99112177013E+02  0.13612014031E+04  0.15481084038E+04  0.25500000920E-02 0. -1.
       -2    1    3    3    0  502  0.73071687175E+03  0.99112177013E+02 -0.91529727317E+03  0.11753890711E+04  0.25500000920E-02 0.  1.
</event>
<event>
 5   0  0.1881699E-05  0.2647001E+04  0.7818609E-02  0.8352409E-01
        2   -1    0    0  501    0  0.00000000000E+00  0.00000000000E+00  0.17109236901E+04  0.17109236901E+04  0.25500000920E-02 0.  1.
       -2   -1    0    0    0  501  0.00000000000E+00  0.00000000000E+00 -0.10238054197E+04  0.10238054197E+04  0.25500000920E-02 0. -1.
    10030    2    1    2    0    0  0.00000000000E+00  0.00000000000E+00  0.68711827040E+03  0.27347291097E+04  0.26470005263E+04 0.  0.
        4    1    3    3  502    0 -0.52858258475E+03 -0.37215022115E+03 -0.84960029629E+03  0.10675755769E+04  0.12699999809E+01 0. -1.
       -4    1    3    3    0  502  0.52858258475E+03  0.37215022115E+03  0.15367185667E+04  0.16671535329E+04  0.12699999809E+01 0.  1.
</event>
<event>
 5   0  0.1788003E-05  0.2577696E+04  0.7818609E-02  0.8375817E-01
       -2   -1    0    0    0  501  0.00000000000E+00  0.00000000000E+00  0.80212882697E+03  0.80212882698E+03  0.25500000920E-02 0.  1.
        2   -1    0    0  501    0  0.00000000000E+00  0.00000000000E+00 -0.20709000487E+04  0.20709000487E+04  0.25500000920E-02 0. -1.
    10030    2    1    2    0    0  0.00000000000E+00  0.00000000000E+00 -0.12687712217E+04  0.28730288757E+04  0.25776955808E+04 0.  0.
        2    1    3    3  502    0  0.11515301771E+03  0.11769332521E+04 -0.63123353562E+02  0.11842367395E+04  0.25500000920E-02 0. -1.
       -2    1    3    3    0  502 -0.11515301771E+03 -0.11769332521E+04 -0.12056478682E+04  0.16887921362E+04  0.25500000920E-02 0.  1.
</event>
<event>
 5   0  0.1826851E-05  0.2644613E+04  0.7818609E-02  0.8353203E-01
       -2   -1    0    0    0  501  0.00000000000E+00  0.00000000000E+00  0.12999641228E+04  0.12999641228E+04  0.25500000920E-02 0.  1.
        2   -1    0    0  501    0  0.00000000000E+00  0.00000000000E+00 -0.13450329340E+04  0.13450329340E+04  0.25500000920E-02 0. -1.
    10030    2    1    2    0    0  0.00000000000E+00  0.00000000000E+00 -0.45068811169E+02  0.26449970568E+04  0.26446130592E+04 0.  0.
        5    1    3    3  502    0  0.10508685314E+03  0.36671881829E+03 -0.12887934861E+04  0.13440746550E+04  0.46999998093E+01 0. -1.
       -5    1    3    3    0  502 -0.10508685314E+03 -0.36671881829E+03  0.12437246749E+04  0.13009224018E+04  0.46999998093E+01 0.  1.
</event>
<event>
 5   0  0.6804685E-06  0.2700615E+04  0.7818609E-02  0.8334805E-01
       -1   -1    0    0    0  501  0.00000000000E+00  0.00000000000E+00  0.13352403691E+04  0.13352403691E+04  0.50400001928E-02 0. -1.
        1   -1    0    0  501    0  0.00000000000E+00  0.00000000000E+00 -0.13655448159E+04  0.13655448159E+04  0.50400001928E-02 0.  1.
    10030    2    1    2    0    0  0.00000000000E+00  0.00000000000E+00 -0.30304446860E+02  0.27007851850E+04  0.27006151625E+04 0.  0.
        2    1    3    3  502    0 -0.10710262327E+04  0.68619839452E+03 -0.46835305688E+03  0.13554777806E+04  0.25500000920E-02 0.  1.
       -2    1    3    3    0  502  0.10710262327E+04 -0.68619839452E+03  0.43804861002E+03  0.13453074044E+04  0.25500000920E-02 0. -1.
</event>
<event>
 5   0  0.1881699E-05  0.2688738E+04  0.7818609E-02  0.8338668E-01
       -2   -1    0    0    0  501  0.00000000000E+00  0.00000000000E+00  0.49835155009E+03  0.49835155010E+03  0.25500000920E-02 0.  1.
        2   -1    0    0  501    0  0.00000000000E+00  0.00000000000E+00 -0.36266122659E+04  0.36266122659E+04  0.25500000920E-02 0. -1.
    10030    2    1    2    0    0  0.00000000000E+00  0.00000000000E+00 -0.31282607158E+04  0.41249638160E+04  0.26887378781E+04 0.  0.
        4    1    3    3  502    0 -0.15271836291E+03  0.21410902644E+03 -0.35867612485E+04  0.35963903348E+04  0.12699999809E+01 0. -1.
       -4    1    3    3    0  502  0.15271836291E+03 -0.21410902644E+03  0.45850053274E+03  0.52857348116E+03  0.12699999809E+01 0.  1.
</event>
<event>
 5   0  0.1931119E-05  0.2717156E+04  0.7818609E-02  0.8329460E-01
       -2   -1    0    0    0  501  0.00000000000E+00  0.00000000000E+00  0.15083032697E+04  0.15083032697E+04  0.25500000920E-02 0. -1.
        2   -1    0    0  501    0  0.00000000000E+00  0.00000000000E+00 -0.12237156456E+04  0.12237156456E+04  0.25500000920E-02 0.  1.
    10030    2    1    2    0    0  0.00000000000E+00  0.00000000000E+00  0.28458762407E+03  0.27320189153E+04  0.27171560937E+04 0.  0.
        3    1    3    3  502    0 -0.14081066698E+02 -0.12558047494E+04  0.66328879155E+03  0.14202802105E+04  0.10100000352E+00 0. -1.
       -3    1    3    3    0  502  0.14081066698E+02  0.12558047494E+04 -0.37870116748E+03  0.13117387048E+04  0.10100000352E+00 0.  1.
</event>
<event>
 5   0  0.7351590E-06  0.2696225E+04  0.7818609E-02  0.8336231E-01
       -1   -1    0    0    0  501  0.00000000000E+00  0.00000000000E+00  0.11842776532E+04  0.11842776532E+04  0.50400001928E-02 0. -1.
        1   -1    0    0  501    0  0.00000000000E+00  0.00000000000E+00 -0.15346127199E+04  0.15346127199E+04  0.50400001928E-02 0.  1.
    10030    2    1    2    0    0  0.00000000000E+00  0.00000000000E+00 -0.35033506668E+03  0.27188903732E+04  0.26962251765E+04 0.  0.
        3    1    3    3  502    0 -0.19655987215E+03  0.10487386793E+04  0.65572431729E+03  0.12523829252E+04  0.10100000352E+00 0. -1.
       -3    1    3    3    0  502  0.19655987215E+03 -0.10487386793E+04 -0.10060593840E+04  0.14665074480E+04  0.10100000352E+00 0.  1.
</event>
<event>
 5   0  0.1931119E-05  0.2542147E+04  0.7818609E-02  0.8388122E-01
        2   -1    0    0  501    0  0.00000000000E+00  0.00000000000E+00  0.16027101295E+04  0.16027101295E+04  0.25500000920E-02 0.  1.
       -2   -1    0    0    0  501  0.00000000000E+00  0.00000000000E+00 -0.10080599146E+04  0.10080599146E+04  0.25500000920E-02 0. -1.
    10030    2    1    2    0    0  0.00000000000E+00  0.00000000000E+00  0.59465021490E+03  0.26107700440E+04  0.25421469951E+04 0.  0.
        3    1    3    3  502    0  0.10045566774E+04 -0.60093823742E+03 -0.21139158402E+03  0.11895155717E+04  0.10100000352E+00 0. -1.
       -3    1    3    3    0  502 -0.10045566774E+04  0.60093823742E+03  0.80604179891E+03  0.14212544723E+04  0.10100000352E+00 0.  1.
</event>
<event>
 5   0  0.6804685E-06  0.2701161E+04  0.7818609E-02  0.8334628E-01
       -1   -1    0    0    0  501  0.00000000000E+00  0.00000000000E+00  0.34649598412E+04  0.34649598412E+04  0.50400001928E-02 0. -1.
        1   -1    0    0  501    0  0.00000000000E+00  0.00000000000E+00 -0.52643241592E+03  0.52643241595E+03  0.50400001928E-02 0.  1.
    10030    2    1    2    0    0  0.00000000000E+00  0.00000000000E+00  0.29385274252E+04  0.39913922571E+04  0.27011606248E+04 0.  0.
        2    1    3    3  502    0 -0.86935533452E+03 -0.68407798665E+03  0.26141635693E+04  0.28385898887E+04  0.25500000920E-02 0. -1.
       -2    1    3    3    0  502  0.86935533452E+03  0.68407798665E+03  0.32436385596E+03  0.11528023684E+04  0.25500000920E-02 0.  1.
</event>
<event>
 5   0  0.7348964E-06  0.2714515E+04  0.7818609E-02  0.8330311E-01
        1   -1    0    0  501    0  0.00000000000E+00  0.00000000000E+00  0.20600422175E+04  0.20600422175E+04  0.50400001928E-02 0.  1.
       -1   -1    0    0    0  501  0.00000000000E+00  0.00000000000E+00 -0.89422809391E+03  0.89422809393E+03  0.50400001928E-02 0. -1.
    10030    2    1    2    0    0  0.00000000000E+00  0.00000000000E+00  0.11658141235E+04  0.29542703114E+04  0.27145147821E+04 0.  0.
        1    1    3    3  502    0 -0.11506775810E+04 -0.70877244171E+03  0.71940537834E+03  0.15310001201E+04  0.50400001928E-02 0.  1.
       -1    1    3    3    0  502  0.11506775810E+04  0.70877244171E+03  0.44640874521E+03  0.14232701912E+04  0.50400001928E-02 0. -1.
</event>
<event>
 5   0  0.1881699E-05  0.2660112E+04  0.7818609E-02  0.8348064E-01
        2   -1    0    0  501    0  0.00000000000E+00  0.00000000000E+00  0.24004864748E+04  0.24004864748E+04  0.25500000920E-02 0.  1.
       -2   -1    0    0    0  501  0.00000000000E+00  0.00000000000E+00 -0.73695444520E+03  0.73695444520E+03  0.25500000920E-02 0. -1.
    10030    2    1    2    0    0  0.00000000000E+00  0.00000000000E+00  0.16635320296E+04  0.31374409200E+04  0.26601121617E+04 0.  0.
        4    1    3    3  502    0  0.64012952772E+03 -0.48417316129E+03 -0.41913941699E+03  0.90546613749E+03  0.12699999809E+01 0.  1.
       -4    1    3    3    0  502 -0.64012952772E+03  0.48417316129E+03  0.20826714466E+04  0.22319747825E+04  0.12699999809E+01 0. -1.
</event>
<event>
 5   0  0.1881699E-05  0.2671457E+04  0.7818609E-02  0.8344326E-01
        2   -1    0    0  501    0  0.00000000000E+00  0.00000000000E+00  0.12140017463E+04  0.12140017463E+04  0.25500000920E-02 0. -1.
       -2   -1    0    0    0  501  0.00000000000E+00  0.00000000000E+00 -0.14696611276E+04  0.14696611276E+04  0.25500000920E-02 0.  1.
    10030    2    1    2    0    0  0.00000000000E+00  0.00000000000E+00 -0.25565938130E+03  0.26836628739E+04  0.26714574116E+04 0.  0.
        4    1    3    3  502    0  0.17237893916E+03  0.91810402321E+03 -0.10869378474E+04  0.14332009604E+04  0.12699999809E+01 0.  1.
       -4    1    3    3    0  502 -0.17237893916E+03 -0.91810402321E+03  0.83127846606E+03  0.12504619135E+04  0.12699999809E+01 0. -1.
</event>
<event>
 5   0  0.1881699E-05  0.2679359E+04  0.7818609E-02  0.8341733E-01
        2   -1    0    0  501    0  0.00000000000E+00  0.00000000000E+00  0.20974489543E+04  0.20974489543E+04  0.25500000920E-02 0.  1.
       -2   -1    0    0    0  501  0.00000000000E+00  0.00000000000E+00 -0.85567831462E+03  0.85567831463E+03  0.25500000920E-02 0. -1.
    10030    2    1    2    0    0  0.00000000000E+00  0.00000000000E+00  0.12417706396E+04  0.29531272689E+04  0.26793593161E+04 0.  0.
        4    1    3    3  502    0 -0.11454119437E+04  0.65722467572E+03  0.86936976345E+03  0.15810497126E+04  0.12699999809E+01 0. -1.
       -4    1    3    3    0  502  0.11454119437E+04 -0.65722467572E+03  0.37240087620E+03  0.13720775563E+04  0.12699999809E+01 0.  1.
</event>
<event>
 5   0  0.7351590E-06  0.2686539E+04  0.7818609E-02  0.8339386E-01
       -1   -1    0    0    0  501  0.00000000000E+00  0.00000000000E+00  0.17014560737E+04  0.17014560737E+04  0.50400001928E-02 0. -1.
        1   -1    0    0  501    0  0.00000000000E+00  0.00000000000E+00 -0.10604874425E+04  0.10604874425E+04  0.50400001928E-02 0.  1.
    10030    2    1    2    0    0  0.00000000000E+00  0.00000000000E+00  0.64096863119E+03  0.27619435162E+04  0.26865388888E+04 0.  0.
        3    1    3    3  502    0 -0.50534358796E+03 -0.46285774515E+03  0.15082309234E+04  0.16566140053E+04  0.10100000352E+00 0. -1.
       -3    1    3    3    0  502  0.50534358796E+03  0.46285774515E+03 -0.86726229218E+03  0.11053295110E+04  0.10100000352E+00 0.  1.
</event>
<event>
 5   0  0.1931119E-05  0.2700798E+04  0.7818609E-02  0.8334746E-01
        2   -1    0    0  501    0  0.00000000000E+00  0.00000000000E+00  0.28043144074E+04  0.28043144074E+04  0.25500000920E-02 0.  1.
       -2   -1    0    0    0  501  0.00000000000E+00  0.00000000000E+00 -0.65027566960E+03  0.65027566961E+03  0.25500000920E-02 0. -1.
    10030    2    1    2    0    0  0.00000000000E+00  0.00000000000E+00  0.21540387378E+04  0.34545900770E+04  0.27007979777E+04 0.  0.
        3    1    3    3  502    0 -0.32277691033E+02  0.76312738942E+03 -0.34742472832E+03  0.83911215810E+03  0.10100000352E+00 0. -1.
       -3    1    3    3    0  502  0.32277691033E+02 -0.76312738942E+03  0.25014634661E+04  0.26154779189E+04  0.10100000352E+00 0.  1.
</event>
<event>
 5   0  0.1878160E-05  0.2520332E+04  0.7818609E-02  0.8395778E-01
       -2   -1    0    0    0  501  0.00000000000E+00  0.00000000000E+00  0.76252049681E+03  0.76252049681E+03  0.25500000920E-02 0.  1.
        2   -1    0    0  501    0  0.00000000000E+00  0.00000000000E+00 -0.20825914425E+04  0.20825914425E+04  0.25500000920E-02 0. -1.
    10030    2    1    2    0    0  0.00000000000E+00  0.00000000000E+00 -0.13200709457E+04  0.28451119393E+04  0.25203322490E+04 0.  0.
        1    1    3    3  502    0  0.44880624612E+03  0.10502891343E+04 -0.58991695621E+02  0.11436845423E+04  0.50400001928E-02 0.  1.
       -1    1    3    3    0  502 -0.44880624612E+03 -0.10502891343E+04 -0.12610792501E+04  0.17014273970E+04  0.50400001928E-02 0. -1.
</event>
<event>
 5   0  0.6804685E-06  0.2704301E+04  0.7818609E-02  0.8333611E-01
       -1   -1    0    0    0  501  0.00000000000E+00  0.00000000000E+00  0.14429994253E+04  0.14429994253E+04  0.50400001928E-02 0.  1.
        1   -1    0    0  501    0  0.00000000000E+00  0.00000000000E+00 -0.12670211407E+04  0.12670211407E+04  0.50400001928E-02 0. -1.
    10030    2    1    2    0    0  0.00000000000E+00  0.00000000000E+00  0.17597828463E+03  0.27100205661E+04  0.27043008545E+04 0.  0.
        2    1    3    3  502    0 -0.85447721442E+03 -0.64979572216E+03  0.91188677923E+03  0.14085110183E+04  0.25500000920E-02 0.  1.
       -2    1    3    3    0  502  0.85447721442E+03  0.64979572216E+03 -0.73590849460E+03  0.13015095478E+04  0.25500000920E-02 0. -1.
</event>
<event>
 5   0  0.7348964E-06  0.2644668E+04  0.7818609E-02  0.8353185E-01
        1   -1    0    0  501    0  0.00000000000E+00  0.00000000000E+00  0.20123802748E+04  0.20123802748E+04  0.50400001928E-02 0. -1.
       -1   -1    0    0    0  501  0.00000000000E+00  0.00000000000E+00 -0.86890469738E+03  0.86890469739E+03  0.50400001928E-02 0.  1.
    10030    2    1    2    0    0  0.00000000000E+00  0.00000000000E+00  0.11434755774E+04  0.28812849722E+04  0.26446675963E+04 0.  0.
        1    1    3    3  502    0 -0.26098676047E+03 -0.97186379781E+03 -0.36288068281E+03  0.10697269374E+04  0.50400001928E-02 0.  1.
       -1    1    3    3    0  502  0.26098676047E+03  0.97186379781E+03  0.15063562602E+04  0.18115580348E+04  0.50400001928E-02 0. -1.
</event>
<event>
 5   0  0.6804685E-06  0.2751935E+04  0.7818609E-02  0.8318348E-01
        1   -1    0    0  501    0  0.00000000000E+00  0.00000000000E+00  0.10020305695E+04  0.10020305695E+04  0.50400001928E-02 0.  1.
       -1   -1    0    0    0  501  0.00000000000E+00  0.00000000000E+00 -0.18894497233E+04  0.18894497233E+04  0.50400001928E-02 0. -1.
    10030    2    1    2    0    0  0.00000000000E+00  0.00000000000E+00 -0.88741915386E+03  0.28914802928E+04  0.27519348701E+04 0.  0.
        2    1    3    3  502    0 -0.40166537221E+03  0.13141004738E+04 -0.36873836193E+03  0.14227308621E+04  0.25500000920E-02 0.  1.
       -2    1    3    3    0  502  0.40166537221E+03 -0.13141004738E+04 -0.51868079193E+03  0.14687494307E+04  0.25500000920E-02 0. -1.
</event>
<event>
 5   0  0.1931119E-05  0.2677142E+04  0.7818609E-02  0.8342460E-01
       -2   -1    0    0    0  501  0.00000000000E+00  0.00000000000E+00  0.16186373489E+04  0.16186373489E+04  0.25500000920E-02 0.  1.
        2   -1    0    0  501    0  0.00000000000E+00  0.00000000000E+00 -0.11069634212E+04  0.11069634212E+04  0.25500000920E-02 0. -1.
    10030    2    1    2    0    0  0.00000000000E+00  0.00000000000E+00  0.51167392775E+03  0.27256007701E+04  0.26771420115E+04 0.  0.
        3    1    3    3  502    0 -0.10266440701E+04 -0.28459653620E+03  0.10809253868E+04  0.15176932948E+04  0.10100000352E+00 0.  1.
       -3    1    3    3    0  502  0.10266440701E+04  0.28459653620E+03 -0.56925145905E+03  0.12079074753E+04  0.10100000352E+00 0. -1.
</event>
<event>
 5   0  0.6804685E-06  0.2621320E+04  0.7818609E-02  0.8360995E-01
       -1   -1    0    0    0  501  0.00000000000E+00  0.00000000000E+00  0.79578683558E+03  0.79578683560E+03  0.50400001928E-02 0. -1.
        1   -1    0    0  501    0  0.00000000000E+00  0.00000000000E+00 -0.21586559005E+04  0.21586559005E+04  0.50400001928E-02 0.  1.
    10030    2    1    2    0    0  0.00000000000E+00  0.00000000000E+00 -0.13628690649E+04  0.29544427361E+04  0.26213202385E+04 0.  0.
        2    1    3    3  502    0 -0.13104743625E+03 -0.99302327245E+03 -0.16341763801E+04  0.19167162261E+04  0.25500000920E-02 0.  1.
       -2    1    3    3    0  502  0.13104743625E+03  0.99302327245E+03  0.27130731522E+03  0.10377265100E+04  0.25500000920E-02 0. -1.
</event>
<event>
 5   0  0.1788003E-05  0.2579123E+04  0.7818609E-02  0.8375327E-01
        2   -1    0    0  501    0  0.00000000000E+00  0.00000000000E+00  0.18559777965E+04  0.18559777965E+04  0.25500000920E-02 0.  1.
       -2   -1    0    0    0  501  0.00000000000E+00  0.00000000000E+00 -0.89600720872E+03  0.89600720872E+03  0.25500000920E-02 0. -1.
    10030    2    1    2    0    0  0.00000000000E+00  0.00000000000E+00  0.95997058776E+03  0.27519850052E+04  0.25791234828E+04 0.  0.
        2    1    3    3  502    0 -0.96906568023E+03  0.47315517875E+03  0.12344887986E+04  0.16391847698E+04  0.25500000920E-02 0.  1.
       -2    1    3    3    0  502  0.96906568023E+03 -0.47315517875E+03 -0.27451821083E+03  0.11128002354E+04  0.25500000920E-02 0. -1.
</event>
<event>
 5   0  0.7351590E-06  0.2707261E+04  0.7818609E-02  0.8332653E-01
        1   -1    0    0  501    0  0.00000000000E+00  0.00000000000E+00  0.12354736628E+04  0.12354736629E+04  0.50400001928E-02 0.  1.
       -1   -1    0    0    0  501  0.00000000000E+00  0.00000000000E+00 -0.14830869667E+04  0.14830869667E+04  0.50400001928E-02 0. -1.
    10030    2    1    2    0    0  0.00000000000E+00  0.00000000000E+00 -0.24761330389E+03  0.27185606296E+04  0.27072605247E+04 0.  0.
        3    1    3    3  502    0  0.10685907350E+04  0.50352187879E+03 -0.78754548757E+03  0.14197353086E+04  0.10100000352E+00 0. -1.
       -3    1    3    3    0  502 -0.10685907350E+04 -0.50352187879E+03  0.53993218367E+03  0.12988253210E+04  0.10100000352E+00 0.  1.
</event>
<event>
 5   0  0.7348964E-06  0.2734001E+04  0.7818609E-02  0.8324056E-01
        1   -1    0    0  501    0  0.00000000000E+00  0.00000000000E+00  0.17420874738E+04  0.17420874738E+04  0.50400001928E-02 0. -1.
       -1   -1    0    0    0  501  0.00000000000E+00  0.00000000000E+00 -0.10726730871E+04  0.10726730871E+04  0.50400001928E-02 0.  1.
    10030    2    1    2    0    0  0.00000000000E+00  0.00000000000E+00  0.66941438671E+03  0.28147605609E+04  0.27340009865E+04 0.  0.
        1    1    3    3  502    0 -0.38776742665E+03  0.11012086470E+04  0.10668145828E+04  0.15814921484E+04  0.50400001928E-02 0. -1.
       -1    1    3    3    0  502  0.38776742665E+03 -0.11012086470E+04 -0.39740019605E+03  0.12332684125E+04  0.50400001928E-02 0.  1.
</event>
<event>
 5   0  0.1881699E-05  0.2726406E+04  0.7818609E-02  0.8326488E-01
        2   -1    0    0  501    0  0.00000000000E+00  0.00000000000E+00  0.18521659487E+04  0.18521659487E+04  0.25500000920E-02 0. -1.
       -2   -1    0    0    0  501  0.00000000000E+00  0.00000000000E+00 -0.10033238325E+04  0.10033238325E+04  0.25500000920E-02 0.  1.
    10030    2    1    2    0    0  0.00000000000E+00  0.00000000000E+00  0.84884211618E+03  0.28554897812E+04  0.27264058671E+04 0.  0.
        4    1    3    3  502    0 -0.11694197018E+04 -0.68925295070E+03  0.55568886681E+03  0.14667664431E+04  0.12699999809E+01 0.  1.
       -4    1    3    3    0  502  0.11694197018E+04  0.68925295070E+03  0.29315324936E+03  0.13887233380E+04  0.12699999809E+01 0. -1.
</event>
<event>
 5   0  0.1826851E-05  0.2485909E+04  0.7818609E-02  0.8408023E-01
        2   -1    0    0  501    0  0.00000000000E+00  0.00000000000E+00  0.12773209219E+04  0.12773209219E+04  0.25500000920E-02 0. -1.
       -2   -1    0    0    0  501  0.00000000000E+00  0.00000000000E+00 -0.12095125451E+04  0.12095125451E+04  0.25500000920E-02 0.  1.
    10030    2    1    2    0    0  0.00000000000E+00  0.00000000000E+00  0.67808376793E+02  0.24868334670E+04  0.24859088312E+04 0.  0.
        5    1    3    3  502    0 -0.73356747194E+03  0.13141405883E+03  0.10290217407E+04  0.12705505593E+04  0.46999998093E+01 0. -1.
       -5    1    3    3    0  502  0.73356747194E+03 -0.13141405883E+03 -0.96121336394E+03  0.12162829078E+04  0.46999998093E+01 0.  1.
</event>
<event>
 5   0  0.6804685E-06  0.2685201E+04  0.7818609E-02  0.8339823E-01
        1   -1    0    0  501    0  0.00000000000E+00  0.00000000000E+00  0.12933786096E+04  0.12933786096E+04  0.50400001928E-02 0.  1.
       -1   -1    0    0    0  501  0.00000000000E+00  0.00000000000E+00 -0.13936951822E+04  0.13936951822E+04  0.50400001928E-02 0. -1.
    10030    2    1    2    0    0  0.00000000000E+00  0.00000000000E+00 -0.10031657264E+03  0.26870737918E+04  0.26852005787E+04 0.  0.
        2    1    3    3  502    0 -0.12258640915E+04  0.52480870552E+03 -0.20649975807E+03  0.13493735948E+04  0.25500000920E-02 0. -1.
       -2    1    3    3    0  502  0.12258640915E+04 -0.52480870552E+03  0.10618318543E+03  0.13377001970E+04  0.25500000920E-02 0.  1.
</event>
<event>
 5   0  0.6804685E-06  0.2723015E+04  0.7818609E-02  0.8327576E-01
       -1   -1    0    0    0  501  0.00000000000E+00  0.00000000000E+00  0.13390502793E+04  0.13390502793E+04  0.50400001928E-02 0.  1.
        1   -1    0    0  501    0  0.00000000000E+00  0.00000000000E+00 -0.13843413533E+04  0.13843413533E+04  0.50400001928E-02 0. -1.
    10030    2    1    2    0    0  0.00000000000E+00  0.00000000000E+00 -0.45291074071E+02  0.27233916326E+04  0.27230150024E+04 0.  0.
        2    1    3    3  502    0  0.31382189715E+03  0.12728701784E+04 -0.39014703961E+03  0.13678075108E+04  0.25500000920E-02 0. -1.
       -2    1    3    3    0  502 -0.31382189715E+03 -0.12728701784E+04  0.34485596554E+03  0.13555841218E+04  0.25500000920E-02 0.  1.
</event>
<event>
 5   0  0.7348964E-06  0.2182754E+04  0.7818609E-02  0.8525641E-01
       -1   -1    0    0    0  501  0.00000000000E+00  0.00000000000E+00  0.10474441467E+04  0.10474441467E+04  0.50400001928E-02 0. -1.
        1   -1    0    0  501    0  0.00000000000E+00  0.00000000000E+00 -0.11371526187E+04  0.11371526187E+04  0.50400001928E-02 0.  1.
    10030    2    1    2    0    0  0.00000000000E+00  0.00000000000E+00 -0.89708472024E+02  0.21845967655E+04  0.21827540901E+04 0.  0.
        1    1    3    3  502    0  0.18000935585E+03  0.37255279876E+03 -0.10556102043E+04  0.11338041539E+04  0.50400001928E-02 0.  1.
       -1    1    3    3    0  502 -0.18000935585E+03 -0.37255279876E+03  0.96590173226E+03  0.10507926115E+04  0.50400001928E-02 0. -1.
</event>
<event>
 5   0  0.7600052E-06  0.2786798E+04  0.7818609E-02  0.8307379E-01
        1   -1    0    0  501    0  0.00000000000E+00  0.00000000000E+00  0.87813061201E+03  0.87813061202E+03  0.50400001928E-02 0. -1.
       -1   -1    0    0    0  501  0.00000000000E+00  0.00000000000E+00 -0.22110165281E+04  0.22110165281E+04  0.50400001928E-02 0.  1.
    10030    2    1    2    0    0  0.00000000000E+00  0.00000000000E+00 -0.13328859161E+04  0.30891471401E+04  0.27867983759E+04 0.  0.
        5    1    3    3  502    0 -0.10091136235E+04  0.63186196580E+03 -0.14688415082E+04  0.18907874855E+04  0.46999998093E+01 0.  1.
       -5    1    3    3    0  502  0.10091136235E+04 -0.63186196580E+03  0.13595559209E+03  0.11983596547E+04  0.46999998093E+01 0. -1.
</event>
<event>
 5   0  0.7351590E-06  0.2284140E+04  0.7818609E-02  0.8484201E-01
        1   -1    0    0  501    0  0.00000000000E+00  0.00000000000E+00  0.89888996272E+03  0.89888996274E+03  0.50400001928E-02 0.  1.
       -1   -1    0    0    0  501  0.00000000000E+00  0.00000000000E+00 -0.14510380362E+04  0.14510380362E+04  0.50400001928E-02 0. -1.
    10030    2    1    2    0    0  0.00000000000E+00  0.00000000000E+00 -0.55214807350E+03  0.23499279990E+04  0.22841396860E+04 0.  0.
        3    1    3    3  502    0  0.52809672630E+03  0.95734738847E+03  0.63467081321E+02  0.10951841193E+04  0.10100000352E+00 0.  1.
       -3    1    3    3    0  502 -0.52809672630E+03 -0.95734738847E+03 -0.61561515483E+03  0.12547438797E+04  0.10100000352E+00 0. -1.
</event>
<event>
 5   0  0.1878160E-05  0.2715739E+04  0.7818609E-02  0.8329916E-01
        2   -1    0    0  501    0  0.00000000000E+00  0.00000000000E+00  0.20065132647E+04  0.20065132647E+04  0.25500000920E-02 0. -1.
       -2   -1    0    0    0  501  0.00000000000E+00  0.00000000000E+00 -0.91891202314E+03  0.91891202314E+03  0.25500000920E-02 0.  1.
    10030    2    1    2    0    0  0.00000000000E+00  0.00000000000E+00  0.10876012416E+04  0.29254252879E+04  0.27157386940E+04 0.  0.
        1    1    3    3  502    0  0.66167345710E+03 -0.62042999590E+03 -0.54469708350E+03  0.10580359429E+04  0.50400001928E-02 0.  1.
       -1    1    3    3    0  502 -0.66167345710E+03  0.62042999590E+03  0.16322983251E+04  0.18673893450E+04  0.50400001928E-02 0. -1.
</event>
<event>
 5   0  0.7600052E-06  0.2728176E+04  0.7818609E-02  0.8325920E-01
        1   -1    0    0  501    0  0.00000000000E+00  0.00000000000E+00  0.20413807225E+04  0.20413807225E+04  0.50400001928E-02 0. -1.
       -1   -1    0    0    0  501  0.00000000000E+00  0.00000000000E+00 -0.91150859712E+03  0.91150859713E+03  0.50400001928E-02 0.  1.
    10030    2    1    2    0    0  0.00000000000E+00  0.00000000000E+00  0.11298721254E+04  0.29528893197E+04  0.27281760050E+04 0.  0.
        5    1    3    3  502    0 -0.60952480265E+03 -0.97350533240E+03 -0.23152829149E+03  0.11716913233E+04  0.46999998093E+01 0.  1.
       -5    1    3    3    0  502  0.60952480265E+03  0.97350533240E+03  0.13614004169E+04  0.17811979964E+04  0.46999998093E+01 0. -1.
</event>
<event>
 5   0  0.7348964E-06  0.2714693E+04  0.7818609E-02  0.8330253E-01
        1   -1    0    0  501    0  0.00000000000E+00  0.00000000000E+00  0.11633349905E+04  0.11633349905E+04  0.50400001928E-02 0.  1.
       -1   -1    0    0    0  501  0.00000000000E+00  0.00000000000E+00 -0.15837131326E+04  0.15837131326E+04  0.50400001928E-02 0. -1.
    10030    2    1    2    0    0  0.00000000000E+00  0.00000000000E+00 -0.42037814212E+03  0.27470481231E+04  0.27146925440E+04 0.  0.
        1    1    3    3  502    0 -0.49278876822E+03  0.68418857895E+03  0.86617762841E+03  0.12088086969E+04  0.50400001928E-02 0.  1.
       -1    1    3    3    0  502  0.49278876822E+03 -0.68418857895E+03 -0.12865557705E+04  0.15382394262E+04  0.50400001928E-02 0. -1.
</event>
<event>
 5   0  0.7351590E-06  0.2677369E+04  0.7818609E-02  0.8342385E-01
       -1   -1    0    0    0  501  0.00000000000E+00  0.00000000000E+00  0.15905225047E+04  0.15905225047E+04  0.50400001928E-02 0.  1.
        1   -1    0    0  501    0  0.00000000000E+00  0.00000000000E+00 -0.11267217306E+04  0.11267217306E+04  0.50400001928E-02 0. -1.
    10030    2    1    2    0    0  0.00000000000E+00  0.00000000000E+00  0.46380077411E+03  0.27172442353E+04  0.26773690587E+04 0.  0.
        3    1    3    3  502    0  0.62975640473E+03 -0.57070798421E+03 -0.81780340246E+03  0.11794503583E+04  0.10100000352E+00 0. -1.
       -3    1    3    3    0  502 -0.62975640473E+03  0.57070798421E+03  0.12816041766E+04  0.15377938770E+04  0.10100000352E+00 0.  1.
</event>
<event>
 5   0  0.7754912E-06  0.2831740E+04  0.7818609E-02  0.8293482E-01
        1   -1    0    0  501    0  0.00000000000E+00  0.00000000000E+00  0.96586109801E+03  0.96586109802E+03  0.50400001928E-02 0.  1.
       -1   -1    0    0    0  501  0.00000000000E+00  0.00000000000E+00 -0.20755446481E+04  0.20755446481E+04  0.50400001928E-02 0. -1.
    10030    2    1    2    0    0  0.00000000000E+00  0.00000000000E+00 -0.11096835501E+04  0.30414057462E+04  0.28317399830E+04 0.  0.
        4    1    3    3  502    0 -0.68976624141E+03 -0.68122428096E+03  0.55347427519E+03  0.11163240457E+04  0.12699999809E+01 0.  1.
       -4    1    3    3    0  502  0.68976624141E+03  0.68122428096E+03 -0.16631578253E+04  0.19250817005E+04  0.12699999809E+01 0. -1.
</event>
<event>
 5   0  0.7351590E-06  0.2664961E+04  0.7818609E-02  0.8346464E-01
       -1   -1    0    0    0  501  0.00000000000E+00  0.00000000000E+00  0.12938747827E+04  0.12938747827E+04  0.50400001928E-02 0. -1.
        1   -1    0    0  501    0  0.00000000000E+00  0.00000000000E+00 -0.13722381478E+04  0.13722381478E+04  0.50400001928E-02 0.  1.
    10030    2    1    2    0    0  0.00000000000E+00  0.00000000000E+00 -0.78363365065E+02  0.26661129305E+04  0.26649610393E+04 0.  0.
        3    1    3    3  502    0  0.39759875727E+03  0.59128995232E+03 -0.11656327270E+04  0.13661655258E+04  0.10100000352E+00 0.  1.
       -3    1    3    3    0  502 -0.39759875727E+03 -0.59128995232E+03  0.10872693619E+04  0.12999474047E+04  0.10100000352E+00 0. -1.
</event>
<event>
 5   0  0.1878160E-05  0.2692048E+04  0.7818609E-02  0.8337590E-01
       -2   -1    0    0    0  501  0.00000000000E+00  0.00000000000E+00  0.78366890042E+03  0.78366890042E+03  0.25500000920E-02 0. -1.
        2   -1    0    0  501    0  0.00000000000E+00  0.00000000000E+00 -0.23119210452E+04  0.23119210452E+04  0.25500000920E-02 0.  1.
    10030    2    1    2    0    0  0.00000000000E+00  0.00000000000E+00 -0.15282521448E+04  0.30955899457E+04  0.26920480110E+04 0.  0.
        1    1    3    3  502    0  0.51827848500E+02  0.18406397360E+03  0.76797035505E+03  0.79141906631E+03  0.50400001928E-02 0. -1.
       -1    1    3    3    0  502 -0.51827848500E+02 -0.18406397360E+03 -0.22962224999E+04  0.23041708793E+04  0.50400001928E-02 0.  1.
</event>
<event>
 5   0  0.1826851E-05  0.2676164E+04  0.7818609E-02  0.8342780E-01
        2   -1    0    0  501    0  0.00000000000E+00  0.00000000000E+00  0.14209728812E+04  0.14209728812E+04  0.25500000920E-02 0.  1.
       -2   -1    0    0    0  501  0.00000000000E+00  0.00000000000E+00 -0.12600269173E+04  0.12600269173E+04  0.25500000920E-02 0. -1.
    10030    2    1    2    0    0  0.00000000000E+00  0.00000000000E+00  0.16094596386E+03  0.26809997985E+04  0.26761644785E+04 0.  0.
        5    1    3    3  502    0  0.92494200263E+03  0.96636312550E+03  0.47755276910E+02  0.13385357877E+04  0.46999998093E+01 0.  1.
       -5    1    3    3    0  502 -0.92494200263E+03 -0.96636312550E+03  0.11319068695E+03  0.13424640107E+04  0.46999998093E+01 0. -1.
</event>
<event>
 5   0  0.7351590E-06  0.1983707E+04  0.7818609E-02  0.8614276E-01
        1   -1    0    0  501    0  0.00000000000E+00  0.00000000000E+00  0.13396771428E+04  0.13396771428E+04  0.50400001928E-02 0. -1.
       -1   -1    0    0    0  501  0.00000000000E+00  0.00000000000E+00 -0.73433623228E+03  0.73433623230E+03  0.50400001928E-02 0.  1.
    10030    2    1    2    0    0  0.00000000000E+00  0.00000000000E+00  0.60534091054E+03  0.20740133751E+04  0.19837071009E+04 0.  0.
        3    1    3    3  502    0  0.87625466744E+03  0.46414606684E+03  0.32650385729E+03  0.10439629268E+04  0.10100000352E+00 0.  1.
       -3    1    3    3    0  502 -0.87625466744E+03 -0.46414606684E+03  0.27883705325E+03  0.10300504483E+04  0.10100000352E+00 0. -1.
</event>
<event>
 5   0  0.6804685E-06  0.2694135E+04  0.7818609E-02  0.8336910E-01
       -1   -1    0    0    0  501  0.00000000000E+00  0.00000000000E+00  0.83016561832E+03  0.83016561834E+03  0.50400001928E-02 0.  1.
        1   -1    0    0  501    0  0.00000000000E+00  0.00000000000E+00 -0.21858185101E+04  0.21858185101E+04  0.50400001928E-02 0. -1.
    10030    2    1    2    0    0  0.00000000000E+00  0.00000000000E+00 -0.13556528918E+04  0.30159841285E+04  0.26941353901E+04 0.  0.
        2    1    3    3  502    0  0.33551070639E+03 -0.26058943775E+03  0.75321173247E+03  0.86475557420E+03  0.25500000920E-02 0.  1.
       -2    1    3    3    0  502 -0.33551070639E+03  0.26058943775E+03 -0.21088646243E+04  0.21512285543E+04  0.25500000920E-02 0. -1.
</event>
<event>
 5   0  0.7754912E-06  0.2509600E+04  0.7818609E-02  0.8399573E-01
        1   -1    0    0  501    0  0.00000000000E+00  0.00000000000E+00  0.19048027298E+04  0.19048027298E+04  0.50400001928E-02 0.  1.
       -1   -1    0    0    0  501  0.00000000000E+00  0.00000000000E+00 -0.82660700158E+03  0.82660700159E+03  0.50400001928E-02 0. -1.
    10030    2    1    2    0    0  0.00000000000E+00  0.00000000000E+00  0.10781957282E+04  0.27314097314E+04  0.25096001857E+04 0.  0.
        4    1    3    3  502    0 -0.11271659704E+04  0.26822025607E+03  0.10634195636E+04  0.15726754311E+04  0.12699999809E+01 0.  1.
       -4    1    3    3    0  502  0.11271659704E+04 -0.26822025607E+03  0.14776164595E+02  0.11587343002E+04  0.12699999809E+01 0. -1.
</event>
<event>
 5   0  0.6804685E-06  0.2701876E+04  0.7818609E-02  0.8334396E-01
       -1   -1    0    0    0  501  0.00000000000E+00  0.00000000000E+00  0.11278114551E+04  0.11278114551E+04  0.50400001928E-02 0.  1.
        1   -1    0    0  501    0  0.00000000000E+00  0.00000000000E+00 -0.16182082940E+04  0.16182082940E+04  0.50400001928E-02 0. -1.
    10030    2    1    2    0    0  0.00000000000E+00  0.00000000000E+00 -0.49039683890E+03  0.27460197492E+04  0.27018762746E+04 0.  0.
        2    1    3    3  502    0  0.24944248578E+03  0.90533318997E+03  0.74184540772E+03  0.11967390474E+04  0.25500000920E-02 0.  1.
       -2    1    3    3    0  502 -0.24944248578E+03 -0.90533318997E+03 -0.12322422466E+04  0.15492807018E+04  0.25500000920E-02 0. -1.
</event>
<event>
 5   0  0.7348964E-06  0.2755995E+04  0.7818609E-02  0.8317062E-01
       -1   -1    0    0    0  501  0.00000000000E+00  0.00000000000E+00  0.11431495297E+04  0.11431495297E+04  0.50400001928E-02 0. -1.
        1   -1    0    0  501    0  0.00000000000E+00  0.00000000000E+00 -0.16610929176E+04  0.16610929176E+04  0.50400001928E-02 0.  1.
    10030    2    1    2    0    0  0.00000000000E+00  0.00000000000E+00 -0.51794338791E+03  0.28042424473E+04  0.27559953465E+04 0.  0.
        1    1    3    3  502    0 -0.10883760094E+04 -0.15706318288E+03 -0.11039592585E+04  0.15581903689E+04  0.50400001928E-02 0. -1.
       -1    1    3    3    0  502  0.10883760094E+04  0.15706318288E+03  0.58601587061E+03  0.12460520784E+04  0.50400001928E-02 0.  1.
</event>
<event>
 5   0  0.7600052E-06  0.2857486E+04  0.7818609E-02  0.8285640E-01
       -1   -1    0    0    0  501  0.00000000000E+00  0.00000000000E+00  0.10845406921E+04  0.10845406922E+04  0.50400001928E-02 0. -1.
        1   -1    0    0  501    0  0.00000000000E+00  0.00000000000E+00 -0.18821857905E+04  0.18821857906E+04  0.50400001928E-02 0.  1.
    10030    2    1    2    0    0  0.00000000000E+00  0.00000000000E+00 -0.79764509840E+03  0.29667264827E+04  0.28574863640E+04 0.  0.
        5    1    3    3  502    0 -0.81007591258E+03  0.16352949354E+03  0.81120262881E+03  0.11580313788E+04  0.46999998093E+01 0. -1.
       -5    1    3    3    0  502  0.81007591258E+03 -0.16352949354E+03 -0.16088477272E+04  0.18086951039E+04  0.46999998093E+01 0.  1.
</event>
<event>
 5   0  0.1826851E-05  0.2500603E+04  0.7818609E-02  0.8402771E-01
        2   -1    0    0  501    0  0.00000000000E+00  0.00000000000E+00  0.13342847173E+04  0.13342847173E+04  0.25500000920E-02 0.  1.
       -2   -1    0    0    0  501  0.00000000000E+00  0.00000000000E+00 -0.11716045698E+04  0.11716045698E+04  0.25500000920E-02 0. -1.
    10030    2    1    2    0    0  0.00000000000E+00  0.00000000000E+00  0.16268014749E+03  0.25058892870E+04  0.25006031849E+04 0.  0.
        5    1    3    3  502    0 -0.99057576608E+03 -0.76271679251E+03  0.65346128481E+02  0.12519063305E+04  0.46999998093E+01 0.  1.
       -5    1    3    3    0  502  0.99057576608E+03  0.76271679251E+03  0.97334019006E+02  0.12539829565E+04  0.46999998093E+01 0. -1.
</event>
<event>
 5   0  0.1881699E-05  0.2724766E+04  0.7818609E-02  0.8327014E-01
       -2   -1    0    0    0  501  0.00000000000E+00  0.00000000000E+00  0.18504744053E+04  0.18504744053E+04  0.25500000920E-02 0.  1.
        2   -1    0    0  501    0  0.00000000000E+00  0.00000000000E+00 -0.10030331851E+04  0.10030331851E+04  0.25500000920E-02 0. -1.
    10030    2    1    2    0    0  0.00000000000E+00  0.00000000000E+00  0.84744122013E+03  0.28535075904E+04  0.27247658518E+04 0.  0.
        4    1    3    3  502    0 -0.65463793544E+03 -0.11153764180E+03 -0.82206271170E+03  0.10567782108E+04  0.12699999809E+01 0. -1.
       -4    1    3    3    0  502  0.65463793544E+03  0.11153764180E+03  0.16695039318E+04  0.17967293796E+04  0.12699999809E+01 0.  1.
</event>
<event>
 5   0  0.7600052E-06  0.2668918E+04  0.7818609E-02  0.8345161E-01
        1   -1    0    0  501    0  0.00000000000E+00  0.00000000000E+00  0.12514251649E+04  0.12514251649E+04  0.50400001928E-02 0. -1.
       -1   -1    0    0    0  501  0.00000000000E+00  0.00000000000E+00 -0.14230019409E+04  0.14230019409E+04  0.50400001928E-02 0.  1.
    10030    2    1    2    0    0  0.00000000000E+00  0.00000000000E+00 -0.17157677599E+03  0.26744271058E+04  0.26689177121E+04 0.  0.
        5    1    3    3  502    0  0.14256085595E+03 -0.78875964263E+02  0.12414128716E+04  0.12520674995E+04  0.46999998093E+01 0. -1.
       -5    1    3    3    0  502 -0.14256085595E+03  0.78875964263E+02 -0.14129896476E+04  0.14223596063E+04  0.46999998093E+01 0.  1.
</event>
<event>
 5   0  0.1878160E-05  0.2725227E+04  0.7818609E-02  0.8326866E-01
        2   -1    0    0  501    0  0.00000000000E+00  0.00000000000E+00  0.25034016453E+04  0.25034016453E+04  0.25500000920E-02 0.  1.
       -2   -1    0    0    0  501  0.00000000000E+00  0.00000000000E+00 -0.74167724222E+03  0.74167724223E+03  0.25500000920E-02 0. -1.
    10030    2    1    2    0    0  0.00000000000E+00  0.00000000000E+00  0.17617244031E+04  0.32450788876E+04  0.27252273509E+04 0.  0.
        1    1    3    3  502    0  0.61867092825E+03  0.12111109373E+04  0.98170876064E+03  0.16772881418E+04  0.50400001928E-02 0.  1.
       -1    1    3    3    0  502 -0.61867092825E+03 -0.12111109373E+04  0.78001564247E+03  0.15677907457E+04  0.50400001928E-02 0. -1.
</event>
<event>
 5   0  0.1881699E-05  0.2698960E+04  0.7818609E-02  0.8335342E-01
       -2   -1    0    0    0  501  0.00000000000E+00  0.00000000000E+00  0.22555569647E+04  0.22555569647E+04  0.25500000920E-02 0. -1.
        2   -1    0    0  501    0  0.00000000000E+00  0.00000000000E+00 -0.80738236238E+03  0.80738236238E+03  0.25500000920E-02 0.  1.
    10030    2    1    2    0    0  0.00000000000E+00  0.00000000000E+00  0.14481746024E+04  0.30629393271E+04  0.26989604745E+04 0.  0.
        4    1    3    3  502    0  0.81872012245E+03 -0.90291461591E+03  0.66713136915E+02  0.12206595340E+04  0.12699999809E+01 0.  1.
       -4    1    3    3    0  502 -0.81872012245E+03  0.90291461591E+03  0.13814614654E+04  0.18422797931E+04  0.12699999809E+01 0. -1.
</event>
<event>
 5   0  0.1881699E-05  0.2724887E+04  0.7818609E-02  0.8326975E-01
       -2   -1    0    0    0  501  0.00000000000E+00  0.00000000000E+00  0.14306423154E+04  0.14306423154E+04  0.25500000920E-02 0. -1.
        2   -1    0    0  501    0  0.00000000000E+00  0.00000000000E+00 -0.12974956815E+04  0.12974956815E+04  0.25500000920E-02 0.  1.
    10030    2    1    2    0    0  0.00000000000E+00  0.00000000000E+00  0.13314663390E+03  0.27281379969E+04  0.27248869525E+04 0.  0.
        4    1    3    3  502    0 -0.56571283471E+03  0.12257090536E+04  0.25079534284E+03  0.13730599449E+04  0.12699999809E+01 0. -1.
       -4    1    3    3    0  502  0.56571283471E+03 -0.12257090536E+04 -0.11764870894E+03  0.13550780520E+04  0.12699999809E+01 0.  1.
</event>
<event>
 5   0  0.7348964E-06  0.2615172E+04  0.7818609E-02  0.8363066E-01
        1   -1    0    0  501    0  0.00000000000E+00  0.00000000000E+00  0.31326938491E+04  0.31326938491E+04  0.50400001928E-02 0.  1.
       -1   -1    0    0    0  501  0.00000000000E+00  0.00000000000E+00 -0.54578619749E+03  0.54578619751E+03  0.50400001928E-02 0. -1.
    10030    2    1    2    0    0  0.00000000000E+00  0.00000000000E+00  0.25869076516E+04  0.36784800466E+04  0.26151719361E+04 0.  0.
        1    1    3    3  502    0 -0.69427994357E+03  0.99176641486E+03  0.59842681616E+03  0.13504591501E+04  0.50400001928E-02 0. -1.
       -1    1    3    3    0  502  0.69427994357E+03 -0.99176641486E+03  0.19884808354E+04  0.23280208965E+04  0.50400001928E-02 0.  1.
</event>
<event>
 5   0  0.7600052E-06  0.2672393E+04  0.7818609E-02  0.8344018E-01
       -1   -1    0    0    0  501  0.00000000000E+00  0.00000000000E+00  0.86623970681E+03  0.86623970683E+03  0.50400001928E-02 0. -1.
        1   -1    0    0  501    0  0.00000000000E+00  0.00000000000E+00 -0.20611163813E+04  0.20611163813E+04  0.50400001928E-02 0.  1.
    10030    2    1    2    0    0  0.00000000000E+00  0.00000000000E+00 -0.11948766745E+04  0.29273560882E+04  0.26723928228E+04 0.  0.
        5    1    3    3  502    0  0.91689135082E+02  0.80242852904E+03 -0.17634675686E+04  0.19396232617E+04  0.46999998093E+01 0.  1.
       -5    1    3    3    0  502 -0.91689135082E+02 -0.80242852904E+03  0.56859089408E+03  0.98773282650E+03  0.46999998093E+01 0. -1.
</event>
<event>
 5   0  0.7351590E-06  0.2726249E+04  0.7818609E-02  0.8326538E-01
        1   -1    0    0  501    0  0.00000000000E+00  0.00000000000E+00  0.18502552756E+04  0.18502552756E+04  0.50400001928E-02 0. -1.
       -1   -1    0    0    0  501  0.00000000000E+00  0.00000000000E+00 -0.10042440420E+04  0.10042440420E+04  0.50400001928E-02 0.  1.
    10030    2    1    2    0    0  0.00000000000E+00  0.00000000000E+00  0.84601123364E+03  0.28544993176E+04  0.27262485849E+04 0.  0.
        3    1    3    3  502    0 -0.86855100296E+03 -0.33417727913E+03 -0.61986834536E+03  0.11181646008E+04  0.10100000352E+00 0.  1.
       -3    1    3    3    0  502  0.86855100296E+03  0.33417727913E+03  0.14658795790E+04  0.17363347169E+04  0.10100000352E+00 0. -1.
</event>
<event>
 5   0  0.1881699E-05  0.2664351E+04  0.7818609E-02  0.8346665E-01
        2   -1    0    0  501    0  0.00000000000E+00  0.00000000000E+00  0.12708348219E+04  0.12708348219E+04  0.25500000920E-02 0. -1.
       -2   -1    0    0    0  501  0.00000000000E+00  0.00000000000E+00 -0.13964767240E+04  0.13964767240E+04  0.25500000920E-02 0.  1.
    10030    2    1    2    0    0  0.00000000000E+00  0.00000000000E+00 -0.12564190208E+03  0.26673115460E+04  0.26643507644E+04 0.  0.
        4    1    3    3  502    0 -0.43144292266E+03  0.87856149653E+03 -0.96752666139E+03  0.13762713221E+04  0.12699999809E+01 0.  1.
       -4    1    3    3    0  502  0.43144292266E+03 -0.87856149653E+03  0.84188475931E+03  0.12910402238E+04  0.12699999809E+01 0. -1.
</event>
<event>
 5   0  0.7754912E-06  0.2689286E+04  0.7818609E-02  0.8338490E-01
       -1   -1    0    0    0  501  0.00000000000E+00  0.00000000000E+00  0.54906212752E+03  0.54906212755E+03  0.50400001928E-02 0.  1.
        1   -1    0    0  501    0  0.00000000000E+00  0.00000000000E+00 -0.32930050346E+04  0.32930050346E+04  0.50400001928E-02 0. -1.
    10030    2    1    2    0    0  0.00000000000E+00  0.00000000000E+00 -0.27439429071E+04  0.38420671621E+04  0.26892856675E+04 0.  0.
        4    1    3    3  502    0  0.37840932092E+03  0.44410709190E+03 -0.31027340104E+04  0.31571165128E+04  0.12699999809E+01 0. -1.
       -4    1    3    3    0  502 -0.37840932092E+03 -0.44410709190E+03  0.35879110336E+03  0.68495064931E+03  0.12699999809E+01 0.  1.
</event>
<event>
 5   0  0.1931119E-05  0.2743131E+04  0.7818609E-02  0.8321145E-01
       -2   -1    0    0    0  501  0.00000000000E+00  0.00000000000E+00  0.12912445505E+04  0.12912445505E+04  0.25500000920E-02 0.  1.
        2   -1    0    0  501    0  0.00000000000E+00  0.00000000000E+00 -0.14568829089E+04  0.14568829089E+04  0.25500000920E-02 0. -1.
    10030    2    1    2    0    0  0.00000000000E+00  0.00000000000E+00 -0.16563835845E+03  0.27481274594E+04  0.27431311429E+04 0.  0.
        3    1    3    3  502    0  0.35336191841E+03 -0.12014865993E+04  0.47744661301E+03  0.13402947333E+04  0.10100000352E+00 0.  1.
       -3    1    3    3    0  502 -0.35336191841E+03  0.12014865993E+04 -0.64308497146E+03  0.14078327260E+04  0.10100000352E+00 0. -1.
</event>
<event>
 5   0  0.7600052E-06  0.2669278E+04  0.7818609E-02  0.8345043E-01
       -1   -1    0    0    0  501  0.00000000000E+00  0.00000000000E+00  0.95450999589E+03  0.95450999590E+03  0.50400001928E-02 0.  1.
        1   -1    0    0  501    0  0.00000000000E+00  0.00000000000E+00 -0.18661523274E+04  0.18661523274E+04  0.50400001928E-02 0. -1.
    10030    2    1    2    0    0  0.00000000000E+00  0.00000000000E+00 -0.91164233154E+03  0.28206623233E+04  0.26692778427E+04 0.  0.
        5    1    3    3  502    0  0.42557484308E+03  0.17848472699E+03 -0.17791491190E+04  0.18380327588E+04  0.46999998093E+01 0. -1.
       -5    1    3    3    0  502 -0.42557484308E+03 -0.17848472699E+03  0.86750678745E+03  0.98262956454E+03  0.46999998093E+01 0.  1.
</event>
<event>
 5   0  0.1931119E-05  0.2694876E+04  0.7818609E-02  0.8336669E-01
       -2   -1    0    0    0  501  0.00000000000E+00  0.00000000000E+00  0.90453104005E+03  0.90453104005E+03  0.25500000920E-02 0.  1.
        2   -1    0    0  501    0  0.00000000000E+00  0.00000000000E+00 -0.20072158305E+04  0.20072158305E+04  0.25500000920E-02 0. -1.
    10030    2    1    2    0    0  0.00000000000E+00  0.00000000000E+00 -0.11026847905E+04  0.29117468706E+04  0.26948758953E+04 0.  0.
        3    1    3    3  502    0  0.11328848695E+04  0.75467342872E+02 -0.13353130970E+04  0.17527648230E+04  0.10100000352E+00 0. -1.
       -3    1    3    3    0  502 -0.11328848695E+04 -0.75467342872E+02  0.23262830656E+03  0.11589820476E+04  0.10100000352E+00 0.  1.
</event>
<event>
 5   0  0.1878160E-05  0.2754255E+04  0.7818609E-02  0.8317613E-01
        2   -1    0    0  501    0  0.00000000000E+00  0.00000000000E+00  0.17654825750E+04  0.17654825750E+04  0.25500000920E-02 0.  1.
       -2   -1    0    0    0  501  0.00000000000E+00  0.00000000000E+00 -0.10741995674E+04  0.10741995674E+04  0.25500000920E-02 0. -1.
    10030    2    1    2    0    0  0.00000000000E+00  0.00000000000E+00  0.69128300762E+03  0.28396821424E+04  0.27542553391E+04 0.  0.
        1    1    3    3  502    0 -0.91337280956E+03  0.10302803227E+04  0.31734605613E+03  0.14129529192E+04  0.50400001928E-02 0.  1.
       -1    1    3    3    0  502  0.91337280956E+03 -0.10302803227E+04  0.37393695149E+03  0.14267292232E+04  0.50400001928E-02 0. -1.
</event>
<event>
 5   0  0.7600052E-06  0.2721021E+04  0.7818609E-02  0.8328217E-01
       -1   -1    0    0    0  501  0.00000000000E+00  0.00000000000E+00  0.84845543542E+03  0.84845543543E+03  0.50400001928E-02 0. -1.
        1   -1    0    0  501    0  0.00000000000E+00  0.00000000000E+00 -0.21815978933E+04  0.21815978933E+04  0.50400001928E-02 0.  1.
    10030    2    1    2    0    0  0.00000000000E+00  0.00000000000E+00 -0.13331424578E+04  0.30300533287E+04  0.27210208308E+04 0.  0.
        5    1    3    3  502    0  0.12690426636E+04  0.12306114573E+03 -0.13794312990E+03  0.12824444334E+04  0.46999998093E+01 0. -1.
       -5    1    3    3    0  502 -0.12690426636E+04 -0.12306114573E+03 -0.11951993279E+04  0.17476088953E+04  0.46999998093E+01 0.  1.
</event>
<event>
 5   0  0.6804685E-06  0.2715888E+04  0.7818609E-02  0.8329868E-01
        1   -1    0    0  501    0  0.00000000000E+00  0.00000000000E+00  0.15076540569E+04  0.15076540569E+04  0.50400001928E-02 0. -1.
       -1   -1    0    0    0  501  0.00000000000E+00  0.00000000000E+00 -0.12231000347E+04  0.12231000347E+04  0.50400001928E-02 0.  1.
    10030    2    1    2    0    0  0.00000000000E+00  0.00000000000E+00  0.28455402223E+03  0.27307540916E+04  0.27158878690E+04 0.  0.
        2    1    3    3  502    0 -0.74548132366E+02 -0.14172573802E+03  0.14981270633E+04  0.15066613112E+04  0.25500000920E-02 0. -1.
       -2    1    3    3    0  502  0.74548132366E+02  0.14172573802E+03 -0.12135730411E+04  0.12240927804E+04  0.25500000920E-02 0.  1.
</event>
<event>
 5   0  0.1788003E-05  0.2704203E+04  0.7818609E-02  0.8333643E-01
        2   -1    0    0  501    0  0.00000000000E+00  0.00000000000E+00  0.16304782441E+04  0.16304782441E+04  0.25500000920E-02 0. -1.
       -2   -1    0    0    0  501  0.00000000000E+00  0.00000000000E+00 -0.11212529026E+04  0.11212529026E+04  0.25500000920E-02 0.  1.
    10030    2    1    2    0    0  0.00000000000E+00  0.00000000000E+00  0.50922534149E+03  0.27517311468E+04  0.27042029982E+04 0.  0.
        2    1    3    3  502    0  0.13283929612E+03 -0.72836474295E+03  0.14058757474E+04  0.15889141243E+04  0.25500000920E-02 0. -1.
       -2    1    3    3    0  502 -0.13283929612E+03  0.72836474295E+03 -0.89665040588E+03  0.11628170225E+04  0.25500000920E-02 0.  1.
</event>
<event>
 5   0  0.1788003E-05  0.2692881E+04  0.7818609E-02  0.8337319E-01
       -2   -1    0    0    0  501  0.00000000000E+00  0.00000000000E+00  0.14790172825E+04  0.14790172825E+04  0.25500000920E-02 0. -1.
        2   -1    0    0  501    0  0.00000000000E+00  0.00000000000E+00 -0.12257475551E+04  0.12257475551E+04  0.25500000920E-02 0.  1.
    10030    2    1    2    0    0  0.00000000000E+00  0.00000000000E+00  0.25326972740E+03  0.27047648376E+04  0.26928808499E+04 0.  0.
        2    1    3    3  502    0  0.77858927832E+03 -0.72896199143E+03  0.95203694964E+03  0.14296717115E+04  0.25500000920E-02 0. -1.
       -2    1    3    3    0  502 -0.77858927832E+03  0.72896199143E+03 -0.69876722223E+03  0.12750931261E+04  0.25500000920E-02 0.  1.
</event>
<event>
 5   0  0.7351590E-06  0.2703599E+04  0.7818609E-02  0.8333838E-01
        1   -1    0    0  501    0  0.00000000000E+00  0.00000000000E+00  0.16345503145E+04  0.16345503146E+04  0.50400001928E-02 0.  1.
       -1   -1    0    0    0  501  0.00000000000E+00  0.00000000000E+00 -0.11179602806E+04  0.11179602807E+04  0.50400001928E-02 0. -1.
    10030    2    1    2    0    0  0.00000000000E+00  0.00000000000E+00  0.51659003390E+03  0.27525105952E+04  0.27035993256E+04 0.  0.
        3    1    3    3  502    0  0.27875656668E+03 -0.32817883841E+02  0.16045565393E+04  0.16289210954E+04  0.10100000352E+00 0.  1.
       -3    1    3    3    0  502 -0.27875656668E+03  0.32817883841E+02 -0.10879665054E+04  0.11235894998E+04  0.10100000352E+00 0. -1.
</event>
<event>
 5   0  0.6804685E-06  0.2707579E+04  0.7818609E-02  0.8332550E-01
       -1   -1    0    0    0  501  0.00000000000E+00  0.00000000000E+00  0.12461140662E+04  0.12461140662E+04  0.50400001928E-02 0.  1.
        1   -1    0    0  501    0  0.00000000000E+00  0.00000000000E+00 -0.14707686844E+04  0.14707686844E+04  0.50400001928E-02 0. -1.
    10030    2    1    2    0    0  0.00000000000E+00  0.00000000000E+00 -0.22465461817E+03  0.27168827506E+04  0.27075786568E+04 0.  0.
        2    1    3    3  502    0 -0.44708014531E+03 -0.10945834604E+04 -0.77395028386E+03  0.14131499036E+04  0.25500000920E-02 0. -1.
       -2    1    3    3    0  502  0.44708014531E+03  0.10945834604E+04  0.54929566569E+03  0.13037328470E+04  0.25500000920E-02 0.  1.
</event>
<event>
 5   0  0.1878160E-05  0.2666491E+04  0.7818609E-02  0.8345960E-01
        2   -1    0    0  501    0  0.00000000000E+00  0.00000000000E+00  0.12914679245E+04  0.12914679245E+04  0.25500000920E-02 0. -1.
       -2   -1    0    0    0  501  0.00000000000E+00  0.00000000000E+00 -0.13763742766E+04  0.13763742766E+04  0.25500000920E-02 0.  1.
    10030    2    1    2    0    0  0.00000000000E+00  0.00000000000E+00 -0.84906352157E+02  0.26678422011E+04  0.26664907503E+04 0.  0.
        1    1    3    3  502    0  0.13086873700E+04 -0.25285710706E+03 -0.73191398650E+02  0.13348993707E+04  0.50400001928E-02 0.  1.
       -1    1    3    3    0  502 -0.13086873700E+04  0.25285710706E+03 -0.11714953507E+02  0.13329428304E+04  0.50400001928E-02 0. -1.
</event>
<event>
 5   0  0.7754912E-06  0.2670091E+04  0.7818609E-02  0.8344775E-01
       -1   -1    0    0    0  501  0.00000000000E+00  0.00000000000E+00  0.15496088270E+04  0.15496088270E+04  0.50400001928E-02 0. -1.
        1   -1    0    0  501    0  0.00000000000E+00  0.00000000000E+00 -0.11501914046E+04  0.11501914046E+04  0.50400001928E-02 0.  1.
    10030    2    1    2    0    0  0.00000000000E+00  0.00000000000E+00  0.39941742241E+03  0.26998002316E+04  0.26700911994E+04 0.  0.
        4    1    3    3  502    0  0.62796716375E+02 -0.68885414469E+03 -0.95487287431E+03  0.11790874773E+04  0.12699999809E+01 0.  1.
       -4    1    3    3    0  502 -0.62796716375E+02  0.68885414469E+03  0.13542902967E+04  0.15207127542E+04  0.12699999809E+01 0. -1.
</event>
<event>
 5   0  0.1878160E-05  0.2691848E+04  0.7818609E-02  0.8337655E-01
       -2   -1    0    0    0  501  0.00000000000E+00  0.00000000000E+00  0.91547585071E+03  0.91547585071E+03  0.25500000920E-02 0.  1.
        2   -1    0    0  501    0  0.00000000000E+00  0.00000000000E+00 -0.19787654150E+04  0.19787654150E+04  0.25500000920E-02 0. -1.
    10030    2    1    2    0    0  0.00000000000E+00  0.00000000000E+00 -0.10632895643E+04  0.28942412657E+04  0.26918483996E+04 0.  0.
        1    1    3    3  502    0 -0.97698195011E+03  0.72282818692E+03 -0.11535248305E+04  0.16755876143E+04  0.50400001928E-02 0. -1.
       -1    1    3    3    0  502  0.97698195011E+03 -0.72282818692E+03  0.90235266261E+02  0.12186536513E+04  0.50400001928E-02 0.  1.
</event>
<event>
 5   0  0.7348964E-06  0.2680353E+04  0.7818609E-02  0.8341408E-01
       -1   -1    0    0    0  501  0.00000000000E+00  0.00000000000E+00  0.10669573427E+04  0.10669573427E+04  0.50400001928E-02 0. -1.
        1   -1    0    0  501    0  0.00000000000E+00  0.00000000000E+00 -0.16833594303E+04  0.16833594303E+04  0.50400001928E-02 0.  1.
    10030    2    1    2    0    0  0.00000000000E+00  0.00000000000E+00 -0.61640208764E+03  0.27503167730E+04  0.26803527414E+04 0.  0.
        1    1    3    3  502    0  0.97483848002E+03 -0.31699706063E+03  0.57762651900E+03  0.11766263613E+04  0.50400001928E-02 0. -1.
       -1    1    3    3    0  502 -0.97483848002E+03  0.31699706063E+03 -0.11940286066E+04  0.15736904118E+04  0.50400001928E-02 0.  1.
</event>
<event>
 5   0  0.1881699E-05  0.2840450E+04  0.7818609E-02  0.8290819E-01
       -2   -1    0    0    0  501  0.00000000000E+00  0.00000000000E+00  0.23241179147E+04  0.23241179147E+04  0.25500000920E-02 0. -1.
        2   -1    0    0  501    0  0.00000000000E+00  0.00000000000E+00 -0.86787275823E+03  0.86787275823E+03  0.25500000920E-02 0.  1.
    10030    2    1    2    0    0  0.00000000000E+00  0.00000000000E+00  0.14562451565E+04  0.31919906729E+04  0.28404497004E+04 0.  0.
        4    1    3    3  502    0  0.93344965345E+03 -0.17262545842E+03  0.19152270506E+04  0.21375743432E+04  0.12699999809E+01 0. -1.
       -4    1    3    3    0  502 -0.93344965345E+03  0.17262545842E+03 -0.45898189412E+03  0.10544163298E+04  0.12699999809E+01 0.  1.
</event>
<event>
 5   0  0.1931119E-05  0.2743035E+04  0.7818609E-02  0.8321175E-01
       -2   -1    0    0    0  501  0.00000000000E+00  0.00000000000E+00  0.10651186699E+04  0.10651186699E+04  0.25500000920E-02 0.  1.
        2   -1    0    0  501    0  0.00000000000E+00  0.00000000000E+00 -0.17660566960E+04  0.17660566960E+04  0.25500000920E-02 0. -1.
    10030    2    1    2    0    0  0.00000000000E+00  0.00000000000E+00 -0.70093802605E+03  0.28311753659E+04  0.27430347858E+04 0.  0.
        3    1    3    3  502    0 -0.31594752732E+03  0.24147962247E+03 -0.17052484753E+04  0.17510018906E+04  0.10100000352E+00 0. -1.
       -3    1    3    3    0  502  0.31594752732E+03 -0.24147962247E+03  0.10043104493E+04  0.10801734753E+04  0.10100000352E+00 0.  1.
</event>
<event>
 5   0  0.1788003E-05  0.2692270E+04  0.7818609E-02  0.8337517E-01
       -2   -1    0    0    0  501  0.00000000000E+00  0.00000000000E+00  0.12400308566E+04  0.12400308566E+04  0.25500000920E-02 0. -1.
        2   -1    0    0  501    0  0.00000000000E+00  0.00000000000E+00 -0.14613183658E+04  0.14613183658E+04  0.25500000920E-02 0.  1.
    10030    2    1    2    0    0  0.00000000000E+00  0.00000000000E+00 -0.22128750925E+03  0.27013492224E+04  0.26922703170E+04 0.  0.
        2    1    3    3  502    0 -0.66122832305E+03 -0.67048560386E+03  0.85452835579E+03  0.12716102198E+04  0.25500000920E-02 0. -1.
       -2    1    3    3    0  502  0.66122832305E+03  0.67048560386E+03 -0.10758158650E+04  0.14297390026E+04  0.25500000920E-02 0.  1.
</event>
<event>
 5   0  0.1878160E-05  0.2689385E+04  0.7818609E-02  0.8338457E-01
        2   -1    0    0  501    0  0.00000000000E+00  0.00000000000E+00  0.10097726538E+04  0.10097726538E+04  0.25500000920E-02 0.  1.
       -2   -1    0    0    0  501  0.00000000000E+00  0.00000000000E+00 -0.17906979793E+04  0.17906979793E+04  0.25500000920E-02 0. -1.
    10030    2    1    2    0    0  0.00000000000E+00  0.00000000000E+00 -0.78092532548E+03  0.28004706330E+04  0.26893849488E+04 0.  0.
        1    1    3    3  502    0 -0.11601363559E+04 -0.67599294500E+03 -0.46637820505E+03  0.14214047474E+04  0.50400001928E-02 0.  1.
       -1    1    3    3    0  502  0.11601363559E+04  0.67599294500E+03 -0.31454712042E+03  0.13790658856E+04  0.50400001928E-02 0. -1.
</event>
<event>
 5   0  0.7754912E-06  0.2640128E+04  0.7818609E-02  0.8354697E-01
        1   -1    0    0  501    0  0.00000000000E+00  0.00000000000E+00  0.13974714265E+04  0.13974714265E+04  0.50400001928E-02 0. -1.
       -1   -1    0    0    0  501  0.00000000000E+00  0.00000000000E+00 -0.12469443172E+04  0.12469443172E+04  0.50400001928E-02 0.  1.
    10030    2    1    2    0    0  0.00000000000E+00  0.00000000000E+00  0.15052710933E+03  0.26444157437E+04  0.26401280679E+04 0.  0.
        4    1    3    3  502    0 -0.38590950835E+03 -0.10912862817E+04  0.71090867869E+03  0.13583904666E+04  0.12699999809E+01 0. -1.
       -4    1    3    3    0  502  0.38590950835E+03  0.10912862817E+04 -0.56038156936E+03  0.12860252771E+04  0.12699999809E+01 0.  1.
</event>
<event>
 5   0  0.1788003E-05  0.2638092E+04  0.7818609E-02  0.8355376E-01
        2   -1    0    0  501    0  0.00000000000E+00  0.00000000000E+00  0.13135614548E+04  0.13135614549E+04  0.25500000920E-02 0. -1.
       -2   -1    0    0    0  501  0.00000000000E+00  0.00000000000E+00 -0.13245530218E+04  0.13245530218E+04  0.25500000920E-02 0.  1.
    10030    2    1    2    0    0  0.00000000000E+00  0.00000000000E+00 -0.10991566900E+02  0.26381144766E+04  0.26380915786E+04 0.  0.
        2    1    3    3  502    0  0.12003014852E+04 -0.37155858250E+03  0.39588328357E+03  0.13173849133E+04  0.25500000920E-02 0. -1.
       -2    1    3    3    0  502 -0.12003014852E+04  0.37155858250E+03 -0.40687485047E+03  0.13207295633E+04  0.25500000920E-02 0.  1.
</event>
<event>
 5   0  0.7600052E-06  0.2683245E+04  0.7818609E-02  0.8340462E-01
       -1   -1    0    0    0  501  0.00000000000E+00  0.00000000000E+00  0.82807959361E+03  0.82807959363E+03  0.50400001928E-02 0.  1.
        1   -1    0    0  501    0  0.00000000000E+00  0.00000000000E+00 -0.21736442056E+04  0.21736442056E+04  0.50400001928E-02 0. -1.
    10030    2    1    2    0    0  0.00000000000E+00  0.00000000000E+00 -0.13455646120E+04  0.30017237993E+04  0.26832446109E+04 0.  0.
        5    1    3    3  502    0  0.85256238599E+03 -0.49008954050E+03 -0.16937244758E+04  0.19585134847E+04  0.46999998093E+01 0. -1.
       -5    1    3    3    0  502 -0.85256238599E+03  0.49008954050E+03  0.34815986379E+03  0.10432103146E+04  0.46999998093E+01 0.  1.
</event>
<event>
 5   0  0.7754912E-06  0.2688394E+04  0.7818609E-02  0.8338781E-01
        1   -1    0    0  501    0  0.00000000000E+00  0.00000000000E+00  0.16067952244E+04  0.16067952244E+04  0.50400001928E-02 0. -1.
       -1   -1    0    0    0  501  0.00000000000E+00  0.00000000000E+00 -0.11245152393E+04  0.11245152393E+04  0.50400001928E-02 0.  1.
    10030    2    1    2    0    0  0.00000000000E+00  0.00000000000E+00  0.48227998507E+03  0.27313104637E+04  0.26883941052E+04 0.  0.
        4    1    3    3  502    0 -0.29638869528E+03  0.76624005274E+03 -0.83974881046E+03  0.11747977505E+04  0.12699999809E+01 0.  1.
       -4    1    3    3    0  502  0.29638869528E+03 -0.76624005274E+03  0.13220287955E+04  0.15565127132E+04  0.12699999809E+01 0. -1.
</event>
<event>
 5   0  0.6804685E-06  0.1999539E+04  0.7818609E-02  0.8606836E-01
       -1   -1    0    0    0  501  0.00000000000E+00  0.00000000000E+00  0.15455162727E+04  0.15455162727E+04  0.50400001928E-02 0.  1.
        1   -1    0    0  501    0  0.00000000000E+00  0.00000000000E+00 -0.64673505548E+03  0.64673505550E+03  0.50400001928E-02 0. -1.
    10030    2    1    2    0    0  0.00000000000E+00  0.00000000000E+00  0.89878121720E+03  0.21922513282E+04  0.19995394994E+04 0.  0.
        2    1    3    3  502    0  0.51551926290E+03 -0.27283912695E+03  0.13396457502E+04  0.14611132864E+04  0.25500000920E-02 0.  1.
       -2    1    3    3    0  502 -0.51551926290E+03  0.27283912695E+03 -0.44086453304E+03  0.73113804177E+03  0.25500000920E-02 0. -1.
</event>
<event>
 5   0  0.7600052E-06  0.2711376E+04  0.7818609E-02  0.8331323E-01
       -1   -1    0    0    0  501  0.00000000000E+00  0.00000000000E+00  0.75182901372E+03  0.75182901374E+03  0.50400001928E-02 0. -1.
        1   -1    0    0  501    0  0.00000000000E+00  0.00000000000E+00 -0.24445592603E+04  0.24445592603E+04  0.50400001928E-02 0.  1.
    10030    2    1    2    0    0  0.00000000000E+00  0.00000000000E+00 -0.16927302466E+04  0.31963882741E+04  0.27113764606E+04 0.  0.
        5    1    3    3  502    0  0.26215621748E+03 -0.10053548787E+04  0.18027932860E+03  0.10545079615E+04  0.46999998093E+01 0. -1.
       -5    1    3    3    0  502 -0.26215621748E+03  0.10053548787E+04 -0.18730095752E+04  0.21418803126E+04  0.46999998093E+01 0.  1.
</event>
<event>
 5   0  0.1931119E-05  0.2685731E+04  0.7818609E-02  0.8339650E-01
       -2   -1    0    0    0  501  0.00000000000E+00  0.00000000000E+00  0.16775845571E+04  0.16775845571E+04  0.25500000920E-02 0.  1.
        2   -1    0    0  501    0  0.00000000000E+00  0.00000000000E+00 -0.10749309262E+04  0.10749309262E+04  0.25500000920E-02 0. -1.
    10030    2    1    2    0    0  0.00000000000E+00  0.00000000000E+00  0.60265363091E+03  0.27525154834E+04  0.26857308293E+04 0.  0.
        3    1    3    3  502    0  0.11289093633E+04  0.62099084880E+03 -0.86530007665E+02  0.12913378478E+04  0.10100000352E+00 0. -1.
       -3    1    3    3    0  502 -0.11289093633E+04 -0.62099084880E+03  0.68918363857E+03  0.14611776355E+04  0.10100000352E+00 0.  1.
</event>
<event>
 5   0  0.1881699E-05  0.2664821E+04  0.7818609E-02  0.8346510E-01
        2   -1    0    0  501    0  0.00000000000E+00  0.00000000000E+00  0.14888528726E+04  0.14888528726E+04  0.25500000920E-02 0. -1.
       -2   -1    0    0    0  501  0.00000000000E+00  0.00000000000E+00 -0.11924063304E+04  0.11924063304E+04  0.25500000920E-02 0.  1.
    10030    2    1    2    0    0  0.00000000000E+00  0.00000000000E+00  0.29644654217E+03  0.26812592030E+04  0.26648208873E+04 0.  0.
        4    1    3    3  502    0 -0.82393939683E+02 -0.11092650478E+04  0.88627267163E+03  0.14222301392E+04  0.12699999809E+01 0. -1.
       -4    1    3    3    0  502  0.82393939683E+02  0.11092650478E+04 -0.58982612947E+03  0.12590290638E+04  0.12699999809E+01 0.  1.
</event>
<event>
 5   0  0.1826851E-05  0.2719591E+04  0.7818609E-02  0.8328676E-01
       -2   -1    0    0    0  501  0.00000000000E+00  0.00000000000E+00  0.21046527485E+04  0.21046527485E+04  0.25500000920E-02 0.  1.
        2   -1    0    0  501    0  0.00000000000E+00  0.00000000000E+00 -0.87855075712E+03  0.87855075712E+03  0.25500000920E-02 0. -1.
    10030    2    1    2    0    0  0.00000000000E+00  0.00000000000E+00  0.12261019914E+04  0.29832035057E+04  0.27195913411E+04 0.  0.
        5    1    3    3  502    0 -0.18254342520E+03  0.11828470614E+04  0.13210371089E+04  0.17825853152E+04  0.46999998093E+01 0.  1.
       -5    1    3    3    0  502  0.18254342520E+03 -0.11828470614E+04 -0.94935117504E+02  0.12006181905E+04  0.46999998093E+01 0. -1.
</event>
<event>
 5   0  0.6804685E-06  0.2714675E+04  0.7818609E-02  0.8330259E-01
        1   -1    0    0  501    0  0.00000000000E+00  0.00000000000E+00  0.15735601889E+04  0.15735601890E+04  0.50400001928E-02 0.  1.
       -1   -1    0    0    0  501  0.00000000000E+00  0.00000000000E+00 -0.11708263168E+04  0.11708263169E+04  0.50400001928E-02 0. -1.
    10030    2    1    2    0    0  0.00000000000E+00  0.00000000000E+00  0.40273387210E+03  0.27443865058E+04  0.27146754358E+04 0.  0.
        2    1    3    3  502    0  0.54260844097E+03 -0.11197859403E+04 -0.34680486511E+03  0.12917500094E+04  0.25500000920E-02 0.  1.
       -2    1    3    3    0  502 -0.54260844097E+03  0.11197859403E+04  0.74953873722E+03  0.14526364964E+04  0.25500000920E-02 0. -1.
</event>
<event>
 5   0  0.6804685E-06  0.2660442E+04  0.7818609E-02  0.8347955E-01
       -1   -1    0    0    0  501  0.00000000000E+00  0.00000000000E+00  0.64794404176E+03  0.64794404178E+03  0.50400001928E-02 0.  1.
        1   -1    0    0  501    0  0.00000000000E+00  0.00000000000E+00 -0.27309270632E+04  0.27309270632E+04  0.50400001928E-02 0. -1.
    10030    2    1    2    0    0  0.00000000000E+00  0.00000000000E+00 -0.20829830214E+04  0.33788711050E+04  0.26604420077E+04 0.  0.
        2    1    3    3  502    0 -0.40675985277E+03  0.33854413673E+03 -0.25914738184E+04  0.26449578942E+04  0.25500000920E-02 0. -1.
       -2    1    3    3    0  502  0.40675985277E+03 -0.33854413673E+03  0.50849079700E+03  0.73391321080E+03  0.25500000920E-02 0.  1.
</event>
<event>
 5   0  0.7754912E-06  0.2706964E+04  0.7818609E-02  0.8332749E-01
       -1   -1    0    0    0  501  0.00000000000E+00  0.00000000000E+00  0.13941284077E+04  0.13941284077E+04  0.50400001928E-02 0.  1.
        1   -1    0    0  501    0  0.00000000000E+00  0.00000000000E+00 -0.13140205216E+04  0.13140205216E+04  0.50400001928E-02 0. -1.
    10030    2    1    2    0    0  0.00000000000E+00  0.00000000000E+00  0.80107886042E+02  0.27081489293E+04  0.27069638619E+04 0.  0.
        4    1    3    3  502    0 -0.83035782703E+03 -0.47063557277E+03  0.10001197048E+04  0.13824735079E+04  0.12699999809E+01 0.  1.
       -4    1    3    3    0  502  0.83035782703E+03  0.47063557277E+03 -0.92001181876E+03  0.13256754214E+04  0.12699999809E+01 0. -1.
</event>
<event>
 5   0  0.7351590E-06  0.2359271E+04  0.7818609E-02  0.8454911E-01
        1   -1    0    0  501    0  0.00000000000E+00  0.00000000000E+00  0.17057810406E+04  0.17057810406E+04  0.50400001928E-02 0.  1.
       -1   -1    0    0    0  501  0.00000000000E+00  0.00000000000E+00 -0.81577874577E+03  0.81577874578E+03  0.50400001928E-02 0. -1.
    10030    2    1    2    0    0  0.00000000000E+00  0.00000000000E+00  0.89000229480E+03  0.25215597864E+04  0.23592710042E+04 0.  0.
        3    1    3    3  502    0 -0.17115186335E+03  0.28546497323E+03  0.16545537414E+04  0.16877000044E+04  0.10100000352E+00 0.  1.
       -3    1    3    3    0  502  0.17115186335E+03 -0.28546497323E+03 -0.76455144663E+03  0.83385978199E+03  0.10100000352E+00 0. -1.
</event>
<event>
 5   0  0.1881699E-05  0.2677848E+04  0.7818609E-02  0.8342229E-01
       -2   -1    0    0    0  501  0.00000000000E+00  0.00000000000E+00  0.15832823344E+04  0.15832823344E+04  0.25500000920E-02 0.  1.
        2   -1    0    0  501    0  0.00000000000E+00  0.00000000000E+00 -0.11322789199E+04  0.11322789199E+04  0.25500000920E-02 0. -1.
    10030    2    1    2    0    0  0.00000000000E+00  0.00000000000E+00  0.45100341452E+03  0.27155612543E+04  0.26778478011E+04 0.  0.
        4    1    3    3  502    0 -0.34930537120E+03 -0.36891493157E+03  0.14817392078E+04  0.15664179397E+04  0.12699999809E+01 0.  1.
       -4    1    3    3    0  502  0.34930537120E+03  0.36891493157E+03 -0.10307357933E+04  0.11491433146E+04  0.12699999809E+01 0. -1.
</event>
<event>
 5   0  0.1826851E-05  0.2640897E+04  0.7818609E-02  0.8354441E-01
       -2   -1    0    0    0  501  0.00000000000E+00  0.00000000000E+00  0.98553419483E+03  0.98553419484E+03  0.25500000920E-02 0. -1.
        2   -1    0    0  501    0  0.00000000000E+00  0.00000000000E+00 -0.17691763227E+04  0.17691763227E+04  0.25500000920E-02 0.  1.
    10030    2    1    2    0    0  0.00000000000E+00  0.00000000000E+00 -0.78364212783E+03  0.27547105175E+04  0.26408966376E+04 0.  0.
        5    1    3    3  502    0  0.44711363929E+03  0.11052747217E+04  0.20010193521E+03  0.12089688546E+04  0.46999998093E+01 0. -1.
       -5    1    3    3    0  502 -0.44711363929E+03 -0.11052747217E+04 -0.98374406304E+03  0.15457416629E+04  0.46999998093E+01 0.  1.
</event>
<event>
 5   0  0.7600052E-06  0.2688339E+04  0.7818609E-02  0.8338799E-01
        1   -1    0    0  501    0  0.00000000000E+00  0.00000000000E+00  0.21758298993E+04  0.21758298994E+04  0.50400001928E-02 0. -1.
       -1   -1    0    0    0  501  0.00000000000E+00  0.00000000000E+00 -0.83039180481E+03  0.83039180483E+03  0.50400001928E-02 0.  1.
    10030    2    1    2    0    0  0.00000000000E+00  0.00000000000E+00  0.13454380945E+04  0.30062217042E+04  0.26883387563E+04 0.  0.
        5    1    3    3  502    0 -0.59213360515E+03 -0.86645718884E+02 -0.67319454914E+03  0.90074562332E+03  0.46999998093E+01 0.  1.
       -5    1    3    3    0  502  0.59213360515E+03  0.86645718884E+02  0.20186326437E+04  0.21054760809E+04  0.46999998093E+01 0. -1.
</event>
<event>
 5   0  0.1878160E-05  0.3115366E+04  0.7818609E-02  0.8211534E-01
       -2   -1    0    0    0  501  0.00000000000E+00  0.00000000000E+00  0.12702581254E+04  0.12702581254E+04  0.25500000920E-02 0. -1.
        2   -1    0    0  501    0  0.00000000000E+00  0.00000000000E+00 -0.19101439684E+04  0.19101439684E+04  0.25500000920E-02 0.  1.
    10030    2    1    2    0    0  0.00000000000E+00  0.00000000000E+00 -0.63988584301E+03  0.31804020939E+04  0.31153657228E+04 0.  0.
        1    1    3    3  502    0 -0.39415931634E+03 -0.78033425453E+03 -0.16360784872E+04  0.18550029465E+04  0.50400001928E-02 0.  1.
       -1    1    3    3    0  502  0.39415931634E+03  0.78033425453E+03  0.99619264417E+03  0.13253991473E+04  0.50400001928E-02 0. -1.
</event>
<event>
 5   0  0.1788003E-05  0.2587201E+04  0.7818609E-02  0.8372562E-01
       -2   -1    0    0    0  501  0.00000000000E+00  0.00000000000E+00  0.11217226388E+04  0.11217226389E+04  0.25500000920E-02 0.  1.
        2   -1    0    0  501    0  0.00000000000E+00  0.00000000000E+00 -0.14918144061E+04  0.14918144061E+04  0.25500000920E-02 0. -1.
    10030    2    1    2    0    0  0.00000000000E+00  0.00000000000E+00 -0.37009176722E+03  0.26135370449E+04  0.25872007980E+04 0.  0.
        2    1    3    3  502    0  0.12798498572E+04 -0.15707725244E+03 -0.80488300540E+02  0.12919625717E+04  0.25500000920E-02 0. -1.
       -2    1    3    3    0  502 -0.12798498572E+04  0.15707725244E+03 -0.28960346668E+03  0.13215744732E+04  0.25500000920E-02 0.  1.
</event>
<event>
 5   0  0.1788003E-05  0.2594468E+04  0.7818609E-02  0.8370083E-01
       -2   -1    0    0    0  501  0.00000000000E+00  0.00000000000E+00  0.10541924775E+04  0.10541924776E+04  0.25500000920E-02 0.  1.
        2   -1    0    0  501    0  0.00000000000E+00  0.00000000000E+00 -0.15963083720E+04  0.15963083720E+04  0.25500000920E-02 0. -1.
    10030    2    1    2    0    0  0.00000000000E+00  0.00000000000E+00 -0.54211589450E+03  0.26505008496E+04  0.25944681749E+04 0.  0.
        2    1    3    3  502    0  0.23627074032E+03  0.65924648522E+03  0.84448969526E+03  0.10970836962E+04  0.25500000920E-02 0.  1.
       -2    1    3    3    0  502 -0.23627074032E+03 -0.65924648522E+03 -0.13866055898E+04  0.15534171534E+04  0.25500000920E-02 0. -1.
</event>
<event>
 5   0  0.7754912E-06  0.2794694E+04  0.7818609E-02  0.8304918E-01
        1   -1    0    0  501    0  0.00000000000E+00  0.00000000000E+00  0.24407114467E+04  0.24407114467E+04  0.50400001928E-02 0.  1.
       -1   -1    0    0    0  501  0.00000000000E+00  0.00000000000E+00 -0.80000391475E+03  0.80000391477E+03  0.50400001928E-02 0. -1.
    10030    2    1    2    0    0  0.00000000000E+00  0.00000000000E+00  0.16407075320E+04  0.32407153615E+04  0.27946940528E+04 0.  0.
        4    1    3    3  502    0 -0.78603076857E+03  0.30178974178E+03  0.21135269677E+04  0.22750646746E+04  0.12699999809E+01 0.  1.
       -4    1    3    3    0  502  0.78603076857E+03 -0.30178974178E+03 -0.47281943575E+03  0.96565068690E+03  0.12699999809E+01 0. -1.
</event>
<event>
 5   0  0.7348964E-06  0.2833876E+04  0.7818609E-02  0.8292828E-01
       -1   -1    0    0    0  501  0.00000000000E+00  0.00000000000E+00  0.15213917144E+04  0.15213917144E+04  0.50400001928E-02 0. -1.
        1   -1    0    0  501    0  0.00000000000E+00  0.00000000000E+00 -0.13196558947E+04  0.13196558947E+04  0.50400001928E-02 0.  1.
    10030    2    1    2    0    0  0.00000000000E+00  0.00000000000E+00  0.20173581966E+03  0.28410476091E+04  0.28338761752E+04 0.  0.
        1    1    3    3  502    0 -0.96976671209E+03 -0.46313401452E+03 -0.82492606540E+03  0.13547854460E+04  0.50400001928E-02 0.  1.
       -1    1    3    3    0  502  0.96976671209E+03  0.46313401452E+03  0.10266618851E+04  0.14862621631E+04  0.50400001928E-02 0. -1.
</event>
<event>
 5   0  0.1826851E-05  0.2665905E+04  0.7818609E-02  0.8346153E-01
        2   -1    0    0  501    0  0.00000000000E+00  0.00000000000E+00  0.22390762742E+04  0.22390762742E+04  0.25500000920E-02 0. -1.
       -2   -1    0    0    0  501  0.00000000000E+00  0.00000000000E+00 -0.79352481954E+03  0.79352481954E+03  0.25500000920E-02 0.  1.
    10030    2    1    2    0    0  0.00000000000E+00  0.00000000000E+00  0.14455514547E+04  0.30326010938E+04  0.26659051719E+04 0.  0.
        5    1    3    3  502    0  0.27687415922E+03  0.57478164662E+03  0.20541018994E+04  0.21509044480E+04  0.46999998093E+01 0. -1.
       -5    1    3    3    0  502 -0.27687415922E+03 -0.57478164662E+03 -0.60855044473E+03  0.88169664575E+03  0.46999998093E+01 0.  1.
</event>
<event>
 5   0  0.7600052E-06  0.2669233E+04  0.7818609E-02  0.8345057E-01
       -1   -1    0    0    0  501  0.00000000000E+00  0.00000000000E+00  0.22459283159E+04  0.22459283159E+04  0.50400001928E-02 0.  1.
        1   -1    0    0  501    0  0.00000000000E+00  0.00000000000E+00 -0.79307993052E+03  0.79307993054E+03  0.50400001928E-02 0. -1.
    10030    2    1    2    0    0  0.00000000000E+00  0.00000000000E+00  0.14528483854E+04  0.30390082465E+04  0.26692326034E+04 0.  0.
        5    1    3    3  502    0  0.11415654015E+04  0.81807115186E+02  0.15080536353E+04  0.18931750651E+04  0.46999998093E+01 0.  1.
       -5    1    3    3    0  502 -0.11415654015E+04 -0.81807115186E+02 -0.55205249925E+02  0.11458331814E+04  0.46999998093E+01 0. -1.
</event>
<event>
 5   0  0.1788003E-05  0.2700627E+04  0.7818609E-02  0.8334802E-01
       -2   -1    0    0    0  501  0.00000000000E+00  0.00000000000E+00  0.11116515891E+04  0.11116515891E+04  0.25500000920E-02 0.  1.
        2   -1    0    0  501    0  0.00000000000E+00  0.00000000000E+00 -0.16402136978E+04  0.16402136978E+04  0.25500000920E-02 0. -1.
    10030    2    1    2    0    0  0.00000000000E+00  0.00000000000E+00 -0.52856210873E+03  0.27518652869E+04  0.27006267151E+04 0.  0.
        2    1    3    3  502    0  0.57005409059E+03  0.12098842580E+04 -0.45372391832E+03  0.14123197152E+04  0.25500000920E-02 0.  1.
       -2    1    3    3    0  502 -0.57005409059E+03 -0.12098842580E+04 -0.74838190404E+02  0.13395455717E+04  0.25500000920E-02 0. -1.
</event>
<event>
 5   0  0.1881699E-05  0.2688703E+04  0.7818609E-02  0.8338680E-01
        2   -1    0    0  501    0  0.00000000000E+00  0.00000000000E+00  0.13630216822E+04  0.13630216822E+04  0.25500000920E-02 0. -1.
       -2   -1    0    0    0  501  0.00000000000E+00  0.00000000000E+00 -0.13259374099E+04  0.13259374099E+04  0.25500000920E-02 0.  1.
    10030    2    1    2    0    0  0.00000000000E+00  0.00000000000E+00  0.37084272247E+02  0.26889590921E+04  0.26887033596E+04 0.  0.
        4    1    3    3  502    0  0.13304677548E+04  0.60350809455E+01 -0.17408708016E+03  0.13418229366E+04  0.12699999809E+01 0. -1.
       -4    1    3    3    0  502 -0.13304677548E+04 -0.60350809455E+01  0.21117135240E+03  0.13471361556E+04  0.12699999809E+01 0.  1.
</event>
<event>
 5   0  0.7754912E-06  0.2688097E+04  0.7818609E-02  0.8338877E-01
        1   -1    0    0  501    0  0.00000000000E+00  0.00000000000E+00  0.20703610398E+04  0.20703610398E+04  0.50400001928E-02 0. -1.
       -1   -1    0    0    0  501  0.00000000000E+00  0.00000000000E+00 -0.87253708216E+03  0.87253708217E+03  0.50400001928E-02 0.  1.
    10030    2    1    2    0    0  0.00000000000E+00  0.00000000000E+00  0.11978239576E+04  0.29428981220E+04  0.26880973053E+04 0.  0.
        4    1    3    3  502    0 -0.89921039304E+03 -0.44412471152E+03  0.15785116574E+04  0.18701675742E+04  0.12699999809E+01 0. -1.
       -4    1    3    3    0  502  0.89921039304E+03  0.44412471152E+03 -0.38068769977E+03  0.10727305477E+04  0.12699999809E+01 0.  1.
</event>
<event>
 5   0  0.1826851E-05  0.2754257E+04  0.7818609E-02  0.8317612E-01
       -2   -1    0    0    0  501  0.00000000000E+00  0.00000000000E+00  0.81048989534E+03  0.81048989535E+03  0.25500000920E-02 0.  1.
        2   -1    0    0  501    0  0.00000000000E+00  0.00000000000E+00 -0.23399212303E+04  0.23399212303E+04  0.25500000920E-02 0. -1.
    10030    2    1    2    0    0  0.00000000000E+00  0.00000000000E+00 -0.15294313349E+04  0.31504111256E+04  0.27542567150E+04 0.  0.
        5    1    3    3  502    0 -0.13529482390E+04  0.23027335208E+03 -0.63447090110E+03  0.15119755846E+04  0.46999998093E+01 0. -1.
       -5    1    3    3    0  502  0.13529482390E+04 -0.23027335208E+03 -0.89496043381E+03  0.16384355410E+04  0.46999998093E+01 0.  1.
</event>
<event>
 5   0  0.1931119E-05  0.2664656E+04  0.7818609E-02  0.8346565E-01
        2   -1    0    0  501    0  0.00000000000E+00  0.00000000000E+00  0.66840190644E+03  0.66840190644E+03  0.25500000920E-02 0. -1.
       -2   -1    0    0    0  501  0.00000000000E+00  0.00000000000E+00 -0.26557337504E+04  0.26557337504E+04  0.25500000920E-02 0.  1.
    10030    2    1    2    0    0  0.00000000000E+00  0.00000000000E+00 -0.19873318440E+04  0.33241356568E+04  0.26646557014E+04 0.  0.
        3    1    3    3  502    0  0.39666224381E+03  0.11511670022E+04 -0.16684321545E+04  0.20654762809E+04  0.10100000352E+00 0. -1.
       -3    1    3    3    0  502 -0.39666224381E+03 -0.11511670022E+04 -0.31889968951E+03  0.12586593760E+04  0.10100000352E+00 0.  1.
</event>
<event>
 5   0  0.1881699E-05  0.2468517E+04  0.7818609E-02  0.8414288E-01
        2   -1    0    0  501    0  0.00000000000E+00  0.00000000000E+00  0.11283458498E+04  0.11283458498E+04  0.25500000920E-02 0. -1.
       -2   -1    0    0    0  501  0.00000000000E+00  0.00000000000E+00 -0.13501123160E+04  0.13501123160E+04  0.25500000920E-02 0.  1.
    10030    2    1    2    0    0  0.00000000000E+00  0.00000000000E+00 -0.22176646616E+03  0.24784581659E+04  0.24685166628E+04 0.  0.
        4    1    3    3  502    0 -0.43851236244E+03  0.11377522099E+04 -0.30301438092E+03  0.12564205152E+04  0.12699999809E+01 0.  1.
       -4    1    3    3    0  502  0.43851236244E+03 -0.11377522099E+04  0.81247914756E+02  0.12220376507E+04  0.12699999809E+01 0. -1.
</event>
<event>
 5   0  0.6804685E-06  0.2705034E+04  0.7818609E-02  0.8333374E-01
        1   -1    0    0  501    0  0.00000000000E+00  0.00000000000E+00  0.13005778799E+04  0.13005778799E+04  0.50400001928E-02 0.  1.
       -1   -1    0    0    0  501  0.00000000000E+00  0.00000000000E+00 -0.14065301272E+04  0.14065301272E+04  0.50400001928E-02 0. -1.
    10030    2    1    2    0    0  0.00000000000E+00  0.00000000000E+00 -0.10595224731E+03  0.27071080071E+04  0.27050338045E+04 0.  0.
        2    1    3    3  502    0 -0.27535893916E+03  0.13206186147E+04  0.44288421059E+02  0.13497472116E+04  0.25500000920E-02 0. -1.
       -2    1    3    3    0  502  0.27535893916E+03 -0.13206186147E+04 -0.15024066837E+03  0.13573607956E+04  0.25500000920E-02 0.  1.
</event>
<event>
 5   0  0.1826851E-05  0.2861213E+04  0.7818609E-02  0.8284512E-01
        2   -1    0    0  501    0  0.00000000000E+00  0.00000000000E+00  0.13783616661E+04  0.13783616661E+04  0.25500000920E-02 0.  1.
       -2   -1    0    0    0  501  0.00000000000E+00  0.00000000000E+00 -0.14848321174E+04  0.14848321174E+04  0.25500000920E-02 0. -1.
    10030    2    1    2    0    0  0.00000000000E+00  0.00000000000E+00 -0.10647045130E+03  0.28631937834E+04  0.28612134986E+04 0.  0.
        5    1    3    3  502    0 -0.77599806935E+03  0.48848594552E+03  0.10456240774E+04  0.13907348143E+04  0.46999998093E+01 0.  1.
       -5    1    3    3    0  502  0.77599806935E+03 -0.48848594552E+03 -0.11520945287E+04  0.14724589691E+04  0.46999998093E+01 0. -1.
</event>
<event>
 5   0  0.7600052E-06  0.2672299E+04  0.7818609E-02  0.8344049E-01
       -1   -1    0    0    0  501  0.00000000000E+00  0.00000000000E+00  0.10841115124E+04  0.10841115124E+04  0.50400001928E-02 0. -1.
        1   -1    0    0  501    0  0.00000000000E+00  0.00000000000E+00 -0.16467826566E+04  0.16467826566E+04  0.50400001928E-02 0.  1.
    10030    2    1    2    0    0  0.00000000000E+00  0.00000000000E+00 -0.56267114415E+03  0.27308941690E+04  0.26722994117E+04 0.  0.
        5    1    3    3  502    0  0.10600088681E+04  0.51537153527E+03 -0.92445746979E+03  0.14979553809E+04  0.46999998093E+01 0. -1.
       -5    1    3    3    0  502 -0.10600088681E+04 -0.51537153527E+03  0.36178632565E+03  0.12329387881E+04  0.46999998093E+01 0.  1.
</event>
<event>
 5   0  0.1881699E-05  0.2738164E+04  0.7818609E-02  0.8322727E-01
        2   -1    0    0  501    0  0.00000000000E+00  0.00000000000E+00  0.15471976355E+04  0.15471976355E+04  0.25500000920E-02 0.  1.
       -2   -1    0    0    0  501  0.00000000000E+00  0.00000000000E+00 -0.12114709573E+04  0.12114709573E+04  0.25500000920E-02 0. -1.
    10030    2    1    2    0    0  0.00000000000E+00  0.00000000000E+00  0.33572667816E+03  0.27586685928E+04  0.27381636187E+04 0.  0.
        4    1    3    3  502    0  0.24290960277E+03 -0.10868029596E+04  0.97021755850E+03  0.14769798481E+04  0.12699999809E+01 0.  1.
       -4    1    3    3    0  502 -0.24290960277E+03  0.10868029596E+04 -0.63449088034E+03  0.12816887447E+04  0.12699999809E+01 0. -1.
</event>
<event>
 5   0  0.7348964E-06  0.2733293E+04  0.7818609E-02  0.8324283E-01
        1   -1    0    0  501    0  0.00000000000E+00  0.00000000000E+00  0.23938896409E+04  0.23938896409E+04  0.50400001928E-02 0. -1.
       -1   -1    0    0    0  501  0.00000000000E+00  0.00000000000E+00 -0.78020403288E+03  0.78020403289E+03  0.50400001928E-02 0.  1.
    10030    2    1    2    0    0  0.00000000000E+00  0.00000000000E+00  0.16136856080E+04  0.31740936738E+04  0.27332927777E+04 0.  0.
        1    1    3    3  502    0 -0.12310069963E+04 -0.59317216751E+03  0.78111319940E+03  0.15739660974E+04  0.50400001928E-02 0. -1.
       -1    1    3    3    0  502  0.12310069963E+04  0.59317216751E+03  0.83257240863E+03  0.16001275765E+04  0.50400001928E-02 0.  1.
</event>
<event>
 5   0  0.1826851E-05  0.2718782E+04  0.7818609E-02  0.8328936E-01
        2   -1    0    0  501    0  0.00000000000E+00  0.00000000000E+00  0.17770675251E+04  0.17770675251E+04  0.25500000920E-02 0.  1.
       -2   -1    0    0    0  501  0.00000000000E+00  0.00000000000E+00 -0.10398839061E+04  0.10398839061E+04  0.25500000920E-02 0. -1.
    10030    2    1    2    0    0  0.00000000000E+00  0.00000000000E+00  0.73718361901E+03  0.28169514311E+04  0.27187820209E+04 0.  0.
        5    1    3    3  502    0  0.26805064746E+03 -0.87562754129E+03  0.14095307063E+04  0.16808847797E+04  0.46999998093E+01 0.  1.
       -5    1    3    3    0  502 -0.26805064746E+03  0.87562754129E+03 -0.67234708729E+03  0.11360666514E+04  0.46999998093E+01 0. -1.
</event>
<event>
 5   0  0.7600052E-06  0.2722122E+04  0.7818609E-02  0.8327863E-01
        1   -1    0    0  501    0  0.00000000000E+00  0.00000000000E+00  0.18566309707E+04  0.18566309707E+04  0.50400001928E-02 0.  1.
       -1   -1    0    0    0  501  0.00000000000E+00  0.00000000000E+00 -0.99776779489E+03  0.99776779490E+03  0.50400001928E-02 0. -1.
    10030    2    1    2    0    0  0.00000000000E+00  0.00000000000E+00  0.85886317577E+03  0.28543987656E+04  0.27221216648E+04 0.  0.
        5    1    3    3  502    0 -0.39051458583E+03 -0.13038175685E+04  0.42444598302E+03  0.14256992587E+04  0.46999998093E+01 0.  1.
       -5    1    3    3    0  502  0.39051458583E+03  0.13038175685E+04  0.43441719276E+03  0.14286995069E+04  0.46999998093E+01 0. -1.
</event>
<event>
 5   0  0.7600052E-06  0.2685014E+04  0.7818609E-02  0.8339884E-01
        1   -1    0    0  501    0  0.00000000000E+00  0.00000000000E+00  0.21615668689E+04  0.21615668689E+04  0.50400001928E-02 0.  1.
       -1   -1    0    0    0  501  0.00000000000E+00  0.00000000000E+00 -0.83380510503E+03  0.83380510504E+03  0.50400001928E-02 0. -1.
    10030    2    1    2    0    0  0.00000000000E+00  0.00000000000E+00  0.13277617638E+04  0.29953719739E+04  0.26850143316E+04 0.  0.
        5    1    3    3  502    0  0.34961012104E+02 -0.11061552552E+04 -0.18389445784E+03  0.11218916982E+04  0.46999998093E+01 0. -1.
       -5    1    3    3    0  502 -0.34961012104E+02  0.11061552552E+04  0.15116562217E+04  0.18734802757E+04  0.46999998093E+01 0.  1.
</event>
<event>
 5   0  0.1826851E-05  0.2533303E+04  0.7818609E-02  0.8391216E-01
        2   -1    0    0  501    0  0.00000000000E+00  0.00000000000E+00  0.11975674490E+04  0.11975674490E+04  0.25500000920E-02 0. -1.
       -2   -1    0    0    0  501  0.00000000000E+00  0.00000000000E+00 -0.13397207786E+04  0.13397207786E+04  0.25500000920E-02 0.  1.
    10030    2    1    2    0    0  0.00000000000E+00  0.00000000000E+00 -0.14215332955E+03  0.25372882276E+04  0.25333029785E+04 0.  0.
        5    1    3    3  502    0  0.12555224295E+04 -0.16025763656E+03 -0.22370704755E+02  0.12659153287E+04  0.46999998093E+01 0.  1.
       -5    1    3    3    0  502 -0.12555224295E+04  0.16025763656E+03 -0.11978262480E+03  0.12713728989E+04  0.46999998093E+01 0. -1.
</event>
<event>
 5   0  0.7348964E-06  0.2636663E+04  0.7818609E-02  0.8355853E-01
       -1   -1    0    0    0  501  0.00000000000E+00  0.00000000000E+00  0.11423255770E+04  0.11423255771E+04  0.50400001928E-02 0. -1.
        1   -1    0    0  501    0  0.00000000000E+00  0.00000000000E+00 -0.15214556769E+04  0.15214556769E+04  0.50400001928E-02 0.  1.
    10030    2    1    2    0    0  0.00000000000E+00  0.00000000000E+00 -0.37913009984E+03  0.26637812540E+04  0.26366628408E+04 0.  0.
        1    1    3    3  502    0  0.47601227356E+03  0.72996288835E+03  0.80983330052E+03  0.11896484681E+04  0.50400001928E-02 0. -1.
       -1    1    3    3    0  502 -0.47601227356E+03 -0.72996288835E+03 -0.11889634004E+04  0.14741327859E+04  0.50400001928E-02 0.  1.
</event>
<event>
 5   0  0.7754912E-06  0.2755616E+04  0.7818609E-02  0.8317182E-01
        1   -1    0    0  501    0  0.00000000000E+00  0.00000000000E+00  0.25270249921E+04  0.25270249921E+04  0.50400001928E-02 0. -1.
       -1   -1    0    0    0  501  0.00000000000E+00  0.00000000000E+00 -0.75122108445E+03  0.75122108446E+03  0.50400001928E-02 0.  1.
    10030    2    1    2    0    0  0.00000000000E+00  0.00000000000E+00  0.17758039077E+04  0.32782460766E+04  0.27556156880E+04 0.  0.
        4    1    3    3  502    0  0.98769662933E+03  0.92853872945E+03  0.59498444418E+03  0.14804515883E+04  0.12699999809E+01 0. -1.
       -4    1    3    3    0  502 -0.98769662933E+03 -0.92853872945E+03  0.11808194635E+04  0.17977944882E+04  0.12699999809E+01 0.  1.
</event>
<event>
 5   0  0.7600052E-06  0.2695119E+04  0.7818609E-02  0.8336591E-01
       -1   -1    0    0    0  501  0.00000000000E+00  0.00000000000E+00  0.68729548533E+03  0.68729548535E+03  0.50400001928E-02 0.  1.
        1   -1    0    0  501    0  0.00000000000E+00  0.00000000000E+00 -0.26421185029E+04  0.26421185030E+04  0.50400001928E-02 0. -1.
    10030    2    1    2    0    0  0.00000000000E+00  0.00000000000E+00 -0.19548230176E+04  0.33294139883E+04  0.26951186384E+04 0.  0.
        5    1    3    3  502    0  0.10308140609E+03 -0.74665321803E+03 -0.23573459035E+04  0.24749178982E+04  0.46999998093E+01 0. -1.
       -5    1    3    3    0  502 -0.10308140609E+03  0.74665321803E+03  0.40252288588E+03  0.85449609006E+03  0.46999998093E+01 0.  1.
</event>
<event>
 5   0  0.7754912E-06  0.2805161E+04  0.7818609E-02  0.8301668E-01
        1   -1    0    0  501    0  0.00000000000E+00  0.00000000000E+00  0.15790999261E+04  0.15790999261E+04  0.50400001928E-02 0. -1.
       -1   -1    0    0    0  501  0.00000000000E+00  0.00000000000E+00 -0.12457930570E+04  0.12457930570E+04  0.50400001928E-02 0.  1.
    10030    2    1    2    0    0  0.00000000000E+00  0.00000000000E+00  0.33330686918E+03  0.28248929831E+04  0.28051607613E+04 0.  0.
        4    1    3    3  502    0 -0.66551247444E+03  0.78603512894E+03 -0.79213204780E+03  0.12993201575E+04  0.12699999809E+01 0.  1.
       -4    1    3    3    0  502  0.66551247444E+03 -0.78603512894E+03  0.11254389170E+04  0.15255728256E+04  0.12699999809E+01 0. -1.
</event>
<event>
 5   0  0.7754912E-06  0.2343833E+04  0.7818609E-02  0.8460836E-01
        1   -1    0    0  501    0  0.00000000000E+00  0.00000000000E+00  0.13033107030E+04  0.13033107030E+04  0.50400001928E-02 0.  1.
       -1   -1    0    0    0  501  0.00000000000E+00  0.00000000000E+00 -0.10537691395E+04  0.10537691396E+04  0.50400001928E-02 0. -1.
    10030    2    1    2    0    0  0.00000000000E+00  0.00000000000E+00  0.24954156343E+03  0.23570798425E+04  0.23438332689E+04 0.  0.
        4    1    3    3  502    0  0.25754690875E+03 -0.95238841314E+03 -0.51126942504E+03  0.11112030137E+04  0.12699999809E+01 0. -1.
       -4    1    3    3    0  502 -0.25754690875E+03  0.95238841314E+03  0.76081098847E+03  0.12458768289E+04  0.12699999809E+01 0.  1.
</event>
<event>
 5   0  0.7754912E-06  0.2692088E+04  0.7818609E-02  0.8337577E-01
        1   -1    0    0  501    0  0.00000000000E+00  0.00000000000E+00  0.12427788225E+04  0.12427788225E+04  0.50400001928E-02 0.  1.
       -1   -1    0    0    0  501  0.00000000000E+00  0.00000000000E+00 -0.14578895862E+04  0.14578895862E+04  0.50400001928E-02 0. -1.
    10030    2    1    2    0    0  0.00000000000E+00  0.00000000000E+00 -0.21511076366E+03  0.27006684087E+04  0.26920878911E+04 0.  0.
        4    1    3    3  502    0  0.67424534932E+03  0.72363669801E+03 -0.10234691471E+04  0.14232875921E+04  0.12699999809E+01 0. -1.
       -4    1    3    3    0  502 -0.67424534932E+03 -0.72363669801E+03  0.80835838345E+03  0.12773808167E+04  0.12699999809E+01 0.  1.
</event>
<event>
 5   0  0.7351590E-06  0.2770158E+04  0.7818609E-02  0.8312593E-01
       -1   -1    0    0    0  501  0.00000000000E+00  0.00000000000E+00  0.13370307408E+04  0.13370307408E+04  0.50400001928E-02 0.  1.
        1   -1    0    0  501    0  0.00000000000E+00  0.00000000000E+00 -0.14348536995E+04  0.14348536996E+04  0.50400001928E-02 0. -1.
    10030    2    1    2    0    0  0.00000000000E+00  0.00000000000E+00 -0.97822958759E+02  0.27718844404E+04  0.27701577607E+04 0.  0.
        3    1    3    3  502    0 -0.30996818925E+03  0.38561730403E+03 -0.13434189524E+04  0.14316268632E+04  0.10100000352E+00 0. -1.
       -3    1    3    3    0  502  0.30996818925E+03 -0.38561730403E+03  0.12455959937E+04  0.13402575772E+04  0.10100000352E+00 0.  1.
</event>
<event>
 5   0  0.1788003E-05  0.2424583E+04  0.7818609E-02  0.8430357E-01
       -2   -1    0    0    0  501  0.00000000000E+00  0.00000000000E+00  0.64738021519E+03  0.64738021519E+03  0.25500000920E-02 0. -1.
        2   -1    0    0  501    0  0.00000000000E+00  0.00000000000E+00 -0.22701500494E+04  0.22701500494E+04  0.25500000920E-02 0.  1.
    10030    2    1    2    0    0  0.00000000000E+00  0.00000000000E+00 -0.16227698342E+04  0.29175302646E+04  0.24245826259E+04 0.  0.
        2    1    3    3  502    0 -0.34446270899E+03 -0.52326384445E+03  0.43750644631E+03  0.76411484697E+03  0.25500000920E-02 0. -1.
       -2    1    3    3    0  502  0.34446270899E+03  0.52326384445E+03 -0.20602762805E+04  0.21534154176E+04  0.25500000920E-02 0.  1.
</event>
<event>
 5   0  0.7348964E-06  0.2689173E+04  0.7818609E-02  0.8338527E-01
        1   -1    0    0  501    0  0.00000000000E+00  0.00000000000E+00  0.15990718119E+04  0.15990718119E+04  0.50400001928E-02 0.  1.
       -1   -1    0    0    0  501  0.00000000000E+00  0.00000000000E+00 -0.11306012226E+04  0.11306012226E+04  0.50400001928E-02 0. -1.
    10030    2    1    2    0    0  0.00000000000E+00  0.00000000000E+00  0.46847058934E+03  0.27296730345E+04  0.26891727692E+04 0.  0.
        1    1    3    3  502    0 -0.10777946178E+04 -0.53262961486E+03 -0.37697695660E+03  0.12599393520E+04  0.50400001928E-02 0. -1.
       -1    1    3    3    0  502  0.10777946178E+04  0.53262961486E+03  0.84544754594E+03  0.14697336826E+04  0.50400001928E-02 0.  1.
</event>
<event>
 5   0  0.7348964E-06  0.2620846E+04  0.7818609E-02  0.8361154E-01
        1   -1    0    0  501    0  0.00000000000E+00  0.00000000000E+00  0.21840109001E+04  0.21840109001E+04  0.50400001928E-02 0. -1.
       -1   -1    0    0    0  501  0.00000000000E+00  0.00000000000E+00 -0.78626394366E+03  0.78626394368E+03  0.50400001928E-02 0.  1.
    10030    2    1    2    0    0  0.00000000000E+00  0.00000000000E+00  0.13977469565E+04  0.29702748438E+04  0.26208464460E+04 0.  0.
        1    1    3    3  502    0  0.29716141456E+03  0.62035964857E+03 -0.56520890461E+03  0.89028765337E+03  0.50400001928E-02 0.  1.
       -1    1    3    3    0  502 -0.29716141456E+03 -0.62035964857E+03  0.19629558611E+04  0.20799871905E+04  0.50400001928E-02 0. -1.
</event>
<event>
 5   0  0.1826851E-05  0.2643564E+04  0.7818609E-02  0.8353552E-01
       -2   -1    0    0    0  501  0.00000000000E+00  0.00000000000E+00  0.63998283538E+03  0.63998283539E+03  0.25500000920E-02 0. -1.
        2   -1    0    0  501    0  0.00000000000E+00  0.00000000000E+00 -0.27299290893E+04  0.27299290893E+04  0.25500000920E-02 0.  1.
    10030    2    1    2    0    0  0.00000000000E+00  0.00000000000E+00 -0.20899462539E+04  0.33699119247E+04  0.26435640783E+04 0.  0.
        5    1    3    3  502    0  0.26778952456E+03  0.40670074470E+03 -0.26114093450E+04  0.26564257156E+04  0.46999998093E+01 0.  1.
       -5    1    3    3    0  502 -0.26778952456E+03 -0.40670074470E+03  0.52146309110E+03  0.71348620911E+03  0.46999998093E+01 0. -1.
</event>
<event>
 5   0  0.6804685E-06  0.2653982E+04  0.7818609E-02  0.8350093E-01
        1   -1    0    0  501    0  0.00000000000E+00  0.00000000000E+00  0.69035218508E+03  0.69035218510E+03  0.50400001928E-02 0. -1.
       -1   -1    0    0    0  501  0.00000000000E+00  0.00000000000E+00 -0.25507338874E+04  0.25507338875E+04  0.50400001928E-02 0.  1.
    10030    2    1    2    0    0  0.00000000000E+00  0.00000000000E+00 -0.18603817024E+04  0.32410860725E+04  0.26539816976E+04 0.  0.
        2    1    3    3  502    0  0.53771805387E+03 -0.94513716026E+03 -0.13598043199E+01  0.10873945035E+04  0.25500000920E-02 0. -1.
       -2    1    3    3    0  502 -0.53771805387E+03  0.94513716026E+03 -0.18590218980E+04  0.21536915690E+04  0.25500000920E-02 0.  1.
</event>
<event>
 5   0  0.7600052E-06  0.2624294E+04  0.7818609E-02  0.8359996E-01
       -1   -1    0    0    0  501  0.00000000000E+00  0.00000000000E+00  0.11961980185E+04  0.11961980185E+04  0.50400001928E-02 0. -1.
        1   -1    0    0  501    0  0.00000000000E+00  0.00000000000E+00 -0.14393345446E+04  0.14393345446E+04  0.50400001928E-02 0.  1.
    10030    2    1    2    0    0  0.00000000000E+00  0.00000000000E+00 -0.24313652611E+03  0.26355325631E+04  0.26242935279E+04 0.  0.
        5    1    3    3  502    0  0.91077960881E+03 -0.90463155948E+03  0.15131086032E+03  0.12925922871E+04  0.46999998093E+01 0. -1.
       -5    1    3    3    0  502 -0.91077960881E+03  0.90463155948E+03 -0.39444738643E+03  0.13429402760E+04  0.46999998093E+01 0.  1.
</event>
<event>
 5   0  0.7754912E-06  0.2694966E+04  0.7818609E-02  0.8336640E-01
       -1   -1    0    0    0  501  0.00000000000E+00  0.00000000000E+00  0.88692131152E+03  0.88692131153E+03  0.50400001928E-02 0. -1.
        1   -1    0    0  501    0  0.00000000000E+00  0.00000000000E+00 -0.20472064741E+04  0.20472064741E+04  0.50400001928E-02 0.  1.
    10030    2    1    2    0    0  0.00000000000E+00  0.00000000000E+00 -0.11602851626E+04  0.29341277857E+04  0.26949664569E+04 0.  0.
        4    1    3    3  502    0 -0.34977872658E+02  0.18824023853E+03  0.87203568341E+03  0.89280775367E+03  0.12699999809E+01 0. -1.
       -4    1    3    3    0  502  0.34977872658E+02 -0.18824023853E+03 -0.20323208460E+04  0.20413200320E+04  0.12699999809E+01 0.  1.
</event>
<event>
 5   0  0.7754912E-06  0.2712698E+04  0.7818609E-02  0.8330897E-01
       -1   -1    0    0    0  501  0.00000000000E+00  0.00000000000E+00  0.94615904008E+03  0.94615904009E+03  0.50400001928E-02 0.  1.
        1   -1    0    0  501    0  0.00000000000E+00  0.00000000000E+00 -0.19443687497E+04  0.19443687497E+04  0.50400001928E-02 0. -1.
    10030    2    1    2    0    0  0.00000000000E+00  0.00000000000E+00 -0.99820970959E+03  0.28905277898E+04  0.27126976019E+04 0.  0.
        4    1    3    3  502    0 -0.96386450471E+03 -0.85133082099E+03 -0.95850788729E+03  0.16039133185E+04  0.12699999809E+01 0. -1.
       -4    1    3    3    0  502  0.96386450471E+03  0.85133082099E+03 -0.39701822300E+02  0.12866144713E+04  0.12699999809E+01 0.  1.
</event>
<event>
 5   0  0.1881699E-05  0.2724493E+04  0.7818609E-02  0.8327102E-01
        2   -1    0    0  501    0  0.00000000000E+00  0.00000000000E+00  0.17254854783E+04  0.17254854783E+04  0.25500000920E-02 0. -1.
       -2   -1    0    0    0  501  0.00000000000E+00  0.00000000000E+00 -0.10754740562E+04  0.10754740562E+04  0.25500000920E-02 0.  1.
    10030    2    1    2    0    0  0.00000000000E+00  0.00000000000E+00  0.65001142212E+03  0.28009595345E+04  0.27244925151E+04 0.  0.
        4    1    3    3  502    0 -0.80286371712E+03 -0.11275159825E+03 -0.80043847149E+03  0.11393008517E+04  0.12699999809E+01 0.  1.
       -4    1    3    3    0  502  0.80286371712E+03  0.11275159825E+03  0.14504498936E+04  0.16616586827E+04  0.12699999809E+01 0. -1.
</event>
<event>
 5   0  0.7351590E-06  0.2622061E+04  0.7818609E-02  0.8360746E-01
        1   -1    0    0  501    0  0.00000000000E+00  0.00000000000E+00  0.79927491930E+03  0.79927491931E+03  0.50400001928E-02 0. -1.
       -1   -1    0    0    0  501  0.00000000000E+00  0.00000000000E+00 -0.21504507565E+04  0.21504507565E+04  0.50400001928E-02 0.  1.
    10030    2    1    2    0    0  0.00000000000E+00  0.00000000000E+00 -0.13511758372E+04  0.29497256758E+04  0.26220612921E+04 0.  0.
        3    1    3    3  502    0 -0.13902265272E+02  0.88927922046E+03  0.40799901416E+03  0.97850600952E+03  0.10100000352E+00 0. -1.
       -3    1    3    3    0  502  0.13902265272E+02 -0.88927922046E+03 -0.17591748513E+04  0.19712196663E+04  0.10100000352E+00 0.  1.
</event>
<event>
 5   0  0.1788003E-05  0.2682644E+04  0.7818609E-02  0.8340658E-01
        2   -1    0    0  501    0  0.00000000000E+00  0.00000000000E+00  0.14012891412E+04  0.14012891412E+04  0.25500000920E-02 0. -1.
       -2   -1    0    0    0  501  0.00000000000E+00  0.00000000000E+00 -0.12839212281E+04  0.12839212281E+04  0.25500000920E-02 0.  1.
    10030    2    1    2    0    0  0.00000000000E+00  0.00000000000E+00  0.11736791313E+03  0.26852103693E+04  0.26826441248E+04 0.  0.
        2    1    3    3  502    0  0.10380274271E+04  0.71398470477E+03 -0.40204950708E+03  0.13224669766E+04  0.25500000920E-02 0.  1.
       -2    1    3    3    0  502 -0.10380274271E+04 -0.71398470477E+03  0.51941742021E+03  0.13627433927E+04  0.25500000920E-02 0. -1.
</event>
<event>
 5   0  0.1826851E-05  0.2588811E+04  0.7818609E-02  0.8372012E-01
        2   -1    0    0  501    0  0.00000000000E+00  0.00000000000E+00  0.86262337145E+03  0.86262337145E+03  0.25500000920E-02 0. -1.
       -2   -1    0    0    0  501  0.00000000000E+00  0.00000000000E+00 -0.19423139320E+04  0.19423139320E+04  0.25500000920E-02 0.  1.
    10030    2    1    2    0    0  0.00000000000E+00  0.00000000000E+00 -0.10796905606E+04  0.28049373035E+04  0.25888108409E+04 0.  0.
        5    1    3    3  502    0 -0.82836342227E+03  0.98185955500E+03 -0.36774791862E+03  0.13362240706E+04  0.46999998093E+01 0. -1.
       -5    1    3    3    0  502  0.82836342227E+03 -0.98185955500E+03 -0.71194264194E+03  0.14687132329E+04  0.46999998093E+01 0.  1.
</event>
<event>
 5   0  0.1931119E-05  0.2721671E+04  0.7818609E-02  0.8328008E-01
       -2   -1    0    0    0  501  0.00000000000E+00  0.00000000000E+00  0.11766827482E+04  0.11766827482E+04  0.25500000920E-02 0.  1.
        2   -1    0    0  501    0  0.00000000000E+00  0.00000000000E+00 -0.15738084839E+04  0.15738084839E+04  0.25500000920E-02 0. -1.
    10030    2    1    2    0    0  0.00000000000E+00  0.00000000000E+00 -0.39712573574E+03  0.27504912320E+04  0.27216710249E+04 0.  0.
        3    1    3    3  502    0 -0.50205915047E+03 -0.11725961799E+04  0.28061849740E+03  0.13060597012E+04  0.10100000352E+00 0.  1.
       -3    1    3    3    0  502  0.50205915047E+03  0.11725961799E+04 -0.67774423314E+03  0.14444315309E+04  0.10100000352E+00 0. -1.
</event>
<event>
 5   0  0.6804685E-06  0.2457219E+04  0.7818609E-02  0.8418387E-01
        1   -1    0    0  501    0  0.00000000000E+00  0.00000000000E+00  0.32505708513E+04  0.32505708513E+04  0.50400001928E-02 0.  1.
       -1   -1    0    0    0  501  0.00000000000E+00  0.00000000000E+00 -0.46437424130E+03  0.46437424132E+03  0.50400001928E-02 0. -1.
    10030    2    1    2    0    0  0.00000000000E+00  0.00000000000E+00  0.27861966100E+04  0.37149450927E+04  0.24572190565E+04 0.  0.
        2    1    3    3  502    0 -0.24644117781E+02  0.60429396280E+03 -0.22373454934E+03  0.64485321941E+03  0.25500000920E-02 0. -1.
       -2    1    3    3    0  502  0.24644117781E+02 -0.60429396280E+03  0.30099311594E+04  0.30700918732E+04  0.25500000920E-02 0.  1.
</event>
<event>
 5   0  0.1931119E-05  0.2693423E+04  0.7818609E-02  0.8337142E-01
       -2   -1    0    0    0  501  0.00000000000E+00  0.00000000000E+00  0.14117298156E+04  0.14117298156E+04  0.25500000920E-02 0.  1.
        2   -1    0    0  501    0  0.00000000000E+00  0.00000000000E+00 -0.12846881263E+04  0.12846881263E+04  0.25500000920E-02 0. -1.
    10030    2    1    2    0    0  0.00000000000E+00  0.00000000000E+00  0.12704168934E+03  0.26964179420E+04  0.26934234956E+04 0.  0.
        3    1    3    3  502    0  0.10365633451E+04 -0.84827372161E+03 -0.76637112813E+02  0.13416054310E+04  0.10100000352E+00 0. -1.
       -3    1    3    3    0  502 -0.10365633451E+04  0.84827372161E+03  0.20367880215E+03  0.13548125110E+04  0.10100000352E+00 0.  1.
</event>
<event>
 5   0  0.7600052E-06  0.2670171E+04  0.7818609E-02  0.8344749E-01
       -1   -1    0    0    0  501  0.00000000000E+00  0.00000000000E+00  0.12882863403E+04  0.12882863403E+04  0.50400001928E-02 0. -1.
        1   -1    0    0  501    0  0.00000000000E+00  0.00000000000E+00 -0.13835843096E+04  0.13835843096E+04  0.50400001928E-02 0.  1.
    10030    2    1    2    0    0  0.00000000000E+00  0.00000000000E+00 -0.95297969310E+02  0.26718706499E+04  0.26701706064E+04 0.  0.
        5    1    3    3  502    0  0.12593819888E+04  0.22084125778E+03  0.33680498012E+03  0.13222229538E+04  0.46999998093E+01 0. -1.
       -5    1    3    3    0  502 -0.12593819888E+04 -0.22084125778E+03 -0.43210294943E+03  0.13496476962E+04  0.46999998093E+01 0.  1.
</event>
<event>
 5   0  0.7351590E-06  0.2700789E+04  0.7818609E-02  0.8334749E-01
       -1   -1    0    0    0  501  0.00000000000E+00  0.00000000000E+00  0.10539771316E+04  0.10539771316E+04  0.50400001928E-02 0. -1.
        1   -1    0    0  501    0  0.00000000000E+00  0.00000000000E+00 -0.17301749845E+04  0.17301749845E+04  0.50400001928E-02 0.  1.
    10030    2    1    2    0    0  0.00000000000E+00  0.00000000000E+00 -0.67619785289E+03  0.27841521161E+04  0.27007886754E+04 0.  0.
        3    1    3    3  502    0  0.50096420599E+03 -0.60875271919E+03  0.79210854890E+03  0.11175781728E+04  0.10100000352E+00 0. -1.
       -3    1    3    3    0  502 -0.50096420599E+03  0.60875271919E+03 -0.14683064018E+04  0.16665739433E+04  0.10100000352E+00 0.  1.
</event>
<event>
 5   0  0.7348964E-06  0.2688862E+04  0.7818609E-02  0.8338628E-01
        1   -1    0    0  501    0  0.00000000000E+00  0.00000000000E+00  0.13345380050E+04  0.13345380051E+04  0.50400001928E-02 0. -1.
       -1   -1    0    0    0  501  0.00000000000E+00  0.00000000000E+00 -0.13543969878E+04  0.13543969879E+04  0.50400001928E-02 0.  1.
    10030    2    1    2    0    0  0.00000000000E+00  0.00000000000E+00 -0.19858982792E+02  0.26889349929E+04  0.26888616582E+04 0.  0.
        1    1    3    3  502    0  0.95677805523E+03  0.87210416807E+03  0.35271565269E+03  0.13417892005E+04  0.50400001928E-02 0. -1.
       -1    1    3    3    0  502 -0.95677805523E+03 -0.87210416807E+03 -0.37257463548E+03  0.13471457924E+04  0.50400001928E-02 0.  1.
</event>
<event>
 5   0  0.1881699E-05  0.2712449E+04  0.7818609E-02  0.8330977E-01
       -2   -1    0    0    0  501  0.00000000000E+00  0.00000000000E+00  0.10848909186E+04  0.10848909186E+04  0.25500000920E-02 0.  1.
        2   -1    0    0  501    0  0.00000000000E+00  0.00000000000E+00 -0.16954188717E+04  0.16954188717E+04  0.25500000920E-02 0. -1.
    10030    2    1    2    0    0  0.00000000000E+00  0.00000000000E+00 -0.61052795311E+03  0.27803097903E+04  0.27124487366E+04 0.  0.
        4    1    3    3  502    0 -0.58511873405E+03 -0.98228305488E+03 -0.10529648152E+04  0.15543424487E+04  0.12699999809E+01 0. -1.
       -4    1    3    3    0  502  0.58511873405E+03  0.98228305488E+03  0.44243686210E+03  0.12259673416E+04  0.12699999809E+01 0.  1.
</event>
<event>
 5   0  0.7754912E-06  0.2060552E+04  0.7818609E-02  0.8578822E-01
       -1   -1    0    0    0  501  0.00000000000E+00  0.00000000000E+00  0.61310753770E+03  0.61310753772E+03  0.50400001928E-02 0. -1.
        1   -1    0    0  501    0  0.00000000000E+00  0.00000000000E+00 -0.17312926279E+04  0.17312926279E+04  0.50400001928E-02 0.  1.
    10030    2    1    2    0    0  0.00000000000E+00  0.00000000000E+00 -0.11181850902E+04  0.23444001656E+04  0.20605519262E+04 0.  0.
        4    1    3    3  502    0  0.90983969896E+03  0.24753845885E+03 -0.10314773041E+04  0.13975087149E+04  0.12699999809E+01 0.  1.
       -4    1    3    3    0  502 -0.90983969896E+03 -0.24753845885E+03 -0.86707786097E+02  0.94689145074E+03  0.12699999809E+01 0. -1.
</event>
<event>
 5   0  0.6175875E-06  0.2728894E+04  0.7818609E-02  0.8325690E-01
        4   -1    0    0  501    0  0.00000000000E+00  0.00000000000E+00  0.14392021133E+04  0.14392026736E+04  0.12699999809E+01 0. -1.
       -4   -1    0    0    0  501  0.00000000000E+00  0.00000000000E+00 -0.12935733523E+04  0.12935739757E+04  0.12699999809E+01 0.  1.
    10030    2    1    2    0    0  0.00000000000E+00  0.00000000000E+00  0.14562876103E+03  0.27327766493E+04  0.27288936365E+04 0.  0.
        3    1    3    3  502    0  0.83093758283E+03 -0.35375538160E+03  0.10970673663E+04  0.14209704265E+04  0.10100000352E+00 0. -1.
       -3    1    3    3    0  502 -0.83093758283E+03  0.35375538160E+03 -0.95143860525E+03  0.13118062229E+04  0.10100000352E+00 0.  1.
</event>
<event>
 5   0  0.7600052E-06  0.2706968E+04  0.7818609E-02  0.8332748E-01
       -1   -1    0    0    0  501  0.00000000000E+00  0.00000000000E+00  0.10780090012E+04  0.10780090012E+04  0.50400001928E-02 0. -1.
        1   -1    0    0  501    0  0.00000000000E+00  0.00000000000E+00 -0.16993540196E+04  0.16993540196E+04  0.50400001928E-02 0.  1.
    10030    2    1    2    0    0  0.00000000000E+00  0.00000000000E+00 -0.62134501840E+03  0.27773630209E+04  0.27069679935E+04 0.  0.
        5    1    3    3  502    0 -0.15092152971E+03 -0.52739374413E+02 -0.16896241881E+04  0.16971772850E+04  0.46999998093E+01 0.  1.
       -5    1    3    3    0  502  0.15092152971E+03  0.52739374413E+02  0.10682791697E+04  0.10801857359E+04  0.46999998093E+01 0. -1.
</event>
<event>
 5   0  0.1788003E-05  0.2700305E+04  0.7818609E-02  0.8334906E-01
        2   -1    0    0  501    0  0.00000000000E+00  0.00000000000E+00  0.59047188541E+03  0.59047188542E+03  0.25500000920E-02 0.  1.
       -2   -1    0    0    0  501  0.00000000000E+00  0.00000000000E+00 -0.30872118796E+04  0.30872118796E+04  0.25500000920E-02 0. -1.
    10030    2    1    2    0    0  0.00000000000E+00  0.00000000000E+00 -0.24967399942E+04  0.36776837650E+04  0.27003050340E+04 0.  0.
        2    1    3    3  502    0 -0.96116126683E+03 -0.45600090414E+03 -0.11611086545E+03  0.10701633233E+04  0.25500000920E-02 0.  1.
       -2    1    3    3    0  502  0.96116126683E+03  0.45600090414E+03 -0.23806291287E+04  0.26075204417E+04  0.25500000920E-02 0. -1.
</event>
<event>
 5   0  0.1881699E-05  0.2687464E+04  0.7818609E-02  0.8339084E-01
        2   -1    0    0  501    0  0.00000000000E+00  0.00000000000E+00  0.24167268763E+04  0.24167268763E+04  0.25500000920E-02 0.  1.
       -2   -1    0    0    0  501  0.00000000000E+00  0.00000000000E+00 -0.74713284021E+03  0.74713284021E+03  0.25500000920E-02 0. -1.
    10030    2    1    2    0    0  0.00000000000E+00  0.00000000000E+00  0.16695940361E+04  0.31638597165E+04  0.26874642436E+04 0.  0.
        4    1    3    3  502    0  0.81905275889E+03  0.71246120953E+03 -0.97524653031E+02  0.10899362678E+04  0.12699999809E+01 0. -1.
       -4    1    3    3    0  502 -0.81905275889E+03 -0.71246120953E+03  0.17671186891E+04  0.20739234488E+04  0.12699999809E+01 0.  1.
</event>
<event>
 5   0  0.1788003E-05  0.2687518E+04  0.7818609E-02  0.8339066E-01
        2   -1    0    0  501    0  0.00000000000E+00  0.00000000000E+00  0.12135845277E+04  0.12135845277E+04  0.25500000920E-02 0.  1.
       -2   -1    0    0    0  501  0.00000000000E+00  0.00000000000E+00 -0.14878971122E+04  0.14878971122E+04  0.25500000920E-02 0. -1.
    10030    2    1    2    0    0  0.00000000000E+00  0.00000000000E+00 -0.27431258453E+03  0.27014816400E+04  0.26875184943E+04 0.  0.
        2    1    3    3  502    0 -0.94848224838E+03  0.93472989309E+03  0.43640264849E+02  0.13323824606E+04  0.25500000920E-02 0.  1.
       -2    1    3    3    0  502  0.94848224838E+03 -0.93472989309E+03 -0.31795284938E+03  0.13690991794E+04  0.25500000920E-02 0. -1.
</event>
<event>
 5   0  0.7754912E-06  0.2688624E+04  0.7818609E-02  0.8338706E-01
       -1   -1    0    0    0  501  0.00000000000E+00  0.00000000000E+00  0.90371973171E+03  0.90371973173E+03  0.50400001928E-02 0. -1.
        1   -1    0    0  501    0  0.00000000000E+00  0.00000000000E+00 -0.19997071915E+04  0.19997071915E+04  0.50400001928E-02 0.  1.
    10030    2    1    2    0    0  0.00000000000E+00  0.00000000000E+00 -0.10959874598E+04  0.29034269233E+04  0.26886240694E+04 0.  0.
        4    1    3    3  502    0  0.23118138371E+03 -0.37451675619E+03 -0.19196985754E+04  0.19695054877E+04  0.12699999809E+01 0.  1.
       -4    1    3    3    0  502 -0.23118138371E+03  0.37451675619E+03  0.82371111561E+03  0.93392143552E+03  0.12699999809E+01 0. -1.
</event>
<event>
 5   0  0.1826851E-05  0.2708857E+04  0.7818609E-02  0.8332137E-01
       -2   -1    0    0    0  501  0.00000000000E+00  0.00000000000E+00  0.12994297550E+04  0.12994297550E+04  0.25500000920E-02 0.  1.
        2   -1    0    0  501    0  0.00000000000E+00  0.00000000000E+00 -0.14117545896E+04  0.14117545896E+04  0.25500000920E-02 0. -1.
    10030    2    1    2    0    0  0.00000000000E+00  0.00000000000E+00 -0.11232483461E+03  0.27111843446E+04  0.27088565266E+04 0.  0.
        5    1    3    3  502    0 -0.62095993017E+03  0.34889406093E+03  0.10968412343E+04  0.13078230323E+04  0.46999998093E+01 0.  1.
       -5    1    3    3    0  502  0.62095993017E+03 -0.34889406093E+03 -0.12091660689E+04  0.14033613123E+04  0.46999998093E+01 0. -1.
</event>
<event>
 5   0  0.6804685E-06  0.2795347E+04  0.7818609E-02  0.8304714E-01
       -1   -1    0    0    0  501  0.00000000000E+00  0.00000000000E+00  0.92143960783E+03  0.92143960785E+03  0.50400001928E-02 0.  1.
        1   -1    0    0  501    0  0.00000000000E+00  0.00000000000E+00 -0.21200431187E+04  0.21200431187E+04  0.50400001928E-02 0. -1.
    10030    2    1    2    0    0  0.00000000000E+00  0.00000000000E+00 -0.11986035109E+04  0.30414827265E+04  0.27953473487E+04 0.  0.
        2    1    3    3  502    0 -0.29005237340E+03 -0.13672159841E+04 -0.58946265114E+03  0.15168639173E+04  0.25500000920E-02 0.  1.
       -2    1    3    3    0  502  0.29005237340E+03  0.13672159841E+04 -0.60914085972E+03  0.15246188092E+04  0.25500000920E-02 0. -1.
</event>
<event>
 5   0  0.7348964E-06  0.2695682E+04  0.7818609E-02  0.8336407E-01
       -1   -1    0    0    0  501  0.00000000000E+00  0.00000000000E+00  0.11980014738E+04  0.11980014738E+04  0.50400001928E-02 0. -1.
        1   -1    0    0  501    0  0.00000000000E+00  0.00000000000E+00 -0.15164212913E+04  0.15164212913E+04  0.50400001928E-02 0.  1.
    10030    2    1    2    0    0  0.00000000000E+00  0.00000000000E+00 -0.31841981747E+03  0.27144227651E+04  0.26956816889E+04 0.  0.
        1    1    3    3  502    0  0.34784838161E+03 -0.52378189618E+03  0.10412735614E+04  0.12163866988E+04  0.50400001928E-02 0. -1.
       -1    1    3    3    0  502 -0.34784838161E+03  0.52378189618E+03 -0.13596933789E+04  0.14980360663E+04  0.50400001928E-02 0.  1.
</event>
<event>
 5   0  0.7600052E-06  0.2741032E+04  0.7818609E-02  0.8321813E-01
       -1   -1    0    0    0  501  0.00000000000E+00  0.00000000000E+00  0.93265396587E+03  0.93265396588E+03  0.50400001928E-02 0. -1.
        1   -1    0    0  501    0  0.00000000000E+00  0.00000000000E+00 -0.20139455082E+04  0.20139455082E+04  0.50400001928E-02 0.  1.
    10030    2    1    2    0    0  0.00000000000E+00  0.00000000000E+00 -0.10812915424E+04  0.29465994741E+04  0.27410321161E+04 0.  0.
        5    1    3    3  502    0 -0.48552626942E+03 -0.24299624791E+03  0.81210342307E+03  0.97689149579E+03  0.46999998093E+01 0. -1.
       -5    1    3    3    0  502  0.48552626942E+03  0.24299624791E+03 -0.18933949654E+04  0.19697079783E+04  0.46999998093E+01 0.  1.
</event>
<event>
 5   0  0.7754912E-06  0.2694591E+04  0.7818609E-02  0.8336762E-01
       -1   -1    0    0    0  501  0.00000000000E+00  0.00000000000E+00  0.13837953058E+04  0.13837953058E+04  0.50400001928E-02 0. -1.
        1   -1    0    0  501    0  0.00000000000E+00  0.00000000000E+00 -0.13117581401E+04  0.13117581401E+04  0.50400001928E-02 0.  1.
    10030    2    1    2    0    0  0.00000000000E+00  0.00000000000E+00  0.72037165667E+02  0.26955534459E+04  0.26945906974E+04 0.  0.
        4    1    3    3  502    0 -0.15954826091E+03  0.16991253960E+03  0.13634731904E+04  0.13832522085E+04  0.12699999809E+01 0. -1.
       -4    1    3    3    0  502  0.15954826091E+03 -0.16991253960E+03 -0.12914360247E+04  0.13123012373E+04  0.12699999809E+01 0.  1.
</event>
<event>
 5   0  0.1878160E-05  0.2680248E+04  0.7818609E-02  0.8341442E-01
        2   -1    0    0  501    0  0.00000000000E+00  0.00000000000E+00  0.21493777904E+04  0.21493777904E+04  0.25500000920E-02 0. -1.
       -2   -1    0    0    0  501  0.00000000000E+00  0.00000000000E+00 -0.83555945360E+03  0.83555945360E+03  0.25500000920E-02 0.  1.
    10030    2    1    2    0    0  0.00000000000E+00  0.00000000000E+00  0.13138183368E+04  0.29849372440E+04  0.26802484453E+04 0.  0.
        1    1    3    3  502    0 -0.73191132764E+03  0.10810771581E+04  0.99380575446E+03  0.16407534522E+04  0.50400001928E-02 0. -1.
       -1    1    3    3    0  502  0.73191132764E+03 -0.10810771581E+04  0.32001258232E+03  0.13441837918E+04  0.50400001928E-02 0.  1.
</event>
<event>
 5   0  0.7348964E-06  0.2683774E+04  0.7818609E-02  0.8340289E-01
       -1   -1    0    0    0  501  0.00000000000E+00  0.00000000000E+00  0.21242322822E+04  0.21242322822E+04  0.50400001928E-02 0.  1.
        1   -1    0    0  501    0  0.00000000000E+00  0.00000000000E+00 -0.84767606398E+03  0.84767606400E+03  0.50400001928E-02 0. -1.
    10030    2    1    2    0    0  0.00000000000E+00  0.00000000000E+00  0.12765562183E+04  0.29719083462E+04  0.26837741038E+04 0.  0.
        1    1    3    3  502    0  0.10398792156E+04  0.36264358323E+03  0.14872726070E+04  0.18506320431E+04  0.50400001928E-02 0.  1.
       -1    1    3    3    0  502 -0.10398792156E+04 -0.36264358323E+03 -0.21071638877E+03  0.11212763031E+04  0.50400001928E-02 0. -1.
</event>
<event>
 5   0  0.1931119E-05  0.2712439E+04  0.7818609E-02  0.8330980E-01
       -2   -1    0    0    0  501  0.00000000000E+00  0.00000000000E+00  0.16882438772E+04  0.16882438772E+04  0.25500000920E-02 0. -1.
        2   -1    0    0  501    0  0.00000000000E+00  0.00000000000E+00 -0.10894940818E+04  0.10894940818E+04  0.25500000920E-02 0.  1.
    10030    2    1    2    0    0  0.00000000000E+00  0.00000000000E+00  0.59874979536E+03  0.27777379590E+04  0.27124392806E+04 0.  0.
        3    1    3    3  502    0 -0.12401393890E+04  0.26574300752E+03 -0.19257148730E+03  0.12828284524E+04  0.10100000352E+00 0.  1.
       -3    1    3    3    0  502  0.12401393890E+04 -0.26574300752E+03  0.79132128267E+03  0.14949095066E+04  0.10100000352E+00 0. -1.
</event>
<event>
 5   0  0.1878160E-05  0.2705460E+04  0.7818609E-02  0.8333236E-01
       -2   -1    0    0    0  501  0.00000000000E+00  0.00000000000E+00  0.99899961587E+03  0.99899961587E+03  0.25500000920E-02 0. -1.
        2   -1    0    0  501    0  0.00000000000E+00  0.00000000000E+00 -0.18317108079E+04  0.18317108079E+04  0.25500000920E-02 0.  1.
    10030    2    1    2    0    0  0.00000000000E+00  0.00000000000E+00 -0.83271119203E+03  0.28307104238E+04  0.27054599561E+04 0.  0.
        1    1    3    3  502    0 -0.74447604918E+02 -0.55925870810E+03 -0.17027313336E+04  0.17937688655E+04  0.50400001928E-02 0.  1.
       -1    1    3    3    0  502  0.74447604918E+02  0.55925870810E+03  0.87002014157E+03  0.10369415582E+04  0.50400001928E-02 0. -1.
</event>
<event>
 5   0  0.1878160E-05  0.2739314E+04  0.7818609E-02  0.8322361E-01
       -2   -1    0    0    0  501  0.00000000000E+00  0.00000000000E+00  0.20791576519E+04  0.20791576519E+04  0.25500000920E-02 0.  1.
        2   -1    0    0  501    0  0.00000000000E+00  0.00000000000E+00 -0.90226928788E+03  0.90226928788E+03  0.25500000920E-02 0. -1.
    10030    2    1    2    0    0  0.00000000000E+00  0.00000000000E+00  0.11768883641E+04  0.29814269398E+04  0.27393138513E+04 0.  0.
        1    1    3    3  502    0  0.14192279585E+03 -0.12562922169E+04  0.11618357931E+04  0.17170540541E+04  0.50400001928E-02 0.  1.
       -1    1    3    3    0  502 -0.14192279585E+03  0.12562922169E+04  0.15052570930E+02  0.12643728858E+04  0.50400001928E-02 0. -1.
</event>
<event>
 5   0  0.1826851E-05  0.2797571E+04  0.7818609E-02  0.8304023E-01
        2   -1    0    0  501    0  0.00000000000E+00  0.00000000000E+00  0.22728057160E+04  0.22728057160E+04  0.25500000920E-02 0. -1.
       -2   -1    0    0    0  501  0.00000000000E+00  0.00000000000E+00 -0.86087471051E+03  0.86087471052E+03  0.25500000920E-02 0.  1.
    10030    2    1    2    0    0  0.00000000000E+00  0.00000000000E+00  0.14119310055E+04  0.31336804265E+04  0.27975710628E+04 0.  0.
        5    1    3    3  502    0 -0.37829322260E+03  0.21628863240E+03 -0.78289510873E+03  0.89600969640E+03  0.46999998093E+01 0.  1.
       -5    1    3    3    0  502  0.37829322260E+03 -0.21628863240E+03  0.21948261142E+04  0.22376707301E+04  0.46999998093E+01 0. -1.
</event>
<event>
 5   0  0.7600052E-06  0.2641487E+04  0.7818609E-02  0.8354244E-01
        1   -1    0    0  501    0  0.00000000000E+00  0.00000000000E+00  0.14650808774E+04  0.14650808774E+04  0.50400001928E-02 0.  1.
       -1   -1    0    0    0  501  0.00000000000E+00  0.00000000000E+00 -0.11906260115E+04  0.11906260116E+04  0.50400001928E-02 0. -1.
    10030    2    1    2    0    0  0.00000000000E+00  0.00000000000E+00  0.27445486584E+03  0.26557068889E+04  0.26414870067E+04 0.  0.
        5    1    3    3  502    0 -0.13145412607E+04 -0.11392632438E+03  0.19536065697E+03  0.13338612408E+04  0.46999998093E+01 0.  1.
       -5    1    3    3    0  502  0.13145412607E+04  0.11392632438E+03  0.79094208870E+02  0.13218456481E+04  0.46999998093E+01 0. -1.
</event>
<event>
 5   0  0.1931119E-05  0.2799500E+04  0.7818609E-02  0.8303424E-01
        2   -1    0    0  501    0  0.00000000000E+00  0.00000000000E+00  0.16655814252E+04  0.16655814252E+04  0.25500000920E-02 0. -1.
       -2   -1    0    0    0  501  0.00000000000E+00  0.00000000000E+00 -0.11763461759E+04  0.11763461759E+04  0.25500000920E-02 0.  1.
    10030    2    1    2    0    0  0.00000000000E+00  0.00000000000E+00  0.48923524924E+03  0.28419276011E+04  0.27995001984E+04 0.  0.
        3    1    3    3  502    0  0.48491928601E+03 -0.16606989770E+03 -0.10776487770E+04  0.11933368433E+04  0.10100000352E+00 0.  1.
       -3    1    3    3    0  502 -0.48491928601E+03  0.16606989770E+03  0.15668840262E+04  0.16485907578E+04  0.10100000352E+00 0. -1.
</event>
<event>
 5   0  0.6804685E-06  0.2683736E+04  0.7818609E-02  0.8340301E-01
        1   -1    0    0  501    0  0.00000000000E+00  0.00000000000E+00  0.21203363888E+04  0.21203363888E+04  0.50400001928E-02 0. -1.
       -1   -1    0    0    0  501  0.00000000000E+00  0.00000000000E+00 -0.84920973615E+03  0.84920973617E+03  0.50400001928E-02 0.  1.
    10030    2    1    2    0    0  0.00000000000E+00  0.00000000000E+00  0.12711266527E+04  0.29695461250E+04  0.26837364292E+04 0.  0.
        2    1    3    3  502    0 -0.80567361094E+03  0.42048756908E+03 -0.45684144924E+03  0.10171646243E+04  0.25500000920E-02 0.  1.
       -2    1    3    3    0  502  0.80567361094E+03 -0.42048756908E+03  0.17279681019E+04  0.19523815007E+04  0.25500000920E-02 0. -1.
</event>
<event>
 5   0  0.7348964E-06  0.2009085E+04  0.7818609E-02  0.8602385E-01
        1   -1    0    0  501    0  0.00000000000E+00  0.00000000000E+00  0.92111747177E+03  0.92111747178E+03  0.50400001928E-02 0.  1.
       -1   -1    0    0    0  501  0.00000000000E+00  0.00000000000E+00 -0.10955233603E+04  0.10955233603E+04  0.50400001928E-02 0. -1.
    10030    2    1    2    0    0  0.00000000000E+00  0.00000000000E+00 -0.17440588849E+03  0.20166408321E+04  0.20090850733E+04 0.  0.
        1    1    3    3  502    0 -0.40177246637E+03  0.13904690758E+03 -0.10007634409E+04  0.10873282034E+04  0.50400001928E-02 0. -1.
       -1    1    3    3    0  502  0.40177246637E+03 -0.13904690758E+03  0.82635755243E+03  0.92931262863E+03  0.50400001928E-02 0.  1.
</event>
<event>
 5   0  0.7351590E-06  0.2698733E+04  0.7818609E-02  0.8335416E-01
       -1   -1    0    0    0  501  0.00000000000E+00  0.00000000000E+00  0.10394744599E+04  0.10394744600E+04  0.50400001928E-02 0.  1.
        1   -1    0    0  501    0  0.00000000000E+00  0.00000000000E+00 -0.17516441294E+04  0.17516441294E+04  0.50400001928E-02 0. -1.
    10030    2    1    2    0    0  0.00000000000E+00  0.00000000000E+00 -0.71216966946E+03  0.27911185894E+04  0.26987325436E+04 0.  0.
        3    1    3    3  502    0 -0.33957946936E+03  0.17684479787E+03  0.98211892289E+03  0.10541090491E+04  0.10100000352E+00 0.  1.
       -3    1    3    3    0  502  0.33957946936E+03 -0.17684479787E+03 -0.16942885923E+04  0.17370095402E+04  0.10100000352E+00 0. -1.
</event>
<event>
 5   0  0.7351590E-06  0.2651221E+04  0.7818609E-02  0.8351008E-01
       -1   -1    0    0    0  501  0.00000000000E+00  0.00000000000E+00  0.12407411370E+04  0.12407411370E+04  0.50400001928E-02 0.  1.
        1   -1    0    0  501    0  0.00000000000E+00  0.00000000000E+00 -0.14162851629E+04  0.14162851629E+04  0.50400001928E-02 0. -1.
    10030    2    1    2    0    0  0.00000000000E+00  0.00000000000E+00 -0.17554402593E+03  0.26570262999E+04  0.26512210495E+04 0.  0.
        3    1    3    3  502    0  0.76973373012E+03 -0.66347878023E+03 -0.94084038086E+03  0.13848735464E+04  0.10100000352E+00 0. -1.
       -3    1    3    3    0  502 -0.76973373012E+03  0.66347878023E+03  0.76529635493E+03  0.12721527535E+04  0.10100000352E+00 0.  1.
</event>
<event>
 5   0  0.1788003E-05  0.2684913E+04  0.7818609E-02  0.8339917E-01
        2   -1    0    0  501    0  0.00000000000E+00  0.00000000000E+00  0.18557229042E+04  0.18557229042E+04  0.25500000920E-02 0. -1.
       -2   -1    0    0    0  501  0.00000000000E+00  0.00000000000E+00 -0.97115234713E+03  0.97115234713E+03  0.25500000920E-02 0.  1.
    10030    2    1    2    0    0  0.00000000000E+00  0.00000000000E+00  0.88457055704E+03  0.28268752513E+04  0.26849131487E+04 0.  0.
        2    1    3    3  502    0  0.47645700493E+03  0.62137570663E+03  0.15903866189E+04  0.17726953048E+04  0.25500000920E-02 0. -1.
       -2    1    3    3    0  502 -0.47645700493E+03 -0.62137570663E+03 -0.70581606184E+03  0.10541799464E+04  0.25500000920E-02 0.  1.
</event>
<event>
 5   0  0.7600052E-06  0.2680603E+04  0.7818609E-02  0.8341326E-01
        1   -1    0    0  501    0  0.00000000000E+00  0.00000000000E+00  0.14700770725E+04  0.14700770726E+04  0.50400001928E-02 0. -1.
       -1   -1    0    0    0  501  0.00000000000E+00  0.00000000000E+00 -0.12219820666E+04  0.12219820667E+04  0.50400001928E-02 0.  1.
    10030    2    1    2    0    0  0.00000000000E+00  0.00000000000E+00  0.24809500589E+03  0.26920591392E+04  0.26806027824E+04 0.  0.
        5    1    3    3  502    0  0.11244966405E+04  0.48789051551E+03  0.66844901730E+03  0.13962005688E+04  0.46999998093E+01 0. -1.
       -5    1    3    3    0  502 -0.11244966405E+04 -0.48789051551E+03 -0.42035401141E+03  0.12958585704E+04  0.46999998093E+01 0.  1.
</event>
<event>
 5   0  0.1826851E-05  0.2703670E+04  0.7818609E-02  0.8333815E-01
       -2   -1    0    0    0  501  0.00000000000E+00  0.00000000000E+00  0.16065125942E+04  0.16065125942E+04  0.25500000920E-02 0.  1.
        2   -1    0    0  501    0  0.00000000000E+00  0.00000000000E+00 -0.11375306896E+04  0.11375306896E+04  0.25500000920E-02 0. -1.
    10030    2    1    2    0    0  0.00000000000E+00  0.00000000000E+00  0.46898190460E+03  0.27440432838E+04  0.27036696389E+04 0.  0.
        5    1    3    3  502    0 -0.91800384606E+03 -0.30488876904E+03  0.11929160505E+04  0.15358251907E+04  0.46999998093E+01 0.  1.
       -5    1    3    3    0  502  0.91800384606E+03  0.30488876904E+03 -0.72393414591E+03  0.12082180931E+04  0.46999998093E+01 0. -1.
</event>
<event>
 5   0  0.6804685E-06  0.2703289E+04  0.7818609E-02  0.8333939E-01
       -1   -1    0    0    0  501  0.00000000000E+00  0.00000000000E+00  0.15610713955E+04  0.15610713955E+04  0.50400001928E-02 0.  1.
        1   -1    0    0  501    0  0.00000000000E+00  0.00000000000E+00 -0.11703132127E+04  0.11703132128E+04  0.50400001928E-02 0. -1.
    10030    2    1    2    0    0  0.00000000000E+00  0.00000000000E+00  0.39075818277E+03  0.27313846083E+04  0.27032887232E+04 0.  0.
        2    1    3    3  502    0  0.54585395954E+03  0.11324786227E+04  0.69700458192E+03  0.14374560039E+04  0.25500000920E-02 0.  1.
       -2    1    3    3    0  502 -0.54585395954E+03 -0.11324786227E+04 -0.30624639916E+03  0.12939286043E+04  0.25500000920E-02 0. -1.
</event>
<event>
 5   0  0.6804685E-06  0.2726803E+04  0.7818609E-02  0.8326360E-01
        1   -1    0    0  501    0  0.00000000000E+00  0.00000000000E+00  0.21532623861E+04  0.21532623861E+04  0.50400001928E-02 0. -1.
       -1   -1    0    0    0  501  0.00000000000E+00  0.00000000000E+00 -0.86327812204E+03  0.86327812205E+03  0.50400001928E-02 0.  1.
    10030    2    1    2    0    0  0.00000000000E+00  0.00000000000E+00  0.12899842640E+04  0.30165405081E+04  0.27268034831E+04 0.  0.
        2    1    3    3  502    0 -0.11371199198E+04 -0.43297176226E+03 -0.35474464440E+02  0.12172775758E+04  0.25500000920E-02 0.  1.
       -2    1    3    3    0  502  0.11371199198E+04  0.43297176226E+03  0.13254587285E+04  0.17992629323E+04  0.25500000920E-02 0. -1.
</event>
<event>
 5   0  0.7348964E-06  0.2700761E+04  0.7818609E-02  0.8334758E-01
       -1   -1    0    0    0  501  0.00000000000E+00  0.00000000000E+00  0.73806435427E+03  0.73806435429E+03  0.50400001928E-02 0.  1.
        1   -1    0    0  501    0  0.00000000000E+00  0.00000000000E+00 -0.24706886884E+04  0.24706886884E+04  0.50400001928E-02 0. -1.
    10030    2    1    2    0    0  0.00000000000E+00  0.00000000000E+00 -0.17326243341E+04  0.32087530427E+04  0.27007608198E+04 0.  0.
        1    1    3    3  502    0  0.12611562306E+04 -0.46453750598E+03 -0.10222065298E+04  0.16885545066E+04  0.50400001928E-02 0.  1.
       -1    1    3    3    0  502 -0.12611562306E+04  0.46453750598E+03 -0.71041780438E+03  0.15201985361E+04  0.50400001928E-02 0. -1.
</event>
<event>
 5   0  0.6804685E-06  0.2687927E+04  0.7818609E-02  0.8338933E-01
        1   -1    0    0  501    0  0.00000000000E+00  0.00000000000E+00  0.14916208789E+04  0.14916208789E+04  0.50400001928E-02 0. -1.
       -1   -1    0    0    0  501  0.00000000000E+00  0.00000000000E+00 -0.12109231451E+04  0.12109231451E+04  0.50400001928E-02 0.  1.
    10030    2    1    2    0    0  0.00000000000E+00  0.00000000000E+00  0.28069773384E+03  0.27025440240E+04  0.26879272653E+04 0.  0.
        2    1    3    3  502    0 -0.84882647107E+03 -0.95456536434E+03  0.56039675984E+03  0.13948999753E+04  0.25500000920E-02 0. -1.
       -2    1    3    3    0  502  0.84882647107E+03  0.95456536434E+03 -0.27969902599E+03  0.13076440486E+04  0.25500000920E-02 0.  1.
</event>
<event>
 5   0  0.1878160E-05  0.2676650E+04  0.7818609E-02  0.8342621E-01
       -2   -1    0    0    0  501  0.00000000000E+00  0.00000000000E+00  0.94135723800E+03  0.94135723800E+03  0.25500000920E-02 0. -1.
        2   -1    0    0  501    0  0.00000000000E+00  0.00000000000E+00 -0.19026927105E+04  0.19026927105E+04  0.25500000920E-02 0.  1.
    10030    2    1    2    0    0  0.00000000000E+00  0.00000000000E+00 -0.96133547249E+03  0.28440499485E+04  0.26766498125E+04 0.  0.
        1    1    3    3  502    0  0.91284676533E+03 -0.21316149411E+03 -0.14955954052E+04  0.17650871524E+04  0.50400001928E-02 0.  1.
       -1    1    3    3    0  502 -0.91284676533E+03  0.21316149411E+03  0.53425993273E+03  0.10789627961E+04  0.50400001928E-02 0. -1.
</event>
<event>
 5   0  0.1878160E-05  0.2690269E+04  0.7818609E-02  0.8338169E-01
       -2   -1    0    0    0  501  0.00000000000E+00  0.00000000000E+00  0.10084485423E+04  0.10084485423E+04  0.25500000920E-02 0.  1.
        2   -1    0    0  501    0  0.00000000000E+00  0.00000000000E+00 -0.17942279179E+04  0.17942279179E+04  0.25500000920E-02 0. -1.
    10030    2    1    2    0    0  0.00000000000E+00  0.00000000000E+00 -0.78577937569E+03  0.28026764602E+04  0.26902687809E+04 0.  0.
        1    1    3    3  502    0 -0.58569868488E+03  0.10033552908E+04  0.31339139616E+03  0.12033199725E+04  0.50400001928E-02 0. -1.
       -1    1    3    3    0  502  0.58569868488E+03 -0.10033552908E+04 -0.10991707719E+04  0.15993564877E+04  0.50400001928E-02 0.  1.
</event>
<event>
 5   0  0.7754912E-06  0.2755352E+04  0.7818609E-02  0.8317265E-01
       -1   -1    0    0    0  501  0.00000000000E+00  0.00000000000E+00  0.15554108997E+04  0.15554108997E+04  0.50400001928E-02 0.  1.
        1   -1    0    0  501    0  0.00000000000E+00  0.00000000000E+00 -0.12202503494E+04  0.12202503494E+04  0.50400001928E-02 0. -1.
    10030    2    1    2    0    0  0.00000000000E+00  0.00000000000E+00  0.33516055034E+03  0.27756612491E+04  0.27553516609E+04 0.  0.
        4    1    3    3  502    0 -0.12624002662E+04 -0.52401923055E+03  0.34129991442E+03  0.14088072368E+04  0.12699999809E+01 0.  1.
       -4    1    3    3    0  502  0.12624002662E+04  0.52401923055E+03 -0.61393640784E+01  0.13668540122E+04  0.12699999809E+01 0. -1.
</event>
<event>
 5   0  0.1826851E-05  0.2717592E+04  0.7818609E-02  0.8329320E-01
        2   -1    0    0  501    0  0.00000000000E+00  0.00000000000E+00  0.18866388978E+04  0.18866388978E+04  0.25500000920E-02 0. -1.
       -2   -1    0    0    0  501  0.00000000000E+00  0.00000000000E+00 -0.97863238141E+03  0.97863238141E+03  0.25500000920E-02 0.  1.
    10030    2    1    2    0    0  0.00000000000E+00  0.00000000000E+00  0.90800651636E+03  0.28652712792E+04  0.27175915200E+04 0.  0.
        5    1    3    3  502    0 -0.90159194215E+03 -0.99824174767E+02  0.15206468389E+04  0.17706557527E+04  0.46999998093E+01 0.  1.
       -5    1    3    3    0  502  0.90159194215E+03  0.99824174767E+02 -0.61264032252E+03  0.10946155265E+04  0.46999998093E+01 0. -1.
</event>
<event>
 5   0  0.7600052E-06  0.2687806E+04  0.7818609E-02  0.8338972E-01
        1   -1    0    0  501    0  0.00000000000E+00  0.00000000000E+00  0.12376407433E+04  0.12376407433E+04  0.50400001928E-02 0.  1.
       -1   -1    0    0    0  501  0.00000000000E+00  0.00000000000E+00 -0.14592891506E+04  0.14592891506E+04  0.50400001928E-02 0. -1.
    10030    2    1    2    0    0  0.00000000000E+00  0.00000000000E+00 -0.22164840722E+03  0.26969298939E+04  0.26878063242E+04 0.  0.
        5    1    3    3  502    0 -0.10951970471E+04  0.30608258671E+03 -0.82943291802E+03  0.14075241303E+04  0.46999998093E+01 0. -1.
       -5    1    3    3    0  502  0.10951970471E+04 -0.30608258671E+03  0.60778451080E+03  0.12894057636E+04  0.46999998093E+01 0.  1.
</event>
<event>
 5   0  0.6804685E-06  0.2707413E+04  0.7818609E-02  0.8332604E-01
        1   -1    0    0  501    0  0.00000000000E+00  0.00000000000E+00  0.16120583156E+04  0.16120583156E+04  0.50400001928E-02 0. -1.
       -1   -1    0    0    0  501  0.00000000000E+00  0.00000000000E+00 -0.11367589028E+04  0.11367589029E+04  0.50400001928E-02 0.  1.
    10030    2    1    2    0    0  0.00000000000E+00  0.00000000000E+00  0.47529941275E+03  0.27488172185E+04  0.27074132615E+04 0.  0.
        2    1    3    3  502    0 -0.99339174819E+03 -0.90662868280E+03  0.39401438585E+03  0.14014457072E+04  0.25500000920E-02 0. -1.
       -2    1    3    3    0  502  0.99339174819E+03  0.90662868280E+03  0.81285026901E+02  0.13473715113E+04  0.25500000920E-02 0.  1.
</event>
<event>
 5   0  0.1826851E-05  0.2650240E+04  0.7818609E-02  0.8351333E-01
        2   -1    0    0  501    0  0.00000000000E+00  0.00000000000E+00  0.21820878053E+04  0.21820878053E+04  0.25500000920E-02 0. -1.
       -2   -1    0    0    0  501  0.00000000000E+00  0.00000000000E+00 -0.80470749949E+03  0.80470749950E+03  0.25500000920E-02 0.  1.
    10030    2    1    2    0    0  0.00000000000E+00  0.00000000000E+00  0.13773803058E+04  0.29867953048E+04  0.26502395526E+04 0.  0.
        5    1    3    3  502    0  0.44118229014E+02  0.10772073921E+04  0.15569837477E+04  0.18938169564E+04  0.46999998093E+01 0. -1.
       -5    1    3    3    0  502 -0.44118229014E+02 -0.10772073921E+04 -0.17960344185E+03  0.10929783484E+04  0.46999998093E+01 0.  1.
</event>
<event>
 5   0  0.1878160E-05  0.2735166E+04  0.7818609E-02  0.8323684E-01
       -2   -1    0    0    0  501  0.00000000000E+00  0.00000000000E+00  0.81157265935E+03  0.81157265935E+03  0.25500000920E-02 0.  1.
        2   -1    0    0  501    0  0.00000000000E+00  0.00000000000E+00 -0.23045180892E+04  0.23045180892E+04  0.25500000920E-02 0. -1.
    10030    2    1    2    0    0  0.00000000000E+00  0.00000000000E+00 -0.14929454299E+04  0.31160907486E+04  0.27351664477E+04 0.  0.
        1    1    3    3  502    0 -0.12303680279E+04 -0.12588229133E+03 -0.81553193591E+02  0.12394768085E+04  0.50400001928E-02 0.  1.
       -1    1    3    3    0  502  0.12303680279E+04  0.12588229133E+03 -0.14113922363E+04  0.18766139401E+04  0.50400001928E-02 0. -1.
</event>
<event>
 5   0  0.6804685E-06  0.2709073E+04  0.7818609E-02  0.8332067E-01
       -1   -1    0    0    0  501  0.00000000000E+00  0.00000000000E+00  0.11126281653E+04  0.11126281653E+04  0.50400001928E-02 0. -1.
        1   -1    0    0  501    0  0.00000000000E+00  0.00000000000E+00 -0.16490405680E+04  0.16490405680E+04  0.50400001928E-02 0.  1.
    10030    2    1    2    0    0  0.00000000000E+00  0.00000000000E+00 -0.53641240272E+03  0.27616687333E+04  0.27090728906E+04 0.  0.
        2    1    3    3  502    0 -0.27953362692E+03  0.72346395432E+02 -0.16173028424E+04  0.16428759946E+04  0.25500000920E-02 0.  1.
       -2    1    3    3    0  502  0.27953362692E+03 -0.72346395432E+02  0.10808904397E+04  0.11187927387E+04  0.25500000920E-02 0. -1.
</event>
<event>
 5   0  0.6175875E-06  0.2687401E+04  0.7818609E-02  0.8339104E-01
       -3   -1    0    0    0  501  0.00000000000E+00  0.00000000000E+00  0.15922066690E+04  0.15922066722E+04  0.10100000352E+00 0.  1.
        3   -1    0    0  501    0  0.00000000000E+00  0.00000000000E+00 -0.11339803064E+04  0.11339803109E+04  0.10100000352E+00 0. -1.
    10030    2    1    2    0    0  0.00000000000E+00  0.00000000000E+00  0.45822636259E+03  0.27261869832E+04  0.26874009875E+04 0.  0.
        4    1    3    3  502    0  0.26219743455E+03 -0.10144502655E+04 -0.62426070285E+03  0.12196556374E+04  0.12699999809E+01 0. -1.
       -4    1    3    3    0  502 -0.26219743455E+03  0.10144502655E+04  0.10824870654E+04  0.15065313457E+04  0.12699999809E+01 0.  1.
</event>
<event>
 5   0  0.7351590E-06  0.2585057E+04  0.7818609E-02  0.8373295E-01
       -1   -1    0    0    0  501  0.00000000000E+00  0.00000000000E+00  0.13121164247E+04  0.13121164247E+04  0.50400001928E-02 0. -1.
        1   -1    0    0  501    0  0.00000000000E+00  0.00000000000E+00 -0.12732326881E+04  0.12732326881E+04  0.50400001928E-02 0.  1.
    10030    2    1    2    0    0  0.00000000000E+00  0.00000000000E+00  0.38883736536E+02  0.25853491128E+04  0.25850566899E+04 0.  0.
        3    1    3    3  502    0 -0.11534101194E+04 -0.49342267909E+03  0.33061797884E+03  0.12973546554E+04  0.10100000352E+00 0. -1.
       -3    1    3    3    0  502  0.11534101194E+04  0.49342267909E+03 -0.29173424230E+03  0.12879944574E+04  0.10100000352E+00 0.  1.
</event>
<event>
 5   0  0.7351590E-06  0.2556948E+04  0.7818609E-02  0.8382974E-01
       -1   -1    0    0    0  501  0.00000000000E+00  0.00000000000E+00  0.19568068911E+04  0.19568068911E+04  0.50400001928E-02 0. -1.
        1   -1    0    0  501    0  0.00000000000E+00  0.00000000000E+00 -0.83528748851E+03  0.83528748853E+03  0.50400001928E-02 0.  1.
    10030    2    1    2    0    0  0.00000000000E+00  0.00000000000E+00  0.11215194026E+04  0.27920943797E+04  0.25569484262E+04 0.  0.
        3    1    3    3  502    0 -0.10484299786E+04 -0.67676327900E+03  0.25719709087E+03  0.12741131463E+04  0.10100000352E+00 0.  1.
       -3    1    3    3    0  502  0.10484299786E+04  0.67676327900E+03  0.86432231175E+03  0.15179812333E+04  0.10100000352E+00 0. -1.
</event>
<event>
 5   0  0.7600052E-06  0.2686124E+04  0.7818609E-02  0.8339521E-01
        1   -1    0    0  501    0  0.00000000000E+00  0.00000000000E+00  0.10234598555E+04  0.10234598555E+04  0.50400001928E-02 0.  1.
       -1   -1    0    0    0  501  0.00000000000E+00  0.00000000000E+00 -0.17624679397E+04  0.17624679397E+04  0.50400001928E-02 0. -1.
    10030    2    1    2    0    0  0.00000000000E+00  0.00000000000E+00 -0.73900808416E+03  0.27859277952E+04  0.26861237372E+04 0.  0.
        5    1    3    3  502    0  0.52885830163E+03  0.27439562122E+03 -0.16178915497E+04  0.17241169382E+04  0.46999998093E+01 0. -1.
       -5    1    3    3    0  502 -0.52885830163E+03 -0.27439562122E+03  0.87888346550E+03  0.10618108570E+04  0.46999998093E+01 0.  1.
</event>
<event>
 5   0  0.7754912E-06  0.2692175E+04  0.7818609E-02  0.8337548E-01
        1   -1    0    0  501    0  0.00000000000E+00  0.00000000000E+00  0.12142817306E+04  0.12142817306E+04  0.50400001928E-02 0.  1.
       -1   -1    0    0    0  501  0.00000000000E+00  0.00000000000E+00 -0.14921998835E+04  0.14921998835E+04  0.50400001928E-02 0. -1.
    10030    2    1    2    0    0  0.00000000000E+00  0.00000000000E+00 -0.27791815295E+03  0.27064816141E+04  0.26921746281E+04 0.  0.
        4    1    3    3  502    0  0.31235299494E+03  0.12714465727E+04  0.17544669968E+03  0.13209556912E+04  0.12699999809E+01 0.  1.
       -4    1    3    3    0  502 -0.31235299494E+03 -0.12714465727E+04 -0.45336485264E+03  0.13855259230E+04  0.12699999809E+01 0. -1.
</event>
<event>
 5   0  0.7600052E-06  0.2698946E+04  0.7818609E-02  0.8335347E-01
        1   -1    0    0  501    0  0.00000000000E+00  0.00000000000E+00  0.29450712083E+04  0.29450712083E+04  0.50400001928E-02 0. -1.
       -1   -1    0    0    0  501  0.00000000000E+00  0.00000000000E+00 -0.61834729973E+03  0.61834729975E+03  0.50400001928E-02 0.  1.
    10030    2    1    2    0    0  0.00000000000E+00  0.00000000000E+00  0.23267239086E+04  0.35634185080E+04  0.26989455935E+04 0.  0.
        5    1    3    3  502    0  0.11875045240E+04 -0.62041822390E+03  0.95059700633E+03  0.16427849907E+04  0.46999998093E+01 0. -1.
       -5    1    3    3    0  502 -0.11875045240E+04  0.62041822390E+03  0.13761269022E+04  0.19206335174E+04  0.46999998093E+01 0.  1.
</event>
<event>
 5   0  0.1881699E-05  0.2702159E+04  0.7818609E-02  0.8334305E-01
        2   -1    0    0  501    0  0.00000000000E+00  0.00000000000E+00  0.11819289387E+04  0.11819289387E+04  0.25500000920E-02 0.  1.
       -2   -1    0    0    0  501  0.00000000000E+00  0.00000000000E+00 -0.15444382002E+04  0.15444382002E+04  0.25500000920E-02 0. -1.
    10030    2    1    2    0    0  0.00000000000E+00  0.00000000000E+00 -0.36250926147E+03  0.27263671390E+04  0.27021592869E+04 0.  0.
        4    1    3    3  502    0  0.92662591339E+03 -0.81629008139E+03  0.37178867796E+03  0.12896486011E+04  0.12699999809E+01 0. -1.
       -4    1    3    3    0  502 -0.92662591339E+03  0.81629008139E+03 -0.73429793943E+03  0.14367185379E+04  0.12699999809E+01 0.  1.
</event>
<event>
 5   0  0.7600052E-06  0.2713704E+04  0.7818609E-02  0.8330572E-01
        1   -1    0    0  501    0  0.00000000000E+00  0.00000000000E+00  0.13536096324E+04  0.13536096324E+04  0.50400001928E-02 0. -1.
       -1   -1    0    0    0  501  0.00000000000E+00  0.00000000000E+00 -0.13601022255E+04  0.13601022255E+04  0.50400001928E-02 0.  1.
    10030    2    1    2    0    0  0.00000000000E+00  0.00000000000E+00 -0.64925930624E+01  0.27137118579E+04  0.27137040911E+04 0.  0.
        5    1    3    3  502    0  0.46753880754E+03  0.69231141883E+02 -0.12751146685E+04  0.13598988916E+04  0.46999998093E+01 0.  1.
       -5    1    3    3    0  502 -0.46753880754E+03 -0.69231141883E+02  0.12686220754E+04  0.13538129663E+04  0.46999998093E+01 0. -1.
</event>
<event>
 5   0  0.1931119E-05  0.2672975E+04  0.7818609E-02  0.8343827E-01
       -2   -1    0    0    0  501  0.00000000000E+00  0.00000000000E+00  0.13679172989E+04  0.13679172989E+04  0.25500000920E-02 0.  1.
        2   -1    0    0  501    0  0.00000000000E+00  0.00000000000E+00 -0.13057796580E+04  0.13057796580E+04  0.25500000920E-02 0. -1.
    10030    2    1    2    0    0  0.00000000000E+00  0.00000000000E+00  0.62137640896E+02  0.26736969569E+04  0.26729748092E+04 0.  0.
        3    1    3    3  502    0  0.60410904205E+03 -0.76845797048E+03 -0.88061759099E+03  0.13156605713E+04  0.10100000352E+00 0. -1.
       -3    1    3    3    0  502 -0.60410904205E+03  0.76845797048E+03  0.94275523188E+03  0.13580363856E+04  0.10100000352E+00 0.  1.
</event>
<event>
 5   0  0.1931119E-05  0.2701279E+04  0.7818609E-02  0.8334590E-01
        2   -1    0    0  501    0  0.00000000000E+00  0.00000000000E+00  0.15741654792E+04  0.15741654792E+04  0.25500000920E-02 0.  1.
       -2   -1    0    0    0  501  0.00000000000E+00  0.00000000000E+00 -0.11588534820E+04  0.11588534820E+04  0.25500000920E-02 0. -1.
    10030    2    1    2    0    0  0.00000000000E+00  0.00000000000E+00  0.41531199722E+03  0.27330189612E+04  0.27012790651E+04 0.  0.
        3    1    3    3  502    0  0.96876932063E+03 -0.81211610678E+03 -0.27351654534E+03  0.12933900720E+04  0.10100000352E+00 0. -1.
       -3    1    3    3    0  502 -0.96876932063E+03  0.81211610678E+03  0.68882854257E+03  0.14396288892E+04  0.10100000352E+00 0.  1.
</event>
<event>
 5   0  0.6804685E-06  0.2711654E+04  0.7818609E-02  0.8331234E-01
       -1   -1    0    0    0  501  0.00000000000E+00  0.00000000000E+00  0.90857285728E+03  0.90857285729E+03  0.50400001928E-02 0.  1.
        1   -1    0    0  501    0  0.00000000000E+00  0.00000000000E+00 -0.20232463676E+04  0.20232463676E+04  0.50400001928E-02 0. -1.
    10030    2    1    2    0    0  0.00000000000E+00  0.00000000000E+00 -0.11146735103E+04  0.29318192249E+04  0.27116539110E+04 0.  0.
        2    1    3    3  502    0 -0.64028813748E+03 -0.57374817536E+03 -0.16908423793E+04  0.18968668428E+04  0.25500000920E-02 0. -1.
       -2    1    3    3    0  502  0.64028813748E+03  0.57374817536E+03  0.57616886894E+03  0.10349523821E+04  0.25500000920E-02 0.  1.
</event>
<event>
 5   0  0.1826851E-05  0.2685345E+04  0.7818609E-02  0.8339776E-01
        2   -1    0    0  501    0  0.00000000000E+00  0.00000000000E+00  0.11297446930E+04  0.11297446930E+04  0.25500000920E-02 0.  1.
       -2   -1    0    0    0  501  0.00000000000E+00  0.00000000000E+00 -0.15957315329E+04  0.15957315329E+04  0.25500000920E-02 0. -1.
    10030    2    1    2    0    0  0.00000000000E+00  0.00000000000E+00 -0.46598683993E+03  0.27254762259E+04  0.26853448424E+04 0.  0.
        5    1    3    3  502    0 -0.97344018721E+03  0.85645155813E+03 -0.58699246271E+03  0.14232629099E+04  0.46999998093E+01 0. -1.
       -5    1    3    3    0  502  0.97344018721E+03 -0.85645155813E+03  0.12100562278E+03  0.13022133159E+04  0.46999998093E+01 0.  1.
</event>
<event>
 5   0  0.7600052E-06  0.2666152E+04  0.7818609E-02  0.8346072E-01
       -1   -1    0    0    0  501  0.00000000000E+00  0.00000000000E+00  0.10313328564E+04  0.10313328564E+04  0.50400001928E-02 0.  1.
        1   -1    0    0  501    0  0.00000000000E+00  0.00000000000E+00 -0.17231017940E+04  0.17231017940E+04  0.50400001928E-02 0. -1.
    10030    2    1    2    0    0  0.00000000000E+00  0.00000000000E+00 -0.69176893758E+03  0.27544346504E+04  0.26661519050E+04 0.  0.
        5    1    3    3  502    0  0.39587964022E+03 -0.30265796702E+03  0.93148159446E+03  0.10564102353E+04  0.46999998093E+01 0.  1.
       -5    1    3    3    0  502 -0.39587964022E+03  0.30265796702E+03 -0.16232505320E+04  0.16980244151E+04  0.46999998093E+01 0. -1.
</event>
<event>
 5   0  0.6804685E-06  0.2668243E+04  0.7818609E-02  0.8345383E-01
        1   -1    0    0  501    0  0.00000000000E+00  0.00000000000E+00  0.15626355810E+04  0.15626355810E+04  0.50400001928E-02 0. -1.
       -1   -1    0    0    0  501  0.00000000000E+00  0.00000000000E+00 -0.11390246330E+04  0.11390246330E+04  0.50400001928E-02 0.  1.
    10030    2    1    2    0    0  0.00000000000E+00  0.00000000000E+00  0.42361094799E+03  0.27016602140E+04  0.26682431817E+04 0.  0.
        2    1    3    3  502    0  0.58676332970E+03  0.48705020124E+03 -0.89660602190E+03  0.11770350301E+04  0.25500000920E-02 0.  1.
       -2    1    3    3    0  502 -0.58676332970E+03 -0.48705020124E+03  0.13202169699E+04  0.15246251838E+04  0.25500000920E-02 0. -1.
</event>
<event>
 5   0  0.1826851E-05  0.2698846E+04  0.7818609E-02  0.8335380E-01
       -2   -1    0    0    0  501  0.00000000000E+00  0.00000000000E+00  0.14685811652E+04  0.14685811652E+04  0.25500000920E-02 0.  1.
        2   -1    0    0  501    0  0.00000000000E+00  0.00000000000E+00 -0.12399327643E+04  0.12399327643E+04  0.25500000920E-02 0. -1.
    10030    2    1    2    0    0  0.00000000000E+00  0.00000000000E+00  0.22864840091E+03  0.27085139295E+04  0.26988456079E+04 0.  0.
        5    1    3    3  502    0 -0.30201805792E+02 -0.50570584414E+03  0.13695122298E+04  0.14602179246E+04  0.46999998093E+01 0.  1.
       -5    1    3    3    0  502  0.30201805792E+02  0.50570584414E+03 -0.11408638289E+04  0.12482960049E+04  0.46999998093E+01 0. -1.
</event>
<event>
 5   0  0.1878160E-05  0.2626596E+04  0.7818609E-02  0.8359223E-01
        2   -1    0    0  501    0  0.00000000000E+00  0.00000000000E+00  0.22159791510E+04  0.22159791510E+04  0.25500000920E-02 0.  1.
       -2   -1    0    0    0  501  0.00000000000E+00  0.00000000000E+00 -0.77832500563E+03  0.77832500563E+03  0.25500000920E-02 0. -1.
    10030    2    1    2    0    0  0.00000000000E+00  0.00000000000E+00  0.14376541454E+04  0.29943041566E+04  0.26265962653E+04 0.  0.
        1    1    3    3  502    0  0.95760863686E+03 -0.89633596427E+03  0.64390315423E+03  0.14611788851E+04  0.50400001928E-02 0. -1.
       -1    1    3    3    0  502 -0.95760863686E+03  0.89633596427E+03  0.79375099115E+03  0.15331252715E+04  0.50400001928E-02 0.  1.
</event>
<event>
 5   0  0.6804685E-06  0.2722342E+04  0.7818609E-02  0.8327792E-01
       -1   -1    0    0    0  501  0.00000000000E+00  0.00000000000E+00  0.21100003855E+04  0.21100003855E+04  0.50400001928E-02 0.  1.
        1   -1    0    0  501    0  0.00000000000E+00  0.00000000000E+00 -0.87809792598E+03  0.87809792599E+03  0.50400001928E-02 0. -1.
    10030    2    1    2    0    0  0.00000000000E+00  0.00000000000E+00  0.12319024595E+04  0.29880983115E+04  0.27223423461E+04 0.  0.
        2    1    3    3  502    0  0.31988554896E+03  0.82302609023E+03 -0.52107337758E+03  0.10252883372E+04  0.25500000920E-02 0. -1.
       -2    1    3    3    0  502 -0.31988554896E+03 -0.82302609023E+03  0.17529758371E+04  0.19628099743E+04  0.25500000920E-02 0.  1.
</event>
<event>
 5   0  0.1878160E-05  0.2793995E+04  0.7818609E-02  0.8305135E-01
       -2   -1    0    0    0  501  0.00000000000E+00  0.00000000000E+00  0.83223133401E+03  0.83223133401E+03  0.25500000920E-02 0.  1.
        2   -1    0    0  501    0  0.00000000000E+00  0.00000000000E+00 -0.23450236618E+04  0.23450236618E+04  0.25500000920E-02 0. -1.
    10030    2    1    2    0    0  0.00000000000E+00  0.00000000000E+00 -0.15127923278E+04  0.31772549958E+04  0.27939951112E+04 0.  0.
        1    1    3    3  502    0  0.76151430167E+03  0.11497963431E+04 -0.50296603598E+03  0.14679613400E+04  0.50400001928E-02 0.  1.
       -1    1    3    3    0  502 -0.76151430167E+03 -0.11497963431E+04 -0.10098262918E+04  0.17092936558E+04  0.50400001928E-02 0. -1.
</event>
<event>
 5   0  0.7754912E-06  0.2704569E+04  0.7818609E-02  0.8333524E-01
        1   -1    0    0  501    0  0.00000000000E+00  0.00000000000E+00  0.10622119094E+04  0.10622119094E+04  0.50400001928E-02 0. -1.
       -1   -1    0    0    0  501  0.00000000000E+00  0.00000000000E+00 -0.17215706696E+04  0.17215706696E+04  0.50400001928E-02 0.  1.
    10030    2    1    2    0    0  0.00000000000E+00  0.00000000000E+00 -0.65935876021E+03  0.27837825791E+04  0.27045686297E+04 0.  0.
        4    1    3    3  502    0 -0.30103692730E+03 -0.45171512462E+03  0.94514451207E+03  0.10899401575E+04  0.12699999809E+01 0. -1.
       -4    1    3    3    0  502  0.30103692730E+03  0.45171512462E+03 -0.16045032723E+04  0.16938424216E+04  0.12699999809E+01 0.  1.
</event>
<event>
 5   0  0.1931119E-05  0.2696181E+04  0.7818609E-02  0.8336245E-01
        2   -1    0    0  501    0  0.00000000000E+00  0.00000000000E+00  0.21408846561E+04  0.21408846561E+04  0.25500000920E-02 0.  1.
       -2   -1    0    0    0  501  0.00000000000E+00  0.00000000000E+00 -0.84887682541E+03  0.84887682542E+03  0.25500000920E-02 0. -1.
    10030    2    1    2    0    0  0.00000000000E+00  0.00000000000E+00  0.12920078307E+04  0.29897614815E+04  0.26961805358E+04 0.  0.
        3    1    3    3  502    0 -0.50109753566E+03  0.12178200667E+04  0.32622310431E+03  0.13566893450E+04  0.10100000352E+00 0.  1.
       -3    1    3    3    0  502  0.50109753566E+03 -0.12178200667E+04  0.96578472636E+03  0.16330721364E+04  0.10100000352E+00 0. -1.
</event>
<event>
 5   0  0.7754912E-06  0.2676096E+04  0.7818609E-02  0.8342803E-01
        1   -1    0    0  501    0  0.00000000000E+00  0.00000000000E+00  0.12667306503E+04  0.12667306503E+04  0.50400001928E-02 0. -1.
       -1   -1    0    0    0  501  0.00000000000E+00  0.00000000000E+00 -0.14133804222E+04  0.14133804222E+04  0.50400001928E-02 0.  1.
    10030    2    1    2    0    0  0.00000000000E+00  0.00000000000E+00 -0.14664977189E+03  0.26801110725E+04  0.26760958886E+04 0.  0.
        4    1    3    3  502    0  0.22723620461E+03 -0.13066103267E+04 -0.25108443396E+03  0.13497821470E+04  0.12699999809E+01 0. -1.
       -4    1    3    3    0  502 -0.22723620461E+03  0.13066103267E+04  0.10443466207E+03  0.13303289255E+04  0.12699999809E+01 0.  1.
</event>
<event>
 5   0  0.1931119E-05  0.2910879E+04  0.7818609E-02  0.8269648E-01
       -2   -1    0    0    0  501  0.00000000000E+00  0.00000000000E+00  0.16035860255E+04  0.16035860255E+04  0.25500000920E-02 0.  1.
        2   -1    0    0  501    0  0.00000000000E+00  0.00000000000E+00 -0.13209794132E+04  0.13209794132E+04  0.25500000920E-02 0. -1.
    10030    2    1    2    0    0  0.00000000000E+00  0.00000000000E+00  0.28260661231E+03  0.29245654386E+04  0.29108789922E+04 0.  0.
        3    1    3    3  502    0  0.14312293199E+04  0.24870388041E+03  0.51254160299E+02  0.14535810901E+04  0.10100000352E+00 0.  1.
       -3    1    3    3    0  502 -0.14312293199E+04 -0.24870388041E+03  0.23135245201E+03  0.14709843485E+04  0.10100000352E+00 0. -1.
</event>
<event>
 5   0  0.1881699E-05  0.2712488E+04  0.7818609E-02  0.8330964E-01
       -2   -1    0    0    0  501  0.00000000000E+00  0.00000000000E+00  0.16851203304E+04  0.16851203304E+04  0.25500000920E-02 0. -1.
        2   -1    0    0  501    0  0.00000000000E+00  0.00000000000E+00 -0.10915529986E+04  0.10915529986E+04  0.25500000920E-02 0.  1.
    10030    2    1    2    0    0  0.00000000000E+00  0.00000000000E+00  0.59356733184E+03  0.27766733290E+04  0.27124882670E+04 0.  0.
        4    1    3    3  502    0 -0.39013662709E+03  0.11899676857E+04  0.82984259610E+03  0.15022882639E+04  0.12699999809E+01 0.  1.
       -4    1    3    3    0  502  0.39013662709E+03 -0.11899676857E+04 -0.23627526426E+03  0.12743850651E+04  0.12699999809E+01 0. -1.
</event>
<event>
 5   0  0.1788003E-05  0.2722270E+04  0.7818609E-02  0.8327815E-01
       -2   -1    0    0    0  501  0.00000000000E+00  0.00000000000E+00  0.12615221127E+04  0.12615221127E+04  0.25500000920E-02 0.  1.
        2   -1    0    0  501    0  0.00000000000E+00  0.00000000000E+00 -0.14686136884E+04  0.14686136884E+04  0.25500000920E-02 0. -1.
    10030    2    1    2    0    0  0.00000000000E+00  0.00000000000E+00 -0.20709157562E+03  0.27301358011E+04  0.27222701136E+04 0.  0.
        2    1    3    3  502    0  0.10243588542E+04  0.12128872578E+03 -0.99418080481E+03  0.14326260817E+04  0.25500000920E-02 0. -1.
       -2    1    3    3    0  502 -0.10243588542E+04 -0.12128872578E+03  0.78708922919E+03  0.12975097194E+04  0.25500000920E-02 0.  1.
</event>
<event>
 5   0  0.1788003E-05  0.2699275E+04  0.7818609E-02  0.8335240E-01
       -2   -1    0    0    0  501  0.00000000000E+00  0.00000000000E+00  0.94292212487E+03  0.94292212487E+03  0.25500000920E-02 0.  1.
        2   -1    0    0  501    0  0.00000000000E+00  0.00000000000E+00 -0.19317830357E+04  0.19317830357E+04  0.25500000920E-02 0. -1.
    10030    2    1    2    0    0  0.00000000000E+00  0.00000000000E+00 -0.98886091080E+03  0.28747051605E+04  0.26992746913E+04 0.  0.
        2    1    3    3  502    0  0.36496547098E+02  0.79180477049E+03 -0.16577769004E+04  0.18375285152E+04  0.25500000920E-02 0. -1.
       -2    1    3    3    0  502 -0.36496547098E+02 -0.79180477049E+03  0.66891598962E+03  0.10371766454E+04  0.25500000920E-02 0.  1.
</event>
<event>
 5   0  0.7754912E-06  0.2760204E+04  0.7818609E-02  0.8315731E-01
        1   -1    0    0  501    0  0.00000000000E+00  0.00000000000E+00  0.12502520942E+04  0.12502520942E+04  0.50400001928E-02 0. -1.
       -1   -1    0    0    0  501  0.00000000000E+00  0.00000000000E+00 -0.15234385209E+04  0.15234385209E+04  0.50400001928E-02 0.  1.
    10030    2    1    2    0    0  0.00000000000E+00  0.00000000000E+00 -0.27318642674E+03  0.27736906152E+04  0.27602044861E+04 0.  0.
        4    1    3    3  502    0 -0.59680784485E+03  0.95805310829E+03 -0.93459869160E+03  0.14654424892E+04  0.12699999809E+01 0.  1.
       -4    1    3    3    0  502  0.59680784485E+03 -0.95805310829E+03  0.66141226486E+03  0.13082481259E+04  0.12699999809E+01 0. -1.
</event>
<event>
 5   0  0.1788003E-05  0.2726479E+04  0.7818609E-02  0.8326464E-01
       -2   -1    0    0    0  501  0.00000000000E+00  0.00000000000E+00  0.83855441113E+03  0.83855441113E+03  0.25500000920E-02 0.  1.
        2   -1    0    0  501    0  0.00000000000E+00  0.00000000000E+00 -0.22162211301E+04  0.22162211301E+04  0.25500000920E-02 0. -1.
    10030    2    1    2    0    0  0.00000000000E+00  0.00000000000E+00 -0.13776667190E+04  0.30547755413E+04  0.27264790516E+04 0.  0.
        2    1    3    3  502    0  0.13172527677E+04 -0.28493917477E+03 -0.91865905408E+03  0.16310363714E+04  0.25500000920E-02 0. -1.
       -2    1    3    3    0  502 -0.13172527677E+04  0.28493917477E+03 -0.45900766492E+03  0.14237391698E+04  0.25500000920E-02 0.  1.
</event>
<event>
 5   0  0.1826851E-05  0.3016667E+04  0.7818609E-02  0.8238988E-01
        2   -1    0    0  501    0  0.00000000000E+00  0.00000000000E+00  0.14687446621E+04  0.14687446621E+04  0.25500000920E-02 0. -1.
       -2   -1    0    0    0  501  0.00000000000E+00  0.00000000000E+00 -0.15489893326E+04  0.15489893327E+04  0.25500000920E-02 0.  1.
    10030    2    1    2    0    0  0.00000000000E+00  0.00000000000E+00 -0.80244670507E+02  0.30177339948E+04  0.30166669117E+04 0.  0.
        5    1    3    3  502    0 -0.61365026276E+03  0.13583085811E+04  0.19121447213E+03  0.15027155122E+04  0.46999998093E+01 0. -1.
       -5    1    3    3    0  502  0.61365026276E+03 -0.13583085811E+04 -0.27145914264E+03  0.15150184826E+04  0.46999998093E+01 0.  1.
</event>
<event>
 5   0  0.1826851E-05  0.2678108E+04  0.7818609E-02  0.8342143E-01
        2   -1    0    0  501    0  0.00000000000E+00  0.00000000000E+00  0.13475357350E+04  0.13475357350E+04  0.25500000920E-02 0.  1.
       -2   -1    0    0    0  501  0.00000000000E+00  0.00000000000E+00 -0.13306257041E+04  0.13306257041E+04  0.25500000920E-02 0. -1.
    10030    2    1    2    0    0  0.00000000000E+00  0.00000000000E+00  0.16910030950E+02  0.26781614391E+04  0.26781080532E+04 0.  0.
        5    1    3    3  502    0  0.11286751631E+04 -0.64895458491E+03  0.32150105986E+03  0.13410573063E+04  0.46999998093E+01 0.  1.
       -5    1    3    3    0  502 -0.11286751631E+04  0.64895458491E+03 -0.30459102891E+03  0.13371041328E+04  0.46999998093E+01 0. -1.
</event>
<event>
 5   0  0.1931119E-05  0.2695537E+04  0.7818609E-02  0.8336454E-01
       -2   -1    0    0    0  501  0.00000000000E+00  0.00000000000E+00  0.12831432674E+04  0.12831432674E+04  0.25500000920E-02 0. -1.
        2   -1    0    0  501    0  0.00000000000E+00  0.00000000000E+00 -0.14156488218E+04  0.14156488218E+04  0.25500000920E-02 0.  1.
    10030    2    1    2    0    0  0.00000000000E+00  0.00000000000E+00 -0.13250555436E+03  0.26987920892E+04  0.26955372412E+04 0.  0.
        3    1    3    3  502    0  0.11715679880E+04 -0.34429009663E+03 -0.63735633208E+03  0.13774361420E+04  0.10100000352E+00 0.  1.
       -3    1    3    3    0  502 -0.11715679880E+04  0.34429009663E+03  0.50485077771E+03  0.13213559472E+04  0.10100000352E+00 0. -1.
</event>
<event>
 5   0  0.7600052E-06  0.2726513E+04  0.7818609E-02  0.8326453E-01
       -1   -1    0    0    0  501  0.00000000000E+00  0.00000000000E+00  0.29405711088E+04  0.29405711088E+04  0.50400001928E-02 0. -1.
        1   -1    0    0  501    0  0.00000000000E+00  0.00000000000E+00 -0.63200923613E+03  0.63200923615E+03  0.50400001928E-02 0.  1.
    10030    2    1    2    0    0  0.00000000000E+00  0.00000000000E+00  0.23085618727E+04  0.35725803450E+04  0.27265128647E+04 0.  0.
        5    1    3    3  502    0 -0.28858218076E+03  0.12936362738E+04  0.15720864100E+04  0.20562714447E+04  0.46999998093E+01 0. -1.
       -5    1    3    3    0  502  0.28858218076E+03 -0.12936362738E+04  0.73647546271E+03  0.15163089003E+04  0.46999998093E+01 0.  1.
</event>
<event>
 5   0  0.7348964E-06  0.2666977E+04  0.7818609E-02  0.8345800E-01
       -1   -1    0    0    0  501  0.00000000000E+00  0.00000000000E+00  0.68467222172E+03  0.68467222174E+03  0.50400001928E-02 0.  1.
        1   -1    0    0  501    0  0.00000000000E+00  0.00000000000E+00 -0.25971422928E+04  0.25971422928E+04  0.50400001928E-02 0. -1.
    10030    2    1    2    0    0  0.00000000000E+00  0.00000000000E+00 -0.19124700711E+04  0.32818145145E+04  0.26669767031E+04 0.  0.
        1    1    3    3  502    0 -0.58640308530E+03  0.11835069822E+04 -0.11819097813E+04  0.17724187108E+04  0.50400001928E-02 0. -1.
       -1    1    3    3    0  502  0.58640308530E+03 -0.11835069822E+04 -0.73056028979E+03  0.15093958037E+04  0.50400001928E-02 0.  1.
</event>
<event>
 5   0  0.1931119E-05  0.2674712E+04  0.7818609E-02  0.8343257E-01
       -2   -1    0    0    0  501  0.00000000000E+00  0.00000000000E+00  0.10720308849E+04  0.10720308849E+04  0.25500000920E-02 0.  1.
        2   -1    0    0  501    0  0.00000000000E+00  0.00000000000E+00 -0.16683482839E+04  0.16683482839E+04  0.25500000920E-02 0. -1.
    10030    2    1    2    0    0  0.00000000000E+00  0.00000000000E+00 -0.59631739898E+03  0.27403791688E+04  0.26747118627E+04 0.  0.
        3    1    3    3  502    0 -0.91884318480E+03 -0.88122446255E+03  0.12139660009E+03  0.12788926837E+04  0.10100000352E+00 0. -1.
       -3    1    3    3    0  502  0.91884318480E+03  0.88122446255E+03 -0.71771399907E+03  0.14614864852E+04  0.10100000352E+00 0.  1.
</event>
<event>
 5   0  0.6804685E-06  0.2707903E+04  0.7818609E-02  0.8332445E-01
        1   -1    0    0  501    0  0.00000000000E+00  0.00000000000E+00  0.15315158589E+04  0.15315158589E+04  0.50400001928E-02 0.  1.
       -1   -1    0    0    0  501  0.00000000000E+00  0.00000000000E+00 -0.11969742131E+04  0.11969742131E+04  0.50400001928E-02 0. -1.
    10030    2    1    2    0    0  0.00000000000E+00  0.00000000000E+00  0.33454164581E+03  0.27284900720E+04  0.27079032405E+04 0.  0.
        2    1    3    3  502    0 -0.11721612998E+04  0.58232772010E+03  0.51648512619E+03  0.14070623909E+04  0.25500000920E-02 0.  1.
       -2    1    3    3    0  502  0.11721612998E+04 -0.58232772010E+03 -0.18194348038E+03  0.13214276811E+04  0.25500000920E-02 0. -1.
</event>
<event>
 5   0  0.1881699E-05  0.2697890E+04  0.7818609E-02  0.8335690E-01
       -2   -1    0    0    0  501  0.00000000000E+00  0.00000000000E+00  0.18030266539E+04  0.18030266539E+04  0.25500000920E-02 0.  1.
        2   -1    0    0  501    0  0.00000000000E+00  0.00000000000E+00 -0.10092210143E+04  0.10092210143E+04  0.25500000920E-02 0. -1.
    10030    2    1    2    0    0  0.00000000000E+00  0.00000000000E+00  0.79380563966E+03  0.28122476682E+04  0.26978898335E+04 0.  0.
        4    1    3    3  502    0  0.68277477164E+03  0.86468558742E+03  0.12082183070E+04  0.16351316902E+04  0.12699999809E+01 0.  1.
       -4    1    3    3    0  502 -0.68277477164E+03 -0.86468558742E+03 -0.41441266738E+03  0.11771159780E+04  0.12699999809E+01 0. -1.
</event>
<event>
 5   0  0.7754912E-06  0.2702506E+04  0.7818609E-02  0.8334192E-01
       -1   -1    0    0    0  501  0.00000000000E+00  0.00000000000E+00  0.11370813157E+04  0.11370813157E+04  0.50400001928E-02 0.  1.
        1   -1    0    0  501    0  0.00000000000E+00  0.00000000000E+00 -0.16057638213E+04  0.16057638213E+04  0.50400001928E-02 0. -1.
    10030    2    1    2    0    0  0.00000000000E+00  0.00000000000E+00 -0.46868250564E+03  0.27428451370E+04  0.27025055327E+04 0.  0.
        4    1    3    3  502    0  0.11411991258E+04 -0.83994921312E+02  0.49505986708E+03  0.12467864599E+04  0.12699999809E+01 0.  1.
       -4    1    3    3    0  502 -0.11411991258E+04  0.83994921312E+02 -0.96374237272E+03  0.14960586771E+04  0.12699999809E+01 0. -1.
</event>
<event>
 5   0  0.1881699E-05  0.2713528E+04  0.7818609E-02  0.8330629E-01
       -2   -1    0    0    0  501  0.00000000000E+00  0.00000000000E+00  0.12429689274E+04  0.12429689274E+04  0.25500000920E-02 0. -1.
        2   -1    0    0  501    0  0.00000000000E+00  0.00000000000E+00 -0.14809772531E+04  0.14809772531E+04  0.25500000920E-02 0.  1.
    10030    2    1    2    0    0  0.00000000000E+00  0.00000000000E+00 -0.23800832576E+03  0.27239461805E+04  0.27135281150E+04 0.  0.
        4    1    3    3  502    0 -0.62442547314E+03 -0.40681905435E+03  0.10191026871E+04  0.12625295301E+04  0.12699999809E+01 0. -1.
       -4    1    3    3    0  502  0.62442547314E+03  0.40681905435E+03 -0.12571110129E+04  0.14614166504E+04  0.12699999809E+01 0.  1.
</event>
<event>
 5   0  0.1878160E-05  0.2688765E+04  0.7818609E-02  0.8338659E-01
       -2   -1    0    0    0  501  0.00000000000E+00  0.00000000000E+00  0.58619088190E+03  0.58619088191E+03  0.25500000920E-02 0. -1.
        2   -1    0    0  501    0  0.00000000000E+00  0.00000000000E+00 -0.30832355498E+04  0.30832355498E+04  0.25500000920E-02 0.  1.
    10030    2    1    2    0    0  0.00000000000E+00  0.00000000000E+00 -0.24970446679E+04  0.36694264317E+04  0.26887651932E+04 0.  0.
        1    1    3    3  502    0 -0.11788182943E+04 -0.63985823652E+03 -0.11239397711E+04  0.17499347825E+04  0.50400001928E-02 0. -1.
       -1    1    3    3    0  502  0.11788182943E+04  0.63985823652E+03 -0.13731048968E+04  0.19194916492E+04  0.50400001928E-02 0.  1.
</event>
<event>
 5   0  0.1788003E-05  0.2665563E+04  0.7818609E-02  0.8346266E-01
        2   -1    0    0  501    0  0.00000000000E+00  0.00000000000E+00  0.17151632572E+04  0.17151632572E+04  0.25500000920E-02 0. -1.
       -2   -1    0    0    0  501  0.00000000000E+00  0.00000000000E+00 -0.10356484025E+04  0.10356484025E+04  0.25500000920E-02 0.  1.
    10030    2    1    2    0    0  0.00000000000E+00  0.00000000000E+00  0.67951485472E+03  0.27508116598E+04  0.26655626704E+04 0.  0.
        2    1    3    3  502    0 -0.11999529757E+04  0.17129058574E+02 -0.25854768606E+03  0.12276104653E+04  0.25500000920E-02 0. -1.
       -2    1    3    3    0  502  0.11999529757E+04 -0.17129058574E+02  0.93806254078E+03  0.15232011945E+04  0.25500000920E-02 0.  1.
</event>
<event>
 5   0  0.7351590E-06  0.2709917E+04  0.7818609E-02  0.8331795E-01
        1   -1    0    0  501    0  0.00000000000E+00  0.00000000000E+00  0.22779032752E+04  0.22779032752E+04  0.50400001928E-02 0.  1.
       -1   -1    0    0    0  501  0.00000000000E+00  0.00000000000E+00 -0.80596568956E+03  0.80596568957E+03  0.50400001928E-02 0. -1.
    10030    2    1    2    0    0  0.00000000000E+00  0.00000000000E+00  0.14719375856E+04  0.30838689648E+04  0.27099165182E+04 0.  0.
        3    1    3    3  502    0  0.41193772343E+03  0.63477866116E+03  0.20150231330E+04  0.21524299927E+04  0.10100000352E+00 0.  1.
       -3    1    3    3    0  502 -0.41193772343E+03 -0.63477866116E+03 -0.54308554741E+03  0.93143897205E+03  0.10100000352E+00 0. -1.
</event>
<event>
 5   0  0.7348964E-06  0.2397406E+04  0.7818609E-02  0.8440475E-01
        1   -1    0    0  501    0  0.00000000000E+00  0.00000000000E+00  0.19227440500E+04  0.19227440500E+04  0.50400001928E-02 0. -1.
       -1   -1    0    0    0  501  0.00000000000E+00  0.00000000000E+00 -0.74731165469E+03  0.74731165471E+03  0.50400001928E-02 0.  1.
    10030    2    1    2    0    0  0.00000000000E+00  0.00000000000E+00  0.11754323953E+04  0.26700557047E+04  0.23974061296E+04 0.  0.
        1    1    3    3  502    0  0.23697750029E+03  0.30504676302E+02 -0.72052194507E+03  0.75910522609E+03  0.50400001928E-02 0.  1.
       -1    1    3    3    0  502 -0.23697750029E+03 -0.30504676302E+02  0.18959543404E+04  0.19109504786E+04  0.50400001928E-02 0. -1.
</event>
<event>
 5   0  0.6804685E-06  0.2716672E+04  0.7818609E-02  0.8329616E-01
        1   -1    0    0  501    0  0.00000000000E+00  0.00000000000E+00  0.99382330844E+03  0.99382330845E+03  0.50400001928E-02 0.  1.
       -1   -1    0    0    0  501  0.00000000000E+00  0.00000000000E+00 -0.18565435933E+04  0.18565435933E+04  0.50400001928E-02 0. -1.
    10030    2    1    2    0    0  0.00000000000E+00  0.00000000000E+00 -0.86272028487E+03  0.28503669018E+04  0.27166717109E+04 0.  0.
        2    1    3    3  502    0 -0.10373971527E+04 -0.73867118599E+03 -0.92710441823E+03  0.15752303247E+04  0.25500000920E-02 0. -1.
       -2    1    3    3    0  502  0.10373971527E+04  0.73867118599E+03  0.64384133363E+02  0.12751365771E+04  0.25500000920E-02 0.  1.
</event>
<event>
 5   0  0.1788003E-05  0.2752167E+04  0.7818609E-02  0.8318274E-01
       -2   -1    0    0    0  501  0.00000000000E+00  0.00000000000E+00  0.74796334017E+03  0.74796334017E+03  0.25500000920E-02 0.  1.
        2   -1    0    0  501    0  0.00000000000E+00  0.00000000000E+00 -0.25316822011E+04  0.25316822011E+04  0.25500000920E-02 0. -1.
    10030    2    1    2    0    0  0.00000000000E+00  0.00000000000E+00 -0.17837188610E+04  0.32796455413E+04  0.27521667649E+04 0.  0.
        2    1    3    3  502    0 -0.73689691761E+03  0.61294235072E+03  0.28474367056E+03  0.99989716992E+03  0.25500000920E-02 0.  1.
       -2    1    3    3    0  502  0.73689691761E+03 -0.61294235072E+03 -0.20684625315E+04  0.22797483714E+04  0.25500000920E-02 0. -1.
</event>
<event>
 5   0  0.1826851E-05  0.2715920E+04  0.7818609E-02  0.8329858E-01
       -2   -1    0    0    0  501  0.00000000000E+00  0.00000000000E+00  0.80697399345E+03  0.80697399346E+03  0.25500000920E-02 0. -1.
        2   -1    0    0  501    0  0.00000000000E+00  0.00000000000E+00 -0.22851480256E+04  0.22851480256E+04  0.25500000920E-02 0.  1.
    10030    2    1    2    0    0  0.00000000000E+00  0.00000000000E+00 -0.14781740321E+04  0.30921220191E+04  0.27159197542E+04 0.  0.
        5    1    3    3  502    0 -0.76698455619E+03 -0.32971617829E+03 -0.19584465718E+04  0.21289699698E+04  0.46999998093E+01 0.  1.
       -5    1    3    3    0  502  0.76698455619E+03  0.32971617829E+03  0.48027253966E+03  0.96315204927E+03  0.46999998093E+01 0. -1.
</event>
<event>
 5   0  0.7348964E-06  0.2820410E+04  0.7818609E-02  0.8296960E-01
       -1   -1    0    0    0  501  0.00000000000E+00  0.00000000000E+00  0.17066581754E+04  0.17066581754E+04  0.50400001928E-02 0. -1.
        1   -1    0    0  501    0  0.00000000000E+00  0.00000000000E+00 -0.11652467347E+04  0.11652467347E+04  0.50400001928E-02 0.  1.
    10030    2    1    2    0    0  0.00000000000E+00  0.00000000000E+00  0.54141144072E+03  0.28719049101E+04  0.28204098043E+04 0.  0.
        1    1    3    3  502    0  0.12704976849E+04 -0.37703283653E+03 -0.22013239549E+03  0.13434196659E+04  0.50400001928E-02 0.  1.
       -1    1    3    3    0  502 -0.12704976849E+04  0.37703283653E+03  0.76154383621E+03  0.15284852442E+04  0.50400001928E-02 0. -1.
</event>
<event>
 5   0  0.1878160E-05  0.2618794E+04  0.7818609E-02  0.8361845E-01
       -2   -1    0    0    0  501  0.00000000000E+00  0.00000000000E+00  0.80660774428E+03  0.80660774428E+03  0.25500000920E-02 0. -1.
        2   -1    0    0  501    0  0.00000000000E+00  0.00000000000E+00 -0.21255942351E+04  0.21255942351E+04  0.25500000920E-02 0.  1.
    10030    2    1    2    0    0  0.00000000000E+00  0.00000000000E+00 -0.13189864908E+04  0.29322019794E+04  0.26187942044E+04 0.  0.
        1    1    3    3  502    0  0.10374332468E+04  0.73789123060E+03 -0.31662800875E+03  0.13118706132E+04  0.50400001928E-02 0. -1.
       -1    1    3    3    0  502 -0.10374332468E+04 -0.73789123060E+03 -0.10023584821E+04  0.16203313662E+04  0.50400001928E-02 0.  1.
</event>
<event>
 5   0  0.7348964E-06  0.2684736E+04  0.7818609E-02  0.8339975E-01
       -1   -1    0    0    0  501  0.00000000000E+00  0.00000000000E+00  0.82773263707E+03  0.82773263708E+03  0.50400001928E-02 0. -1.
        1   -1    0    0  501    0  0.00000000000E+00  0.00000000000E+00 -0.21769734047E+04  0.21769734047E+04  0.50400001928E-02 0.  1.
    10030    2    1    2    0    0  0.00000000000E+00  0.00000000000E+00 -0.13492407677E+04  0.30047060418E+04  0.26847360668E+04 0.  0.
        1    1    3    3  502    0  0.11000915978E+04  0.74319628534E+03 -0.45244193503E+03  0.14025854508E+04  0.50400001928E-02 0. -1.
       -1    1    3    3    0  502 -0.11000915978E+04 -0.74319628534E+03 -0.89679883264E+03  0.16021205911E+04  0.50400001928E-02 0.  1.
</event>
<event>
 5   0  0.1826851E-05  0.2712757E+04  0.7818609E-02  0.8330878E-01
        2   -1    0    0  501    0  0.00000000000E+00  0.00000000000E+00  0.23727426792E+04  0.23727426792E+04  0.25500000920E-02 0. -1.
       -2   -1    0    0    0  501  0.00000000000E+00  0.00000000000E+00 -0.77537400717E+03  0.77537400718E+03  0.25500000920E-02 0.  1.
    10030    2    1    2    0    0  0.00000000000E+00  0.00000000000E+00  0.15973686720E+04  0.31481166864E+04  0.27127572683E+04 0.  0.
        5    1    3    3  502    0 -0.80756631932E+03 -0.32234783578E+03 -0.40937508082E+03  0.96108352089E+03  0.46999998093E+01 0.  1.
       -5    1    3    3    0  502  0.80756631932E+03  0.32234783578E+03  0.20067437528E+04  0.21870331655E+04  0.46999998093E+01 0. -1.
</event>
<event>
 5   0  0.1878160E-05  0.2721170E+04  0.7818609E-02  0.8328169E-01
       -2   -1    0    0    0  501  0.00000000000E+00  0.00000000000E+00  0.88191374973E+03  0.88191374973E+03  0.25500000920E-02 0. -1.
        2   -1    0    0  501    0  0.00000000000E+00  0.00000000000E+00 -0.20990617381E+04  0.20990617381E+04  0.25500000920E-02 0.  1.
    10030    2    1    2    0    0  0.00000000000E+00  0.00000000000E+00 -0.12171479884E+04  0.29809754878E+04  0.27211699016E+04 0.  0.
        1    1    3    3  502    0  0.98311048328E+02  0.43913566851E+03  0.79802968501E+03  0.91616405505E+03  0.50400001928E-02 0. -1.
       -1    1    3    3    0  502 -0.98311048328E+02 -0.43913566851E+03 -0.20151776734E+04  0.20648114328E+04  0.50400001928E-02 0.  1.
</event>
<event>
 5   0  0.1826851E-05  0.2666258E+04  0.7818609E-02  0.8346037E-01
       -2   -1    0    0    0  501  0.00000000000E+00  0.00000000000E+00  0.79975632388E+03  0.79975632388E+03  0.25500000920E-02 0.  1.
        2   -1    0    0  501    0  0.00000000000E+00  0.00000000000E+00 -0.22222183630E+04  0.22222183630E+04  0.25500000920E-02 0. -1.
    10030    2    1    2    0    0  0.00000000000E+00  0.00000000000E+00 -0.14224620391E+04  0.30219746868E+04  0.26662581937E+04 0.  0.
        5    1    3    3  502    0 -0.25384142460E+03 -0.12674788551E+04 -0.34174326290E+03  0.13370671878E+04  0.46999998093E+01 0.  1.
       -5    1    3    3    0  502  0.25384142460E+03  0.12674788551E+04 -0.10807187762E+04  0.16849074990E+04  0.46999998093E+01 0. -1.
</event>
<event>
 5   0  0.1826851E-05  0.2663062E+04  0.7818609E-02  0.8347091E-01
       -2   -1    0    0    0  501  0.00000000000E+00  0.00000000000E+00  0.10474492730E+04  0.10474492730E+04  0.25500000920E-02 0. -1.
        2   -1    0    0  501    0  0.00000000000E+00  0.00000000000E+00 -0.16926589404E+04  0.16926589404E+04  0.25500000920E-02 0.  1.
    10030    2    1    2    0    0  0.00000000000E+00  0.00000000000E+00 -0.64520966744E+03  0.27401082134E+04  0.26630616790E+04 0.  0.
        5    1    3    3  502    0 -0.29180639959E+03  0.66796545069E+03 -0.14691243338E+04  0.16400235414E+04  0.46999998093E+01 0.  1.
       -5    1    3    3    0  502  0.29180639959E+03 -0.66796545069E+03  0.82391466637E+03  0.11000846720E+04  0.46999998093E+01 0. -1.
</event>
<event>
 5   0  0.6804685E-06  0.2651787E+04  0.7818609E-02  0.8350820E-01
       -1   -1    0    0    0  501  0.00000000000E+00  0.00000000000E+00  0.88597658327E+03  0.88597658329E+03  0.50400001928E-02 0. -1.
        1   -1    0    0  501    0  0.00000000000E+00  0.00000000000E+00 -0.19842437905E+04  0.19842437905E+04  0.50400001928E-02 0.  1.
    10030    2    1    2    0    0  0.00000000000E+00  0.00000000000E+00 -0.10982672072E+04  0.28702203738E+04  0.26517869703E+04 0.  0.
        2    1    3    3  502    0  0.12175802033E+04  0.43564831650E+03 -0.86599798554E+03  0.15563558456E+04  0.25500000920E-02 0.  1.
       -2    1    3    3    0  502 -0.12175802033E+04 -0.43564831650E+03 -0.23226922170E+03  0.13138645282E+04  0.25500000920E-02 0. -1.
</event>
<event>
 5   0  0.1931119E-05  0.2741762E+04  0.7818609E-02  0.8321580E-01
       -2   -1    0    0    0  501  0.00000000000E+00  0.00000000000E+00  0.16938845852E+04  0.16938845852E+04  0.25500000920E-02 0. -1.
        2   -1    0    0  501    0  0.00000000000E+00  0.00000000000E+00 -0.11094704256E+04  0.11094704256E+04  0.25500000920E-02 0.  1.
    10030    2    1    2    0    0  0.00000000000E+00  0.00000000000E+00  0.58441415968E+03  0.28033550108E+04  0.27417620988E+04 0.  0.
        3    1    3    3  502    0 -0.51501656910E+03 -0.11715492194E+04 -0.21030619370E+03  0.12969187890E+04  0.10100000352E+00 0.  1.
       -3    1    3    3    0  502  0.51501656910E+03  0.11715492194E+04  0.79472035338E+03  0.15064362218E+04  0.10100000352E+00 0. -1.
</event>
<event>
 5   0  0.6804685E-06  0.2713409E+04  0.7818609E-02  0.8330667E-01
        1   -1    0    0  501    0  0.00000000000E+00  0.00000000000E+00  0.22257966877E+04  0.22257966877E+04  0.50400001928E-02 0.  1.
       -1   -1    0    0    0  501  0.00000000000E+00  0.00000000000E+00 -0.82696087408E+03  0.82696087409E+03  0.50400001928E-02 0. -1.
    10030    2    1    2    0    0  0.00000000000E+00  0.00000000000E+00  0.13988358136E+04  0.30527575618E+04  0.27134087598E+04 0.  0.
        2    1    3    3  502    0 -0.56054322070E+03 -0.53182158000E+03  0.19540550108E+04  0.21012791058E+04  0.25500000920E-02 0.  1.
       -2    1    3    3    0  502  0.56054322070E+03  0.53182158000E+03 -0.55521919720E+03  0.95147845597E+03  0.25500000920E-02 0. -1.
</event>
<event>
 5   0  0.1881699E-05  0.2686502E+04  0.7818609E-02  0.8339398E-01
       -2   -1    0    0    0  501  0.00000000000E+00  0.00000000000E+00  0.12776346239E+04  0.12776346239E+04  0.25500000920E-02 0. -1.
        2   -1    0    0  501    0  0.00000000000E+00  0.00000000000E+00 -0.14122371875E+04  0.14122371875E+04  0.25500000920E-02 0.  1.
    10030    2    1    2    0    0  0.00000000000E+00  0.00000000000E+00 -0.13460256363E+03  0.26898718115E+04  0.26865019099E+04 0.  0.
        4    1    3    3  502    0 -0.92195650429E+03  0.85339712057E+02 -0.10416791506E+04  0.13936942735E+04  0.12699999809E+01 0.  1.
       -4    1    3    3    0  502  0.92195650429E+03 -0.85339712057E+02  0.90707658701E+03  0.12961775379E+04  0.12699999809E+01 0. -1.
</event>
<event>
 5   0  0.7351590E-06  0.2643552E+04  0.7818609E-02  0.8353556E-01
       -1   -1    0    0    0  501  0.00000000000E+00  0.00000000000E+00  0.10840437088E+04  0.10840437088E+04  0.50400001928E-02 0. -1.
        1   -1    0    0  501    0  0.00000000000E+00  0.00000000000E+00 -0.16116433181E+04  0.16116433181E+04  0.50400001928E-02 0.  1.
    10030    2    1    2    0    0  0.00000000000E+00  0.00000000000E+00 -0.52759960923E+03  0.26956870269E+04  0.26435520043E+04 0.  0.
        3    1    3    3  502    0 -0.10209399482E+04 -0.64225293525E+03  0.28749584006E+03  0.12399439822E+04  0.10100000352E+00 0. -1.
       -3    1    3    3    0  502  0.10209399482E+04  0.64225293525E+03 -0.81509544930E+03  0.14557430447E+04  0.10100000352E+00 0.  1.
</event>
<event>
 5   0  0.1931119E-05  0.2779779E+04  0.7818609E-02  0.8309574E-01
        2   -1    0    0  501    0  0.00000000000E+00  0.00000000000E+00  0.16683177554E+04  0.16683177554E+04  0.25500000920E-02 0.  1.
       -2   -1    0    0    0  501  0.00000000000E+00  0.00000000000E+00 -0.11579282099E+04  0.11579282099E+04  0.25500000920E-02 0. -1.
    10030    2    1    2    0    0  0.00000000000E+00  0.00000000000E+00  0.51038954555E+03  0.28262459653E+04  0.27797785466E+04 0.  0.
        3    1    3    3  502    0 -0.42002455529E+03  0.33251407160E+03  0.15591332182E+04  0.16486002053E+04  0.10100000352E+00 0.  1.
       -3    1    3    3    0  502  0.42002455529E+03 -0.33251407160E+03 -0.10487436726E+04  0.11776457599E+04  0.10100000352E+00 0. -1.
</event>
<event>
 5   0  0.7754912E-06  0.2755889E+04  0.7818609E-02  0.8317095E-01
       -1   -1    0    0    0  501  0.00000000000E+00  0.00000000000E+00  0.11774794759E+04  0.11774794760E+04  0.50400001928E-02 0. -1.
        1   -1    0    0  501    0  0.00000000000E+00  0.00000000000E+00 -0.16125383519E+04  0.16125383519E+04  0.50400001928E-02 0.  1.
    10030    2    1    2    0    0  0.00000000000E+00  0.00000000000E+00 -0.43505887594E+03  0.27900178279E+04  0.27558888320E+04 0.  0.
        4    1    3    3  502    0  0.19551092647E+03 -0.59102318435E+03  0.10270015667E+04  0.12009441110E+04  0.12699999809E+01 0. -1.
       -4    1    3    3    0  502 -0.19551092647E+03  0.59102318435E+03 -0.14620604426E+04  0.15890737169E+04  0.12699999809E+01 0.  1.
</event>
<event>
 5   0  0.1878160E-05  0.2612041E+04  0.7818609E-02  0.8364123E-01
        2   -1    0    0  501    0  0.00000000000E+00  0.00000000000E+00  0.23136894077E+04  0.23136894077E+04  0.25500000920E-02 0.  1.
       -2   -1    0    0    0  501  0.00000000000E+00  0.00000000000E+00 -0.73721611925E+03  0.73721611925E+03  0.25500000920E-02 0. -1.
    10030    2    1    2    0    0  0.00000000000E+00  0.00000000000E+00  0.15764732885E+04  0.30509055270E+04  0.26120406783E+04 0.  0.
        1    1    3    3  502    0 -0.12618818947E+04  0.18722558172E+03  0.46142208754E+03  0.13565801405E+04  0.50400001928E-02 0. -1.
       -1    1    3    3    0  502  0.12618818947E+04 -0.18722558172E+03  0.11150512009E+04  0.16943253865E+04  0.50400001928E-02 0.  1.
</event>
<event>
 5   0  0.7600052E-06  0.2675657E+04  0.7818609E-02  0.8342947E-01
       -1   -1    0    0    0  501  0.00000000000E+00  0.00000000000E+00  0.10623259745E+04  0.10623259745E+04  0.50400001928E-02 0.  1.
        1   -1    0    0  501    0  0.00000000000E+00  0.00000000000E+00 -0.16847795571E+04  0.16847795571E+04  0.50400001928E-02 0. -1.
    10030    2    1    2    0    0  0.00000000000E+00  0.00000000000E+00 -0.62245358256E+03  0.27471055316E+04  0.26756569921E+04 0.  0.
        5    1    3    3  502    0  0.43484319412E+03 -0.82323268187E+03 -0.12975900721E+04  0.15970481324E+04  0.46999998093E+01 0. -1.
       -5    1    3    3    0  502 -0.43484319412E+03  0.82323268187E+03  0.67513648956E+03  0.11500573992E+04  0.46999998093E+01 0.  1.
</event>
<event>
 5   0  0.7754912E-06  0.2637892E+04  0.7818609E-02  0.8355443E-01
        1   -1    0    0  501    0  0.00000000000E+00  0.00000000000E+00  0.18130536864E+04  0.18130536864E+04  0.50400001928E-02 0. -1.
       -1   -1    0    0    0  501  0.00000000000E+00  0.00000000000E+00 -0.95949628177E+03  0.95949628179E+03  0.50400001928E-02 0.  1.
    10030    2    1    2    0    0  0.00000000000E+00  0.00000000000E+00  0.85355740460E+03  0.27725499682E+04  0.26378917876E+04 0.  0.
        4    1    3    3  502    0 -0.10008363476E+04  0.80958183157E+03  0.12485070449E+03  0.12933234120E+04  0.12699999809E+01 0. -1.
       -4    1    3    3    0  502  0.10008363476E+04 -0.80958183157E+03  0.72870670010E+03  0.14792265562E+04  0.12699999809E+01 0.  1.
</event>
<event>
 5   0  0.1931119E-05  0.2728223E+04  0.7818609E-02  0.8325905E-01
        2   -1    0    0  501    0  0.00000000000E+00  0.00000000000E+00  0.21982258259E+04  0.21982258259E+04  0.25500000920E-02 0.  1.
       -2   -1    0    0    0  501  0.00000000000E+00  0.00000000000E+00 -0.84650069742E+03  0.84650069743E+03  0.25500000920E-02 0. -1.
    10030    2    1    2    0    0  0.00000000000E+00  0.00000000000E+00  0.13517251285E+04  0.30447265233E+04  0.27282226410E+04 0.  0.
        3    1    3    3  502    0 -0.12686885415E+04  0.13761542380E+03  0.13798338468E+03  0.12835684808E+04  0.10100000352E+00 0. -1.
       -3    1    3    3    0  502  0.12686885415E+04 -0.13761542380E+03  0.12137417438E+04  0.17611580426E+04  0.10100000352E+00 0.  1.
</event>
<event>
 5   0  0.6175875E-06  0.2718170E+04  0.7818609E-02  0.8329134E-01
        3   -1    0    0  501    0  0.00000000000E+00  0.00000000000E+00  0.87575420898E+03  0.87575421481E+03  0.10100000352E+00 0. -1.
       -3   -1    0    0    0  501  0.00000000000E+00  0.00000000000E+00 -0.21091665376E+04  0.21091665400E+04  0.10100000352E+00 0.  1.
    10030    2    1    2    0    0  0.00000000000E+00  0.00000000000E+00 -0.12334123286E+04  0.29849207548E+04  0.27181695937E+04 0.  0.
        2    1    3    3  502    0 -0.20351995015E+03  0.21078980339E+03 -0.20740695039E+04  0.20946639392E+04  0.25500000920E-02 0.  1.
       -2    1    3    3    0  502  0.20351995015E+03 -0.21078980339E+03  0.84065717529E+03  0.89025681558E+03  0.25500000920E-02 0. -1.
</event>
<event>
 5   0  0.7351590E-06  0.2471932E+04  0.7818609E-02  0.8413054E-01
       -1   -1    0    0    0  501  0.00000000000E+00  0.00000000000E+00  0.76473801300E+03  0.76473801302E+03  0.50400001928E-02 0. -1.
        1   -1    0    0  501    0  0.00000000000E+00  0.00000000000E+00 -0.19975624502E+04  0.19975624502E+04  0.50400001928E-02 0.  1.
    10030    2    1    2    0    0  0.00000000000E+00  0.00000000000E+00 -0.12328244372E+04  0.27623004632E+04  0.24719319886E+04 0.  0.
        3    1    3    3  502    0  0.81918196076E+00 -0.10129866408E+04 -0.14077403117E+04  0.17343227500E+04  0.10100000352E+00 0.  1.
       -3    1    3    3    0  502 -0.81918196076E+00  0.10129866408E+04  0.17491587455E+03  0.10279777133E+04  0.10100000352E+00 0. -1.
</event>
<event>
 5   0  0.6804685E-06  0.2714507E+04  0.7818609E-02  0.8330313E-01
        1   -1    0    0  501    0  0.00000000000E+00  0.00000000000E+00  0.10554542402E+04  0.10554542402E+04  0.50400001928E-02 0. -1.
       -1   -1    0    0    0  501  0.00000000000E+00  0.00000000000E+00 -0.17453496388E+04  0.17453496389E+04  0.50400001928E-02 0.  1.
    10030    2    1    2    0    0  0.00000000000E+00  0.00000000000E+00 -0.68989539864E+03  0.28008038791E+04  0.27145067154E+04 0.  0.
        2    1    3    3  502    0 -0.43975462202E+03  0.12663778109E+04 -0.56392038972E+03  0.14543394011E+04  0.25500000920E-02 0. -1.
       -2    1    3    3    0  502  0.43975462202E+03 -0.12663778109E+04 -0.12597500892E+03  0.13464644780E+04  0.25500000920E-02 0.  1.
</event>
<event>
 5   0  0.1788003E-05  0.2718355E+04  0.7818609E-02  0.8329074E-01
       -2   -1    0    0    0  501  0.00000000000E+00  0.00000000000E+00  0.12463524466E+04  0.12463524466E+04  0.25500000920E-02 0. -1.
        2   -1    0    0  501    0  0.00000000000E+00  0.00000000000E+00 -0.14822162328E+04  0.14822162328E+04  0.25500000920E-02 0.  1.
    10030    2    1    2    0    0  0.00000000000E+00  0.00000000000E+00 -0.23586378623E+03  0.27285686794E+04  0.27183552587E+04 0.  0.
        2    1    3    3  502    0  0.96409966716E+02  0.12747939463E+04  0.34528801873E+03  0.13242425393E+04  0.25500000920E-02 0. -1.
       -2    1    3    3    0  502 -0.96409966716E+02 -0.12747939463E+04 -0.58115180497E+03  0.14043261400E+04  0.25500000920E-02 0.  1.
</event>
<event>
 5   0  0.6804685E-06  0.2691039E+04  0.7818609E-02  0.8337918E-01
        1   -1    0    0  501    0  0.00000000000E+00  0.00000000000E+00  0.24563065846E+04  0.24563065846E+04  0.50400001928E-02 0.  1.
       -1   -1    0    0    0  501  0.00000000000E+00  0.00000000000E+00 -0.73705068812E+03  0.73705068813E+03  0.50400001928E-02 0. -1.
    10030    2    1    2    0    0  0.00000000000E+00  0.00000000000E+00  0.17192558965E+04  0.31933572727E+04  0.26910388020E+04 0.  0.
        2    1    3    3  502    0 -0.12587511681E+04 -0.15416890839E+03  0.32602524449E+03  0.13093949044E+04  0.25500000920E-02 0. -1.
       -2    1    3    3    0  502  0.12587511681E+04  0.15416890839E+03  0.13932306520E+04  0.18839623683E+04  0.25500000920E-02 0.  1.
</event>
<event>
 5   0  0.6804685E-06  0.2667914E+04  0.7818609E-02  0.8345491E-01
        1   -1    0    0  501    0  0.00000000000E+00  0.00000000000E+00  0.16006153098E+04  0.16006153098E+04  0.50400001928E-02 0.  1.
       -1   -1    0    0    0  501  0.00000000000E+00  0.00000000000E+00 -0.11117231645E+04  0.11117231645E+04  0.50400001928E-02 0. -1.
    10030    2    1    2    0    0  0.00000000000E+00  0.00000000000E+00  0.48889214534E+03  0.27123384743E+04  0.26679138797E+04 0.  0.
        2    1    3    3  502    0  0.94124970042E+03 -0.77469978156E+03 -0.30617216365E+03  0.12569216936E+04  0.25500000920E-02 0. -1.
       -2    1    3    3    0  502 -0.94124970042E+03  0.77469978156E+03  0.79506430899E+03  0.14554167807E+04  0.25500000920E-02 0.  1.
</event>
<event>
 5   0  0.7351590E-06  0.2723373E+04  0.7818609E-02  0.8327461E-01
        1   -1    0    0  501    0  0.00000000000E+00  0.00000000000E+00  0.23547715109E+04  0.23547715109E+04  0.50400001928E-02 0. -1.
       -1   -1    0    0    0  501  0.00000000000E+00  0.00000000000E+00 -0.78741840452E+03  0.78741840454E+03  0.50400001928E-02 0.  1.
    10030    2    1    2    0    0  0.00000000000E+00  0.00000000000E+00  0.15673531064E+04  0.31421899155E+04  0.27233732217E+04 0.  0.
        3    1    3    3  502    0 -0.93117246237E+03  0.36243411820E+03  0.18510064229E+04  0.21034888715E+04  0.10100000352E+00 0. -1.
       -3    1    3    3    0  502  0.93117246237E+03 -0.36243411820E+03 -0.28365331644E+03  0.10387010440E+04  0.10100000352E+00 0.  1.
</event>
<event>
 5   0  0.1878160E-05  0.2641942E+04  0.7818609E-02  0.8354092E-01
        2   -1    0    0  501    0  0.00000000000E+00  0.00000000000E+00  0.18328736908E+04  0.18328736908E+04  0.25500000920E-02 0. -1.
       -2   -1    0    0    0  501  0.00000000000E+00  0.00000000000E+00 -0.95203773204E+03  0.95203773204E+03  0.25500000920E-02 0.  1.
    10030    2    1    2    0    0  0.00000000000E+00  0.00000000000E+00  0.88083595879E+03  0.27849114229E+04  0.26419424004E+04 0.  0.
        1    1    3    3  502    0 -0.10727207180E+03  0.12380952482E+04  0.91251302385E+03  0.15417740300E+04  0.50400001928E-02 0. -1.
       -1    1    3    3    0  502  0.10727207180E+03 -0.12380952482E+04 -0.31677065060E+02  0.12431373928E+04  0.50400001928E-02 0.  1.
</event>
<event>
 5   0  0.1881699E-05  0.2607453E+04  0.7818609E-02  0.8365674E-01
       -2   -1    0    0    0  501  0.00000000000E+00  0.00000000000E+00  0.69018985601E+03  0.69018985601E+03  0.25500000920E-02 0.  1.
        2   -1    0    0  501    0  0.00000000000E+00  0.00000000000E+00 -0.24626603425E+04  0.24626603425E+04  0.25500000920E-02 0. -1.
    10030    2    1    2    0    0  0.00000000000E+00  0.00000000000E+00 -0.17724704865E+04  0.31528501985E+04  0.26074533071E+04 0.  0.
        4    1    3    3  502    0  0.44607965348E+03  0.76110606397E+03 -0.20469311686E+04  0.22289455623E+04  0.12699999809E+01 0. -1.
       -4    1    3    3    0  502 -0.44607965348E+03 -0.76110606397E+03  0.27446068211E+03  0.92390463620E+03  0.12699999809E+01 0.  1.
</event>
<event>
 5   0  0.7348964E-06  0.2722830E+04  0.7818609E-02  0.8327635E-01
        1   -1    0    0  501    0  0.00000000000E+00  0.00000000000E+00  0.12656024317E+04  0.12656024317E+04  0.50400001928E-02 0.  1.
       -1   -1    0    0    0  501  0.00000000000E+00  0.00000000000E+00 -0.14644807144E+04  0.14644807144E+04  0.50400001928E-02 0. -1.
    10030    2    1    2    0    0  0.00000000000E+00  0.00000000000E+00 -0.19887828277E+03  0.27300831461E+04  0.27228296703E+04 0.  0.
        1    1    3    3  502    0  0.12518588678E+04 -0.22044763714E+03 -0.58828544535E+03  0.14006525447E+04  0.50400001928E-02 0.  1.
       -1    1    3    3    0  502 -0.12518588678E+04  0.22044763714E+03  0.38940716258E+03  0.13294306014E+04  0.50400001928E-02 0. -1.
</event>
<event>
 5   0  0.1878160E-05  0.2504019E+04  0.7818609E-02  0.8401555E-01
       -2   -1    0    0    0  501  0.00000000000E+00  0.00000000000E+00  0.47799808371E+03  0.47799808372E+03  0.25500000920E-02 0. -1.
        2   -1    0    0  501    0  0.00000000000E+00  0.00000000000E+00 -0.32793601519E+04  0.32793601519E+04  0.25500000920E-02 0.  1.
    10030    2    1    2    0    0  0.00000000000E+00  0.00000000000E+00 -0.28013620682E+04  0.37573582356E+04  0.25040190642E+04 0.  0.
        1    1    3    3  502    0 -0.80101402121E+02 -0.54611980981E+03 -0.30869366133E+04  0.31358955238E+04  0.50400001928E-02 0.  1.
       -1    1    3    3    0  502  0.80101402121E+02  0.54611980981E+03  0.28557454518E+03  0.62146271181E+03  0.50400001928E-02 0. -1.
</event>
<event>
 5   0  0.1881699E-05  0.1956601E+04  0.7818609E-02  0.8627184E-01
        2   -1    0    0  501    0  0.00000000000E+00  0.00000000000E+00  0.14353026374E+04  0.14353026374E+04  0.25500000920E-02 0. -1.
       -2   -1    0    0    0  501  0.00000000000E+00  0.00000000000E+00 -0.66680831169E+03  0.66680831169E+03  0.25500000920E-02 0.  1.
    10030    2    1    2    0    0  0.00000000000E+00  0.00000000000E+00  0.76849432567E+03  0.21021109491E+04  0.19566008570E+04 0.  0.
        4    1    3    3  502    0 -0.62288521990E+03  0.46146432491E+03  0.10253985681E+04  0.12854490098E+04  0.12699999809E+01 0. -1.
       -4    1    3    3    0  502  0.62288521990E+03 -0.46146432491E+03 -0.25690424247E+03  0.81666193926E+03  0.12699999809E+01 0.  1.
</event>
<event>
 5   0  0.1826851E-05  0.2671740E+04  0.7818609E-02  0.8344233E-01
       -2   -1    0    0    0  501  0.00000000000E+00  0.00000000000E+00  0.15064604133E+04  0.15064604133E+04  0.25500000920E-02 0. -1.
        2   -1    0    0  501    0  0.00000000000E+00  0.00000000000E+00 -0.11845974648E+04  0.11845974648E+04  0.25500000920E-02 0.  1.
    10030    2    1    2    0    0  0.00000000000E+00  0.00000000000E+00  0.32186294852E+03  0.26910578781E+04  0.26717403963E+04 0.  0.
        5    1    3    3  502    0 -0.11249340043E+04  0.71151358184E+03  0.46980802733E+02  0.13318999125E+04  0.46999998093E+01 0. -1.
       -5    1    3    3    0  502  0.11249340043E+04 -0.71151358184E+03  0.27488214579E+03  0.13591579655E+04  0.46999998093E+01 0.  1.
</event>
<event>
 5   0  0.1878160E-05  0.2735639E+04  0.7818609E-02  0.8323533E-01
        2   -1    0    0  501    0  0.00000000000E+00  0.00000000000E+00  0.18658817446E+04  0.18658817446E+04  0.25500000920E-02 0.  1.
       -2   -1    0    0    0  501  0.00000000000E+00  0.00000000000E+00 -0.10027055709E+04  0.10027055709E+04  0.25500000920E-02 0. -1.
    10030    2    1    2    0    0  0.00000000000E+00  0.00000000000E+00  0.86317617378E+03  0.28685873155E+04  0.27356388796E+04 0.  0.
        1    1    3    3  502    0  0.10609668554E+04  0.80873155925E+03  0.11486160843E+03  0.13389886453E+04  0.50400001928E-02 0.  1.
       -1    1    3    3    0  502 -0.10609668554E+04 -0.80873155925E+03  0.74831456535E+03  0.15295986702E+04  0.50400001928E-02 0. -1.
</event>
<event>
 5   0  0.1826851E-05  0.2676791E+04  0.7818609E-02  0.8342575E-01
        2   -1    0    0  501    0  0.00000000000E+00  0.00000000000E+00  0.96966776734E+03  0.96966776734E+03  0.25500000920E-02 0.  1.
       -2   -1    0    0    0  501  0.00000000000E+00  0.00000000000E+00 -0.18473366157E+04  0.18473366157E+04  0.25500000920E-02 0. -1.
    10030    2    1    2    0    0  0.00000000000E+00  0.00000000000E+00 -0.87766884837E+03  0.28170043831E+04  0.26767911922E+04 0.  0.
        5    1    3    3  502    0 -0.32890567800E+03 -0.23864892894E+03  0.90316744144E+03  0.99038667882E+03  0.46999998093E+01 0.  1.
       -5    1    3    3    0  502  0.32890567800E+03  0.23864892894E+03 -0.17808362898E+04  0.18266177042E+04  0.46999998093E+01 0. -1.
</event>
<event>
 5   0  0.1878160E-05  0.2700222E+04  0.7818609E-02  0.8334933E-01
       -2   -1    0    0    0  501  0.00000000000E+00  0.00000000000E+00  0.10668884286E+04  0.10668884286E+04  0.25500000920E-02 0.  1.
        2   -1    0    0  501    0  0.00000000000E+00  0.00000000000E+00 -0.17085190204E+04  0.17085190204E+04  0.25500000920E-02 0. -1.
    10030    2    1    2    0    0  0.00000000000E+00  0.00000000000E+00 -0.64163059186E+03  0.27754074490E+04  0.27002216005E+04 0.  0.
        1    1    3    3  502    0  0.45031395417E+03  0.71475720478E+03 -0.14032962477E+04  0.16379563114E+04  0.50400001928E-02 0. -1.
       -1    1    3    3    0  502 -0.45031395417E+03 -0.71475720478E+03  0.76166565589E+03  0.11374511376E+04  0.50400001928E-02 0.  1.
</event>
<event>
 5   0  0.7754912E-06  0.2969920E+04  0.7818609E-02  0.8252373E-01
        1   -1    0    0  501    0  0.00000000000E+00  0.00000000000E+00  0.21355546458E+04  0.21355546458E+04  0.50400001928E-02 0.  1.
       -1   -1    0    0    0  501  0.00000000000E+00  0.00000000000E+00 -0.10325681381E+04  0.10325681381E+04  0.50400001928E-02 0. -1.
    10030    2    1    2    0    0  0.00000000000E+00  0.00000000000E+00  0.11029865077E+04  0.31681227838E+04  0.29699196516E+04 0.  0.
        4    1    3    3  502    0 -0.10469542821E+04 -0.37972863742E+03  0.15992857138E+04  0.19488518452E+04  0.12699999809E+01 0.  1.
       -4    1    3    3    0  502  0.10469542821E+04  0.37972863742E+03 -0.49629920613E+03  0.12192709387E+04  0.12699999809E+01 0. -1.
</event>
<event>
 5   0  0.7351590E-06  0.2744127E+04  0.7818609E-02  0.8320828E-01
       -1   -1    0    0    0  501  0.00000000000E+00  0.00000000000E+00  0.12393997204E+04  0.12393997204E+04  0.50400001928E-02 0.  1.
        1   -1    0    0  501    0  0.00000000000E+00  0.00000000000E+00 -0.15189274104E+04  0.15189274104E+04  0.50400001928E-02 0. -1.
    10030    2    1    2    0    0  0.00000000000E+00  0.00000000000E+00 -0.27952768998E+03  0.27583271307E+04  0.27441269706E+04 0.  0.
        3    1    3    3  502    0  0.13172537588E+04 -0.36015023048E+03 -0.27346547783E+03  0.13927128316E+04  0.10100000352E+00 0. -1.
       -3    1    3    3    0  502 -0.13172537588E+04  0.36015023048E+03 -0.60622121499E+01  0.13656142992E+04  0.10100000352E+00 0.  1.
</event>
<event>
 5   0  0.1878160E-05  0.2710511E+04  0.7818609E-02  0.8331602E-01
        2   -1    0    0  501    0  0.00000000000E+00  0.00000000000E+00  0.21061971132E+04  0.21061971132E+04  0.25500000920E-02 0. -1.
       -2   -1    0    0    0  501  0.00000000000E+00  0.00000000000E+00 -0.87205421270E+03  0.87205421270E+03  0.25500000920E-02 0.  1.
    10030    2    1    2    0    0  0.00000000000E+00  0.00000000000E+00  0.12341429005E+04  0.29782513259E+04  0.27105114391E+04 0.  0.
        1    1    3    3  502    0 -0.38625499202E+03 -0.11169080138E+04  0.13459530456E+04  0.17911633179E+04  0.50400001928E-02 0. -1.
       -1    1    3    3    0  502  0.38625499202E+03  0.11169080138E+04 -0.11181014519E+03  0.11870880080E+04  0.50400001928E-02 0.  1.
</event>
<event>
 5   0  0.6804685E-06  0.2821422E+04  0.7818609E-02  0.8296648E-01
        1   -1    0    0  501    0  0.00000000000E+00  0.00000000000E+00  0.12805110200E+04  0.12805110200E+04  0.50400001928E-02 0.  1.
       -1   -1    0    0    0  501  0.00000000000E+00  0.00000000000E+00 -0.15541496993E+04  0.15541496993E+04  0.50400001928E-02 0. -1.
    10030    2    1    2    0    0  0.00000000000E+00  0.00000000000E+00 -0.27363867924E+03  0.28346607193E+04  0.28214222064E+04 0.  0.
        2    1    3    3  502    0 -0.11422744745E+04 -0.55918619692E+03  0.47647558714E+03  0.13581270791E+04  0.25500000920E-02 0.  1.
       -2    1    3    3    0  502  0.11422744745E+04  0.55918619692E+03 -0.75011426639E+03  0.14765336402E+04  0.25500000920E-02 0. -1.
</event>
<event>
 5   0  0.1788003E-05  0.2299594E+04  0.7818609E-02  0.8478081E-01
        2   -1    0    0  501    0  0.00000000000E+00  0.00000000000E+00  0.19820330341E+04  0.19820330341E+04  0.25500000920E-02 0. -1.
       -2   -1    0    0    0  501  0.00000000000E+00  0.00000000000E+00 -0.66700848169E+03  0.66700848170E+03  0.25500000920E-02 0.  1.
    10030    2    1    2    0    0  0.00000000000E+00  0.00000000000E+00  0.13150245524E+04  0.26490415158E+04  0.22995937421E+04 0.  0.
        2    1    3    3  502    0  0.93638483929E+03  0.62933397653E+03  0.40211186022E+03  0.11977361017E+04  0.25500000920E-02 0.  1.
       -2    1    3    3    0  502 -0.93638483929E+03 -0.62933397653E+03  0.91291269216E+03  0.14513054140E+04  0.25500000920E-02 0. -1.
</event>
<event>
 5   0  0.7754912E-06  0.2830188E+04  0.7818609E-02  0.8293957E-01
       -1   -1    0    0    0  501  0.00000000000E+00  0.00000000000E+00  0.23606131846E+04  0.23606131846E+04  0.50400001928E-02 0.  1.
        1   -1    0    0  501    0  0.00000000000E+00  0.00000000000E+00 -0.84829295985E+03  0.84829295987E+03  0.50400001928E-02 0. -1.
    10030    2    1    2    0    0  0.00000000000E+00  0.00000000000E+00  0.15123202248E+04  0.32089061445E+04  0.28301883651E+04 0.  0.
        4    1    3    3  502    0 -0.13929916108E+04 -0.13953374352E+03  0.99016188394E+03  0.17147353915E+04  0.12699999809E+01 0.  1.
       -4    1    3    3    0  502  0.13929916108E+04  0.13953374352E+03  0.52215834086E+03  0.14941707531E+04  0.12699999809E+01 0. -1.
</event>
<event>
 5   0  0.1826851E-05  0.2699748E+04  0.7818609E-02  0.8335087E-01
       -2   -1    0    0    0  501  0.00000000000E+00  0.00000000000E+00  0.14283083357E+04  0.14283083357E+04  0.25500000920E-02 0. -1.
        2   -1    0    0  501    0  0.00000000000E+00  0.00000000000E+00 -0.12757472577E+04  0.12757472577E+04  0.25500000920E-02 0.  1.
    10030    2    1    2    0    0  0.00000000000E+00  0.00000000000E+00  0.15256107794E+03  0.27040555934E+04  0.26997484642E+04 0.  0.
        5    1    3    3  502    0  0.16684438456E+03  0.43237766967E+03  0.13461166000E+04  0.14236711308E+04  0.46999998093E+01 0. -1.
       -5    1    3    3    0  502 -0.16684438456E+03 -0.43237766967E+03 -0.11935555220E+04  0.12803844626E+04  0.46999998093E+01 0.  1.
</event>
<event>
 5   0  0.7348964E-06  0.2677440E+04  0.7818609E-02  0.8342362E-01
        1   -1    0    0  501    0  0.00000000000E+00  0.00000000000E+00  0.15069849666E+04  0.15069849666E+04  0.50400001928E-02 0.  1.
       -1   -1    0    0    0  501  0.00000000000E+00  0.00000000000E+00 -0.11892427199E+04  0.11892427199E+04  0.50400001928E-02 0. -1.
    10030    2    1    2    0    0  0.00000000000E+00  0.00000000000E+00  0.31774224670E+03  0.26962276865E+04  0.26774397476E+04 0.  0.
        1    1    3    3  502    0 -0.69746041525E+02  0.25714528844E+03 -0.11622734419E+04  0.11924209674E+04  0.50400001928E-02 0. -1.
       -1    1    3    3    0  502  0.69746041525E+02 -0.25714528844E+03  0.14800156886E+04  0.15038067191E+04  0.50400001928E-02 0.  1.
</event>
<event>
 5   0  0.1878160E-05  0.2677803E+04  0.7818609E-02  0.8342243E-01
       -2   -1    0    0    0  501  0.00000000000E+00  0.00000000000E+00  0.75762661673E+03  0.75762661673E+03  0.25500000920E-02 0.  1.
        2   -1    0    0  501    0  0.00000000000E+00  0.00000000000E+00 -0.23661490601E+04  0.23661490601E+04  0.25500000920E-02 0. -1.
    10030    2    1    2    0    0  0.00000000000E+00  0.00000000000E+00 -0.16085224434E+04  0.31237756769E+04  0.26778032094E+04 0.  0.
        1    1    3    3  502    0  0.12079879131E+04  0.49465332574E+03 -0.45675479412E+03  0.13829467281E+04  0.50400001928E-02 0.  1.
       -1    1    3    3    0  502 -0.12079879131E+04 -0.49465332574E+03 -0.11517676493E+04  0.17408289487E+04  0.50400001928E-02 0. -1.
</event>
<event>
 5   0  0.6804685E-06  0.2449995E+04  0.7818609E-02  0.8421020E-01
       -1   -1    0    0    0  501  0.00000000000E+00  0.00000000000E+00  0.81567096745E+03  0.81567096747E+03  0.50400001928E-02 0.  1.
        1   -1    0    0  501    0  0.00000000000E+00  0.00000000000E+00 -0.18397361543E+04  0.18397361543E+04  0.50400001928E-02 0. -1.
    10030    2    1    2    0    0  0.00000000000E+00  0.00000000000E+00 -0.10240651868E+04  0.26554071217E+04  0.24499954031E+04 0.  0.
        2    1    3    3  502    0 -0.55760913454E+03  0.10214009375E+04 -0.92677951485E+03  0.14876518717E+04  0.25500000920E-02 0. -1.
       -2    1    3    3    0  502  0.55760913454E+03 -0.10214009375E+04 -0.97285671966E+02  0.11677552501E+04  0.25500000920E-02 0.  1.
</event>
<event>
 5   0  0.6804685E-06  0.2681191E+04  0.7818609E-02  0.8341134E-01
       -1   -1    0    0    0  501  0.00000000000E+00  0.00000000000E+00  0.15047676395E+04  0.15047676395E+04  0.50400001928E-02 0. -1.
        1   -1    0    0  501    0  0.00000000000E+00  0.00000000000E+00 -0.11943343509E+04  0.11943343509E+04  0.50400001928E-02 0.  1.
    10030    2    1    2    0    0  0.00000000000E+00  0.00000000000E+00  0.31043328863E+03  0.26991019904E+04  0.26811905431E+04 0.  0.
        2    1    3    3  502    0  0.10170836246E+04 -0.28031855674E+03  0.98788076179E+03  0.14453186473E+04  0.25500000920E-02 0. -1.
       -2    1    3    3    0  502 -0.10170836246E+04  0.28031855674E+03 -0.67744747316E+03  0.12537833432E+04  0.25500000920E-02 0.  1.
</event>
<event>
 5   0  0.7600052E-06  0.2773775E+04  0.7818609E-02  0.8311457E-01
        1   -1    0    0  501    0  0.00000000000E+00  0.00000000000E+00  0.94304729587E+03  0.94304729588E+03  0.50400001928E-02 0.  1.
       -1   -1    0    0    0  501  0.00000000000E+00  0.00000000000E+00 -0.20396181233E+04  0.20396181233E+04  0.50400001928E-02 0. -1.
    10030    2    1    2    0    0  0.00000000000E+00  0.00000000000E+00 -0.10965708275E+04  0.29826654192E+04  0.27737745805E+04 0.  0.
        5    1    3    3  502    0 -0.40751074308E+03  0.93468449784E+03  0.46258199320E+03  0.11196893795E+04  0.46999998093E+01 0.  1.
       -5    1    3    3    0  502  0.40751074308E+03 -0.93468449784E+03 -0.15591528207E+04  0.18629760397E+04  0.46999998093E+01 0. -1.
</event>
<event>
 5   0  0.7600052E-06  0.2692005E+04  0.7818609E-02  0.8337604E-01
       -1   -1    0    0    0  501  0.00000000000E+00  0.00000000000E+00  0.10174192910E+04  0.10174192911E+04  0.50400001928E-02 0.  1.
        1   -1    0    0  501    0  0.00000000000E+00  0.00000000000E+00 -0.17807036258E+04  0.17807036258E+04  0.50400001928E-02 0. -1.
    10030    2    1    2    0    0  0.00000000000E+00  0.00000000000E+00 -0.76328433478E+03  0.27981229169E+04  0.26920046215E+04 0.  0.
        5    1    3    3  502    0 -0.68884303713E+03  0.11215207142E+03 -0.15779314196E+04  0.17253905273E+04  0.46999998093E+01 0. -1.
       -5    1    3    3    0  502  0.68884303713E+03 -0.11215207142E+03  0.81464708478E+03  0.10727323896E+04  0.46999998093E+01 0.  1.
</event>
<event>
 5   0  0.7754912E-06  0.2267073E+04  0.7818609E-02  0.8491018E-01
       -1   -1    0    0    0  501  0.00000000000E+00  0.00000000000E+00  0.79285420584E+03  0.79285420585E+03  0.50400001928E-02 0.  1.
        1   -1    0    0  501    0  0.00000000000E+00  0.00000000000E+00 -0.16206073156E+04  0.16206073156E+04  0.50400001928E-02 0. -1.
    10030    2    1    2    0    0  0.00000000000E+00  0.00000000000E+00 -0.82775310975E+03  0.24134615215E+04  0.22670732906E+04 0.  0.
        4    1    3    3  502    0 -0.67825188073E+03  0.62445163038E+03  0.28820671717E+03  0.96593487209E+03  0.12699999809E+01 0.  1.
       -4    1    3    3    0  502  0.67825188073E+03 -0.62445163038E+03 -0.11159598269E+04  0.14475266494E+04  0.12699999809E+01 0. -1.
</event>
<event>
 5   0  0.1881699E-05  0.2670040E+04  0.7818609E-02  0.8344792E-01
       -2   -1    0    0    0  501  0.00000000000E+00  0.00000000000E+00  0.86260781564E+03  0.86260781564E+03  0.25500000920E-02 0. -1.
        2   -1    0    0  501    0  0.00000000000E+00  0.00000000000E+00 -0.20661507557E+04  0.20661507557E+04  0.25500000920E-02 0.  1.
    10030    2    1    2    0    0  0.00000000000E+00  0.00000000000E+00 -0.12035429401E+04  0.29287585714E+04  0.26700395429E+04 0.  0.
        4    1    3    3  502    0  0.11503006765E+04 -0.66837442922E+03 -0.47982259256E+03  0.14142656601E+04  0.12699999809E+01 0. -1.
       -4    1    3    3    0  502 -0.11503006765E+04  0.66837442922E+03 -0.72372034755E+03  0.15144929113E+04  0.12699999809E+01 0.  1.
</event>
<event>
 5   0  0.1878160E-05  0.2709486E+04  0.7818609E-02  0.8331934E-01
        2   -1    0    0  501    0  0.00000000000E+00  0.00000000000E+00  0.11947331400E+04  0.11947331400E+04  0.25500000920E-02 0.  1.
       -2   -1    0    0    0  501  0.00000000000E+00  0.00000000000E+00 -0.15361824143E+04  0.15361824143E+04  0.25500000920E-02 0. -1.
    10030    2    1    2    0    0  0.00000000000E+00  0.00000000000E+00 -0.34144927431E+03  0.27309155543E+04  0.27094855892E+04 0.  0.
        1    1    3    3  502    0 -0.86271103101E+03 -0.46927799493E+02 -0.12224601772E+04  0.14969573896E+04  0.50400001928E-02 0. -1.
       -1    1    3    3    0  502  0.86271103101E+03  0.46927799493E+02  0.88101090287E+03  0.12339581648E+04  0.50400001928E-02 0.  1.
</event>
<event>
 5   0  0.1826851E-05  0.2662366E+04  0.7818609E-02  0.8347320E-01
       -2   -1    0    0    0  501  0.00000000000E+00  0.00000000000E+00  0.11954766697E+04  0.11954766697E+04  0.25500000920E-02 0.  1.
        2   -1    0    0  501    0  0.00000000000E+00  0.00000000000E+00 -0.14822945248E+04  0.14822945248E+04  0.25500000920E-02 0. -1.
    10030    2    1    2    0    0  0.00000000000E+00  0.00000000000E+00 -0.28681785509E+03  0.26777711945E+04  0.26623662573E+04 0.  0.
        5    1    3    3  502    0 -0.17904656596E+03  0.51737570784E+02 -0.14690992098E+04  0.14808811658E+04  0.46999998093E+01 0. -1.
       -5    1    3    3    0  502  0.17904656596E+03 -0.51737570784E+02  0.11822813547E+04  0.11968900287E+04  0.46999998093E+01 0.  1.
</event>
<event>
 5   0  0.1788003E-05  0.2782537E+04  0.7818609E-02  0.8308710E-01
       -2   -1    0    0    0  501  0.00000000000E+00  0.00000000000E+00  0.13530652441E+04  0.13530652441E+04  0.25500000920E-02 0.  1.
        2   -1    0    0  501    0  0.00000000000E+00  0.00000000000E+00 -0.14305505384E+04  0.14305505384E+04  0.25500000920E-02 0. -1.
    10030    2    1    2    0    0  0.00000000000E+00  0.00000000000E+00 -0.77485294257E+02  0.27836157825E+04  0.27825371253E+04 0.  0.
        2    1    3    3  502    0 -0.10997962580E+04  0.18512474490E+03 -0.87081337544E+03  0.14149695810E+04  0.25500000920E-02 0.  1.
       -2    1    3    3    0  502  0.10997962580E+04 -0.18512474490E+03  0.79332808118E+03  0.13686462015E+04  0.25500000920E-02 0. -1.
</event>
<event>
 5   0  0.6804685E-06  0.2675063E+04  0.7818609E-02  0.8343142E-01
       -1   -1    0    0    0  501  0.00000000000E+00  0.00000000000E+00  0.11110600746E+04  0.11110600747E+04  0.50400001928E-02 0.  1.
        1   -1    0    0  501    0  0.00000000000E+00  0.00000000000E+00 -0.16101658945E+04  0.16101658945E+04  0.50400001928E-02 0. -1.
    10030    2    1    2    0    0  0.00000000000E+00  0.00000000000E+00 -0.49910581984E+03  0.27212259692E+04  0.26750633929E+04 0.  0.
        2    1    3    3  502    0 -0.56961357892E+03  0.11702517758E+04 -0.56316207620E+03  0.14181327061E+04  0.25500000920E-02 0. -1.
       -2    1    3    3    0  502  0.56961357892E+03 -0.11702517758E+04  0.64056256358E+02  0.13030932630E+04  0.25500000920E-02 0.  1.
</event>
<event>
 5   0  0.7348964E-06  0.2759041E+04  0.7818609E-02  0.8316098E-01
        1   -1    0    0  501    0  0.00000000000E+00  0.00000000000E+00  0.22280447825E+04  0.22280447825E+04  0.50400001928E-02 0. -1.
       -1   -1    0    0    0  501  0.00000000000E+00  0.00000000000E+00 -0.85414680647E+03  0.85414680648E+03  0.50400001928E-02 0.  1.
    10030    2    1    2    0    0  0.00000000000E+00  0.00000000000E+00  0.13738979760E+04  0.30821915889E+04  0.27590413811E+04 0.  0.
        1    1    3    3  502    0 -0.11790074896E+03  0.12716164066E+04  0.10414794871E+03  0.12813101370E+04  0.50400001928E-02 0. -1.
       -1    1    3    3    0  502  0.11790074896E+03 -0.12716164066E+04  0.12697500273E+04  0.18008814519E+04  0.50400001928E-02 0.  1.
</event>
<event>
 5   0  0.1826851E-05  0.2300417E+04  0.7818609E-02  0.8477757E-01
        2   -1    0    0  501    0  0.00000000000E+00  0.00000000000E+00  0.21989165356E+04  0.21989165356E+04  0.25500000920E-02 0.  1.
       -2   -1    0    0    0  501  0.00000000000E+00  0.00000000000E+00 -0.60165073018E+03  0.60165073018E+03  0.25500000920E-02 0. -1.
    10030    2    1    2    0    0  0.00000000000E+00  0.00000000000E+00  0.15972658054E+04  0.28005672658E+04  0.23004171268E+04 0.  0.
        5    1    3    3  502    0 -0.42361086535E+03  0.12332757941E+03  0.20917922846E+04  0.21378196625E+04  0.46999998093E+01 0.  1.
       -5    1    3    3    0  502  0.42361086535E+03 -0.12332757941E+03 -0.49452647922E+03  0.66274760334E+03  0.46999998093E+01 0. -1.
</event>
<event>
 5   0  0.1878160E-05  0.2694532E+04  0.7818609E-02  0.8336781E-01
       -2   -1    0    0    0  501  0.00000000000E+00  0.00000000000E+00  0.79192614747E+03  0.79192614748E+03  0.25500000920E-02 0.  1.
        2   -1    0    0  501    0  0.00000000000E+00  0.00000000000E+00 -0.22920394428E+04  0.22920394428E+04  0.25500000920E-02 0. -1.
    10030    2    1    2    0    0  0.00000000000E+00  0.00000000000E+00 -0.15001132953E+04  0.30839655903E+04  0.26945322160E+04 0.  0.
        1    1    3    3  502    0  0.34496032277E+02 -0.12080257057E+04 -0.68500622364E+02  0.12104579369E+04  0.50400001928E-02 0.  1.
       -1    1    3    3    0  502 -0.34496032277E+02  0.12080257057E+04 -0.14316126729E+04  0.18735076533E+04  0.50400001928E-02 0. -1.
</event>
<event>
 5   0  0.6175875E-06  0.2629530E+04  0.7818609E-02  0.8358239E-01
       -3   -1    0    0    0  501  0.00000000000E+00  0.00000000000E+00  0.15499830084E+04  0.15499830117E+04  0.10100000352E+00 0. -1.
        3   -1    0    0  501    0  0.00000000000E+00  0.00000000000E+00 -0.11152427502E+04  0.11152427548E+04  0.10100000352E+00 0.  1.
    10030    2    1    2    0    0  0.00000000000E+00  0.00000000000E+00  0.43474025817E+03  0.26652257665E+04  0.26295302421E+04 0.  0.
        2    1    3    3  502    0 -0.46205741306E+03  0.92762501662E+03 -0.60270032357E+03  0.11988464891E+04  0.25500000920E-02 0.  1.
       -2    1    3    3    0  502  0.46205741306E+03 -0.92762501662E+03  0.10374405817E+04  0.14663792774E+04  0.25500000920E-02 0. -1.
</event>
<event>
 5   0  0.7351590E-06  0.2612550E+04  0.7818609E-02  0.8363951E-01
       -1   -1    0    0    0  501  0.00000000000E+00  0.00000000000E+00  0.88384388794E+03  0.88384388795E+03  0.50400001928E-02 0.  1.
        1   -1    0    0  501    0  0.00000000000E+00  0.00000000000E+00 -0.19306067322E+04  0.19306067322E+04  0.50400001928E-02 0. -1.
    10030    2    1    2    0    0  0.00000000000E+00  0.00000000000E+00 -0.10467628442E+04  0.28144506201E+04  0.26125504476E+04 0.  0.
        3    1    3    3  502    0  0.90190216690E+03  0.38188152275E+03  0.40776194314E+03  0.10609103773E+04  0.10100000352E+00 0.  1.
       -3    1    3    3    0  502 -0.90190216690E+03 -0.38188152275E+03 -0.14545247874E+04  0.17535402429E+04  0.10100000352E+00 0. -1.
</event>
<event>
 5   0  0.1826851E-05  0.2809355E+04  0.7818609E-02  0.8300370E-01
       -2   -1    0    0    0  501  0.00000000000E+00  0.00000000000E+00  0.10541828314E+04  0.10541828314E+04  0.25500000920E-02 0.  1.
        2   -1    0    0  501    0  0.00000000000E+00  0.00000000000E+00 -0.18717050287E+04  0.18717050287E+04  0.25500000920E-02 0. -1.
    10030    2    1    2    0    0  0.00000000000E+00  0.00000000000E+00 -0.81752219731E+03  0.29258878600E+04  0.28093553044E+04 0.  0.
        5    1    3    3  502    0  0.47330997010E+03  0.13225178437E+04 -0.41358372167E+03  0.14642914189E+04  0.46999998093E+01 0.  1.
       -5    1    3    3    0  502 -0.47330997010E+03 -0.13225178437E+04 -0.40393847564E+03  0.14615964411E+04  0.46999998093E+01 0. -1.
</event>
<event>
 5   0  0.7351590E-06  0.2416574E+04  0.7818609E-02  0.8433324E-01
       -1   -1    0    0    0  501  0.00000000000E+00  0.00000000000E+00  0.72560003970E+03  0.72560003972E+03  0.50400001928E-02 0. -1.
        1   -1    0    0  501    0  0.00000000000E+00  0.00000000000E+00 -0.20120694351E+04  0.20120694351E+04  0.50400001928E-02 0.  1.
    10030    2    1    2    0    0  0.00000000000E+00  0.00000000000E+00 -0.12864693954E+04  0.27376694748E+04  0.24165741553E+04 0.  0.
        3    1    3    3  502    0  0.30219873614E+03 -0.15298020427E+03  0.67071657896E+03  0.75139054993E+03  0.10100000352E+00 0. -1.
       -3    1    3    3    0  502 -0.30219873614E+03  0.15298020427E+03 -0.19571859744E+04  0.19862789249E+04  0.10100000352E+00 0.  1.
</event>
<event>
 5   0  0.1826851E-05  0.3379144E+04  0.7818609E-02  0.8143044E-01
       -2   -1    0    0    0  501  0.00000000000E+00  0.00000000000E+00  0.13484297567E+04  0.13484297567E+04  0.25500000920E-02 0.  1.
        2   -1    0    0  501    0  0.00000000000E+00  0.00000000000E+00 -0.21170211304E+04  0.21170211304E+04  0.25500000920E-02 0. -1.
    10030    2    1    2    0    0  0.00000000000E+00  0.00000000000E+00 -0.76859137365E+03  0.34654508871E+04  0.33791444407E+04 0.  0.
        5    1    3    3  502    0 -0.16467866270E+03 -0.10909774459E+04 -0.16965398495E+04  0.20237639192E+04  0.46999998093E+01 0. -1.
       -5    1    3    3    0  502  0.16467866270E+03  0.10909774459E+04  0.92794847589E+03  0.14416869679E+04  0.46999998093E+01 0.  1.
</event>
<event>
 5   0  0.6804685E-06  0.2716770E+04  0.7818609E-02  0.8329584E-01
        1   -1    0    0  501    0  0.00000000000E+00  0.00000000000E+00  0.16717280782E+04  0.16717280782E+04  0.50400001928E-02 0.  1.
       -1   -1    0    0    0  501  0.00000000000E+00  0.00000000000E+00 -0.11037739791E+04  0.11037739791E+04  0.50400001928E-02 0. -1.
    10030    2    1    2    0    0  0.00000000000E+00  0.00000000000E+00  0.56795409913E+03  0.27755020574E+04  0.27167701065E+04 0.  0.
        2    1    3    3  502    0 -0.62217614308E+03  0.11774032930E+04  0.55777892206E+03  0.14437794130E+04  0.25500000920E-02 0.  1.
       -2    1    3    3    0  502  0.62217614308E+03 -0.11774032930E+04  0.10175177067E+02  0.13317226444E+04  0.25500000920E-02 0. -1.
</event>
<event>
 5   0  0.1878160E-05  0.2679728E+04  0.7818609E-02  0.8341613E-01
        2   -1    0    0  501    0  0.00000000000E+00  0.00000000000E+00  0.17443156602E+04  0.17443156602E+04  0.25500000920E-02 0.  1.
       -2   -1    0    0    0  501  0.00000000000E+00  0.00000000000E+00 -0.10291918240E+04  0.10291918240E+04  0.25500000920E-02 0. -1.
    10030    2    1    2    0    0  0.00000000000E+00  0.00000000000E+00  0.71512383616E+03  0.27735074842E+04  0.26797279085E+04 0.  0.
        1    1    3    3  502    0  0.12446756938E+04  0.35581135133E+03 -0.97868248353E-01  0.12945343989E+04  0.50400001928E-02 0. -1.
       -1    1    3    3    0  502 -0.12446756938E+04 -0.35581135133E+03  0.71522170441E+03  0.14789730852E+04  0.50400001928E-02 0.  1.
</event>
<event>
 5   0  0.6804685E-06  0.2734668E+04  0.7818609E-02  0.8323843E-01
       -1   -1    0    0    0  501  0.00000000000E+00  0.00000000000E+00  0.14776772181E+04  0.14776772181E+04  0.50400001928E-02 0. -1.
        1   -1    0    0  501    0  0.00000000000E+00  0.00000000000E+00 -0.12652304818E+04  0.12652304818E+04  0.50400001928E-02 0.  1.
    10030    2    1    2    0    0  0.00000000000E+00  0.00000000000E+00  0.21244673631E+03  0.27429076998E+04  0.27346679934E+04 0.  0.
        2    1    3    3  502    0 -0.67690117242E+03  0.54278315189E+03  0.11661920336E+04  0.14535517213E+04  0.25500000920E-02 0. -1.
       -2    1    3    3    0  502  0.67690117242E+03 -0.54278315189E+03 -0.95374529733E+03  0.12893559785E+04  0.25500000920E-02 0.  1.
</event>
<event>
 5   0  0.1881699E-05  0.2700343E+04  0.7818609E-02  0.8334894E-01
        2   -1    0    0  501    0  0.00000000000E+00  0.00000000000E+00  0.12945623793E+04  0.12945623793E+04  0.25500000920E-02 0. -1.
       -2   -1    0    0    0  501  0.00000000000E+00  0.00000000000E+00 -0.14081692173E+04  0.14081692173E+04  0.25500000920E-02 0.  1.
    10030    2    1    2    0    0  0.00000000000E+00  0.00000000000E+00 -0.11360683806E+03  0.27027315966E+04  0.27003428615E+04 0.  0.
        4    1    3    3  502    0 -0.68762013566E+03  0.34703997211E+03  0.10530973198E+04  0.13047121411E+04  0.12699999809E+01 0. -1.
       -4    1    3    3    0  502  0.68762013566E+03 -0.34703997211E+03 -0.11667041579E+04  0.13980194555E+04  0.12699999809E+01 0.  1.
</event>
<event>
 5   0  0.7754912E-06  0.2675708E+04  0.7818609E-02  0.8342930E-01
       -1   -1    0    0    0  501  0.00000000000E+00  0.00000000000E+00  0.85340418942E+03  0.85340418943E+03  0.50400001928E-02 0. -1.
        1   -1    0    0  501    0  0.00000000000E+00  0.00000000000E+00 -0.20973102323E+04  0.20973102323E+04  0.50400001928E-02 0.  1.
    10030    2    1    2    0    0  0.00000000000E+00  0.00000000000E+00 -0.12439060429E+04  0.29507144217E+04  0.26757080101E+04 0.  0.
        4    1    3    3  502    0  0.44750767936E+03 -0.11375659352E+03  0.76274744410E+03  0.89162153521E+03  0.12699999809E+01 0. -1.
       -4    1    3    3    0  502 -0.44750767936E+03  0.11375659352E+03 -0.20066534870E+04  0.20590928865E+04  0.12699999809E+01 0.  1.
</event>
<event>
 5   0  0.6804685E-06  0.2489367E+04  0.7818609E-02  0.8406783E-01
       -1   -1    0    0    0  501  0.00000000000E+00  0.00000000000E+00  0.87016698627E+03  0.87016698628E+03  0.50400001928E-02 0. -1.
        1   -1    0    0  501    0  0.00000000000E+00  0.00000000000E+00 -0.17803901179E+04  0.17803901179E+04  0.50400001928E-02 0.  1.
    10030    2    1    2    0    0  0.00000000000E+00  0.00000000000E+00 -0.91022313164E+03  0.26505571042E+04  0.24893667494E+04 0.  0.
        2    1    3    3  502    0  0.55768858557E+03 -0.71511790289E+03 -0.13628561497E+04  0.16370055157E+04  0.25500000920E-02 0.  1.
       -2    1    3    3    0  502 -0.55768858557E+03  0.71511790289E+03  0.45263301809E+03  0.10135515885E+04  0.25500000920E-02 0. -1.
</event>
<event>
 5   0  0.7600052E-06  0.2690390E+04  0.7818609E-02  0.8338130E-01
        1   -1    0    0  501    0  0.00000000000E+00  0.00000000000E+00  0.24751881881E+04  0.24751881881E+04  0.50400001928E-02 0. -1.
       -1   -1    0    0    0  501  0.00000000000E+00  0.00000000000E+00 -0.73107535058E+03  0.73107535060E+03  0.50400001928E-02 0.  1.
    10030    2    1    2    0    0  0.00000000000E+00  0.00000000000E+00  0.17441128375E+04  0.32062635387E+04  0.26903896167E+04 0.  0.
        5    1    3    3  502    0  0.87709343797E+03 -0.88193099522E+03  0.14825656995E+04  0.19352308190E+04  0.46999998093E+01 0. -1.
       -5    1    3    3    0  502 -0.87709343797E+03  0.88193099522E+03  0.26154713798E+03  0.12710327197E+04  0.46999998093E+01 0.  1.
</event>
<event>
 5   0  0.6804685E-06  0.2445897E+04  0.7818609E-02  0.8422518E-01
       -1   -1    0    0    0  501  0.00000000000E+00  0.00000000000E+00  0.77400196263E+03  0.77400196264E+03  0.50400001928E-02 0. -1.
        1   -1    0    0  501    0  0.00000000000E+00  0.00000000000E+00 -0.19322986876E+04  0.19322986876E+04  0.50400001928E-02 0.  1.
    10030    2    1    2    0    0  0.00000000000E+00  0.00000000000E+00 -0.11582967249E+04  0.27063006502E+04  0.24458969533E+04 0.  0.
        2    1    3    3  502    0  0.25754395475E+03  0.10223986719E+02 -0.19019044360E+04  0.19192899474E+04  0.25500000920E-02 0.  1.
       -2    1    3    3    0  502 -0.25754395475E+03 -0.10223986719E+02  0.74360771101E+03  0.78701070286E+03  0.25500000920E-02 0. -1.
</event>
<event>
 5   0  0.7351590E-06  0.2958994E+04  0.7818609E-02  0.8255538E-01
       -1   -1    0    0    0  501  0.00000000000E+00  0.00000000000E+00  0.22745274943E+04  0.22745274943E+04  0.50400001928E-02 0.  1.
        1   -1    0    0  501    0  0.00000000000E+00  0.00000000000E+00 -0.96235893885E+03  0.96235893886E+03  0.50400001928E-02 0. -1.
    10030    2    1    2    0    0  0.00000000000E+00  0.00000000000E+00  0.13121685554E+04  0.32368864331E+04  0.29589943331E+04 0.  0.
        3    1    3    3  502    0 -0.11529661423E+04 -0.51644236727E+03  0.14983757648E+04  0.19598912181E+04  0.10100000352E+00 0.  1.
       -3    1    3    3    0  502  0.11529661423E+04  0.51644236727E+03 -0.18620720939E+03  0.12769952150E+04  0.10100000352E+00 0. -1.
</event>
<event>
 5   0  0.7600052E-06  0.2714334E+04  0.7818609E-02  0.8330369E-01
       -1   -1    0    0    0  501  0.00000000000E+00  0.00000000000E+00  0.25396326806E+04  0.25396326806E+04  0.50400001928E-02 0. -1.
        1   -1    0    0  501    0  0.00000000000E+00  0.00000000000E+00 -0.72526312827E+03  0.72526312828E+03  0.50400001928E-02 0.  1.
    10030    2    1    2    0    0  0.00000000000E+00  0.00000000000E+00  0.18143695523E+04  0.32648958089E+04  0.27143337618E+04 0.  0.
        5    1    3    3  502    0  0.23319510971E+02 -0.41804622221E+03  0.24599947141E+04  0.24953762295E+04  0.46999998093E+01 0. -1.
       -5    1    3    3    0  502 -0.23319510971E+02  0.41804622221E+03 -0.64562516177E+03  0.76951957935E+03  0.46999998093E+01 0.  1.
</event>
<event>
 5   0  0.7600052E-06  0.2649419E+04  0.7818609E-02  0.8351606E-01
       -1   -1    0    0    0  501  0.00000000000E+00  0.00000000000E+00  0.10063408827E+04  0.10063408827E+04  0.50400001928E-02 0.  1.
        1   -1    0    0  501    0  0.00000000000E+00  0.00000000000E+00 -0.17437981367E+04  0.17437981368E+04  0.50400001928E-02 0. -1.
    10030    2    1    2    0    0  0.00000000000E+00  0.00000000000E+00 -0.73745725404E+03  0.27501390195E+04  0.26494190731E+04 0.  0.
        5    1    3    3  502    0 -0.61418421269E+03  0.72219838092E+02  0.84729945066E+03  0.10489882751E+04  0.46999998093E+01 0.  1.
       -5    1    3    3    0  502  0.61418421269E+03 -0.72219838092E+02 -0.15847567047E+04  0.17011507444E+04  0.46999998093E+01 0. -1.
</event>
<event>
 5   0  0.7600052E-06  0.2724843E+04  0.7818609E-02  0.8326989E-01
       -1   -1    0    0    0  501  0.00000000000E+00  0.00000000000E+00  0.10377979907E+04  0.10377979907E+04  0.50400001928E-02 0.  1.
        1   -1    0    0  501    0  0.00000000000E+00  0.00000000000E+00 -0.17885876281E+04  0.17885876281E+04  0.50400001928E-02 0. -1.
    10030    2    1    2    0    0  0.00000000000E+00  0.00000000000E+00 -0.75078963747E+03  0.28263856188E+04  0.27248432224E+04 0.  0.
        5    1    3    3  502    0  0.79550661685E+03 -0.73311888172E+03  0.48364412306E+03  0.11850011814E+04  0.46999998093E+01 0.  1.
       -5    1    3    3    0  502 -0.79550661685E+03  0.73311888172E+03 -0.12344337605E+04  0.16413844374E+04  0.46999998093E+01 0. -1.
</event>
<event>
 5   0  0.1881699E-05  0.2702718E+04  0.7818609E-02  0.8334124E-01
       -2   -1    0    0    0  501  0.00000000000E+00  0.00000000000E+00  0.11362753967E+04  0.11362753967E+04  0.25500000920E-02 0. -1.
        2   -1    0    0  501    0  0.00000000000E+00  0.00000000000E+00 -0.16071552769E+04  0.16071552769E+04  0.25500000920E-02 0.  1.
    10030    2    1    2    0    0  0.00000000000E+00  0.00000000000E+00 -0.47087988013E+03  0.27434306736E+04  0.27027178912E+04 0.  0.
        4    1    3    3  502    0 -0.32479747620E+03  0.53270476049E+03 -0.14522051714E+04  0.15805597854E+04  0.12699999809E+01 0.  1.
       -4    1    3    3    0  502  0.32479747620E+03 -0.53270476049E+03  0.98132529129E+03  0.11628708882E+04  0.12699999809E+01 0. -1.
</event>
<event>
 5   0  0.7754912E-06  0.2652051E+04  0.7818609E-02  0.8350733E-01
       -1   -1    0    0    0  501  0.00000000000E+00  0.00000000000E+00  0.14007523266E+04  0.14007523266E+04  0.50400001928E-02 0. -1.
        1   -1    0    0  501    0  0.00000000000E+00  0.00000000000E+00 -0.12552850630E+04  0.12552850631E+04  0.50400001928E-02 0.  1.
    10030    2    1    2    0    0  0.00000000000E+00  0.00000000000E+00  0.14546726351E+03  0.26560373896E+04  0.26520508838E+04 0.  0.
        4    1    3    3  502    0  0.36046468437E+03 -0.10953440950E+04 -0.58294766502E+03  0.12921079940E+04  0.12699999809E+01 0.  1.
       -4    1    3    3    0  502 -0.36046468437E+03  0.10953440950E+04  0.72841492853E+03  0.13639293956E+04  0.12699999809E+01 0. -1.
</event>
<event>
 5   0  0.1931119E-05  0.2679552E+04  0.7818609E-02  0.8341670E-01
       -2   -1    0    0    0  501  0.00000000000E+00  0.00000000000E+00  0.88734244632E+03  0.88734244632E+03  0.25500000920E-02 0.  1.
        2   -1    0    0  501    0  0.00000000000E+00  0.00000000000E+00 -0.20228945727E+04  0.20228945727E+04  0.25500000920E-02 0. -1.
    10030    2    1    2    0    0  0.00000000000E+00  0.00000000000E+00 -0.11355521263E+04  0.29102370190E+04  0.26795523647E+04 0.  0.
        3    1    3    3  502    0 -0.17418381584E+03  0.67333631202E+03  0.67591802172E+03  0.96983863249E+03  0.10100000352E+00 0.  1.
       -3    1    3    3    0  502  0.17418381584E+03 -0.67333631202E+03 -0.18114701481E+04  0.19403983865E+04  0.10100000352E+00 0. -1.
</event>
<event>
 5   0  0.1878160E-05  0.2717708E+04  0.7818609E-02  0.8329282E-01
        2   -1    0    0  501    0  0.00000000000E+00  0.00000000000E+00  0.13475931041E+04  0.13475931041E+04  0.25500000920E-02 0. -1.
       -2   -1    0    0    0  501  0.00000000000E+00  0.00000000000E+00 -0.13702086153E+04  0.13702086153E+04  0.25500000920E-02 0.  1.
    10030    2    1    2    0    0  0.00000000000E+00  0.00000000000E+00 -0.22615511202E+02  0.27178017195E+04  0.27177076232E+04 0.  0.
        1    1    3    3  502    0  0.70241723609E+03 -0.10907143607E+04  0.39297829243E+03  0.13555366939E+04  0.50400001928E-02 0. -1.
       -1    1    3    3    0  502 -0.70241723609E+03  0.10907143607E+04 -0.41559380363E+03  0.13622650256E+04  0.50400001928E-02 0.  1.
</event>
<event>
 5   0  0.7754912E-06  0.2698827E+04  0.7818609E-02  0.8335386E-01
        1   -1    0    0  501    0  0.00000000000E+00  0.00000000000E+00  0.12654245881E+04  0.12654245881E+04  0.50400001928E-02 0. -1.
       -1   -1    0    0    0  501  0.00000000000E+00  0.00000000000E+00 -0.14389772077E+04  0.14389772077E+04  0.50400001928E-02 0.  1.
    10030    2    1    2    0    0  0.00000000000E+00  0.00000000000E+00 -0.17355261954E+03  0.27044017958E+04  0.26988272567E+04 0.  0.
        4    1    3    3  502    0 -0.52927002571E+02 -0.13101413739E+04 -0.40625114896E+03  0.13727029162E+04  0.12699999809E+01 0. -1.
       -4    1    3    3    0  502  0.52927002571E+02  0.13101413739E+04  0.23269852942E+03  0.13316988796E+04  0.12699999809E+01 0.  1.
</event>
<event>
 5   0  0.1878160E-05  0.2342178E+04  0.7818609E-02  0.8461474E-01
        2   -1    0    0  501    0  0.00000000000E+00  0.00000000000E+00  0.11707072342E+04  0.11707072342E+04  0.25500000920E-02 0.  1.
       -2   -1    0    0    0  501  0.00000000000E+00  0.00000000000E+00 -0.11714707280E+04  0.11714707280E+04  0.25500000920E-02 0. -1.
    10030    2    1    2    0    0  0.00000000000E+00  0.00000000000E+00 -0.76349375347E+00  0.23421779622E+04  0.23421778377E+04 0.  0.
        1    1    3    3  502    0  0.89287965622E+03  0.57491467339E+02 -0.75596759060E+03  0.11713352839E+04  0.50400001928E-02 0. -1.
       -1    1    3    3    0  502 -0.89287965622E+03 -0.57491467339E+02  0.75520409684E+03  0.11708426783E+04  0.50400001928E-02 0.  1.
</event>
<event>
 5   0  0.1931119E-05  0.2624293E+04  0.7818609E-02  0.8359996E-01
       -2   -1    0    0    0  501  0.00000000000E+00  0.00000000000E+00  0.18972424085E+04  0.18972424085E+04  0.25500000920E-02 0. -1.
        2   -1    0    0  501    0  0.00000000000E+00  0.00000000000E+00 -0.90748975702E+03  0.90748975702E+03  0.25500000920E-02 0.  1.
    10030    2    1    2    0    0  0.00000000000E+00  0.00000000000E+00  0.98975265150E+03  0.28047321655E+04  0.26242927065E+04 0.  0.
        3    1    3    3  502    0 -0.92679001449E+03  0.45873396637E+03  0.13580932386E+04  0.17069838423E+04  0.10100000352E+00 0. -1.
       -3    1    3    3    0  502  0.92679001449E+03 -0.45873396637E+03 -0.36834058712E+03  0.10977483232E+04  0.10100000352E+00 0.  1.
</event>
<event>
 5   0  0.6804685E-06  0.2726791E+04  0.7818609E-02  0.8326364E-01
       -1   -1    0    0    0  501  0.00000000000E+00  0.00000000000E+00  0.21891286453E+04  0.21891286453E+04  0.50400001928E-02 0. -1.
        1   -1    0    0  501    0  0.00000000000E+00  0.00000000000E+00 -0.84912637539E+03  0.84912637540E+03  0.50400001928E-02 0.  1.
    10030    2    1    2    0    0  0.00000000000E+00  0.00000000000E+00  0.13400022699E+04  0.30382550207E+04  0.27267906937E+04 0.  0.
        2    1    3    3  502    0  0.10478608446E+04  0.27540304513E+03  0.15921771085E+04  0.19258471206E+04  0.25500000920E-02 0. -1.
       -2    1    3    3    0  502 -0.10478608446E+04 -0.27540304513E+03 -0.25217483861E+03  0.11124079001E+04  0.25500000920E-02 0.  1.
</event>
<event>
 5   0  0.1931119E-05  0.2705524E+04  0.7818609E-02  0.8333215E-01
        2   -1    0    0  501    0  0.00000000000E+00  0.00000000000E+00  0.25195725542E+04  0.25195725542E+04  0.25500000920E-02 0.  1.
       -2   -1    0    0    0  501  0.00000000000E+00  0.00000000000E+00 -0.72630000379E+03  0.72630000380E+03  0.25500000920E-02 0. -1.
    10030    2    1    2    0    0  0.00000000000E+00  0.00000000000E+00  0.17932725504E+04  0.32458725580E+04  0.27055243896E+04 0.  0.
        3    1    3    3  502    0 -0.48291179036E+03  0.41580581257E+03  0.23282134493E+04  0.24138508957E+04  0.10100000352E+00 0.  1.
       -3    1    3    3    0  502  0.48291179036E+03 -0.41580581257E+03 -0.53494089888E+03  0.83202166230E+03  0.10100000352E+00 0. -1.
</event>
<event>
 5   0  0.7348964E-06  0.2711026E+04  0.7818609E-02  0.8331436E-01
        1   -1    0    0  501    0  0.00000000000E+00  0.00000000000E+00  0.11258394173E+04  0.11258394173E+04  0.50400001928E-02 0. -1.
       -1   -1    0    0    0  501  0.00000000000E+00  0.00000000000E+00 -0.16320402941E+04  0.16320402941E+04  0.50400001928E-02 0.  1.
    10030    2    1    2    0    0  0.00000000000E+00  0.00000000000E+00 -0.50620087682E+03  0.27578797114E+04  0.27110258528E+04 0.  0.
        1    1    3    3  502    0  0.13264802445E+04  0.13882353478E+03 -0.68560685274E+01  0.13337424109E+04  0.50400001928E-02 0. -1.
       -1    1    3    3    0  502 -0.13264802445E+04 -0.13882353478E+03 -0.49934480830E+03  0.14241373005E+04  0.50400001928E-02 0.  1.
</event>
<event>
 5   0  0.6804685E-06  0.2795955E+04  0.7818609E-02  0.8304525E-01
        1   -1    0    0  501    0  0.00000000000E+00  0.00000000000E+00  0.13860987960E+04  0.13860987960E+04  0.50400001928E-02 0. -1.
       -1   -1    0    0    0  501  0.00000000000E+00  0.00000000000E+00 -0.14099580660E+04  0.14099580660E+04  0.50400001928E-02 0.  1.
    10030    2    1    2    0    0  0.00000000000E+00  0.00000000000E+00 -0.23859270069E+02  0.27960568620E+04  0.27959550624E+04 0.  0.
        2    1    3    3  502    0 -0.51234072897E+03  0.78543200919E+03 -0.10487627904E+04  0.14068759200E+04  0.25500000920E-02 0.  1.
       -2    1    3    3    0  502  0.51234072897E+03 -0.78543200919E+03  0.10249035204E+04  0.13891809420E+04  0.25500000920E-02 0. -1.
</event>
<event>
 5   0  0.7348964E-06  0.2394830E+04  0.7818609E-02  0.8441442E-01
       -1   -1    0    0    0  501  0.00000000000E+00  0.00000000000E+00  0.10557446237E+04  0.10557446237E+04  0.50400001928E-02 0.  1.
        1   -1    0    0  501    0  0.00000000000E+00  0.00000000000E+00 -0.13580958702E+04  0.13580958702E+04  0.50400001928E-02 0. -1.
    10030    2    1    2    0    0  0.00000000000E+00  0.00000000000E+00 -0.30235124655E+03  0.24138404939E+04  0.23948297756E+04 0.  0.
        1    1    3    3  502    0 -0.10312385816E+04  0.29346269810E+03 -0.68853910377E+03  0.12742289687E+04  0.50400001928E-02 0. -1.
       -1    1    3    3    0  502  0.10312385816E+04 -0.29346269810E+03  0.38618785722E+03  0.11396115252E+04  0.50400001928E-02 0.  1.
</event>
<event>
 5   0  0.1878160E-05  0.2710976E+04  0.7818609E-02  0.8331453E-01
        2   -1    0    0  501    0  0.00000000000E+00  0.00000000000E+00  0.20926208354E+04  0.20926208354E+04  0.25500000920E-02 0. -1.
       -2   -1    0    0    0  501  0.00000000000E+00  0.00000000000E+00 -0.87801246168E+03  0.87801246168E+03  0.25500000920E-02 0.  1.
    10030    2    1    2    0    0  0.00000000000E+00  0.00000000000E+00  0.12146083737E+04  0.29706332971E+04  0.27109755964E+04 0.  0.
        1    1    3    3  502    0  0.13303073749E+04 -0.14881292675E+03  0.84100142732E+03  0.15808688749E+04  0.50400001928E-02 0. -1.
       -1    1    3    3    0  502 -0.13303073749E+04  0.14881292675E+03  0.37360694641E+03  0.13897644222E+04  0.50400001928E-02 0.  1.
</event>
<event>
 5   0  0.7348964E-06  0.2366244E+04  0.7818609E-02  0.8452250E-01
       -1   -1    0    0    0  501  0.00000000000E+00  0.00000000000E+00  0.18715898279E+04  0.18715898279E+04  0.50400001928E-02 0.  1.
        1   -1    0    0  501    0  0.00000000000E+00  0.00000000000E+00 -0.74790838690E+03  0.74790838692E+03  0.50400001928E-02 0. -1.
    10030    2    1    2    0    0  0.00000000000E+00  0.00000000000E+00  0.11236814410E+04  0.26194982148E+04  0.23662440526E+04 0.  0.
        1    1    3    3  502    0  0.68815975995E+03  0.93109478446E+03  0.83136593139E+03  0.14253668527E+04  0.50400001928E-02 0.  1.
       -1    1    3    3    0  502 -0.68815975995E+03 -0.93109478446E+03  0.29231550962E+03  0.11941313621E+04  0.50400001928E-02 0. -1.
</event>
<event>
 5   0  0.7754912E-06  0.2670844E+04  0.7818609E-02  0.8344528E-01
        1   -1    0    0  501    0  0.00000000000E+00  0.00000000000E+00  0.23576291436E+04  0.23576291436E+04  0.50400001928E-02 0. -1.
       -1   -1    0    0    0  501  0.00000000000E+00  0.00000000000E+00 -0.75641728443E+03  0.75641728445E+03  0.50400001928E-02 0.  1.
    10030    2    1    2    0    0  0.00000000000E+00  0.00000000000E+00  0.16012118591E+04  0.31140464280E+04  0.26708436379E+04 0.  0.
        4    1    3    3  502    0 -0.60689000189E+03 -0.99398354459E+03  0.15625206288E+04  0.19487922131E+04  0.12699999809E+01 0. -1.
       -4    1    3    3    0  502  0.60689000189E+03  0.99398354459E+03  0.38691230333E+02  0.11652542150E+04  0.12699999809E+01 0.  1.
</event>
<event>
 5   0  0.1788003E-05  0.2658415E+04  0.7818609E-02  0.8348625E-01
        2   -1    0    0  501    0  0.00000000000E+00  0.00000000000E+00  0.13612735459E+04  0.13612735459E+04  0.25500000920E-02 0. -1.
       -2   -1    0    0    0  501  0.00000000000E+00  0.00000000000E+00 -0.12978968696E+04  0.12978968696E+04  0.25500000920E-02 0.  1.
    10030    2    1    2    0    0  0.00000000000E+00  0.00000000000E+00  0.63376676312E+02  0.26591704155E+04  0.26584150721E+04 0.  0.
        2    1    3    3  502    0 -0.46393552500E+03 -0.11042842560E+04 -0.54476767905E+03  0.13158463867E+04  0.25500000920E-02 0.  1.
       -2    1    3    3    0  502  0.46393552500E+03  0.11042842560E+04  0.60814435537E+03  0.13433240288E+04  0.25500000920E-02 0. -1.
</event>
<event>
 5   0  0.1788003E-05  0.2673903E+04  0.7818609E-02  0.8343522E-01
        2   -1    0    0  501    0  0.00000000000E+00  0.00000000000E+00  0.20550828749E+04  0.20550828749E+04  0.25500000920E-02 0. -1.
       -2   -1    0    0    0  501  0.00000000000E+00  0.00000000000E+00 -0.86976515843E+03  0.86976515843E+03  0.25500000920E-02 0.  1.
    10030    2    1    2    0    0  0.00000000000E+00  0.00000000000E+00  0.11853177165E+04  0.29248480334E+04  0.26739031264E+04 0.  0.
        2    1    3    3  502    0 -0.18408210286E+03  0.14228177456E+03  0.20327688153E+04  0.20460399264E+04  0.25500000920E-02 0. -1.
       -2    1    3    3    0  502  0.18408210286E+03 -0.14228177456E+03 -0.84745109881E+03  0.87880810695E+03  0.25500000920E-02 0.  1.
</event>
<event>
 5   0  0.6175875E-06  0.2717298E+04  0.7818609E-02  0.8329414E-01
        4   -1    0    0  501    0  0.00000000000E+00  0.00000000000E+00  0.11820126452E+04  0.11820133275E+04  0.12699999809E+01 0.  1.
       -4   -1    0    0    0  501  0.00000000000E+00  0.00000000000E+00 -0.15616799320E+04  0.15616804484E+04  0.12699999809E+01 0. -1.
    10030    2    1    2    0    0  0.00000000000E+00  0.00000000000E+00 -0.37966728676E+03  0.27436937759E+04  0.27172979754E+04 0.  0.
        5    1    3    3  502    0 -0.36513104838E+03 -0.83460766940E+03  0.82793318296E+03  0.12310101908E+04  0.46999998093E+01 0.  1.
       -5    1    3    3    0  502  0.36513104838E+03  0.83460766940E+03 -0.12076004697E+04  0.15126835851E+04  0.46999998093E+01 0. -1.
</event>
<event>
 5   0  0.1878160E-05  0.2440044E+04  0.7818609E-02  0.8424662E-01
       -2   -1    0    0    0  501  0.00000000000E+00  0.00000000000E+00  0.10002750018E+04  0.10002750018E+04  0.25500000920E-02 0.  1.
        2   -1    0    0  501    0  0.00000000000E+00  0.00000000000E+00 -0.14880446661E+04  0.14880446661E+04  0.25500000920E-02 0. -1.
    10030    2    1    2    0    0  0.00000000000E+00  0.00000000000E+00 -0.48776966434E+03  0.24883196679E+04  0.24400441644E+04 0.  0.
        1    1    3    3  502    0 -0.56521667273E+03  0.74477334567E+03  0.55539261953E+03  0.10874824989E+04  0.50400001928E-02 0.  1.
       -1    1    3    3    0  502  0.56521667273E+03 -0.74477334567E+03 -0.10431622839E+04  0.14008371690E+04  0.50400001928E-02 0. -1.
</event>
<event>
 5   0  0.7351590E-06  0.2469451E+04  0.7818609E-02  0.8413950E-01
        1   -1    0    0  501    0  0.00000000000E+00  0.00000000000E+00  0.15928894921E+04  0.15928894921E+04  0.50400001928E-02 0.  1.
       -1   -1    0    0    0  501  0.00000000000E+00  0.00000000000E+00 -0.95709514515E+03  0.95709514516E+03  0.50400001928E-02 0. -1.
    10030    2    1    2    0    0  0.00000000000E+00  0.00000000000E+00  0.63579434694E+03  0.25499846373E+04  0.24694507889E+04 0.  0.
        3    1    3    3  502    0  0.11974927178E+04  0.94298812508E+01  0.73073505253E+01  0.11975521448E+04  0.10100000352E+00 0. -1.
       -3    1    3    3    0  502 -0.11974927178E+04 -0.94298812508E+01  0.62848699641E+03  0.13524324925E+04  0.10100000352E+00 0.  1.
</event>
<event>
 5   0  0.1881699E-05  0.2685679E+04  0.7818609E-02  0.8339667E-01
        2   -1    0    0  501    0  0.00000000000E+00  0.00000000000E+00  0.20526246053E+04  0.20526246053E+04  0.25500000920E-02 0.  1.
       -2   -1    0    0    0  501  0.00000000000E+00  0.00000000000E+00 -0.87849369780E+03  0.87849369780E+03  0.25500000920E-02 0. -1.
    10030    2    1    2    0    0  0.00000000000E+00  0.00000000000E+00  0.11741309075E+04  0.29311183031E+04  0.26856788935E+04 0.  0.
        4    1    3    3  502    0  0.10164424421E+04  0.48539216076E+03  0.13849406926E+04  0.17851675335E+04  0.12699999809E+01 0. -1.
       -4    1    3    3    0  502 -0.10164424421E+04 -0.48539216076E+03 -0.21080978513E+03  0.11459507695E+04  0.12699999809E+01 0.  1.
</event>
<event>
 5   0  0.1826851E-05  0.2758763E+04  0.7818609E-02  0.8316186E-01
       -2   -1    0    0    0  501  0.00000000000E+00  0.00000000000E+00  0.12043324937E+04  0.12043324937E+04  0.25500000920E-02 0. -1.
        2   -1    0    0  501    0  0.00000000000E+00  0.00000000000E+00 -0.15798739205E+04  0.15798739205E+04  0.25500000920E-02 0.  1.
    10030    2    1    2    0    0  0.00000000000E+00  0.00000000000E+00 -0.37554142676E+03  0.27842064141E+04  0.27587631275E+04 0.  0.
        5    1    3    3  502    0 -0.84823381181E+03  0.50286880616E+03 -0.11611835606E+04  0.15233998120E+04  0.46999998093E+01 0.  1.
       -5    1    3    3    0  502  0.84823381181E+03 -0.50286880616E+03  0.78564213382E+03  0.12608066022E+04  0.46999998093E+01 0. -1.
</event>
<event>
 5   0  0.1931119E-05  0.2777047E+04  0.7818609E-02  0.8310430E-01
       -2   -1    0    0    0  501  0.00000000000E+00  0.00000000000E+00  0.13803603612E+04  0.13803603612E+04  0.25500000920E-02 0.  1.
        2   -1    0    0  501    0  0.00000000000E+00  0.00000000000E+00 -0.13967344518E+04  0.13967344518E+04  0.25500000920E-02 0. -1.
    10030    2    1    2    0    0  0.00000000000E+00  0.00000000000E+00 -0.16374090540E+02  0.27770948130E+04  0.27770465408E+04 0.  0.
        3    1    3    3  502    0  0.31348159217E+03 -0.57605787703E+03 -0.12320888185E+04  0.13957636810E+04  0.10100000352E+00 0. -1.
       -3    1    3    3    0  502 -0.31348159217E+03  0.57605787703E+03  0.12157147280E+04  0.13813311320E+04  0.10100000352E+00 0.  1.
</event>
<event>
 5   0  0.7348964E-06  0.2669119E+04  0.7818609E-02  0.8345095E-01
       -1   -1    0    0    0  501  0.00000000000E+00  0.00000000000E+00  0.17178507394E+04  0.17178507394E+04  0.50400001928E-02 0. -1.
        1   -1    0    0  501    0  0.00000000000E+00  0.00000000000E+00 -0.10367895119E+04  0.10367895120E+04  0.50400001928E-02 0.  1.
    10030    2    1    2    0    0  0.00000000000E+00  0.00000000000E+00  0.68106122744E+03  0.27546402513E+04  0.26691194276E+04 0.  0.
        1    1    3    3  502    0 -0.99207550555E+03 -0.48249388140E+02 -0.57938072128E+03  0.11498799209E+04  0.50400001928E-02 0.  1.
       -1    1    3    3    0  502  0.99207550555E+03  0.48249388140E+02  0.12604419487E+04  0.16047603305E+04  0.50400001928E-02 0. -1.
</event>
<event>
 5   0  0.6804685E-06  0.2654551E+04  0.7818609E-02  0.8349904E-01
        1   -1    0    0  501    0  0.00000000000E+00  0.00000000000E+00  0.13151990436E+04  0.13151990436E+04  0.50400001928E-02 0.  1.
       -1   -1    0    0    0  501  0.00000000000E+00  0.00000000000E+00 -0.13394627530E+04  0.13394627530E+04  0.50400001928E-02 0. -1.
    10030    2    1    2    0    0  0.00000000000E+00  0.00000000000E+00 -0.24263709398E+02  0.26546617967E+04  0.26545509088E+04 0.  0.
        2    1    3    3  502    0 -0.86524419319E+03 -0.71195458015E+03 -0.72359202915E+03  0.13338336713E+04  0.25500000920E-02 0. -1.
       -2    1    3    3    0  502  0.86524419319E+03  0.71195458015E+03  0.69932831975E+03  0.13208281254E+04  0.25500000920E-02 0.  1.
</event>
<event>
 5   0  0.6804685E-06  0.2734566E+04  0.7818609E-02  0.8323876E-01
        1   -1    0    0  501    0  0.00000000000E+00  0.00000000000E+00  0.22862803117E+04  0.22862803117E+04  0.50400001928E-02 0.  1.
       -1   -1    0    0    0  501  0.00000000000E+00  0.00000000000E+00 -0.81768752380E+03  0.81768752381E+03  0.50400001928E-02 0. -1.
    10030    2    1    2    0    0  0.00000000000E+00  0.00000000000E+00  0.14685927879E+04  0.31039678355E+04  0.27345660620E+04 0.  0.
        2    1    3    3  502    0  0.28386910699E+03  0.10468452513E+04  0.16792146306E+04  0.19990568840E+04  0.25500000920E-02 0. -1.
       -2    1    3    3    0  502 -0.28386910699E+03 -0.10468452513E+04 -0.21062184266E+03  0.11049109515E+04  0.25500000920E-02 0.  1.
</event>
<event>
 5   0  0.1788003E-05  0.2704065E+04  0.7818609E-02  0.8333687E-01
       -2   -1    0    0    0  501  0.00000000000E+00  0.00000000000E+00  0.74701988869E+03  0.74701988869E+03  0.25500000920E-02 0.  1.
        2   -1    0    0  501    0  0.00000000000E+00  0.00000000000E+00 -0.24470455679E+04  0.24470455679E+04  0.25500000920E-02 0. -1.
    10030    2    1    2    0    0  0.00000000000E+00  0.00000000000E+00 -0.17000256792E+04  0.31940654566E+04  0.27040648718E+04 0.  0.
        2    1    3    3  502    0  0.97021820910E+02  0.73357955840E+03 -0.21866275550E+04  0.23084393573E+04  0.25500000920E-02 0. -1.
       -2    1    3    3    0  502 -0.97021820910E+02 -0.73357955840E+03  0.48660187576E+03  0.88562609928E+03  0.25500000920E-02 0.  1.
</event>
<event>
 5   0  0.1881699E-05  0.2608431E+04  0.7818609E-02  0.8365343E-01
        2   -1    0    0  501    0  0.00000000000E+00  0.00000000000E+00  0.18766216161E+04  0.18766216161E+04  0.25500000920E-02 0. -1.
       -2   -1    0    0    0  501  0.00000000000E+00  0.00000000000E+00 -0.90640453133E+03  0.90640453134E+03  0.25500000920E-02 0.  1.
    10030    2    1    2    0    0  0.00000000000E+00  0.00000000000E+00  0.97021708477E+03  0.27830261474E+04  0.26084312040E+04 0.  0.
        4    1    3    3  502    0 -0.99621998381E+03  0.12726063896E+02 -0.41286816613E+03  0.10784609146E+04  0.12699999809E+01 0.  1.
       -4    1    3    3    0  502  0.99621998381E+03 -0.12726063896E+02  0.13830852509E+04  0.17045652328E+04  0.12699999809E+01 0. -1.
</event>
<event>
 5   0  0.1826851E-05  0.2678031E+04  0.7818609E-02  0.8342168E-01
        2   -1    0    0  501    0  0.00000000000E+00  0.00000000000E+00  0.19680811852E+04  0.19680811852E+04  0.25500000920E-02 0. -1.
       -2   -1    0    0    0  501  0.00000000000E+00  0.00000000000E+00 -0.91102093997E+03  0.91102093997E+03  0.25500000920E-02 0.  1.
    10030    2    1    2    0    0  0.00000000000E+00  0.00000000000E+00  0.10570602453E+04  0.28791021252E+04  0.26780314945E+04 0.  0.
        5    1    3    3  502    0  0.15424555012E+03  0.21233404619E+03 -0.88309063812E+03  0.92127552993E+03  0.46999998093E+01 0.  1.
       -5    1    3    3    0  502 -0.15424555012E+03 -0.21233404619E+03  0.19401508834E+04  0.19578265953E+04  0.46999998093E+01 0. -1.
</event>
<event>
 5   0  0.7348964E-06  0.2717041E+04  0.7818609E-02  0.8329497E-01
        1   -1    0    0  501    0  0.00000000000E+00  0.00000000000E+00  0.15782616089E+04  0.15782616090E+04  0.50400001928E-02 0. -1.
       -1   -1    0    0    0  501  0.00000000000E+00  0.00000000000E+00 -0.11693738060E+04  0.11693738060E+04  0.50400001928E-02 0.  1.
    10030    2    1    2    0    0  0.00000000000E+00  0.00000000000E+00  0.40888780299E+03  0.27476354149E+04  0.27170408790E+04 0.  0.
        1    1    3    3  502    0 -0.13024388733E+04  0.27531566034E+03 -0.69590930154E+02  0.13330373697E+04  0.50400001928E-02 0.  1.
       -1    1    3    3    0  502  0.13024388733E+04 -0.27531566034E+03  0.47847873315E+03  0.14145980452E+04  0.50400001928E-02 0. -1.
</event>
<event>
 5   0  0.7754912E-06  0.2680885E+04  0.7818609E-02  0.8341234E-01
       -1   -1    0    0    0  501  0.00000000000E+00  0.00000000000E+00  0.97689755483E+03  0.97689755484E+03  0.50400001928E-02 0. -1.
        1   -1    0    0  501    0  0.00000000000E+00  0.00000000000E+00 -0.18392772805E+04  0.18392772805E+04  0.50400001928E-02 0.  1.
    10030    2    1    2    0    0  0.00000000000E+00  0.00000000000E+00 -0.86237972565E+03  0.28161748353E+04  0.26808845391E+04 0.  0.
        4    1    3    3  502    0 -0.81378285294E+03 -0.10602378139E+04 -0.53850763813E+03  0.14409506733E+04  0.12699999809E+01 0.  1.
       -4    1    3    3    0  502  0.81378285294E+03  0.10602378139E+04 -0.32387208752E+03  0.13752241620E+04  0.12699999809E+01 0. -1.
</event>
<event>
 5   0  0.1788003E-05  0.2687517E+04  0.7818609E-02  0.8339067E-01
        2   -1    0    0  501    0  0.00000000000E+00  0.00000000000E+00  0.22445642031E+04  0.22445642031E+04  0.25500000920E-02 0.  1.
       -2   -1    0    0    0  501  0.00000000000E+00  0.00000000000E+00 -0.80447087336E+03  0.80447087336E+03  0.25500000920E-02 0. -1.
    10030    2    1    2    0    0  0.00000000000E+00  0.00000000000E+00  0.14400933297E+04  0.30490350764E+04  0.26875167160E+04 0.  0.
        2    1    3    3  502    0  0.31130811633E+03  0.11923267959E+04  0.13279730325E+04  0.18116479533E+04  0.25500000920E-02 0.  1.
       -2    1    3    3    0  502 -0.31130811633E+03 -0.11923267959E+04  0.11212029723E+03  0.12373871232E+04  0.25500000920E-02 0. -1.
</event>
<event>
 5   0  0.1878160E-05  0.2733523E+04  0.7818609E-02  0.8324209E-01
        2   -1    0    0  501    0  0.00000000000E+00  0.00000000000E+00  0.16224422757E+04  0.16224422757E+04  0.25500000920E-02 0.  1.
       -2   -1    0    0    0  501  0.00000000000E+00  0.00000000000E+00 -0.11513735329E+04  0.11513735329E+04  0.25500000920E-02 0. -1.
    10030    2    1    2    0    0  0.00000000000E+00  0.00000000000E+00  0.47106874282E+03  0.27738158086E+04  0.27335230710E+04 0.  0.
        1    1    3    3  502    0 -0.13527985454E+03  0.10451551823E+04  0.11186423885E+04  0.15368834658E+04  0.50400001928E-02 0.  1.
       -1    1    3    3    0  502  0.13527985454E+03 -0.10451551823E+04 -0.64757364566E+03  0.12369323428E+04  0.50400001928E-02 0. -1.
</event>
<event>
 5   0  0.1878160E-05  0.2650295E+04  0.7818609E-02  0.8351315E-01
        2   -1    0    0  501    0  0.00000000000E+00  0.00000000000E+00  0.15521812181E+04  0.15521812181E+04  0.25500000920E-02 0. -1.
       -2   -1    0    0    0  501  0.00000000000E+00  0.00000000000E+00 -0.11313211700E+04  0.11313211700E+04  0.25500000920E-02 0.  1.
    10030    2    1    2    0    0  0.00000000000E+00  0.00000000000E+00  0.42086004813E+03  0.26835023881E+04  0.26502946792E+04 0.  0.
        1    1    3    3  502    0 -0.71798171162E+03 -0.70728684228E+03 -0.66073585959E+03  0.12051241810E+04  0.50400001928E-02 0.  1.
       -1    1    3    3    0  502  0.71798171162E+03  0.70728684228E+03  0.10815959077E+04  0.14783782071E+04  0.50400001928E-02 0. -1.
</event>
<event>
 5   0  0.6804685E-06  0.2752349E+04  0.7818609E-02  0.8318217E-01
        1   -1    0    0  501    0  0.00000000000E+00  0.00000000000E+00  0.76075539915E+03  0.76075539917E+03  0.50400001928E-02 0.  1.
       -1   -1    0    0    0  501  0.00000000000E+00  0.00000000000E+00 -0.24894422607E+04  0.24894422607E+04  0.50400001928E-02 0. -1.
    10030    2    1    2    0    0  0.00000000000E+00  0.00000000000E+00 -0.17286868615E+04  0.32501976598E+04  0.27523492807E+04 0.  0.
        2    1    3    3  502    0  0.70100077288E+02 -0.12074080238E+04 -0.88990358965E+02  0.12127107820E+04  0.25500000920E-02 0.  1.
       -2    1    3    3    0  502 -0.70100077288E+02  0.12074080238E+04 -0.16396965025E+04  0.20374868778E+04  0.25500000920E-02 0. -1.
</event>
<event>
 5   0  0.1826851E-05  0.2710617E+04  0.7818609E-02  0.8331568E-01
        2   -1    0    0  501    0  0.00000000000E+00  0.00000000000E+00  0.15030805750E+04  0.15030805750E+04  0.25500000920E-02 0. -1.
       -2   -1    0    0    0  501  0.00000000000E+00  0.00000000000E+00 -0.12220646520E+04  0.12220646520E+04  0.25500000920E-02 0.  1.
    10030    2    1    2    0    0  0.00000000000E+00  0.00000000000E+00  0.28101592300E+03  0.27251452269E+04  0.27106173760E+04 0.  0.
        5    1    3    3  502    0 -0.10313117112E+04 -0.64986777208E+03 -0.45504146395E+03  0.13011597868E+04  0.46999998093E+01 0.  1.
       -5    1    3    3    0  502  0.10313117112E+04  0.64986777208E+03  0.73605738694E+03  0.14239854401E+04  0.46999998093E+01 0. -1.
</event>
<event>
 5   0  0.7754912E-06  0.2708326E+04  0.7818609E-02  0.8332308E-01
       -1   -1    0    0    0  501  0.00000000000E+00  0.00000000000E+00  0.23019548513E+04  0.23019548513E+04  0.50400001928E-02 0.  1.
        1   -1    0    0  501    0  0.00000000000E+00  0.00000000000E+00 -0.79660896891E+03  0.79660896893E+03  0.50400001928E-02 0. -1.
    10030    2    1    2    0    0  0.00000000000E+00  0.00000000000E+00  0.15053458823E+04  0.30985638202E+04  0.27083263323E+04 0.  0.
        4    1    3    3  502    0  0.51891965472E+02 -0.99316645265E+02 -0.79129485570E+03  0.79919067416E+03  0.12699999809E+01 0. -1.
       -4    1    3    3    0  502 -0.51891965472E+02  0.99316645265E+02  0.22966407380E+04  0.22993731460E+04  0.12699999809E+01 0.  1.
</event>
<event>
 5   0  0.7348964E-06  0.2826075E+04  0.7818609E-02  0.8295219E-01
       -1   -1    0    0    0  501  0.00000000000E+00  0.00000000000E+00  0.14002952178E+04  0.14002952178E+04  0.50400001928E-02 0. -1.
        1   -1    0    0  501    0  0.00000000000E+00  0.00000000000E+00 -0.14258956733E+04  0.14258956733E+04  0.50400001928E-02 0.  1.
    10030    2    1    2    0    0  0.00000000000E+00  0.00000000000E+00 -0.25600455528E+02  0.28261908912E+04  0.28260749406E+04 0.  0.
        1    1    3    3  502    0 -0.82235665481E+01 -0.96897414414E+02 -0.14225453204E+04  0.14258653249E+04  0.50400001928E-02 0.  1.
       -1    1    3    3    0  502  0.82235665481E+01  0.96897414414E+02  0.13969448649E+04  0.14003255663E+04  0.50400001928E-02 0. -1.
</event>
<event>
 5   0  0.7348964E-06  0.2716405E+04  0.7818609E-02  0.8329702E-01
       -1   -1    0    0    0  501  0.00000000000E+00  0.00000000000E+00  0.80752033983E+03  0.80752033985E+03  0.50400001928E-02 0. -1.
        1   -1    0    0  501    0  0.00000000000E+00  0.00000000000E+00 -0.22844175054E+04  0.22844175054E+04  0.50400001928E-02 0.  1.
    10030    2    1    2    0    0  0.00000000000E+00  0.00000000000E+00 -0.14768971655E+04  0.30919378452E+04  0.27164046829E+04 0.  0.
        1    1    3    3  502    0  0.90333516984E+03  0.10314419262E+03  0.41003043954E+03  0.99738564002E+03  0.50400001928E-02 0. -1.
       -1    1    3    3    0  502 -0.90333516984E+03 -0.10314419262E+03 -0.18869276051E+04  0.20945522052E+04  0.50400001928E-02 0.  1.
</event>
<event>
 5   0  0.6804685E-06  0.2653749E+04  0.7818609E-02  0.8350170E-01
       -1   -1    0    0    0  501  0.00000000000E+00  0.00000000000E+00  0.88189920568E+03  0.88189920570E+03  0.50400001928E-02 0.  1.
        1   -1    0    0  501    0  0.00000000000E+00  0.00000000000E+00 -0.19963684848E+04  0.19963684848E+04  0.50400001928E-02 0. -1.
    10030    2    1    2    0    0  0.00000000000E+00  0.00000000000E+00 -0.11144692791E+04  0.28782676905E+04  0.26537488811E+04 0.  0.
        2    1    3    3  502    0  0.30459172494E+03  0.56478580759E+02 -0.19565970226E+04  0.19809689190E+04  0.25500000920E-02 0. -1.
       -2    1    3    3    0  502 -0.30459172494E+03 -0.56478580759E+02  0.84212774351E+03  0.89729877153E+03  0.25500000920E-02 0.  1.
</event>
<event>
 5   0  0.7351590E-06  0.2734402E+04  0.7818609E-02  0.8323928E-01
        1   -1    0    0  501    0  0.00000000000E+00  0.00000000000E+00  0.25503270383E+04  0.25503270383E+04  0.50400001928E-02 0. -1.
       -1   -1    0    0    0  501  0.00000000000E+00  0.00000000000E+00 -0.73294055747E+03  0.73294055748E+03  0.50400001928E-02 0.  1.
    10030    2    1    2    0    0  0.00000000000E+00  0.00000000000E+00  0.18173864809E+04  0.32832675958E+04  0.27344016685E+04 0.  0.
        3    1    3    3  502    0 -0.11081517486E+04  0.75048855053E+03  0.57333846815E+03  0.14560049353E+04  0.10100000352E+00 0. -1.
       -3    1    3    3    0  502  0.11081517486E+04 -0.75048855053E+03  0.12440480127E+04  0.18272626605E+04  0.10100000352E+00 0.  1.
</event>
<event>
 5   0  0.1931119E-05  0.2663004E+04  0.7818609E-02  0.8347110E-01
       -2   -1    0    0    0  501  0.00000000000E+00  0.00000000000E+00  0.10243374650E+04  0.10243374650E+04  0.25500000920E-02 0. -1.
        2   -1    0    0  501    0  0.00000000000E+00  0.00000000000E+00 -0.17307754207E+04  0.17307754207E+04  0.25500000920E-02 0.  1.
    10030    2    1    2    0    0  0.00000000000E+00  0.00000000000E+00 -0.70643795573E+03  0.27551128857E+04  0.26630043988E+04 0.  0.
        3    1    3    3  502    0  0.71760649823E+03  0.32304897655E+03  0.75797803731E+03  0.10926346337E+04  0.10100000352E+00 0. -1.
       -3    1    3    3    0  502 -0.71760649823E+03 -0.32304897655E+03 -0.14644159930E+04  0.16624782520E+04  0.10100000352E+00 0.  1.
</event>
<event>
 5   0  0.7351590E-06  0.2736422E+04  0.7818609E-02  0.8323283E-01
        1   -1    0    0  501    0  0.00000000000E+00  0.00000000000E+00  0.16321663003E+04  0.16321663003E+04  0.50400001928E-02 0.  1.
       -1   -1    0    0    0  501  0.00000000000E+00  0.00000000000E+00 -0.11469423740E+04  0.11469423740E+04  0.50400001928E-02 0. -1.
    10030    2    1    2    0    0  0.00000000000E+00  0.00000000000E+00  0.48522392633E+03  0.27791086743E+04  0.27364215254E+04 0.  0.
        3    1    3    3  502    0  0.28957235306E+02  0.22427662128E+03 -0.11278313202E+04  0.11502791059E+04  0.10100000352E+00 0. -1.
       -3    1    3    3    0  502 -0.28957235306E+02 -0.22427662128E+03  0.16130552466E+04  0.16288295684E+04  0.10100000352E+00 0.  1.
</event>
<event>
 5   0  0.1881699E-05  0.2737072E+04  0.7818609E-02  0.8323076E-01
       -2   -1    0    0    0  501  0.00000000000E+00  0.00000000000E+00  0.88393294337E+03  0.88393294337E+03  0.25500000920E-02 0. -1.
        2   -1    0    0  501    0  0.00000000000E+00  0.00000000000E+00 -0.21188152530E+04  0.21188152530E+04  0.25500000920E-02 0.  1.
    10030    2    1    2    0    0  0.00000000000E+00  0.00000000000E+00 -0.12348823097E+04  0.30027481964E+04  0.27370718683E+04 0.  0.
        4    1    3    3  502    0 -0.30092393237E+03 -0.67101244487E+03  0.64874403094E+03  0.98065454917E+03  0.12699999809E+01 0. -1.
       -4    1    3    3    0  502  0.30092393237E+03  0.67101244487E+03 -0.18836263406E+04  0.20220936472E+04  0.12699999809E+01 0.  1.
</event>
<event>
 5   0  0.1931119E-05  0.2574409E+04  0.7818609E-02  0.8376946E-01
        2   -1    0    0  501    0  0.00000000000E+00  0.00000000000E+00  0.24894782877E+04  0.24894782877E+04  0.25500000920E-02 0. -1.
       -2   -1    0    0    0  501  0.00000000000E+00  0.00000000000E+00 -0.66555947691E+03  0.66555947691E+03  0.25500000920E-02 0.  1.
    10030    2    1    2    0    0  0.00000000000E+00  0.00000000000E+00  0.18239188108E+04  0.31550377646E+04  0.25744093435E+04 0.  0.
        3    1    3    3  502    0  0.24086065696E+03 -0.12169173316E+04  0.13329353741E+04  0.18208839528E+04  0.10100000352E+00 0. -1.
       -3    1    3    3    0  502 -0.24086065696E+03  0.12169173316E+04  0.49098343672E+03  0.13341538118E+04  0.10100000352E+00 0.  1.
</event>
<event>
 5   0  0.1788003E-05  0.2514726E+04  0.7818609E-02  0.8397758E-01
       -2   -1    0    0    0  501  0.00000000000E+00  0.00000000000E+00  0.71010644895E+03  0.71010644896E+03  0.25500000920E-02 0.  1.
        2   -1    0    0  501    0  0.00000000000E+00  0.00000000000E+00 -0.22263729064E+04  0.22263729064E+04  0.25500000920E-02 0. -1.
    10030    2    1    2    0    0  0.00000000000E+00  0.00000000000E+00 -0.15162664574E+04  0.29364793553E+04  0.25147260356E+04 0.  0.
        2    1    3    3  502    0 -0.40497339482E+03  0.11862728882E+04 -0.87322821323E+03  0.15276695743E+04  0.25500000920E-02 0. -1.
       -2    1    3    3    0  502  0.40497339482E+03 -0.11862728882E+04 -0.64303824418E+03  0.14088097811E+04  0.25500000920E-02 0.  1.
</event>
<event>
 5   0  0.7600052E-06  0.2679703E+04  0.7818609E-02  0.8341621E-01
        1   -1    0    0  501    0  0.00000000000E+00  0.00000000000E+00  0.16132404148E+04  0.16132404148E+04  0.50400001928E-02 0.  1.
       -1   -1    0    0    0  501  0.00000000000E+00  0.00000000000E+00 -0.11127926478E+04  0.11127926478E+04  0.50400001928E-02 0. -1.
    10030    2    1    2    0    0  0.00000000000E+00  0.00000000000E+00  0.50044776698E+03  0.27260330626E+04  0.26797030229E+04 0.  0.
        5    1    3    3  502    0  0.35300973031E+03  0.97544517671E+03  0.11128652605E+04  0.15213810636E+04  0.46999998093E+01 0.  1.
       -5    1    3    3    0  502 -0.35300973031E+03 -0.97544517671E+03 -0.61241749355E+03  0.12046519991E+04  0.46999998093E+01 0. -1.
</event>
<event>
 5   0  0.7348964E-06  0.2720709E+04  0.7818609E-02  0.8328317E-01
       -1   -1    0    0    0  501  0.00000000000E+00  0.00000000000E+00  0.95577182038E+03  0.95577182039E+03  0.50400001928E-02 0. -1.
        1   -1    0    0  501    0  0.00000000000E+00  0.00000000000E+00 -0.19361984210E+04  0.19361984210E+04  0.50400001928E-02 0.  1.
    10030    2    1    2    0    0  0.00000000000E+00  0.00000000000E+00 -0.98042660064E+03  0.28919702414E+04  0.27207086500E+04 0.  0.
        1    1    3    3  502    0 -0.43650756698E+03 -0.62761607654E+03 -0.16862644353E+04  0.18514665920E+04  0.50400001928E-02 0.  1.
       -1    1    3    3    0  502  0.43650756698E+03  0.62761607654E+03  0.70583783465E+03  0.10405036494E+04  0.50400001928E-02 0. -1.
</event>
<event>
 5   0  0.1881699E-05  0.2654355E+04  0.7818609E-02  0.8349969E-01
        2   -1    0    0  501    0  0.00000000000E+00  0.00000000000E+00  0.14106815571E+04  0.14106815571E+04  0.25500000920E-02 0.  1.
       -2   -1    0    0    0  501  0.00000000000E+00  0.00000000000E+00 -0.12486166234E+04  0.12486166234E+04  0.25500000920E-02 0. -1.
    10030    2    1    2    0    0  0.00000000000E+00  0.00000000000E+00  0.16206493374E+03  0.26592981805E+04  0.26543552457E+04 0.  0.
        4    1    3    3  502    0  0.48838396401E+03 -0.74574329703E+03  0.10660963068E+04  0.13896815857E+04  0.12699999809E+01 0.  1.
       -4    1    3    3    0  502 -0.48838396401E+03  0.74574329703E+03 -0.90403137309E+03  0.12696165948E+04  0.12699999809E+01 0. -1.
</event>
<event>
 5   0  0.1881699E-05  0.2691485E+04  0.7818609E-02  0.8337773E-01
       -2   -1    0    0    0  501  0.00000000000E+00  0.00000000000E+00  0.11440960769E+04  0.11440960769E+04  0.25500000920E-02 0. -1.
        2   -1    0    0  501    0  0.00000000000E+00  0.00000000000E+00 -0.15829294176E+04  0.15829294176E+04  0.25500000920E-02 0.  1.
    10030    2    1    2    0    0  0.00000000000E+00  0.00000000000E+00 -0.43883334072E+03  0.27270254945E+04  0.26914853421E+04 0.  0.
        4    1    3    3  502    0  0.11354906279E+04 -0.28290251323E+03  0.45392542845E+03  0.12551584384E+04  0.12699999809E+01 0. -1.
       -4    1    3    3    0  502 -0.11354906279E+04  0.28290251323E+03 -0.89275876917E+03  0.14718670561E+04  0.12699999809E+01 0.  1.
</event>
<event>
 5   0  0.6175875E-06  0.2651562E+04  0.7818609E-02  0.8350895E-01
        4   -1    0    0  501    0  0.00000000000E+00  0.00000000000E+00  0.15644369314E+04  0.15644374469E+04  0.12699999809E+01 0.  1.
       -4   -1    0    0    0  501  0.00000000000E+00  0.00000000000E+00 -0.11235311927E+04  0.11235319105E+04  0.12699999809E+01 0. -1.
    10030    2    1    2    0    0  0.00000000000E+00  0.00000000000E+00  0.44090573868E+03  0.26879693573E+04  0.26515620671E+04 0.  0.
        4    1    3    3  502    0  0.96084718344E+03  0.37254381388E+03  0.10659779704E+04  0.14826755712E+04  0.12699999809E+01 0.  1.
       -4    1    3    3    0  502 -0.96084718344E+03 -0.37254381388E+03 -0.62507223169E+03  0.12052937861E+04  0.12699999809E+01 0. -1.
</event>
<event>
 5   0  0.1931119E-05  0.2702219E+04  0.7818609E-02  0.8334285E-01
       -2   -1    0    0    0  501  0.00000000000E+00  0.00000000000E+00  0.10004032212E+04  0.10004032212E+04  0.25500000920E-02 0. -1.
        2   -1    0    0  501    0  0.00000000000E+00  0.00000000000E+00 -0.18247612530E+04  0.18247612530E+04  0.25500000920E-02 0.  1.
    10030    2    1    2    0    0  0.00000000000E+00  0.00000000000E+00 -0.82435803181E+03  0.28251644741E+04  0.27022191142E+04 0.  0.
        3    1    3    3  502    0  0.11839305051E+04 -0.16680048924E+03 -0.10700815282E+04  0.16045523773E+04  0.10100000352E+00 0. -1.
       -3    1    3    3    0  502 -0.11839305051E+04  0.16680048924E+03  0.24572349639E+03  0.12206120969E+04  0.10100000352E+00 0.  1.
</event>
<event>
 5   0  0.1881699E-05  0.2741793E+04  0.7818609E-02  0.8321571E-01
        2   -1    0    0  501    0  0.00000000000E+00  0.00000000000E+00  0.22230320784E+04  0.22230320784E+04  0.25500000920E-02 0. -1.
       -2   -1    0    0    0  501  0.00000000000E+00  0.00000000000E+00 -0.84540278335E+03  0.84540278335E+03  0.25500000920E-02 0.  1.
    10030    2    1    2    0    0  0.00000000000E+00  0.00000000000E+00  0.13776292950E+04  0.30684348617E+04  0.27417932136E+04 0.  0.
        4    1    3    3  502    0  0.92384662707E+03  0.10089640998E+04  0.78800018539E+03  0.15787485709E+04  0.12699999809E+01 0.  1.
       -4    1    3    3    0  502 -0.92384662707E+03 -0.10089640998E+04  0.58962910962E+03  0.14896862908E+04  0.12699999809E+01 0. -1.
</event>
<event>
 5   0  0.7600052E-06  0.1940049E+04  0.7818609E-02  0.8635174E-01
       -1   -1    0    0    0  501  0.00000000000E+00  0.00000000000E+00  0.56228997205E+03  0.56228997207E+03  0.50400001928E-02 0.  1.
        1   -1    0    0  501    0  0.00000000000E+00  0.00000000000E+00 -0.16734199018E+04  0.16734199019E+04  0.50400001928E-02 0. -1.
    10030    2    1    2    0    0  0.00000000000E+00  0.00000000000E+00 -0.11111299298E+04  0.22357098739E+04  0.19400486900E+04 0.  0.
        5    1    3    3  502    0  0.44873409552E+03  0.22395876086E+03  0.40127681867E+03  0.64231222178E+03  0.46999998093E+01 0.  1.
       -5    1    3    3    0  502 -0.44873409552E+03 -0.22395876086E+03 -0.15124067485E+04  0.15933976521E+04  0.46999998093E+01 0. -1.
</event>
<event>
 5   0  0.6804685E-06  0.2593373E+04  0.7818609E-02  0.8370456E-01
        1   -1    0    0  501    0  0.00000000000E+00  0.00000000000E+00  0.11026394170E+04  0.11026394170E+04  0.50400001928E-02 0.  1.
       -1   -1    0    0    0  501  0.00000000000E+00  0.00000000000E+00 -0.15248826577E+04  0.15248826577E+04  0.50400001928E-02 0. -1.
    10030    2    1    2    0    0  0.00000000000E+00  0.00000000000E+00 -0.42224324066E+03  0.26275220748E+04  0.25933728808E+04 0.  0.
        2    1    3    3  502    0 -0.75359564287E+03  0.10493628106E+04 -0.32361074102E+03  0.13318380580E+04  0.25500000920E-02 0. -1.
       -2    1    3    3    0  502  0.75359564287E+03 -0.10493628106E+04 -0.98632499634E+02  0.12956840167E+04  0.25500000920E-02 0.  1.
</event>
<event>
 5   0  0.1881699E-05  0.2704995E+04  0.7818609E-02  0.8333386E-01
       -2   -1    0    0    0  501  0.00000000000E+00  0.00000000000E+00  0.10196993250E+04  0.10196993250E+04  0.25500000920E-02 0.  1.
        2   -1    0    0  501    0  0.00000000000E+00  0.00000000000E+00 -0.17939107719E+04  0.17939107719E+04  0.25500000920E-02 0. -1.
    10030    2    1    2    0    0  0.00000000000E+00  0.00000000000E+00 -0.77421144689E+03  0.28136100969E+04  0.27049950856E+04 0.  0.
        4    1    3    3  502    0  0.10611885862E+03  0.13469133269E+04 -0.45132008539E+03  0.14244746943E+04  0.12699999809E+01 0. -1.
       -4    1    3    3    0  502 -0.10611885862E+03 -0.13469133269E+04 -0.32289136149E+03  0.13891354026E+04  0.12699999809E+01 0.  1.
</event>
<event>
 5   0  0.1931119E-05  0.2047914E+04  0.7818609E-02  0.8584541E-01
        2   -1    0    0  501    0  0.00000000000E+00  0.00000000000E+00  0.15161681106E+04  0.15161681106E+04  0.25500000920E-02 0. -1.
       -2   -1    0    0    0  501  0.00000000000E+00  0.00000000000E+00 -0.69153825125E+03  0.69153825125E+03  0.25500000920E-02 0.  1.
    10030    2    1    2    0    0  0.00000000000E+00  0.00000000000E+00  0.82462985936E+03  0.22077063619E+04  0.20479142988E+04 0.  0.
        3    1    3    3  502    0 -0.12246326965E+01  0.57594869295E+03  0.13249967321E+04  0.14447611383E+04  0.10100000352E+00 0. -1.
       -3    1    3    3    0  502  0.12246326965E+01 -0.57594869295E+03 -0.50036687270E+03  0.76294522354E+03  0.10100000352E+00 0.  1.
</event>
<event>
 5   0  0.1788003E-05  0.2686229E+04  0.7818609E-02  0.8339487E-01
       -2   -1    0    0    0  501  0.00000000000E+00  0.00000000000E+00  0.87531385522E+03  0.87531385523E+03  0.25500000920E-02 0.  1.
        2   -1    0    0  501    0  0.00000000000E+00  0.00000000000E+00 -0.20609248277E+04  0.20609248278E+04  0.25500000920E-02 0. -1.
    10030    2    1    2    0    0  0.00000000000E+00  0.00000000000E+00 -0.11856109725E+04  0.29362386830E+04  0.26862286249E+04 0.  0.
        2    1    3    3  502    0 -0.13416537517E+04 -0.12335329827E+01 -0.52437063777E+03  0.14404863334E+04  0.25500000920E-02 0.  1.
       -2    1    3    3    0  502  0.13416537517E+04  0.12335329827E+01 -0.66124033475E+03  0.14957523496E+04  0.25500000920E-02 0. -1.
</event>
<event>
 5   0  0.1881699E-05  0.2695985E+04  0.7818609E-02  0.8336309E-01
       -2   -1    0    0    0  501  0.00000000000E+00  0.00000000000E+00  0.89163619653E+03  0.89163619653E+03  0.25500000920E-02 0. -1.
        2   -1    0    0  501    0  0.00000000000E+00  0.00000000000E+00 -0.20379199224E+04  0.20379199224E+04  0.25500000920E-02 0.  1.
    10030    2    1    2    0    0  0.00000000000E+00  0.00000000000E+00 -0.11462837259E+04  0.29295561189E+04  0.26959845463E+04 0.  0.
        4    1    3    3  502    0 -0.86388597903E+02 -0.54900241523E+03 -0.19076340603E+04  0.19869413586E+04  0.12699999809E+01 0.  1.
       -4    1    3    3    0  502  0.86388597903E+02  0.54900241523E+03  0.76135033440E+03  0.94261476031E+03  0.12699999809E+01 0. -1.
</event>
<event>
 5   0  0.7348964E-06  0.2748599E+04  0.7818609E-02  0.8319406E-01
        1   -1    0    0  501    0  0.00000000000E+00  0.00000000000E+00  0.21476707578E+04  0.21476707578E+04  0.50400001928E-02 0.  1.
       -1   -1    0    0    0  501  0.00000000000E+00  0.00000000000E+00 -0.87941714799E+03  0.87941714800E+03  0.50400001928E-02 0. -1.
    10030    2    1    2    0    0  0.00000000000E+00  0.00000000000E+00  0.12682536098E+04  0.30270879058E+04  0.27485985467E+04 0.  0.
        1    1    3    3  502    0 -0.46378756050E+03  0.55805262740E+03  0.19195036406E+04  0.20520759885E+04  0.50400001928E-02 0.  1.
       -1    1    3    3    0  502  0.46378756050E+03 -0.55805262740E+03 -0.65125003082E+03  0.97501191730E+03  0.50400001928E-02 0. -1.
</event>
<event>
 5   0  0.1788003E-05  0.2667892E+04  0.7818609E-02  0.8345499E-01
       -2   -1    0    0    0  501  0.00000000000E+00  0.00000000000E+00  0.10640366207E+04  0.10640366207E+04  0.25500000920E-02 0.  1.
        2   -1    0    0  501    0  0.00000000000E+00  0.00000000000E+00 -0.16723225006E+04  0.16723225006E+04  0.25500000920E-02 0. -1.
    10030    2    1    2    0    0  0.00000000000E+00  0.00000000000E+00 -0.60828587993E+03  0.27363591213E+04  0.26678923383E+04 0.  0.
        2    1    3    3  502    0  0.75735177093E+03  0.39282069341E+03 -0.13558967539E+04  0.16019818380E+04  0.25500000920E-02 0. -1.
       -2    1    3    3    0  502 -0.75735177093E+03 -0.39282069341E+03  0.74761087392E+03  0.11343772833E+04  0.25500000920E-02 0.  1.
</event>
<event>
 5   0  0.7600052E-06  0.2693357E+04  0.7818609E-02  0.8337163E-01
       -1   -1    0    0    0  501  0.00000000000E+00  0.00000000000E+00  0.11015614533E+04  0.11015614533E+04  0.50400001928E-02 0. -1.
        1   -1    0    0  501    0  0.00000000000E+00  0.00000000000E+00 -0.16463388756E+04  0.16463388756E+04  0.50400001928E-02 0.  1.
    10030    2    1    2    0    0  0.00000000000E+00  0.00000000000E+00 -0.54477742227E+03  0.27479003289E+04  0.26933573432E+04 0.  0.
        5    1    3    3  502    0  0.28084754827E+03  0.11778394561E+04  0.32890206118E+03  0.12547429161E+04  0.46999998093E+01 0. -1.
       -5    1    3    3    0  502 -0.28084754827E+03 -0.11778394561E+04 -0.87367948345E+03  0.14931574128E+04  0.46999998093E+01 0.  1.
</event>
<event>
 5   0  0.7351590E-06  0.2752215E+04  0.7818609E-02  0.8318259E-01
       -1   -1    0    0    0  501  0.00000000000E+00  0.00000000000E+00  0.83612540387E+03  0.83612540389E+03  0.50400001928E-02 0.  1.
        1   -1    0    0  501    0  0.00000000000E+00  0.00000000000E+00 -0.22648187880E+04  0.22648187880E+04  0.50400001928E-02 0. -1.
    10030    2    1    2    0    0  0.00000000000E+00  0.00000000000E+00 -0.14286933841E+04  0.31009441919E+04  0.27522154885E+04 0.  0.
        3    1    3    3  502    0 -0.88686949453E+03 -0.14194995214E+03 -0.18890368661E+04  0.20916853446E+04  0.10100000352E+00 0. -1.
       -3    1    3    3    0  502  0.88686949453E+03  0.14194995214E+03  0.46034348195E+03  0.10092588473E+04  0.10100000352E+00 0.  1.
</event>
<event>
 5   0  0.1826851E-05  0.2720949E+04  0.7818609E-02  0.8328240E-01
       -2   -1    0    0    0  501  0.00000000000E+00  0.00000000000E+00  0.92349239451E+03  0.92349239451E+03  0.25500000920E-02 0. -1.
        2   -1    0    0  501    0  0.00000000000E+00  0.00000000000E+00 -0.20042291809E+04  0.20042291809E+04  0.25500000920E-02 0.  1.
    10030    2    1    2    0    0  0.00000000000E+00  0.00000000000E+00 -0.10807367863E+04  0.29277215754E+04  0.27209486621E+04 0.  0.
        5    1    3    3  502    0  0.16734809274E+03  0.93027868683E+03 -0.15932177325E+04  0.18525087455E+04  0.46999998093E+01 0.  1.
       -5    1    3    3    0  502 -0.16734809274E+03 -0.93027868683E+03  0.51248094611E+03  0.10752128298E+04  0.46999998093E+01 0. -1.
</event>
<event>
 5   0  0.7600052E-06  0.2584828E+04  0.7818609E-02  0.8373373E-01
       -1   -1    0    0    0  501  0.00000000000E+00  0.00000000000E+00  0.19318173938E+04  0.19318173938E+04  0.50400001928E-02 0. -1.
        1   -1    0    0  501    0  0.00000000000E+00  0.00000000000E+00 -0.86464356069E+03  0.86464356070E+03  0.50400001928E-02 0.  1.
    10030    2    1    2    0    0  0.00000000000E+00  0.00000000000E+00  0.10671738331E+04  0.27964609545E+04  0.25848276306E+04 0.  0.
        5    1    3    3  502    0 -0.75639455244E+02 -0.31085382172E+03  0.18882916733E+04  0.19152072888E+04  0.46999998093E+01 0. -1.
       -5    1    3    3    0  502  0.75639455244E+02  0.31085382172E+03 -0.82111784023E+03  0.88125366565E+03  0.46999998093E+01 0.  1.
</event>
<event>
 5   0  0.1931119E-05  0.2730311E+04  0.7818609E-02  0.8325237E-01
       -2   -1    0    0    0  501  0.00000000000E+00  0.00000000000E+00  0.11434126142E+04  0.11434126142E+04  0.25500000920E-02 0.  1.
        2   -1    0    0  501    0  0.00000000000E+00  0.00000000000E+00 -0.16299014606E+04  0.16299014606E+04  0.25500000920E-02 0. -1.
    10030    2    1    2    0    0  0.00000000000E+00  0.00000000000E+00 -0.48648884643E+03  0.27733140749E+04  0.27303112570E+04 0.  0.
        3    1    3    3  502    0  0.58205040272E+03  0.11526404964E+04 -0.69326541183E+03  0.14655987605E+04  0.10100000352E+00 0. -1.
       -3    1    3    3    0  502 -0.58205040272E+03 -0.11526404964E+04  0.20677656540E+03  0.13077153144E+04  0.10100000352E+00 0.  1.
</event>
<event>
 5   0  0.7348964E-06  0.2664391E+04  0.7818609E-02  0.8346652E-01
       -1   -1    0    0    0  501  0.00000000000E+00  0.00000000000E+00  0.76724008867E+03  0.76724008869E+03  0.50400001928E-02 0.  1.
        1   -1    0    0  501    0  0.00000000000E+00  0.00000000000E+00 -0.23131538090E+04  0.23131538090E+04  0.50400001928E-02 0. -1.
    10030    2    1    2    0    0  0.00000000000E+00  0.00000000000E+00 -0.15459137203E+04  0.30803938977E+04  0.26643906122E+04 0.  0.
        1    1    3    3  502    0 -0.13182489707E+04 -0.64831190147E+02 -0.56369683044E+03  0.14351785772E+04  0.50400001928E-02 0.  1.
       -1    1    3    3    0  502  0.13182489707E+04  0.64831190147E+02 -0.98221688987E+03  0.16452153204E+04  0.50400001928E-02 0. -1.
</event>
<event>
 5   0  0.7600052E-06  0.2576125E+04  0.7818609E-02  0.8376356E-01
       -1   -1    0    0    0  501  0.00000000000E+00  0.00000000000E+00  0.23577417059E+04  0.23577417059E+04  0.50400001928E-02 0. -1.
        1   -1    0    0  501    0  0.00000000000E+00  0.00000000000E+00 -0.70368403530E+03  0.70368403532E+03  0.50400001928E-02 0.  1.
    10030    2    1    2    0    0  0.00000000000E+00  0.00000000000E+00  0.16540576706E+04  0.30614257412E+04  0.25761251506E+04 0.  0.
        5    1    3    3  502    0 -0.11166695470E+04  0.22036298473E+03  0.15435882670E+04  0.19178627559E+04  0.46999998093E+01 0. -1.
       -5    1    3    3    0  502  0.11166695470E+04 -0.22036298473E+03  0.11046940354E+03  0.11435629853E+04  0.46999998093E+01 0.  1.
</event>
<event>
 5   0  0.1931119E-05  0.2713729E+04  0.7818609E-02  0.8330564E-01
        2   -1    0    0  501    0  0.00000000000E+00  0.00000000000E+00  0.21422780947E+04  0.21422780947E+04  0.25500000920E-02 0. -1.
       -2   -1    0    0    0  501  0.00000000000E+00  0.00000000000E+00 -0.85940350795E+03  0.85940350795E+03  0.25500000920E-02 0.  1.
    10030    2    1    2    0    0  0.00000000000E+00  0.00000000000E+00  0.12828745868E+04  0.30016816027E+04  0.27137290282E+04 0.  0.
        3    1    3    3  502    0  0.12511842227E+04 -0.45228328483E+03  0.34658248788E+03  0.13748241924E+04  0.10100000352E+00 0. -1.
       -3    1    3    3    0  502 -0.12511842227E+04  0.45228328483E+03  0.93629209889E+03  0.16268574103E+04  0.10100000352E+00 0.  1.
</event>
<event>
 5   0  0.1826851E-05  0.2584559E+04  0.7818609E-02  0.8373465E-01
        2   -1    0    0  501    0  0.00000000000E+00  0.00000000000E+00  0.10393603879E+04  0.10393603879E+04  0.25500000920E-02 0. -1.
       -2   -1    0    0    0  501  0.00000000000E+00  0.00000000000E+00 -0.16067442662E+04  0.16067442662E+04  0.25500000920E-02 0.  1.
    10030    2    1    2    0    0  0.00000000000E+00  0.00000000000E+00 -0.56738387834E+03  0.26461046541E+04  0.25845590292E+04 0.  0.
        5    1    3    3  502    0  0.57241525618E+02 -0.11085823817E+04 -0.96106058267E+03  0.14682952778E+04  0.46999998093E+01 0.  1.
       -5    1    3    3    0  502 -0.57241525618E+02  0.11085823817E+04  0.39367670433E+03  0.11778093763E+04  0.46999998093E+01 0. -1.
</event>
<event>
 5   0  0.1826851E-05  0.2565254E+04  0.7818609E-02  0.8380100E-01
       -2   -1    0    0    0  501  0.00000000000E+00  0.00000000000E+00  0.52985501076E+03  0.52985501077E+03  0.25500000920E-02 0. -1.
        2   -1    0    0  501    0  0.00000000000E+00  0.00000000000E+00 -0.31048718079E+04  0.31048718079E+04  0.25500000920E-02 0.  1.
    10030    2    1    2    0    0  0.00000000000E+00  0.00000000000E+00 -0.25750167971E+04  0.36347268187E+04  0.25652538940E+04 0.  0.
        5    1    3    3  502    0  0.78968079633E+03 -0.88223545934E+03 -0.58879261918E+03  0.13223592569E+04  0.46999998093E+01 0. -1.
       -5    1    3    3    0  502 -0.78968079633E+03  0.88223545934E+03 -0.19862241780E+04  0.23123675618E+04  0.46999998093E+01 0.  1.
</event>
<event>
 5   0  0.7754912E-06  0.2874272E+04  0.7818609E-02  0.8280574E-01
       -1   -1    0    0    0  501  0.00000000000E+00  0.00000000000E+00  0.16653161845E+04  0.16653161845E+04  0.50400001928E-02 0. -1.
        1   -1    0    0  501    0  0.00000000000E+00  0.00000000000E+00 -0.12402207550E+04  0.12402207550E+04  0.50400001928E-02 0.  1.
    10030    2    1    2    0    0  0.00000000000E+00  0.00000000000E+00  0.42509542956E+03  0.29055369395E+04  0.28742718700E+04 0.  0.
        4    1    3    3  502    0  0.77394335761E+03 -0.11214529353E+04  0.67436840498E+03  0.15203352806E+04  0.12699999809E+01 0. -1.
       -4    1    3    3    0  502 -0.77394335761E+03  0.11214529353E+04 -0.24927297542E+03  0.13852016590E+04  0.12699999809E+01 0.  1.
</event>
<event>
 5   0  0.6175875E-06  0.2714008E+04  0.7818609E-02  0.8330474E-01
       -3   -1    0    0    0  501  0.00000000000E+00  0.00000000000E+00  0.11788188124E+04  0.11788188167E+04  0.10100000352E+00 0.  1.
        3   -1    0    0  501    0  0.00000000000E+00  0.00000000000E+00 -0.15621227979E+04  0.15621228012E+04  0.10100000352E+00 0. -1.
    10030    2    1    2    0    0  0.00000000000E+00  0.00000000000E+00 -0.38330398553E+03  0.27409416179E+04  0.27140079232E+04 0.  0.
        3    1    3    3  502    0 -0.11497255115E+04 -0.13074456397E+03  0.52425292421E+03  0.12703558681E+04  0.10100000352E+00 0.  1.
       -3    1    3    3    0  502  0.11497255115E+04  0.13074456397E+03 -0.90755690974E+03  0.14705857498E+04  0.10100000352E+00 0. -1.
</event>
<event>
 5   0  0.7754912E-06  0.2668491E+04  0.7818609E-02  0.8345301E-01
        1   -1    0    0  501    0  0.00000000000E+00  0.00000000000E+00  0.13913739625E+04  0.13913739625E+04  0.50400001928E-02 0. -1.
       -1   -1    0    0    0  501  0.00000000000E+00  0.00000000000E+00 -0.12794629315E+04  0.12794629315E+04  0.50400001928E-02 0.  1.
    10030    2    1    2    0    0  0.00000000000E+00  0.00000000000E+00  0.11191103101E+03  0.26708368940E+04  0.26684912658E+04 0.  0.
        4    1    3    3  502    0 -0.53064388284E+03  0.95750593237E+03 -0.70747918109E+03  0.13034296857E+04  0.12699999809E+01 0.  1.
       -4    1    3    3    0  502  0.53064388284E+03 -0.95750593237E+03  0.81939021210E+03  0.13674072084E+04  0.12699999809E+01 0. -1.
</event>
<event>
 5   0  0.7351590E-06  0.2720190E+04  0.7818609E-02  0.8328484E-01
       -1   -1    0    0    0  501  0.00000000000E+00  0.00000000000E+00  0.89671816393E+03  0.89671816394E+03  0.50400001928E-02 0. -1.
        1   -1    0    0  501    0  0.00000000000E+00  0.00000000000E+00 -0.20629211338E+04  0.20629211338E+04  0.50400001928E-02 0.  1.
    10030    2    1    2    0    0  0.00000000000E+00  0.00000000000E+00 -0.11662029699E+04  0.29596392977E+04  0.27201903253E+04 0.  0.
        3    1    3    3  502    0 -0.34760894057E+03  0.63225837743E+03  0.67133047323E+03  0.98552891681E+03  0.10100000352E+00 0. -1.
       -3    1    3    3    0  502  0.34760894057E+03 -0.63225837743E+03 -0.18375334431E+04  0.19741103809E+04  0.10100000352E+00 0.  1.
</event>
<event>
 5   0  0.7348964E-06  0.2670573E+04  0.7818609E-02  0.8344616E-01
        1   -1    0    0  501    0  0.00000000000E+00  0.00000000000E+00  0.10168472603E+04  0.10168472604E+04  0.50400001928E-02 0.  1.
       -1   -1    0    0    0  501  0.00000000000E+00  0.00000000000E+00 -0.17534498530E+04  0.17534498530E+04  0.50400001928E-02 0. -1.
    10030    2    1    2    0    0  0.00000000000E+00  0.00000000000E+00 -0.73660259267E+03  0.27702971134E+04  0.26705734809E+04 0.  0.
        1    1    3    3  502    0 -0.21160721900E+03  0.59416405244E+03  0.85258511359E+03  0.10605234143E+04  0.50400001928E-02 0.  1.
       -1    1    3    3    0  502  0.21160721900E+03 -0.59416405244E+03 -0.15891877063E+04  0.17097736991E+04  0.50400001928E-02 0. -1.
</event>
<event>
 5   0  0.1826851E-05  0.2759288E+04  0.7818609E-02  0.8316020E-01
        2   -1    0    0  501    0  0.00000000000E+00  0.00000000000E+00  0.24407701788E+04  0.24407701788E+04  0.25500000920E-02 0.  1.
       -2   -1    0    0    0  501  0.00000000000E+00  0.00000000000E+00 -0.77984295474E+03  0.77984295474E+03  0.25500000920E-02 0. -1.
    10030    2    1    2    0    0  0.00000000000E+00  0.00000000000E+00  0.16609272241E+04  0.32206131335E+04  0.27592878995E+04 0.  0.
        5    1    3    3  502    0  0.87211135766E+03  0.37417166300E+03  0.19992938882E+04  0.22130930380E+04  0.46999998093E+01 0.  1.
       -5    1    3    3    0  502 -0.87211135766E+03 -0.37417166300E+03 -0.33836666411E+03  0.10075200955E+04  0.46999998093E+01 0. -1.
</event>
<event>
 5   0  0.1826851E-05  0.2762415E+04  0.7818609E-02  0.8315033E-01
       -2   -1    0    0    0  501  0.00000000000E+00  0.00000000000E+00  0.85379156280E+03  0.85379156280E+03  0.25500000920E-02 0. -1.
        2   -1    0    0  501    0  0.00000000000E+00  0.00000000000E+00 -0.22344253645E+04  0.22344253645E+04  0.25500000920E-02 0.  1.
    10030    2    1    2    0    0  0.00000000000E+00  0.00000000000E+00 -0.13806338017E+04  0.30882169273E+04  0.27624145409E+04 0.  0.
        5    1    3    3  502    0 -0.11440061582E+03 -0.13262874046E+04 -0.27866908357E+03  0.13600751187E+04  0.46999998093E+01 0. -1.
       -5    1    3    3    0  502  0.11440061582E+03  0.13262874046E+04 -0.11019647181E+04  0.17281418085E+04  0.46999998093E+01 0.  1.
</event>
<event>
 5   0  0.1826851E-05  0.2715960E+04  0.7818609E-02  0.8329845E-01
       -2   -1    0    0    0  501  0.00000000000E+00  0.00000000000E+00  0.20980306765E+04  0.20980306765E+04  0.25500000920E-02 0. -1.
        2   -1    0    0  501    0  0.00000000000E+00  0.00000000000E+00 -0.87897151509E+03  0.87897151509E+03  0.25500000920E-02 0.  1.
    10030    2    1    2    0    0  0.00000000000E+00  0.00000000000E+00  0.12190591614E+04  0.29770021915E+04  0.27159596480E+04 0.  0.
        5    1    3    3  502    0  0.36872557849E+03  0.12683310947E+04  0.26383662020E+03  0.13469425267E+04  0.46999998093E+01 0.  1.
       -5    1    3    3    0  502 -0.36872557849E+03 -0.12683310947E+04  0.95522254116E+03  0.16300596649E+04  0.46999998093E+01 0. -1.
</event>
<event>
 5   0  0.7348964E-06  0.2731069E+04  0.7818609E-02  0.8324994E-01
        1   -1    0    0  501    0  0.00000000000E+00  0.00000000000E+00  0.14011727675E+04  0.14011727675E+04  0.50400001928E-02 0. -1.
       -1   -1    0    0    0  501  0.00000000000E+00  0.00000000000E+00 -0.13308027146E+04  0.13308027146E+04  0.50400001928E-02 0.  1.
    10030    2    1    2    0    0  0.00000000000E+00  0.00000000000E+00  0.70370052925E+02  0.27319754821E+04  0.27310690381E+04 0.  0.
        1    1    3    3  502    0 -0.10025663925E+04 -0.38657581819E+03  0.87814157028E+03  0.13877005628E+04  0.50400001928E-02 0. -1.
       -1    1    3    3    0  502  0.10025663925E+04  0.38657581819E+03 -0.80777151735E+03  0.13442749193E+04  0.50400001928E-02 0.  1.
</event>
<event>
 5   0  0.1878160E-05  0.2641260E+04  0.7818609E-02  0.8354320E-01
        2   -1    0    0  501    0  0.00000000000E+00  0.00000000000E+00  0.20184824313E+04  0.20184824313E+04  0.25500000920E-02 0.  1.
       -2   -1    0    0    0  501  0.00000000000E+00  0.00000000000E+00 -0.86404681872E+03  0.86404681872E+03  0.25500000920E-02 0. -1.
    10030    2    1    2    0    0  0.00000000000E+00  0.00000000000E+00  0.11544356126E+04  0.28825292500E+04  0.26412597929E+04 0.  0.
        1    1    3    3  502    0  0.34207689205E+02 -0.66168893664E+03 -0.66952822148E+03  0.94195034596E+03  0.50400001928E-02 0. -1.
       -1    1    3    3    0  502 -0.34207689205E+02  0.66168893664E+03  0.18239638340E+04  0.19405789040E+04  0.50400001928E-02 0.  1.
</event>
<event>
 5   0  0.1878160E-05  0.2727933E+04  0.7818609E-02  0.8325998E-01
       -2   -1    0    0    0  501  0.00000000000E+00  0.00000000000E+00  0.16409208423E+04  0.16409208423E+04  0.25500000920E-02 0. -1.
        2   -1    0    0  501    0  0.00000000000E+00  0.00000000000E+00 -0.11337564031E+04  0.11337564031E+04  0.25500000920E-02 0.  1.
    10030    2    1    2    0    0  0.00000000000E+00  0.00000000000E+00  0.50716443913E+03  0.27746772454E+04  0.27279329259E+04 0.  0.
        1    1    3    3  502    0 -0.99460424741E+01  0.11901954960E+04 -0.42397067716E+03  0.12634933231E+04  0.50400001928E-02 0.  1.
       -1    1    3    3    0  502  0.99460424741E+01 -0.11901954960E+04  0.93113511629E+03  0.15111839223E+04  0.50400001928E-02 0. -1.
</event>
<event>
 5   0  0.7351590E-06  0.2641692E+04  0.7818609E-02  0.8354176E-01
       -1   -1    0    0    0  501  0.00000000000E+00  0.00000000000E+00  0.10618135020E+04  0.10618135020E+04  0.50400001928E-02 0. -1.
        1   -1    0    0  501    0  0.00000000000E+00  0.00000000000E+00 -0.16430705469E+04  0.16430705469E+04  0.50400001928E-02 0.  1.
    10030    2    1    2    0    0  0.00000000000E+00  0.00000000000E+00 -0.58125704492E+03  0.27048840489E+04  0.26416922541E+04 0.  0.
        3    1    3    3  502    0 -0.24696468461E+03  0.90035836944E+03  0.66606534003E+03  0.11468564846E+04  0.10100000352E+00 0. -1.
       -3    1    3    3    0  502  0.24696468461E+03 -0.90035836944E+03 -0.12473223849E+04  0.15580275643E+04  0.10100000352E+00 0.  1.
</event>
<event>
 5   0  0.1881699E-05  0.2417770E+04  0.7818609E-02  0.8432881E-01
       -2   -1    0    0    0  501  0.00000000000E+00  0.00000000000E+00  0.18828786032E+04  0.18828786032E+04  0.25500000920E-02 0.  1.
        2   -1    0    0  501    0  0.00000000000E+00  0.00000000000E+00 -0.77615361203E+03  0.77615361203E+03  0.25500000920E-02 0. -1.
    10030    2    1    2    0    0  0.00000000000E+00  0.00000000000E+00  0.11067249912E+04  0.26590322153E+04  0.24177700709E+04 0.  0.
        4    1    3    3  502    0 -0.11883398355E+04 -0.16057435949E+03  0.38489132146E+03  0.12593961378E+04  0.12699999809E+01 0. -1.
       -4    1    3    3    0  502  0.11883398355E+04  0.16057435949E+03  0.72183366974E+03  0.13996360775E+04  0.12699999809E+01 0.  1.
</event>
<event>
 5   0  0.6804685E-06  0.2439765E+04  0.7818609E-02  0.8424764E-01
       -1   -1    0    0    0  501  0.00000000000E+00  0.00000000000E+00  0.63839155097E+03  0.63839155099E+03  0.50400001928E-02 0.  1.
        1   -1    0    0  501    0  0.00000000000E+00  0.00000000000E+00 -0.23310359164E+04  0.23310359164E+04  0.50400001928E-02 0. -1.
    10030    2    1    2    0    0  0.00000000000E+00  0.00000000000E+00 -0.16926443655E+04  0.29694274674E+04  0.24397652626E+04 0.  0.
        2    1    3    3  502    0 -0.27272598595E+03 -0.11886153531E+04 -0.88339294354E+03  0.15058449501E+04  0.25500000920E-02 0. -1.
       -2    1    3    3    0  502  0.27272598595E+03  0.11886153531E+04 -0.80925142192E+03  0.14635825173E+04  0.25500000920E-02 0.  1.
</event>
<event>
 5   0  0.1788003E-05  0.2694466E+04  0.7818609E-02  0.8336803E-01
       -2   -1    0    0    0  501  0.00000000000E+00  0.00000000000E+00  0.14785795844E+04  0.14785795844E+04  0.25500000920E-02 0.  1.
        2   -1    0    0  501    0  0.00000000000E+00  0.00000000000E+00 -0.12275547533E+04  0.12275547533E+04  0.25500000920E-02 0. -1.
    10030    2    1    2    0    0  0.00000000000E+00  0.00000000000E+00  0.25102483110E+03  0.27061343377E+04  0.26944664755E+04 0.  0.
        2    1    3    3  502    0 -0.11105388521E+04  0.59677924867E+03  0.60253799903E+03  0.13973167336E+04  0.25500000920E-02 0.  1.
       -2    1    3    3    0  502  0.11105388521E+04 -0.59677924867E+03 -0.35151316793E+03  0.13088176041E+04  0.25500000920E-02 0. -1.
</event>
<event>
 5   0  0.7348964E-06  0.2736901E+04  0.7818609E-02  0.8323130E-01
        1   -1    0    0  501    0  0.00000000000E+00  0.00000000000E+00  0.16454551406E+04  0.16454551406E+04  0.50400001928E-02 0. -1.
       -1   -1    0    0    0  501  0.00000000000E+00  0.00000000000E+00 -0.11380786819E+04  0.11380786819E+04  0.50400001928E-02 0.  1.
    10030    2    1    2    0    0  0.00000000000E+00  0.00000000000E+00  0.50737645869E+03  0.27835338226E+04  0.27369014726E+04 0.  0.
        1    1    3    3  502    0  0.51513584299E+03  0.70063714293E+03 -0.82091283893E+03  0.11958909783E+04  0.50400001928E-02 0.  1.
       -1    1    3    3    0  502 -0.51513584299E+03 -0.70063714293E+03  0.13282892976E+04  0.15876428443E+04  0.50400001928E-02 0. -1.
</event>
<event>
 5   0  0.1788003E-05  0.2751838E+04  0.7818609E-02  0.8318379E-01
       -2   -1    0    0    0  501  0.00000000000E+00  0.00000000000E+00  0.15472744669E+04  0.15472744669E+04  0.25500000920E-02 0.  1.
        2   -1    0    0  501    0  0.00000000000E+00  0.00000000000E+00 -0.12235405678E+04  0.12235405678E+04  0.25500000920E-02 0. -1.
    10030    2    1    2    0    0  0.00000000000E+00  0.00000000000E+00  0.32373389915E+03  0.27708150347E+04  0.27518379893E+04 0.  0.
        2    1    3    3  502    0 -0.48296726853E+03  0.10944134754E+04  0.84637479096E+03  0.14653834052E+04  0.25500000920E-02 0.  1.
       -2    1    3    3    0  502  0.48296726853E+03 -0.10944134754E+04 -0.52264089182E+03  0.13054316295E+04  0.25500000920E-02 0. -1.
</event>
<event>
 5   0  0.1826851E-05  0.2687683E+04  0.7818609E-02  0.8339013E-01
        2   -1    0    0  501    0  0.00000000000E+00  0.00000000000E+00  0.12863044079E+04  0.12863044079E+04  0.25500000920E-02 0.  1.
       -2   -1    0    0    0  501  0.00000000000E+00  0.00000000000E+00 -0.14039517513E+04  0.14039517513E+04  0.25500000920E-02 0. -1.
    10030    2    1    2    0    0  0.00000000000E+00  0.00000000000E+00 -0.11764734347E+03  0.26902561592E+04  0.26876825156E+04 0.  0.
        5    1    3    3  502    0 -0.97454960620E+02 -0.61856179745E+03 -0.12489832975E+04  0.13971748402E+04  0.46999998093E+01 0. -1.
       -5    1    3    3    0  502  0.97454960620E+02  0.61856179745E+03  0.11313359541E+04  0.12930813190E+04  0.46999998093E+01 0.  1.
</event>
<event>
 5   0  0.1826851E-05  0.2667575E+04  0.7818609E-02  0.8345603E-01
        2   -1    0    0  501    0  0.00000000000E+00  0.00000000000E+00  0.65276647602E+03  0.65276647603E+03  0.25500000920E-02 0. -1.
       -2   -1    0    0    0  501  0.00000000000E+00  0.00000000000E+00 -0.27253076135E+04  0.27253076135E+04  0.25500000920E-02 0.  1.
    10030    2    1    2    0    0  0.00000000000E+00  0.00000000000E+00 -0.20725411374E+04  0.33780740895E+04  0.26675752637E+04 0.  0.
        5    1    3    3  502    0  0.10161013917E+04  0.83880987669E+03 -0.12985703241E+04  0.18499651413E+04  0.46999998093E+01 0.  1.
       -5    1    3    3    0  502 -0.10161013917E+04 -0.83880987669E+03 -0.77397081332E+03  0.15281089481E+04  0.46999998093E+01 0. -1.
</event>
<event>
 5   0  0.6175875E-06  0.2703006E+04  0.7818609E-02  0.8334030E-01
        4   -1    0    0  501    0  0.00000000000E+00  0.00000000000E+00  0.85760455807E+03  0.85760549842E+03  0.12699999809E+01 0.  1.
       -4   -1    0    0    0  501  0.00000000000E+00  0.00000000000E+00 -0.21298373737E+04  0.21298377524E+04  0.12699999809E+01 0. -1.
    10030    2    1    2    0    0  0.00000000000E+00  0.00000000000E+00 -0.12722328157E+04  0.29874432508E+04  0.27030058896E+04 0.  0.
        5    1    3    3  502    0  0.10368435190E+04 -0.85409850902E+03 -0.80008343255E+03  0.15635486353E+04  0.46999998093E+01 0. -1.
       -5    1    3    3    0  502 -0.10368435190E+04  0.85409850902E+03 -0.47214938311E+03  0.14238946155E+04  0.46999998093E+01 0.  1.
</event>
<event>
 5   0  0.7351590E-06  0.2738748E+04  0.7818609E-02  0.8322541E-01
        1   -1    0    0  501    0  0.00000000000E+00  0.00000000000E+00  0.21721114665E+04  0.21721114665E+04  0.50400001928E-02 0. -1.
       -1   -1    0    0    0  501  0.00000000000E+00  0.00000000000E+00 -0.86330039225E+03  0.86330039226E+03  0.50400001928E-02 0.  1.
    10030    2    1    2    0    0  0.00000000000E+00  0.00000000000E+00  0.13088110742E+04  0.30354118588E+04  0.27387476562E+04 0.  0.
        3    1    3    3  502    0  0.74253167920E+03  0.30200559754E+03 -0.57609247521E+03  0.98713890905E+03  0.10100000352E+00 0.  1.
       -3    1    3    3    0  502 -0.74253167920E+03 -0.30200559754E+03  0.18849035495E+04  0.20482729497E+04  0.10100000352E+00 0. -1.
</event>
<event>
 5   0  0.7351590E-06  0.2495210E+04  0.7818609E-02  0.8404694E-01
        1   -1    0    0  501    0  0.00000000000E+00  0.00000000000E+00  0.20934200475E+04  0.20934200475E+04  0.50400001928E-02 0.  1.
       -1   -1    0    0    0  501  0.00000000000E+00  0.00000000000E+00 -0.74352911609E+03  0.74352911611E+03  0.50400001928E-02 0. -1.
    10030    2    1    2    0    0  0.00000000000E+00  0.00000000000E+00  0.13498909314E+04  0.28369491636E+04  0.24952104180E+04 0.  0.
        3    1    3    3  502    0  0.96621038827E+03 -0.38769316686E+03 -0.10670811290E+03  0.10465443792E+04  0.10100000352E+00 0.  1.
       -3    1    3    3    0  502 -0.96621038827E+03  0.38769316686E+03  0.14565990443E+04  0.17904047844E+04  0.10100000352E+00 0. -1.
</event>
<event>
 5   0  0.7600052E-06  0.2669583E+04  0.7818609E-02  0.8344942E-01
       -1   -1    0    0    0  501  0.00000000000E+00  0.00000000000E+00  0.10385796824E+04  0.10385796824E+04  0.50400001928E-02 0.  1.
        1   -1    0    0  501    0  0.00000000000E+00  0.00000000000E+00 -0.17154853602E+04  0.17154853602E+04  0.50400001928E-02 0. -1.
    10030    2    1    2    0    0  0.00000000000E+00  0.00000000000E+00 -0.67690567784E+03  0.27540650426E+04  0.26695829192E+04 0.  0.
        5    1    3    3  502    0 -0.98021930429E+03  0.50326707176E+03  0.43873939044E+03  0.11860109497E+04  0.46999998093E+01 0.  1.
       -5    1    3    3    0  502  0.98021930429E+03 -0.50326707176E+03 -0.11156450683E+04  0.15680540929E+04  0.46999998093E+01 0. -1.
</event>
<event>
 5   0  0.1878160E-05  0.2723818E+04  0.7818609E-02  0.8327318E-01
        2   -1    0    0  501    0  0.00000000000E+00  0.00000000000E+00  0.21078441830E+04  0.21078441830E+04  0.25500000920E-02 0.  1.
       -2   -1    0    0    0  501  0.00000000000E+00  0.00000000000E+00 -0.87994960585E+03  0.87994960585E+03  0.25500000920E-02 0. -1.
    10030    2    1    2    0    0  0.00000000000E+00  0.00000000000E+00  0.12278945771E+04  0.29877937888E+04  0.27238183919E+04 0.  0.
        1    1    3    3  502    0 -0.79307955070E+03  0.31946241108E+03 -0.54886676429E+03  0.10160148280E+04  0.50400001928E-02 0. -1.
       -1    1    3    3    0  502  0.79307955070E+03 -0.31946241108E+03  0.17767613414E+04  0.19717789608E+04  0.50400001928E-02 0.  1.
</event>
<event>
 5   0  0.7600052E-06  0.2611190E+04  0.7818609E-02  0.8364410E-01
       -1   -1    0    0    0  501  0.00000000000E+00  0.00000000000E+00  0.10172227574E+04  0.10172227575E+04  0.50400001928E-02 0.  1.
        1   -1    0    0  501    0  0.00000000000E+00  0.00000000000E+00 -0.16757183095E+04  0.16757183095E+04  0.50400001928E-02 0. -1.
    10030    2    1    2    0    0  0.00000000000E+00  0.00000000000E+00 -0.65849555205E+03  0.26929410670E+04  0.26111903795E+04 0.  0.
        5    1    3    3  502    0 -0.85369357440E+03 -0.45737727410E+03  0.57370331559E+03  0.11256750304E+04  0.46999998093E+01 0.  1.
       -5    1    3    3    0  502  0.85369357440E+03  0.45737727410E+03 -0.12321988676E+04  0.15672660365E+04  0.46999998093E+01 0. -1.
</event>
<event>
 5   0  0.1878160E-05  0.2678186E+04  0.7818609E-02  0.8342118E-01
        2   -1    0    0  501    0  0.00000000000E+00  0.00000000000E+00  0.17802835790E+04  0.17802835790E+04  0.25500000920E-02 0.  1.
       -2   -1    0    0    0  501  0.00000000000E+00  0.00000000000E+00 -0.10072386641E+04  0.10072386641E+04  0.25500000920E-02 0. -1.
    10030    2    1    2    0    0  0.00000000000E+00  0.00000000000E+00  0.77304491496E+03  0.27875222431E+04  0.26781862921E+04 0.  0.
        1    1    3    3  502    0  0.46740765923E+03  0.93151376774E+03  0.12616713184E+04  0.16364603066E+04  0.50400001928E-02 0.  1.
       -1    1    3    3    0  502 -0.46740765923E+03 -0.93151376774E+03 -0.48862640345E+03  0.11510619365E+04  0.50400001928E-02 0. -1.
</event>
<event>
 5   0  0.1931119E-05  0.2721243E+04  0.7818609E-02  0.8328145E-01
       -2   -1    0    0    0  501  0.00000000000E+00  0.00000000000E+00  0.81543203576E+03  0.81543203577E+03  0.25500000920E-02 0. -1.
        2   -1    0    0  501    0  0.00000000000E+00  0.00000000000E+00 -0.22703182141E+04  0.22703182141E+04  0.25500000920E-02 0.  1.
    10030    2    1    2    0    0  0.00000000000E+00  0.00000000000E+00 -0.14548861783E+04  0.30857502499E+04  0.27212425127E+04 0.  0.
        3    1    3    3  502    0 -0.56918488849E+02 -0.16324216641E+03 -0.22578132413E+04  0.22644223021E+04  0.10100000352E+00 0.  1.
       -3    1    3    3    0  502  0.56918488849E+02  0.16324216641E+03  0.80292706295E+03  0.82132794783E+03  0.10100000352E+00 0. -1.
</event>
<event>
 5   0  0.1788003E-05  0.2662806E+04  0.7818609E-02  0.8347175E-01
        2   -1    0    0  501    0  0.00000000000E+00  0.00000000000E+00  0.14701131557E+04  0.14701131557E+04  0.25500000920E-02 0.  1.
       -2   -1    0    0    0  501  0.00000000000E+00  0.00000000000E+00 -0.12057802691E+04  0.12057802691E+04  0.25500000920E-02 0. -1.
    10030    2    1    2    0    0  0.00000000000E+00  0.00000000000E+00  0.26433288660E+03  0.26758934248E+04  0.26628056155E+04 0.  0.
        2    1    3    3  502    0 -0.11716355622E+03  0.84375030664E+03  0.11604216994E+04  0.14395208923E+04  0.25500000920E-02 0.  1.
       -2    1    3    3    0  502  0.11716355622E+03 -0.84375030664E+03 -0.89608881277E+03  0.12363725325E+04  0.25500000920E-02 0. -1.
</event>
<event>
 5   0  0.6804685E-06  0.2620174E+04  0.7818609E-02  0.8361381E-01
        1   -1    0    0  501    0  0.00000000000E+00  0.00000000000E+00  0.11762006875E+04  0.11762006875E+04  0.50400001928E-02 0.  1.
       -1   -1    0    0    0  501  0.00000000000E+00  0.00000000000E+00 -0.14592137365E+04  0.14592137365E+04  0.50400001928E-02 0. -1.
    10030    2    1    2    0    0  0.00000000000E+00  0.00000000000E+00 -0.28301304902E+03  0.26354144240E+04  0.26201741927E+04 0.  0.
        2    1    3    3  502    0 -0.70758962649E+03 -0.65030671844E+03 -0.10370483285E+04  0.14138780511E+04  0.25500000920E-02 0. -1.
       -2    1    3    3    0  502  0.70758962649E+03  0.65030671844E+03  0.75403527951E+03  0.12215363729E+04  0.25500000920E-02 0.  1.
</event>
<event>
 5   0  0.1826851E-05  0.2723622E+04  0.7818609E-02  0.8327381E-01
        2   -1    0    0  501    0  0.00000000000E+00  0.00000000000E+00  0.19429622855E+04  0.19429622855E+04  0.25500000920E-02 0. -1.
       -2   -1    0    0    0  501  0.00000000000E+00  0.00000000000E+00 -0.95448550686E+03  0.95448550687E+03  0.25500000920E-02 0.  1.
    10030    2    1    2    0    0  0.00000000000E+00  0.00000000000E+00  0.98847677859E+03  0.28974477923E+04  0.27236221044E+04 0.  0.
        5    1    3    3  502    0 -0.22531744087E+03  0.12650016910E+04  0.14326319708E+02  0.12849998291E+04  0.46999998093E+01 0.  1.
       -5    1    3    3    0  502  0.22531744087E+03 -0.12650016910E+04  0.97415045888E+03  0.16124479632E+04  0.46999998093E+01 0. -1.
</event>
<event>
 5   0  0.1826851E-05  0.2694167E+04  0.7818609E-02  0.8336900E-01
       -2   -1    0    0    0  501  0.00000000000E+00  0.00000000000E+00  0.10399438657E+04  0.10399438657E+04  0.25500000920E-02 0.  1.
        2   -1    0    0  501    0  0.00000000000E+00  0.00000000000E+00 -0.17449351232E+04  0.17449351232E+04  0.25500000920E-02 0. -1.
    10030    2    1    2    0    0  0.00000000000E+00  0.00000000000E+00 -0.70499125757E+03  0.27848789889E+04  0.26941674613E+04 0.  0.
        5    1    3    3  502    0  0.79174398574E+03 -0.48868332137E+03 -0.13594312495E+04  0.16473449364E+04  0.46999998093E+01 0. -1.
       -5    1    3    3    0  502 -0.79174398574E+03  0.48868332137E+03  0.65443999191E+03  0.11375340525E+04  0.46999998093E+01 0.  1.
</event>
<event>
 5   0  0.1878160E-05  0.2688937E+04  0.7818609E-02  0.8338603E-01
       -2   -1    0    0    0  501  0.00000000000E+00  0.00000000000E+00  0.82684405899E+03  0.82684405899E+03  0.25500000920E-02 0.  1.
        2   -1    0    0  501    0  0.00000000000E+00  0.00000000000E+00 -0.21861388521E+04  0.21861388521E+04  0.25500000920E-02 0. -1.
    10030    2    1    2    0    0  0.00000000000E+00  0.00000000000E+00 -0.13592947931E+04  0.30129829111E+04  0.26889372786E+04 0.  0.
        1    1    3    3  502    0 -0.12929128132E+04 -0.27841295676E+03 -0.95056686825E+03  0.16287156560E+04  0.50400001928E-02 0. -1.
       -1    1    3    3    0  502  0.12929128132E+04  0.27841295676E+03 -0.40872792488E+03  0.13842672551E+04  0.50400001928E-02 0.  1.
</event>
<event>
 5   0  0.1881699E-05  0.2705744E+04  0.7818609E-02  0.8333144E-01
        2   -1    0    0  501    0  0.00000000000E+00  0.00000000000E+00  0.20206283416E+04  0.20206283416E+04  0.25500000920E-02 0. -1.
       -2   -1    0    0    0  501  0.00000000000E+00  0.00000000000E+00 -0.90578878086E+03  0.90578878086E+03  0.25500000920E-02 0.  1.
    10030    2    1    2    0    0  0.00000000000E+00  0.00000000000E+00  0.11148395607E+04  0.29264171224E+04  0.27057438771E+04 0.  0.
        4    1    3    3  502    0 -0.11347980226E+03 -0.39623563561E+03  0.19510686286E+04  0.19941290707E+04  0.12699999809E+01 0. -1.
       -4    1    3    3    0  502  0.11347980226E+03  0.39623563561E+03 -0.83622906788E+03  0.93228805168E+03  0.12699999809E+01 0.  1.
</event>
<event>
 5   0  0.6804685E-06  0.2743033E+04  0.7818609E-02  0.8321176E-01
        1   -1    0    0  501    0  0.00000000000E+00  0.00000000000E+00  0.16941643914E+04  0.16941643914E+04  0.50400001928E-02 0. -1.
       -1   -1    0    0    0  501  0.00000000000E+00  0.00000000000E+00 -0.11103157971E+04  0.11103157972E+04  0.50400001928E-02 0.  1.
    10030    2    1    2    0    0  0.00000000000E+00  0.00000000000E+00  0.58384859427E+03  0.28044801886E+04  0.27430329832E+04 0.  0.
        2    1    3    3  502    0 -0.11534696024E+04 -0.10822966974E+03  0.10424334206E+04  0.15584842705E+04  0.25500000920E-02 0. -1.
       -2    1    3    3    0  502  0.11534696024E+04  0.10822966974E+03 -0.45858482628E+03  0.12459959181E+04  0.25500000920E-02 0.  1.
</event>
<event>
 5   0  0.6804685E-06  0.2712778E+04  0.7818609E-02  0.8330871E-01
        1   -1    0    0  501    0  0.00000000000E+00  0.00000000000E+00  0.10624554209E+04  0.10624554210E+04  0.50400001928E-02 0.  1.
       -1   -1    0    0    0  501  0.00000000000E+00  0.00000000000E+00 -0.17316408215E+04  0.17316408215E+04  0.50400001928E-02 0. -1.
    10030    2    1    2    0    0  0.00000000000E+00  0.00000000000E+00 -0.66918540059E+03  0.27940962425E+04  0.27127780433E+04 0.  0.
        2    1    3    3  502    0  0.48881996667E+03  0.47888805490E+03 -0.15408139543E+04  0.16859378312E+04  0.25500000920E-02 0. -1.
       -2    1    3    3    0  502 -0.48881996667E+03 -0.47888805490E+03  0.87162855370E+03  0.11081584113E+04  0.25500000920E-02 0.  1.
</event>
<event>
 5   0  0.1826851E-05  0.2762863E+04  0.7818609E-02  0.8314891E-01
        2   -1    0    0  501    0  0.00000000000E+00  0.00000000000E+00  0.29200431611E+04  0.29200431611E+04  0.25500000920E-02 0.  1.
       -2   -1    0    0    0  501  0.00000000000E+00  0.00000000000E+00 -0.65353610588E+03  0.65353610588E+03  0.25500000920E-02 0. -1.
    10030    2    1    2    0    0  0.00000000000E+00  0.00000000000E+00  0.22665070552E+04  0.35735792669E+04  0.27628634686E+04 0.  0.
        5    1    3    3  502    0  0.21381442194E+03 -0.68889124652E+03 -0.39060826222E+03  0.82029547181E+03  0.46999998093E+01 0. -1.
       -5    1    3    3    0  502 -0.21381442194E+03  0.68889124652E+03  0.26571153174E+04  0.27532837951E+04  0.46999998093E+01 0.  1.
</event>
<event>
 5   0  0.1931119E-05  0.2716049E+04  0.7818609E-02  0.8329816E-01
       -2   -1    0    0    0  501  0.00000000000E+00  0.00000000000E+00  0.91909839132E+03  0.91909839133E+03  0.25500000920E-02 0. -1.
        2   -1    0    0  501    0  0.00000000000E+00  0.00000000000E+00 -0.20065645917E+04  0.20065645917E+04  0.25500000920E-02 0.  1.
    10030    2    1    2    0    0  0.00000000000E+00  0.00000000000E+00 -0.10874662004E+04  0.29256629830E+04  0.27160488128E+04 0.  0.
        3    1    3    3  502    0  0.53901304149E+03  0.12349569925E+04 -0.36164111396E+03  0.13951480702E+04  0.10100000352E+00 0. -1.
       -3    1    3    3    0  502 -0.53901304149E+03 -0.12349569925E+04 -0.72582508641E+03  0.15305149129E+04  0.10100000352E+00 0.  1.
</event>
<event>
 5   0  0.6804685E-06  0.2661226E+04  0.7818609E-02  0.8347696E-01
        1   -1    0    0  501    0  0.00000000000E+00  0.00000000000E+00  0.13352797594E+04  0.13352797595E+04  0.50400001928E-02 0. -1.
       -1   -1    0    0    0  501  0.00000000000E+00  0.00000000000E+00 -0.13259627395E+04  0.13259627395E+04  0.50400001928E-02 0.  1.
    10030    2    1    2    0    0  0.00000000000E+00  0.00000000000E+00  0.93170199863E+01  0.26612424989E+04  0.26612261894E+04 0.  0.
        2    1    3    3  502    0 -0.37357235237E+03 -0.10726273010E+04  0.69780457495E+03  0.13330479564E+04  0.25500000920E-02 0. -1.
       -2    1    3    3    0  502  0.37357235237E+03  0.10726273010E+04 -0.68848755496E+03  0.13281945425E+04  0.25500000920E-02 0.  1.
</event>
<event>
 5   0  0.1881699E-05  0.2655871E+04  0.7818609E-02  0.8349467E-01
       -2   -1    0    0    0  501  0.00000000000E+00  0.00000000000E+00  0.83490097286E+03  0.83490097286E+03  0.25500000920E-02 0.  1.
        2   -1    0    0  501    0  0.00000000000E+00  0.00000000000E+00 -0.21121217529E+04  0.21121217529E+04  0.25500000920E-02 0. -1.
    10030    2    1    2    0    0  0.00000000000E+00  0.00000000000E+00 -0.12772207801E+04  0.29470227258E+04  0.26558708600E+04 0.  0.
        4    1    3    3  502    0 -0.64461547404E+03  0.17665796480E+03  0.63464528106E+03  0.92169050748E+03  0.12699999809E+01 0.  1.
       -4    1    3    3    0  502  0.64461547404E+03 -0.17665796480E+03 -0.19118660611E+04  0.20253322183E+04  0.12699999809E+01 0. -1.
</event>
<event>
 5   0  0.7754912E-06  0.2711532E+04  0.7818609E-02  0.8331273E-01
       -1   -1    0    0    0  501  0.00000000000E+00  0.00000000000E+00  0.15496423720E+04  0.15496423720E+04  0.50400001928E-02 0.  1.
        1   -1    0    0  501    0  0.00000000000E+00  0.00000000000E+00 -0.11861452165E+04  0.11861452165E+04  0.50400001928E-02 0. -1.
    10030    2    1    2    0    0  0.00000000000E+00  0.00000000000E+00  0.36349715543E+03  0.27357875885E+04  0.27115315870E+04 0.  0.
        4    1    3    3  502    0  0.12946979203E+04  0.24453376137E+03 -0.14057723153E+03  0.13250671818E+04  0.12699999809E+01 0.  1.
       -4    1    3    3    0  502 -0.12946979203E+04 -0.24453376137E+03  0.50407438696E+03  0.14107204067E+04  0.12699999809E+01 0. -1.
</event>
<event>
 5   0  0.7351590E-06  0.2740257E+04  0.7818609E-02  0.8322060E-01
       -1   -1    0    0    0  501  0.00000000000E+00  0.00000000000E+00  0.13564375401E+04  0.13564375402E+04  0.50400001928E-02 0. -1.
        1   -1    0    0  501    0  0.00000000000E+00  0.00000000000E+00 -0.13839579407E+04  0.13839579407E+04  0.50400001928E-02 0.  1.
    10030    2    1    2    0    0  0.00000000000E+00  0.00000000000E+00 -0.27520400566E+02  0.27403954809E+04  0.27402572907E+04 0.  0.
        3    1    3    3  502    0 -0.13357295846E+02 -0.13656409033E+04  0.96240803135E+02  0.13690930562E+04  0.10100000352E+00 0. -1.
       -3    1    3    3    0  502  0.13357295846E+02  0.13656409033E+04 -0.12376120370E+03  0.13713024247E+04  0.10100000352E+00 0.  1.
</event>
<event>
 5   0  0.1878160E-05  0.2755193E+04  0.7818609E-02  0.8317316E-01
        2   -1    0    0  501    0  0.00000000000E+00  0.00000000000E+00  0.18250408811E+04  0.18250408811E+04  0.25500000920E-02 0. -1.
       -2   -1    0    0    0  501  0.00000000000E+00  0.00000000000E+00 -0.10398517707E+04  0.10398517707E+04  0.25500000920E-02 0.  1.
    10030    2    1    2    0    0  0.00000000000E+00  0.00000000000E+00  0.78518911045E+03  0.28648926518E+04  0.27551929092E+04 0.  0.
        1    1    3    3  502    0  0.40444596761E+02  0.10184621191E+04 -0.57105770828E+03  0.11683354654E+04  0.50400001928E-02 0.  1.
       -1    1    3    3    0  502 -0.40444596761E+02 -0.10184621191E+04  0.13562468187E+04  0.16965571864E+04  0.50400001928E-02 0. -1.
</event>
<event>
 5   0  0.6804685E-06  0.2449924E+04  0.7818609E-02  0.8421046E-01
        1   -1    0    0  501    0  0.00000000000E+00  0.00000000000E+00  0.10333886711E+04  0.10333886712E+04  0.50400001928E-02 0. -1.
       -1   -1    0    0    0  501  0.00000000000E+00  0.00000000000E+00 -0.14520499462E+04  0.14520499462E+04  0.50400001928E-02 0.  1.
    10030    2    1    2    0    0  0.00000000000E+00  0.00000000000E+00 -0.41866127507E+03  0.24854386174E+04  0.24499240514E+04 0.  0.
        2    1    3    3  502    0 -0.61558615076E+03  0.84061151862E+03  0.44417968961E+03  0.11326383496E+04  0.25500000920E-02 0. -1.
       -2    1    3    3    0  502  0.61558615076E+03 -0.84061151862E+03 -0.86284096468E+03  0.13528002678E+04  0.25500000920E-02 0.  1.
</event>
<event>
 5   0  0.1878160E-05  0.2751316E+04  0.7818609E-02  0.8318544E-01
       -2   -1    0    0    0  501  0.00000000000E+00  0.00000000000E+00  0.99765578447E+03  0.99765578448E+03  0.25500000920E-02 0.  1.
        2   -1    0    0  501    0  0.00000000000E+00  0.00000000000E+00 -0.18968816329E+04  0.18968816329E+04  0.25500000920E-02 0. -1.
    10030    2    1    2    0    0  0.00000000000E+00  0.00000000000E+00 -0.89922584845E+03  0.28945374174E+04  0.27513160004E+04 0.  0.
        1    1    3    3  502    0  0.13607023730E+04 -0.19674802932E+03 -0.49911768544E+03  0.14626480093E+04  0.50400001928E-02 0.  1.
       -1    1    3    3    0  502 -0.13607023730E+04  0.19674802932E+03 -0.40010816301E+03  0.14318894081E+04  0.50400001928E-02 0. -1.
</event>
<event>
 5   0  0.1931119E-05  0.2742762E+04  0.7818609E-02  0.8321262E-01
        2   -1    0    0  501    0  0.00000000000E+00  0.00000000000E+00  0.80076961011E+03  0.80076961012E+03  0.25500000920E-02 0.  1.
       -2   -1    0    0    0  501  0.00000000000E+00  0.00000000000E+00 -0.23485985761E+04  0.23485985761E+04  0.25500000920E-02 0. -1.
    10030    2    1    2    0    0  0.00000000000E+00  0.00000000000E+00 -0.15478289660E+04  0.31493681862E+04  0.27427623784E+04 0.  0.
        3    1    3    3  502    0 -0.12109362262E+04 -0.33403460056E+03 -0.14057014403E+04  0.18851902312E+04  0.10100000352E+00 0. -1.
       -3    1    3    3    0  502  0.12109362262E+04  0.33403460056E+03 -0.14212752568E+03  0.12641779550E+04  0.10100000352E+00 0.  1.
</event>
<event>
 5   0  0.7348964E-06  0.2717160E+04  0.7818609E-02  0.8329459E-01
       -1   -1    0    0    0  501  0.00000000000E+00  0.00000000000E+00  0.11057288646E+04  0.11057288646E+04  0.50400001928E-02 0. -1.
        1   -1    0    0  501    0  0.00000000000E+00  0.00000000000E+00 -0.16692515181E+04  0.16692515181E+04  0.50400001928E-02 0.  1.
    10030    2    1    2    0    0  0.00000000000E+00  0.00000000000E+00 -0.56352265351E+03  0.27749803827E+04  0.27171599775E+04 0.  0.
        1    1    3    3  502    0  0.31478862368E+03  0.76213295502E+03  0.82093755087E+03  0.11635621948E+04  0.50400001928E-02 0. -1.
       -1    1    3    3    0  502 -0.31478862368E+03 -0.76213295502E+03 -0.13844602044E+04  0.16114181879E+04  0.50400001928E-02 0.  1.
</event>
<event>
 5   0  0.7348964E-06  0.2660004E+04  0.7818609E-02  0.8348100E-01
       -1   -1    0    0    0  501  0.00000000000E+00  0.00000000000E+00  0.26770845151E+04  0.26770845151E+04  0.50400001928E-02 0. -1.
        1   -1    0    0  501    0  0.00000000000E+00  0.00000000000E+00 -0.66075824555E+03  0.66075824557E+03  0.50400001928E-02 0.  1.
    10030    2    1    2    0    0  0.00000000000E+00  0.00000000000E+00  0.20163262695E+04  0.33378427606E+04  0.26600042612E+04 0.  0.
        1    1    3    3  502    0 -0.25000262658E+03  0.10109019734E+04  0.20463234326E+04  0.22960539418E+04  0.50400001928E-02 0. -1.
       -1    1    3    3    0  502  0.25000262658E+03 -0.10109019734E+04 -0.29997163043E+02  0.10417888188E+04  0.50400001928E-02 0.  1.
</event>
<event>
 5   0  0.1878160E-05  0.2707349E+04  0.7818609E-02  0.8332625E-01
       -2   -1    0    0    0  501  0.00000000000E+00  0.00000000000E+00  0.11019001680E+04  0.11019001680E+04  0.25500000920E-02 0.  1.
        2   -1    0    0  501    0  0.00000000000E+00  0.00000000000E+00 -0.16629764475E+04  0.16629764475E+04  0.25500000920E-02 0. -1.
    10030    2    1    2    0    0  0.00000000000E+00  0.00000000000E+00 -0.56107627952E+03  0.27648766154E+04  0.27073485382E+04 0.  0.
        1    1    3    3  502    0 -0.10523595443E+03 -0.30957999445E+03 -0.16220408063E+04  0.16546693798E+04  0.50400001928E-02 0. -1.
       -1    1    3    3    0  502  0.10523595443E+03  0.30957999445E+03  0.10609645268E+04  0.11102072357E+04  0.50400001928E-02 0.  1.
</event>
<event>
 5   0  0.6804685E-06  0.2712640E+04  0.7818609E-02  0.8330915E-01
        1   -1    0    0  501    0  0.00000000000E+00  0.00000000000E+00  0.11129228533E+04  0.11129228534E+04  0.50400001928E-02 0.  1.
       -1   -1    0    0    0  501  0.00000000000E+00  0.00000000000E+00 -0.16529488917E+04  0.16529488917E+04  0.50400001928E-02 0. -1.
    10030    2    1    2    0    0  0.00000000000E+00  0.00000000000E+00 -0.54002603831E+03  0.27658717450E+04  0.27126404826E+04 0.  0.
        2    1    3    3  502    0 -0.44279862878E+02 -0.73341041698E+03 -0.14324521520E+04  0.16098977339E+04  0.25500000920E-02 0. -1.
       -2    1    3    3    0  502  0.44279862878E+02  0.73341041698E+03  0.89242611365E+03  0.11559740111E+04  0.25500000920E-02 0.  1.
</event>
<event>
 5   0  0.7348964E-06  0.2620850E+04  0.7818609E-02  0.8361153E-01
        1   -1    0    0  501    0  0.00000000000E+00  0.00000000000E+00  0.14909272126E+04  0.14909272126E+04  0.50400001928E-02 0. -1.
       -1   -1    0    0    0  501  0.00000000000E+00  0.00000000000E+00 -0.11517753027E+04  0.11517753027E+04  0.50400001928E-02 0.  1.
    10030    2    1    2    0    0  0.00000000000E+00  0.00000000000E+00  0.33915190990E+03  0.26427025153E+04  0.26208495887E+04 0.  0.
        1    1    3    3  502    0  0.63031688131E+03  0.48085025623E+03 -0.88253042523E+03  0.11863289136E+04  0.50400001928E-02 0.  1.
       -1    1    3    3    0  502 -0.63031688131E+03 -0.48085025623E+03  0.12216823351E+04  0.14563736017E+04  0.50400001928E-02 0. -1.
</event>
<event>
 5   0  0.1931119E-05  0.2650300E+04  0.7818609E-02  0.8351313E-01
       -2   -1    0    0    0  501  0.00000000000E+00  0.00000000000E+00  0.76314539939E+03  0.76314539940E+03  0.25500000920E-02 0. -1.
        2   -1    0    0  501    0  0.00000000000E+00  0.00000000000E+00 -0.23010334105E+04  0.23010334105E+04  0.25500000920E-02 0.  1.
    10030    2    1    2    0    0  0.00000000000E+00  0.00000000000E+00 -0.15378880111E+04  0.30641788099E+04  0.26503004064E+04 0.  0.
        3    1    3    3  502    0  0.10228548875E+04 -0.11582771268E+03 -0.17337512311E+04  0.20163188045E+04  0.10100000352E+00 0.  1.
       -3    1    3    3    0  502 -0.10228548875E+04  0.11582771268E+03  0.19586321997E+03  0.10478600054E+04  0.10100000352E+00 0. -1.
</event>
<event>
 5   0  0.7754912E-06  0.2733969E+04  0.7818609E-02  0.8324067E-01
       -1   -1    0    0    0  501  0.00000000000E+00  0.00000000000E+00  0.12022813711E+04  0.12022813711E+04  0.50400001928E-02 0. -1.
        1   -1    0    0  501    0  0.00000000000E+00  0.00000000000E+00 -0.15542508481E+04  0.15542508481E+04  0.50400001928E-02 0.  1.
    10030    2    1    2    0    0  0.00000000000E+00  0.00000000000E+00 -0.35196947702E+03  0.27565322193E+04  0.27339691591E+04 0.  0.
        4    1    3    3  502    0  0.78684281274E+03 -0.25217700954E+03 -0.12739764396E+04  0.15184638414E+04  0.12699999809E+01 0.  1.
       -4    1    3    3    0  502 -0.78684281274E+03  0.25217700954E+03  0.92200696263E+03  0.12380683778E+04  0.12699999809E+01 0. -1.
</event>
<event>
 5   0  0.7348964E-06  0.2035285E+04  0.7818609E-02  0.8590299E-01
        1   -1    0    0  501    0  0.00000000000E+00  0.00000000000E+00  0.18351510373E+04  0.18351510373E+04  0.50400001928E-02 0. -1.
       -1   -1    0    0    0  501  0.00000000000E+00  0.00000000000E+00 -0.56431093659E+03  0.56431093662E+03  0.50400001928E-02 0.  1.
    10030    2    1    2    0    0  0.00000000000E+00  0.00000000000E+00  0.12708401007E+04  0.23994619739E+04  0.20352845508E+04 0.  0.
        1    1    3    3  502    0  0.49061755901E+03 -0.75121128482E+03  0.12015183452E+04  0.14995567070E+04  0.50400001928E-02 0. -1.
       -1    1    3    3    0  502 -0.49061755901E+03  0.75121128482E+03  0.69321755518E+02  0.89990526693E+03  0.50400001928E-02 0.  1.
</event>
<event>
 5   0  0.7348964E-06  0.2683909E+04  0.7818609E-02  0.8340245E-01
        1   -1    0    0  501    0  0.00000000000E+00  0.00000000000E+00  0.11855017090E+04  0.11855017090E+04  0.50400001928E-02 0.  1.
       -1   -1    0    0    0  501  0.00000000000E+00  0.00000000000E+00 -0.15190540821E+04  0.15190540821E+04  0.50400001928E-02 0. -1.
    10030    2    1    2    0    0  0.00000000000E+00  0.00000000000E+00 -0.33355237311E+03  0.27045557911E+04  0.26839085010E+04 0.  0.
        1    1    3    3  502    0 -0.11260711265E+04 -0.68378365778E+03  0.90619728254E+02  0.13205333043E+04  0.50400001928E-02 0.  1.
       -1    1    3    3    0  502  0.11260711265E+04  0.68378365778E+03 -0.42417210136E+03  0.13840224869E+04  0.50400001928E-02 0. -1.
</event>
<event>
 5   0  0.1788003E-05  0.2691031E+04  0.7818609E-02  0.8337921E-01
        2   -1    0    0  501    0  0.00000000000E+00  0.00000000000E+00  0.10875418067E+04  0.10875418067E+04  0.25500000920E-02 0. -1.
       -2   -1    0    0    0  501  0.00000000000E+00  0.00000000000E+00 -0.16646829267E+04  0.16646829267E+04  0.25500000920E-02 0.  1.
    10030    2    1    2    0    0  0.00000000000E+00  0.00000000000E+00 -0.57714112002E+03  0.27522247334E+04  0.26910312355E+04 0.  0.
        2    1    3    3  502    0  0.46354484785E+03  0.60311043641E+03 -0.14236717893E+04  0.16141429268E+04  0.25500000920E-02 0.  1.
       -2    1    3    3    0  502 -0.46354484785E+03 -0.60311043641E+03  0.84653066926E+03  0.11380818066E+04  0.25500000920E-02 0. -1.
</event>
<event>
 5   0  0.1881699E-05  0.2686812E+04  0.7818609E-02  0.8339297E-01
       -2   -1    0    0    0  501  0.00000000000E+00  0.00000000000E+00  0.75311972987E+03  0.75311972988E+03  0.25500000920E-02 0. -1.
        2   -1    0    0  501    0  0.00000000000E+00  0.00000000000E+00 -0.23963524576E+04  0.23963524576E+04  0.25500000920E-02 0.  1.
    10030    2    1    2    0    0  0.00000000000E+00  0.00000000000E+00 -0.16432327278E+04  0.31494721875E+04  0.26868124725E+04 0.  0.
        4    1    3    3  502    0  0.79365776489E+01  0.73350097046E+02 -0.23939752012E+04  0.23951121274E+04  0.12699999809E+01 0.  1.
       -4    1    3    3    0  502 -0.79365776489E+01 -0.73350097046E+02  0.75074247343E+03  0.75436006012E+03  0.12699999809E+01 0. -1.
</event>
<event>
 5   0  0.1931119E-05  0.2803914E+04  0.7818609E-02  0.8302054E-01
        2   -1    0    0  501    0  0.00000000000E+00  0.00000000000E+00  0.14107788199E+04  0.14107788199E+04  0.25500000920E-02 0.  1.
       -2   -1    0    0    0  501  0.00000000000E+00  0.00000000000E+00 -0.13931908048E+04  0.13931908048E+04  0.25500000920E-02 0. -1.
    10030    2    1    2    0    0  0.00000000000E+00  0.00000000000E+00  0.17588015115E+02  0.28039696246E+04  0.28039144633E+04 0.  0.
        3    1    3    3  502    0  0.28913061974E+02  0.12831895125E+04  0.57278451639E+03  0.14055224660E+04  0.10100000352E+00 0.  1.
       -3    1    3    3    0  502 -0.28913061974E+02 -0.12831895125E+04 -0.55519650128E+03  0.13984471586E+04  0.10100000352E+00 0. -1.
</event>
<event>
 5   0  0.7351590E-06  0.2709787E+04  0.7818609E-02  0.8331836E-01
        1   -1    0    0  501    0  0.00000000000E+00  0.00000000000E+00  0.14475874627E+04  0.14475874627E+04  0.50400001928E-02 0.  1.
       -1   -1    0    0    0  501  0.00000000000E+00  0.00000000000E+00 -0.12681349513E+04  0.12681349513E+04  0.50400001928E-02 0. -1.
    10030    2    1    2    0    0  0.00000000000E+00  0.00000000000E+00  0.17945251145E+03  0.27157224140E+04  0.27097868968E+04 0.  0.
        3    1    3    3  502    0 -0.42085424934E+03 -0.84515286821E+02 -0.11981859381E+04  0.12727571196E+04  0.10100000352E+00 0. -1.
       -3    1    3    3    0  502  0.42085424934E+03  0.84515286821E+02  0.13776384496E+04  0.14429652944E+04  0.10100000352E+00 0.  1.
</event>
<event>
 5   0  0.1826851E-05  0.2721337E+04  0.7818609E-02  0.8328115E-01
       -2   -1    0    0    0  501  0.00000000000E+00  0.00000000000E+00  0.10200118237E+04  0.10200118237E+04  0.25500000920E-02 0.  1.
        2   -1    0    0  501    0  0.00000000000E+00  0.00000000000E+00 -0.18150957492E+04  0.18150957492E+04  0.25500000920E-02 0. -1.
    10030    2    1    2    0    0  0.00000000000E+00  0.00000000000E+00 -0.79508392554E+03  0.28351075729E+04  0.27213372634E+04 0.  0.
        5    1    3    3  502    0 -0.79014750866E+02  0.13579197797E+04 -0.43374495507E+03  0.14277066348E+04  0.46999998093E+01 0.  1.
       -5    1    3    3    0  502  0.79014750866E+02 -0.13579197797E+04 -0.36133897047E+03  0.14074009381E+04  0.46999998093E+01 0. -1.
</event>
<event>
 5   0  0.1788003E-05  0.2666166E+04  0.7818609E-02  0.8346067E-01
        2   -1    0    0  501    0  0.00000000000E+00  0.00000000000E+00  0.16844862666E+04  0.16844862666E+04  0.25500000920E-02 0.  1.
       -2   -1    0    0    0  501  0.00000000000E+00  0.00000000000E+00 -0.10549866187E+04  0.10549866187E+04  0.25500000920E-02 0. -1.
    10030    2    1    2    0    0  0.00000000000E+00  0.00000000000E+00  0.62949964790E+03  0.27394728852E+04  0.26661661393E+04 0.  0.
        2    1    3    3  502    0  0.85771165770E+03 -0.95167123569E+03  0.69334107883E+03  0.14567323983E+04  0.25500000920E-02 0.  1.
       -2    1    3    3    0  502 -0.85771165770E+03  0.95167123569E+03 -0.63841430932E+02  0.12827404870E+04  0.25500000920E-02 0. -1.
</event>
<event>
 5   0  0.7351590E-06  0.2716253E+04  0.7818609E-02  0.8329751E-01
        1   -1    0    0  501    0  0.00000000000E+00  0.00000000000E+00  0.14879418477E+04  0.14879418477E+04  0.50400001928E-02 0. -1.
       -1   -1    0    0    0  501  0.00000000000E+00  0.00000000000E+00 -0.12396368671E+04  0.12396368671E+04  0.50400001928E-02 0.  1.
    10030    2    1    2    0    0  0.00000000000E+00  0.00000000000E+00  0.24830498057E+03  0.27275787148E+04  0.27162529857E+04 0.  0.
        3    1    3    3  502    0  0.10940769239E+04  0.75226422227E+03 -0.16269886425E+03  0.13376758599E+04  0.10100000352E+00 0. -1.
       -3    1    3    3    0  502 -0.10940769239E+04 -0.75226422227E+03  0.41100384482E+03  0.13899028549E+04  0.10100000352E+00 0.  1.
</event>
<event>
 5   0  0.1826851E-05  0.2696607E+04  0.7818609E-02  0.8336107E-01
        2   -1    0    0  501    0  0.00000000000E+00  0.00000000000E+00  0.11404934313E+04  0.11404934313E+04  0.25500000920E-02 0.  1.
       -2   -1    0    0    0  501  0.00000000000E+00  0.00000000000E+00 -0.15939782469E+04  0.15939782470E+04  0.25500000920E-02 0. -1.
    10030    2    1    2    0    0  0.00000000000E+00  0.00000000000E+00 -0.45348481567E+03  0.27344716782E+04  0.26966065492E+04 0.  0.
        5    1    3    3  502    0  0.14545082225E+03 -0.81747209626E+03  0.85047500947E+03  0.11885900898E+04  0.46999998093E+01 0.  1.
       -5    1    3    3    0  502 -0.14545082225E+03  0.81747209626E+03 -0.13039598251E+04  0.15458815884E+04  0.46999998093E+01 0. -1.
</event>
<event>
 5   0  0.6175875E-06  0.2715466E+04  0.7818609E-02  0.8330004E-01
       -3   -1    0    0    0  501  0.00000000000E+00  0.00000000000E+00  0.22461647396E+04  0.22461647418E+04  0.10100000352E+00 0.  1.
        3   -1    0    0  501    0  0.00000000000E+00  0.00000000000E+00 -0.82070500480E+03  0.82070501102E+03  0.10100000352E+00 0. -1.
    10030    2    1    2    0    0  0.00000000000E+00  0.00000000000E+00  0.14254597348E+04  0.30668697529E+04  0.27154658211E+04 0.  0.
        5    1    3    3  502    0  0.20389767031E+02 -0.90176848956E+03  0.18588508800E+04  0.20661439532E+04  0.46999998093E+01 0. -1.
       -5    1    3    3    0  502 -0.20389767031E+02  0.90176848956E+03 -0.43339114520E+03  0.10007257997E+04  0.46999998093E+01 0.  1.
</event>
<event>
 5   0  0.1826851E-05  0.2729619E+04  0.7818609E-02  0.8325458E-01
        2   -1    0    0  501    0  0.00000000000E+00  0.00000000000E+00  0.13069552382E+04  0.13069552382E+04  0.25500000920E-02 0.  1.
       -2   -1    0    0    0  501  0.00000000000E+00  0.00000000000E+00 -0.14252245069E+04  0.14252245069E+04  0.25500000920E-02 0. -1.
    10030    2    1    2    0    0  0.00000000000E+00  0.00000000000E+00 -0.11826926871E+03  0.27321797450E+04  0.27296187535E+04 0.  0.
        5    1    3    3  502    0 -0.48605543298E+03  0.54501435648E+03  0.10949397632E+04  0.13161328610E+04  0.46999998093E+01 0.  1.
       -5    1    3    3    0  502  0.48605543298E+03 -0.54501435648E+03 -0.12132090319E+04  0.14160468841E+04  0.46999998093E+01 0. -1.
</event>
<event>
 5   0  0.1878160E-05  0.2712306E+04  0.7818609E-02  0.8331023E-01
       -2   -1    0    0    0  501  0.00000000000E+00  0.00000000000E+00  0.12191233958E+04  0.12191233958E+04  0.25500000920E-02 0.  1.
        2   -1    0    0  501    0  0.00000000000E+00  0.00000000000E+00 -0.15085849323E+04  0.15085849323E+04  0.25500000920E-02 0. -1.
    10030    2    1    2    0    0  0.00000000000E+00  0.00000000000E+00 -0.28946153656E+03  0.27277083281E+04  0.27123061667E+04 0.  0.
        1    1    3    3  502    0  0.46266134428E+03 -0.11877017719E+04 -0.61045897115E+03  0.14132767507E+04  0.50400001928E-02 0. -1.
       -1    1    3    3    0  502 -0.46266134428E+03  0.11877017719E+04  0.32099743460E+03  0.13144315774E+04  0.50400001928E-02 0.  1.
</event>
<event>
 5   0  0.1881699E-05  0.2696430E+04  0.7818609E-02  0.8336164E-01
       -2   -1    0    0    0  501  0.00000000000E+00  0.00000000000E+00  0.15253273328E+04  0.15253273328E+04  0.25500000920E-02 0.  1.
        2   -1    0    0  501    0  0.00000000000E+00  0.00000000000E+00 -0.11916680464E+04  0.11916680464E+04  0.25500000920E-02 0. -1.
    10030    2    1    2    0    0  0.00000000000E+00  0.00000000000E+00  0.33365928638E+03  0.27169953793E+04  0.26964301162E+04 0.  0.
        4    1    3    3  502    0 -0.70585607037E+02 -0.11396553910E+04  0.88915508041E+03  0.14472025111E+04  0.12699999809E+01 0.  1.
       -4    1    3    3    0  502  0.70585607037E+02  0.11396553910E+04 -0.55549579403E+03  0.12697928682E+04  0.12699999809E+01 0. -1.
</event>
<event>
 5   0  0.7351590E-06  0.2657127E+04  0.7818609E-02  0.8349051E-01
        1   -1    0    0  501    0  0.00000000000E+00  0.00000000000E+00  0.11994976988E+04  0.11994976988E+04  0.50400001928E-02 0.  1.
       -1   -1    0    0    0  501  0.00000000000E+00  0.00000000000E+00 -0.14715168692E+04  0.14715168692E+04  0.50400001928E-02 0. -1.
    10030    2    1    2    0    0  0.00000000000E+00  0.00000000000E+00 -0.27201917047E+03  0.26710145680E+04  0.26571270940E+04 0.  0.
        3    1    3    3  502    0 -0.11626381250E+04 -0.24400454654E+03 -0.73394232181E+03  0.13964014360E+04  0.10100000352E+00 0. -1.
       -3    1    3    3    0  502  0.11626381250E+04  0.24400454654E+03  0.46192315134E+03  0.12746131320E+04  0.10100000352E+00 0.  1.
</event>
<event>
 5   0  0.7754912E-06  0.2688594E+04  0.7818609E-02  0.8338715E-01
       -1   -1    0    0    0  501  0.00000000000E+00  0.00000000000E+00  0.10232214078E+04  0.10232214079E+04  0.50400001928E-02 0.  1.
        1   -1    0    0  501    0  0.00000000000E+00  0.00000000000E+00 -0.17661221362E+04  0.17661221362E+04  0.50400001928E-02 0. -1.
    10030    2    1    2    0    0  0.00000000000E+00  0.00000000000E+00 -0.74290072839E+03  0.27893435441E+04  0.26885936686E+04 0.  0.
        4    1    3    3  502    0  0.46733919502E+03 -0.12551126123E+04 -0.25127007686E+03  0.13626635158E+04  0.12699999809E+01 0.  1.
       -4    1    3    3    0  502 -0.46733919502E+03  0.12551126123E+04 -0.49163065153E+03  0.14266800283E+04  0.12699999809E+01 0. -1.
</event>
<event>
 5   0  0.1878160E-05  0.2747913E+04  0.7818609E-02  0.8319624E-01
       -2   -1    0    0    0  501  0.00000000000E+00  0.00000000000E+00  0.10758614812E+04  0.10758614812E+04  0.25500000920E-02 0.  1.
        2   -1    0    0  501    0  0.00000000000E+00  0.00000000000E+00 -0.17546462203E+04  0.17546462203E+04  0.25500000920E-02 0. -1.
    10030    2    1    2    0    0  0.00000000000E+00  0.00000000000E+00 -0.67878473914E+03  0.28305077015E+04  0.27479128673E+04 0.  0.
        1    1    3    3  502    0  0.12745343671E+04  0.47481571171E+03 -0.53983968921E+03  0.14633231711E+04  0.50400001928E-02 0.  1.
       -1    1    3    3    0  502 -0.12745343671E+04 -0.47481571171E+03 -0.13894504992E+03  0.13671845304E+04  0.50400001928E-02 0. -1.
</event>
<event>
 5   0  0.7348964E-06  0.2723248E+04  0.7818609E-02  0.8327501E-01
       -1   -1    0    0    0  501  0.00000000000E+00  0.00000000000E+00  0.11458391494E+04  0.11458391494E+04  0.50400001928E-02 0.  1.
        1   -1    0    0  501    0  0.00000000000E+00  0.00000000000E+00 -0.16180455998E+04  0.16180455998E+04  0.50400001928E-02 0. -1.
    10030    2    1    2    0    0  0.00000000000E+00  0.00000000000E+00 -0.47220645037E+03  0.27638847492E+04  0.27232480561E+04 0.  0.
        1    1    3    3  502    0  0.11206917023E+04 -0.20869046378E+03 -0.99187506319E+03  0.15110651019E+04  0.50400001928E-02 0. -1.
       -1    1    3    3    0  502 -0.11206917023E+04  0.20869046378E+03  0.51966861282E+03  0.12528196472E+04  0.50400001928E-02 0.  1.
</event>
<event>
 5   0  0.1881699E-05  0.2753419E+04  0.7818609E-02  0.8317877E-01
        2   -1    0    0  501    0  0.00000000000E+00  0.00000000000E+00  0.95649700741E+03  0.95649700741E+03  0.25500000920E-02 0.  1.
       -2   -1    0    0    0  501  0.00000000000E+00  0.00000000000E+00 -0.19815320826E+04  0.19815320826E+04  0.25500000920E-02 0. -1.
    10030    2    1    2    0    0  0.00000000000E+00  0.00000000000E+00 -0.10250350752E+04  0.29380290900E+04  0.27534193339E+04 0.  0.
        4    1    3    3  502    0 -0.63578485108E+03 -0.11960458653E+04 -0.77514955582E+03  0.15606429878E+04  0.12699999809E+01 0. -1.
       -4    1    3    3    0  502  0.63578485108E+03  0.11960458653E+04 -0.24988551936E+03  0.13773861022E+04  0.12699999809E+01 0.  1.
</event>
<event>
 5   0  0.1826851E-05  0.2682050E+04  0.7818609E-02  0.8340853E-01
        2   -1    0    0  501    0  0.00000000000E+00  0.00000000000E+00  0.10448828845E+04  0.10448828845E+04  0.25500000920E-02 0. -1.
       -2   -1    0    0    0  501  0.00000000000E+00  0.00000000000E+00 -0.17211007165E+04  0.17211007165E+04  0.25500000920E-02 0.  1.
    10030    2    1    2    0    0  0.00000000000E+00  0.00000000000E+00 -0.67621783205E+03  0.27659836010E+04  0.26820504702E+04 0.  0.
        5    1    3    3  502    0  0.67161505761E+03  0.18527840114E+03  0.84358153267E+03  0.10940963229E+04  0.46999998093E+01 0. -1.
       -5    1    3    3    0  502 -0.67161505761E+03 -0.18527840114E+03 -0.15197993647E+04  0.16718872781E+04  0.46999998093E+01 0.  1.
</event>
<event>
 5   0  0.1826851E-05  0.2589310E+04  0.7818609E-02  0.8371841E-01
        2   -1    0    0  501    0  0.00000000000E+00  0.00000000000E+00  0.18365616918E+04  0.18365616918E+04  0.25500000920E-02 0. -1.
       -2   -1    0    0    0  501  0.00000000000E+00  0.00000000000E+00 -0.91264670850E+03  0.91264670850E+03  0.25500000920E-02 0.  1.
    10030    2    1    2    0    0  0.00000000000E+00  0.00000000000E+00  0.92391498333E+03  0.27492084003E+04  0.25893103198E+04 0.  0.
        5    1    3    3  502    0 -0.29183253889E+03  0.11604546739E+04 -0.62819965931E+02  0.11982444320E+04  0.46999998093E+01 0.  1.
       -5    1    3    3    0  502  0.29183253889E+03 -0.11604546739E+04  0.98673494926E+03  0.15509639683E+04  0.46999998093E+01 0. -1.
</event>
<event>
 5   0  0.7754912E-06  0.2650488E+04  0.7818609E-02  0.8351251E-01
        1   -1    0    0  501    0  0.00000000000E+00  0.00000000000E+00  0.17148399995E+04  0.17148399995E+04  0.50400001928E-02 0.  1.
       -1   -1    0    0    0  501  0.00000000000E+00  0.00000000000E+00 -0.10241607110E+04  0.10241607110E+04  0.50400001928E-02 0. -1.
    10030    2    1    2    0    0  0.00000000000E+00  0.00000000000E+00  0.69067928848E+03  0.27390007105E+04  0.26504880706E+04 0.  0.
        4    1    3    3  502    0  0.40422339392E+03  0.93505660131E+03 -0.53063713530E+03  0.11486099347E+04  0.12699999809E+01 0. -1.
       -4    1    3    3    0  502 -0.40422339392E+03 -0.93505660131E+03  0.12213164238E+04  0.15903907758E+04  0.12699999809E+01 0.  1.
</event>
<event>
 5   0  0.7754912E-06  0.2703796E+04  0.7818609E-02  0.8333774E-01
       -1   -1    0    0    0  501  0.00000000000E+00  0.00000000000E+00  0.19846027122E+04  0.19846027122E+04  0.50400001928E-02 0. -1.
        1   -1    0    0  501    0  0.00000000000E+00  0.00000000000E+00 -0.92090407915E+03  0.92090407917E+03  0.50400001928E-02 0.  1.
    10030    2    1    2    0    0  0.00000000000E+00  0.00000000000E+00  0.10636986331E+04  0.29055067914E+04  0.27037963926E+04 0.  0.
        4    1    3    3  502    0  0.11133136801E+04  0.50444735128E+03  0.11526057431E+04  0.16800107418E+04  0.12699999809E+01 0. -1.
       -4    1    3    3    0  502 -0.11133136801E+04 -0.50444735128E+03 -0.88907110072E+02  0.12254960496E+04  0.12699999809E+01 0.  1.
</event>
<event>
 5   0  0.7348964E-06  0.2763077E+04  0.7818609E-02  0.8314824E-01
       -1   -1    0    0    0  501  0.00000000000E+00  0.00000000000E+00  0.77198112964E+03  0.77198112966E+03  0.50400001928E-02 0.  1.
        1   -1    0    0  501    0  0.00000000000E+00  0.00000000000E+00 -0.24724028684E+04  0.24724028684E+04  0.50400001928E-02 0. -1.
    10030    2    1    2    0    0  0.00000000000E+00  0.00000000000E+00 -0.17004217388E+04  0.32443839981E+04  0.27630768063E+04 0.  0.
        1    1    3    3  502    0  0.66914829749E+03 -0.55856836844E+03 -0.21087843411E+04  0.22818259056E+04  0.50400001928E-02 0. -1.
       -1    1    3    3    0  502 -0.66914829749E+03  0.55856836844E+03  0.40836260236E+03  0.96255809243E+03  0.50400001928E-02 0.  1.
</event>
<event>
 5   0  0.1826851E-05  0.2727047E+04  0.7818609E-02  0.8326282E-01
       -2   -1    0    0    0  501  0.00000000000E+00  0.00000000000E+00  0.10156095423E+04  0.10156095423E+04  0.25500000920E-02 0.  1.
        2   -1    0    0  501    0  0.00000000000E+00  0.00000000000E+00 -0.18306213696E+04  0.18306213696E+04  0.25500000920E-02 0. -1.
    10030    2    1    2    0    0  0.00000000000E+00  0.00000000000E+00 -0.81501182732E+03  0.28462309119E+04  0.27270471439E+04 0.  0.
        5    1    3    3  502    0 -0.87752086684E+03 -0.16571132390E+03 -0.14829120971E+04  0.17310556006E+04  0.46999998093E+01 0. -1.
       -5    1    3    3    0  502  0.87752086684E+03  0.16571132390E+03  0.66790026977E+03  0.11151753113E+04  0.46999998093E+01 0.  1.
</event>
<event>
 5   0  0.1881699E-05  0.2054334E+04  0.7818609E-02  0.8581631E-01
        2   -1    0    0  501    0  0.00000000000E+00  0.00000000000E+00  0.12055153634E+04  0.12055153634E+04  0.25500000920E-02 0. -1.
       -2   -1    0    0    0  501  0.00000000000E+00  0.00000000000E+00 -0.87520443428E+03  0.87520443429E+03  0.25500000920E-02 0.  1.
    10030    2    1    2    0    0  0.00000000000E+00  0.00000000000E+00  0.33031092910E+03  0.20807197977E+04  0.20543343366E+04 0.  0.
        4    1    3    3  502    0  0.40292843288E+03  0.93868930836E+03  0.27415665419E+03  0.10576636628E+04  0.12699999809E+01 0. -1.
       -4    1    3    3    0  502 -0.40292843288E+03 -0.93868930836E+03  0.56154274909E+02  0.10230561349E+04  0.12699999809E+01 0.  1.
</event>
<event>
 5   0  0.1878160E-05  0.2693138E+04  0.7818609E-02  0.8337235E-01
        2   -1    0    0  501    0  0.00000000000E+00  0.00000000000E+00  0.13518095687E+04  0.13518095687E+04  0.25500000920E-02 0.  1.
       -2   -1    0    0    0  501  0.00000000000E+00  0.00000000000E+00 -0.13413490744E+04  0.13413490744E+04  0.25500000920E-02 0. -1.
    10030    2    1    2    0    0  0.00000000000E+00  0.00000000000E+00  0.10460494294E+02  0.26931586431E+04  0.26931383283E+04 0.  0.
        1    1    3    3  502    0 -0.77141585689E+03 -0.48843533339E+03 -0.98452315308E+03  0.13427350216E+04  0.50400001928E-02 0. -1.
       -1    1    3    3    0  502  0.77141585689E+03  0.48843533339E+03  0.99498364737E+03  0.13504236216E+04  0.50400001928E-02 0.  1.
</event>
<event>
 5   0  0.1878160E-05  0.2793704E+04  0.7818609E-02  0.8305226E-01
       -2   -1    0    0    0  501  0.00000000000E+00  0.00000000000E+00  0.11662204318E+04  0.11662204318E+04  0.25500000920E-02 0.  1.
        2   -1    0    0  501    0  0.00000000000E+00  0.00000000000E+00 -0.16730934508E+04  0.16730934508E+04  0.25500000920E-02 0. -1.
    10030    2    1    2    0    0  0.00000000000E+00  0.00000000000E+00 -0.50687301898E+03  0.28393138826E+04  0.27937041838E+04 0.  0.
        1    1    3    3  502    0 -0.65300414470E+03  0.11509668443E+04 -0.70801566025E+03  0.15008082039E+04  0.50400001928E-02 0. -1.
       -1    1    3    3    0  502  0.65300414470E+03 -0.11509668443E+04  0.20114264127E+03  0.13385056787E+04  0.50400001928E-02 0.  1.
</event>
<event>
 5   0  0.6804685E-06  0.2695945E+04  0.7818609E-02  0.8336322E-01
        1   -1    0    0  501    0  0.00000000000E+00  0.00000000000E+00  0.15235334707E+04  0.15235334707E+04  0.50400001928E-02 0.  1.
       -1   -1    0    0    0  501  0.00000000000E+00  0.00000000000E+00 -0.11926419647E+04  0.11926419647E+04  0.50400001928E-02 0. -1.
    10030    2    1    2    0    0  0.00000000000E+00  0.00000000000E+00  0.33089150602E+03  0.27161754354E+04  0.26959450675E+04 0.  0.
        2    1    3    3  502    0  0.59218352490E+03  0.74019778614E+03 -0.80010681579E+03  0.12404616102E+04  0.25500000920E-02 0. -1.
       -2    1    3    3    0  502 -0.59218352490E+03 -0.74019778614E+03  0.11309983218E+04  0.14757138251E+04  0.25500000920E-02 0.  1.
</event>
<event>
 5   0  0.7600052E-06  0.2666664E+04  0.7818609E-02  0.8345903E-01
        1   -1    0    0  501    0  0.00000000000E+00  0.00000000000E+00  0.11615385724E+04  0.11615385724E+04  0.50400001928E-02 0. -1.
       -1   -1    0    0    0  501  0.00000000000E+00  0.00000000000E+00 -0.15305344275E+04  0.15305344275E+04  0.50400001928E-02 0.  1.
    10030    2    1    2    0    0  0.00000000000E+00  0.00000000000E+00 -0.36899585517E+03  0.26920729999E+04  0.26666644138E+04 0.  0.
        5    1    3    3  502    0 -0.66773970633E+03 -0.11406344632E+04 -0.36175392204E+03  0.13703325451E+04  0.46999998093E+01 0. -1.
       -5    1    3    3    0  502  0.66773970633E+03  0.11406344632E+04 -0.72419331300E+01  0.13217404548E+04  0.46999998093E+01 0.  1.
</event>
<event>
 5   0  0.1826851E-05  0.2686756E+04  0.7818609E-02  0.8339315E-01
        2   -1    0    0  501    0  0.00000000000E+00  0.00000000000E+00  0.17521737805E+04  0.17521737805E+04  0.25500000920E-02 0. -1.
       -2   -1    0    0    0  501  0.00000000000E+00  0.00000000000E+00 -0.10299577056E+04  0.10299577056E+04  0.25500000920E-02 0.  1.
    10030    2    1    2    0    0  0.00000000000E+00  0.00000000000E+00  0.72221607490E+03  0.27821314861E+04  0.26867563245E+04 0.  0.
        5    1    3    3  502    0  0.36434472541E+02  0.63644526307E+03  0.15855613007E+04  0.17089226934E+04  0.46999998093E+01 0. -1.
       -5    1    3    3    0  502 -0.36434472541E+02 -0.63644526307E+03 -0.86334522585E+03  0.10732087927E+04  0.46999998093E+01 0.  1.
</event>
<event>
 5   0  0.7754912E-06  0.2656465E+04  0.7818609E-02  0.8349270E-01
        1   -1    0    0  501    0  0.00000000000E+00  0.00000000000E+00  0.13782976026E+04  0.13782976027E+04  0.50400001928E-02 0.  1.
       -1   -1    0    0    0  501  0.00000000000E+00  0.00000000000E+00 -0.12799859203E+04  0.12799859203E+04  0.50400001928E-02 0. -1.
    10030    2    1    2    0    0  0.00000000000E+00  0.00000000000E+00  0.98311682351E+02  0.26582835230E+04  0.26564649634E+04 0.  0.
        4    1    3    3  502    0 -0.37959019250E+02  0.13072032645E+04 -0.18333626853E+03  0.13205434723E+04  0.12699999809E+01 0.  1.
       -4    1    3    3    0  502  0.37959019250E+02 -0.13072032645E+04  0.28164795089E+03  0.13377400507E+04  0.12699999809E+01 0. -1.
</event>
<event>
 5   0  0.1788003E-05  0.2664121E+04  0.7818609E-02  0.8346741E-01
        2   -1    0    0  501    0  0.00000000000E+00  0.00000000000E+00  0.18131609553E+04  0.18131609553E+04  0.25500000920E-02 0.  1.
       -2   -1    0    0    0  501  0.00000000000E+00  0.00000000000E+00 -0.97861408273E+03  0.97861408274E+03  0.25500000920E-02 0. -1.
    10030    2    1    2    0    0  0.00000000000E+00  0.00000000000E+00  0.83454687255E+03  0.27917750380E+04  0.26641207519E+04 0.  0.
        2    1    3    3  502    0  0.22458921690E+03 -0.99232389852E+03  0.13182605924E+04  0.16652201132E+04  0.25500000920E-02 0.  1.
       -2    1    3    3    0  502 -0.22458921690E+03  0.99232389852E+03 -0.48371371983E+03  0.11265549248E+04  0.25500000920E-02 0. -1.
</event>
<event>
 5   0  0.7348964E-06  0.2531933E+04  0.7818609E-02  0.8391697E-01
       -1   -1    0    0    0  501  0.00000000000E+00  0.00000000000E+00  0.11699252269E+04  0.11699252269E+04  0.50400001928E-02 0. -1.
        1   -1    0    0  501    0  0.00000000000E+00  0.00000000000E+00 -0.13698922753E+04  0.13698922753E+04  0.50400001928E-02 0.  1.
    10030    2    1    2    0    0  0.00000000000E+00  0.00000000000E+00 -0.19996704845E+03  0.25398175022E+04  0.25319332779E+04 0.  0.
        1    1    3    3  502    0  0.56781434609E+03  0.12520158372E+03 -0.12280220128E+04  0.13587224264E+04  0.50400001928E-02 0.  1.
       -1    1    3    3    0  502 -0.56781434609E+03 -0.12520158372E+03  0.10280549643E+04  0.11810950757E+04  0.50400001928E-02 0. -1.
</event>
<event>
 5   0  0.1931119E-05  0.2698887E+04  0.7818609E-02  0.8335366E-01
        2   -1    0    0  501    0  0.00000000000E+00  0.00000000000E+00  0.22835518583E+04  0.22835518583E+04  0.25500000920E-02 0. -1.
       -2   -1    0    0    0  501  0.00000000000E+00  0.00000000000E+00 -0.79744065649E+03  0.79744065649E+03  0.25500000920E-02 0.  1.
    10030    2    1    2    0    0  0.00000000000E+00  0.00000000000E+00  0.14861112019E+04  0.30809925148E+04  0.26988865060E+04 0.  0.
        3    1    3    3  502    0  0.56159282401E+03  0.11859786673E+04  0.38374788344E+03  0.13671848257E+04  0.10100000352E+00 0. -1.
       -3    1    3    3    0  502 -0.56159282401E+03 -0.11859786673E+04  0.11023633184E+04  0.17138076891E+04  0.10100000352E+00 0.  1.
</event>
<event>
 5   0  0.1826851E-05  0.2717400E+04  0.7818609E-02  0.8329381E-01
        2   -1    0    0  501    0  0.00000000000E+00  0.00000000000E+00  0.16602519330E+04  0.16602519330E+04  0.25500000920E-02 0. -1.
       -2   -1    0    0    0  501  0.00000000000E+00  0.00000000000E+00 -0.11119191923E+04  0.11119191923E+04  0.25500000920E-02 0.  1.
    10030    2    1    2    0    0  0.00000000000E+00  0.00000000000E+00  0.54833274063E+03  0.27721711253E+04  0.27174002196E+04 0.  0.
        5    1    3    3  502    0 -0.67207866627E+03  0.11666562959E+04  0.88096997846E+02  0.13492812225E+04  0.46999998093E+01 0.  1.
       -5    1    3    3    0  502  0.67207866627E+03 -0.11666562959E+04  0.46023574278E+03  0.14228899028E+04  0.46999998093E+01 0. -1.
</event>
<event>
 5   0  0.7348964E-06  0.2706266E+04  0.7818609E-02  0.8332975E-01
       -1   -1    0    0    0  501  0.00000000000E+00  0.00000000000E+00  0.15069919382E+04  0.15069919382E+04  0.50400001928E-02 0. -1.
        1   -1    0    0  501    0  0.00000000000E+00  0.00000000000E+00 -0.12149827031E+04  0.12149827031E+04  0.50400001928E-02 0.  1.
    10030    2    1    2    0    0  0.00000000000E+00  0.00000000000E+00  0.29200923515E+03  0.27219746413E+04  0.27062661648E+04 0.  0.
        1    1    3    3  502    0 -0.10927090790E+04 -0.43188033575E+03  0.82104509651E+03  0.14334046206E+04  0.50400001928E-02 0. -1.
       -1    1    3    3    0  502  0.10927090790E+04  0.43188033575E+03 -0.52903586136E+03  0.12885700208E+04  0.50400001928E-02 0.  1.
</event>
<event>
 5   0  0.7754912E-06  0.2708569E+04  0.7818609E-02  0.8332230E-01
       -1   -1    0    0    0  501  0.00000000000E+00  0.00000000000E+00  0.10711035407E+04  0.10711035408E+04  0.50400001928E-02 0.  1.
        1   -1    0    0  501    0  0.00000000000E+00  0.00000000000E+00 -0.17123335527E+04  0.17123335527E+04  0.50400001928E-02 0. -1.
    10030    2    1    2    0    0  0.00000000000E+00  0.00000000000E+00 -0.64123001195E+03  0.27834370934E+04  0.27085690179E+04 0.  0.
        4    1    3    3  502    0 -0.12107665960E+04  0.16417043878E+03 -0.92086411905E+03  0.15300000070E+04  0.12699999809E+01 0. -1.
       -4    1    3    3    0  502  0.12107665960E+04 -0.16417043878E+03  0.27963410710E+03  0.12534370864E+04  0.12699999809E+01 0.  1.
</event>
<event>
 5   0  0.6175875E-06  0.2495721E+04  0.7818609E-02  0.8404512E-01
        3   -1    0    0  501    0  0.00000000000E+00  0.00000000000E+00  0.14186851766E+04  0.14186851802E+04  0.10100000352E+00 0. -1.
       -3   -1    0    0    0  501  0.00000000000E+00  0.00000000000E+00 -0.10976045618E+04  0.10976045664E+04  0.10100000352E+00 0.  1.
    10030    2    1    2    0    0  0.00000000000E+00  0.00000000000E+00  0.32108061487E+03  0.25162897466E+04  0.24957206029E+04 0.  0.
        5    1    3    3  502    0  0.74752148871E+03  0.37731499942E+03 -0.77227582922E+03  0.11391167768E+04  0.46999998093E+01 0.  1.
       -5    1    3    3    0  502 -0.74752148871E+03 -0.37731499942E+03  0.10933564441E+04  0.13771729698E+04  0.46999998093E+01 0. -1.
</event>
<event>
 5   0  0.7600052E-06  0.2749941E+04  0.7818609E-02  0.8318980E-01
       -1   -1    0    0    0  501  0.00000000000E+00  0.00000000000E+00  0.15899341511E+04  0.15899341511E+04  0.50400001928E-02 0. -1.
        1   -1    0    0  501    0  0.00000000000E+00  0.00000000000E+00 -0.11890709324E+04  0.11890709324E+04  0.50400001928E-02 0.  1.
    10030    2    1    2    0    0  0.00000000000E+00  0.00000000000E+00  0.40086321872E+03  0.27790050835E+04  0.27499414419E+04 0.  0.
        5    1    3    3  502    0 -0.57477024885E+02  0.80591605561E+03 -0.92385429468E+03  0.12273276437E+04  0.46999998093E+01 0.  1.
       -5    1    3    3    0  502  0.57477024885E+02 -0.80591605561E+03  0.13247175134E+04  0.15516774399E+04  0.46999998093E+01 0. -1.
</event>
<event>
 5   0  0.1826851E-05  0.2692908E+04  0.7818609E-02  0.8337310E-01
       -2   -1    0    0    0  501  0.00000000000E+00  0.00000000000E+00  0.85623970541E+03  0.85623970542E+03  0.25500000920E-02 0. -1.
        2   -1    0    0  501    0  0.00000000000E+00  0.00000000000E+00 -0.21173258191E+04  0.21173258191E+04  0.25500000920E-02 0.  1.
    10030    2    1    2    0    0  0.00000000000E+00  0.00000000000E+00 -0.12610861137E+04  0.29735655245E+04  0.26929080457E+04 0.  0.
        5    1    3    3  502    0 -0.27273272901E+03  0.10094682272E+04 -0.15671848489E+04  0.18840115933E+04  0.46999998093E+01 0. -1.
       -5    1    3    3    0  502  0.27273272901E+03 -0.10094682272E+04  0.30609873524E+03  0.10895539312E+04  0.46999998093E+01 0.  1.
</event>
<event>
 5   0  0.1826851E-05  0.2696413E+04  0.7818609E-02  0.8336170E-01
       -2   -1    0    0    0  501  0.00000000000E+00  0.00000000000E+00  0.90520634424E+03  0.90520634425E+03  0.25500000920E-02 0.  1.
        2   -1    0    0  501    0  0.00000000000E+00  0.00000000000E+00 -0.20080065044E+04  0.20080065044E+04  0.25500000920E-02 0. -1.
    10030    2    1    2    0    0  0.00000000000E+00  0.00000000000E+00 -0.11028001601E+04  0.29132128486E+04  0.26964125998E+04 0.  0.
        5    1    3    3  502    0  0.57761642108E+03 -0.24410722326E+02 -0.18672768778E+04  0.19547331383E+04  0.46999998093E+01 0. -1.
       -5    1    3    3    0  502 -0.57761642108E+03  0.24410722326E+02  0.76447671771E+03  0.95847971037E+03  0.46999998093E+01 0.  1.
</event>
<event>
 5   0  0.1826851E-05  0.2695514E+04  0.7818609E-02  0.8336462E-01
       -2   -1    0    0    0  501  0.00000000000E+00  0.00000000000E+00  0.89030964148E+03  0.89030964148E+03  0.25500000920E-02 0. -1.
        2   -1    0    0  501    0  0.00000000000E+00  0.00000000000E+00 -0.20402443481E+04  0.20402443481E+04  0.25500000920E-02 0.  1.
    10030    2    1    2    0    0  0.00000000000E+00  0.00000000000E+00 -0.11499347066E+04  0.29305539896E+04  0.26955142100E+04 0.  0.
        5    1    3    3  502    0  0.11213980408E+04  0.57119760731E+03 -0.10993375773E+04  0.16710372442E+04  0.46999998093E+01 0.  1.
       -5    1    3    3    0  502 -0.11213980408E+04 -0.57119760731E+03 -0.50597129294E+02  0.12595167454E+04  0.46999998093E+01 0. -1.
</event>
<event>
 5   0  0.1826851E-05  0.2609387E+04  0.7818609E-02  0.8365020E-01
        2   -1    0    0  501    0  0.00000000000E+00  0.00000000000E+00  0.14928480854E+04  0.14928480854E+04  0.25500000920E-02 0. -1.
       -2   -1    0    0    0  501  0.00000000000E+00  0.00000000000E+00 -0.11402533137E+04  0.11402533137E+04  0.25500000920E-02 0.  1.
    10030    2    1    2    0    0  0.00000000000E+00  0.00000000000E+00  0.35259477171E+03  0.26331013990E+04  0.26093868829E+04 0.  0.
        5    1    3    3  502    0 -0.11968947159E+04 -0.49384452724E+03  0.33826627648E+03  0.13382397177E+04  0.46999998093E+01 0. -1.
       -5    1    3    3    0  502  0.11968947159E+04  0.49384452724E+03  0.14328495224E+02  0.12948616814E+04  0.46999998093E+01 0.  1.
</event>
<event>
 5   0  0.6804685E-06  0.2665831E+04  0.7818609E-02  0.8346177E-01
        1   -1    0    0  501    0  0.00000000000E+00  0.00000000000E+00  0.22766757431E+04  0.22766757431E+04  0.50400001928E-02 0. -1.
       -1   -1    0    0    0  501  0.00000000000E+00  0.00000000000E+00 -0.78037633348E+03  0.78037633350E+03  0.50400001928E-02 0.  1.
    10030    2    1    2    0    0  0.00000000000E+00  0.00000000000E+00  0.14962994096E+04  0.30570520766E+04  0.26658311041E+04 0.  0.
        2    1    3    3  502    0  0.43118352110E+03 -0.30198226819E+03 -0.65612113326E+03  0.84119406839E+03  0.25500000920E-02 0.  1.
       -2    1    3    3    0  502 -0.43118352110E+03  0.30198226819E+03  0.21524205428E+04  0.22158580082E+04  0.25500000920E-02 0. -1.
</event>
<event>
 5   0  0.1931119E-05  0.2722438E+04  0.7818609E-02  0.8327761E-01
        2   -1    0    0  501    0  0.00000000000E+00  0.00000000000E+00  0.17961120129E+04  0.17961120129E+04  0.25500000920E-02 0.  1.
       -2   -1    0    0    0  501  0.00000000000E+00  0.00000000000E+00 -0.10316266574E+04  0.10316266574E+04  0.25500000920E-02 0. -1.
    10030    2    1    2    0    0  0.00000000000E+00  0.00000000000E+00  0.76448535550E+03  0.28277386702E+04  0.27224379017E+04 0.  0.
        3    1    3    3  502    0 -0.39999220749E+03 -0.93236798686E+03  0.13248763210E+04  0.16687124094E+04  0.10100000352E+00 0.  1.
       -3    1    3    3    0  502  0.39999220749E+03  0.93236798686E+03 -0.56039096552E+03  0.11590262609E+04  0.10100000352E+00 0. -1.
</event>
<event>
 5   0  0.1788003E-05  0.2696536E+04  0.7818609E-02  0.8336130E-01
        2   -1    0    0  501    0  0.00000000000E+00  0.00000000000E+00  0.12203291688E+04  0.12203291689E+04  0.25500000920E-02 0.  1.
       -2   -1    0    0    0  501  0.00000000000E+00  0.00000000000E+00 -0.14896199522E+04  0.14896199522E+04  0.25500000920E-02 0. -1.
    10030    2    1    2    0    0  0.00000000000E+00  0.00000000000E+00 -0.26929078335E+03  0.27099491211E+04  0.26965360581E+04 0.  0.
        2    1    3    3  502    0  0.85438131093E+03  0.40924470321E+03  0.82949000126E+03  0.12591673097E+04  0.25500000920E-02 0.  1.
       -2    1    3    3    0  502 -0.85438131093E+03 -0.40924470321E+03 -0.10987807846E+04  0.14507818114E+04  0.25500000920E-02 0. -1.
</event>
<event>
 5   0  0.1931119E-05  0.2729733E+04  0.7818609E-02  0.8325422E-01
       -2   -1    0    0    0  501  0.00000000000E+00  0.00000000000E+00  0.16312194047E+04  0.16312194047E+04  0.25500000920E-02 0. -1.
        2   -1    0    0  501    0  0.00000000000E+00  0.00000000000E+00 -0.11420052884E+04  0.11420052884E+04  0.25500000920E-02 0.  1.
    10030    2    1    2    0    0  0.00000000000E+00  0.00000000000E+00  0.48921411628E+03  0.27732246932E+04  0.27297334572E+04 0.  0.
        3    1    3    3  502    0 -0.10230571666E+04  0.35870843329E+02  0.11617236852E+04  0.15483974343E+04  0.10100000352E+00 0. -1.
       -3    1    3    3    0  502  0.10230571666E+04 -0.35870843329E+02 -0.67250956892E+03  0.12248272589E+04  0.10100000352E+00 0.  1.
</event>
<event>
 5   0  0.6804685E-06  0.2710751E+04  0.7818609E-02  0.8331525E-01
       -1   -1    0    0    0  501  0.00000000000E+00  0.00000000000E+00  0.25066415354E+04  0.25066415354E+04  0.50400001928E-02 0. -1.
        1   -1    0    0  501    0  0.00000000000E+00  0.00000000000E+00 -0.73287002378E+03  0.73287002379E+03  0.50400001928E-02 0.  1.
    10030    2    1    2    0    0  0.00000000000E+00  0.00000000000E+00  0.17737715116E+04  0.32395115592E+04  0.27107507755E+04 0.  0.
        2    1    3    3  502    0  0.12729698133E+04  0.42331909964E+03  0.11179724041E+04  0.17462856302E+04  0.25500000920E-02 0. -1.
       -2    1    3    3    0  502 -0.12729698133E+04 -0.42331909964E+03  0.65579910748E+03  0.14932259290E+04  0.25500000920E-02 0.  1.
</event>
<event>
 5   0  0.1788003E-05  0.2718677E+04  0.7818609E-02  0.8328970E-01
        2   -1    0    0  501    0  0.00000000000E+00  0.00000000000E+00  0.13689246906E+04  0.13689246906E+04  0.25500000920E-02 0. -1.
       -2   -1    0    0    0  501  0.00000000000E+00  0.00000000000E+00 -0.13498195433E+04  0.13498195433E+04  0.25500000920E-02 0.  1.
    10030    2    1    2    0    0  0.00000000000E+00  0.00000000000E+00  0.19105147321E+02  0.27187442338E+04  0.27186771052E+04 0.  0.
        2    1    3    3  502    0 -0.63804021149E+03  0.10355318724E+04 -0.59740535108E+03  0.13551069049E+04  0.25500000920E-02 0.  1.
       -2    1    3    3    0  502  0.63804021149E+03 -0.10355318724E+04  0.61651049840E+03  0.13636373289E+04  0.25500000920E-02 0. -1.
</event>
<event>
 5   0  0.7754912E-06  0.2599997E+04  0.7818609E-02  0.8368202E-01
       -1   -1    0    0    0  501  0.00000000000E+00  0.00000000000E+00  0.73595711059E+03  0.73595711061E+03  0.50400001928E-02 0. -1.
        1   -1    0    0  501    0  0.00000000000E+00  0.00000000000E+00 -0.22963243303E+04  0.22963243303E+04  0.50400001928E-02 0.  1.
    10030    2    1    2    0    0  0.00000000000E+00  0.00000000000E+00 -0.15603672197E+04  0.30322814409E+04  0.25999970916E+04 0.  0.
        4    1    3    3  502    0 -0.10033059097E+04 -0.57635905106E+03 -0.14713185238E+04  0.18717885339E+04  0.12699999809E+01 0.  1.
       -4    1    3    3    0  502  0.10033059097E+04  0.57635905106E+03 -0.89048695841E+02  0.11604929070E+04  0.12699999809E+01 0. -1.
</event>
<event>
 5   0  0.7754912E-06  0.2671093E+04  0.7818609E-02  0.8344446E-01
       -1   -1    0    0    0  501  0.00000000000E+00  0.00000000000E+00  0.11401737987E+04  0.11401737987E+04  0.50400001928E-02 0.  1.
        1   -1    0    0  501    0  0.00000000000E+00  0.00000000000E+00 -0.15643965060E+04  0.15643965060E+04  0.50400001928E-02 0. -1.
    10030    2    1    2    0    0  0.00000000000E+00  0.00000000000E+00 -0.42422270732E+03  0.27045703046E+04  0.26710925906E+04 0.  0.
        4    1    3    3  502    0  0.88231470123E+03 -0.54275539473E+03  0.64143662237E+03  0.12184027265E+04  0.12699999809E+01 0.  1.
       -4    1    3    3    0  502 -0.88231470123E+03  0.54275539473E+03 -0.10656593297E+04  0.14861675782E+04  0.12699999809E+01 0. -1.
</event>
<event>
 5   0  0.1881699E-05  0.2798122E+04  0.7818609E-02  0.8303852E-01
        2   -1    0    0  501    0  0.00000000000E+00  0.00000000000E+00  0.10881431576E+04  0.10881431576E+04  0.25500000920E-02 0.  1.
       -2   -1    0    0    0  501  0.00000000000E+00  0.00000000000E+00 -0.17988184046E+04  0.17988184046E+04  0.25500000920E-02 0. -1.
    10030    2    1    2    0    0  0.00000000000E+00  0.00000000000E+00 -0.71067524698E+03  0.28869615622E+04  0.27981221837E+04 0.  0.
        4    1    3    3  502    0 -0.90892683400E+03 -0.63014053964E+03 -0.12393641963E+04  0.16610991281E+04  0.12699999809E+01 0. -1.
       -4    1    3    3    0  502  0.90892683400E+03  0.63014053964E+03  0.52868894937E+03  0.12258624341E+04  0.12699999809E+01 0.  1.
</event>
<event>
 5   0  0.7600052E-06  0.2724405E+04  0.7818609E-02  0.8327130E-01
        1   -1    0    0  501    0  0.00000000000E+00  0.00000000000E+00  0.13586909537E+04  0.13586909537E+04  0.50400001928E-02 0. -1.
       -1   -1    0    0    0  501  0.00000000000E+00  0.00000000000E+00 -0.13657227748E+04  0.13657227748E+04  0.50400001928E-02 0.  1.
    10030    2    1    2    0    0  0.00000000000E+00  0.00000000000E+00 -0.70318211129E+01  0.27244137285E+04  0.27244046537E+04 0.  0.
        5    1    3    3  502    0  0.62855660455E+03  0.78016298762E+01 -0.12120019667E+04  0.13653260152E+04  0.46999998093E+01 0.  1.
       -5    1    3    3    0  502 -0.62855660455E+03 -0.78016298762E+01  0.12049701456E+04  0.13590877132E+04  0.46999998093E+01 0. -1.
</event>
<event>
 5   0  0.6804685E-06  0.2718895E+04  0.7818609E-02  0.8328900E-01
       -1   -1    0    0    0  501  0.00000000000E+00  0.00000000000E+00  0.12602243359E+04  0.12602243359E+04  0.50400001928E-02 0.  1.
        1   -1    0    0  501    0  0.00000000000E+00  0.00000000000E+00 -0.14664830645E+04  0.14664830645E+04  0.50400001928E-02 0. -1.
    10030    2    1    2    0    0  0.00000000000E+00  0.00000000000E+00 -0.20625872857E+03  0.27267074004E+04  0.27188951036E+04 0.  0.
        2    1    3    3  502    0  0.11095875441E+04 -0.78079896670E+01  0.68452671684E+03  0.13037723378E+04  0.25500000920E-02 0.  1.
       -2    1    3    3    0  502 -0.11095875441E+04  0.78079896670E+01 -0.89078544541E+03  0.14229350626E+04  0.25500000920E-02 0. -1.
</event>
<event>
 5   0  0.1931119E-05  0.2741240E+04  0.7818609E-02  0.8321747E-01
        2   -1    0    0  501    0  0.00000000000E+00  0.00000000000E+00  0.11419988005E+04  0.11419988005E+04  0.25500000920E-02 0.  1.
       -2   -1    0    0    0  501  0.00000000000E+00  0.00000000000E+00 -0.16450092331E+04  0.16450092331E+04  0.25500000920E-02 0. -1.
    10030    2    1    2    0    0  0.00000000000E+00  0.00000000000E+00 -0.50301043260E+03  0.27870080335E+04  0.27412395524E+04 0.  0.
        3    1    3    3  502    0  0.74047348277E+03 -0.78344109783E+03 -0.11121118134E+04  0.15488297609E+04  0.10100000352E+00 0. -1.
       -3    1    3    3    0  502 -0.74047348277E+03  0.78344109783E+03  0.60910138083E+03  0.12381782726E+04  0.10100000352E+00 0.  1.
</event>
<event>
 5   0  0.1931119E-05  0.2682896E+04  0.7818609E-02  0.8340576E-01
       -2   -1    0    0    0  501  0.00000000000E+00  0.00000000000E+00  0.15635298640E+04  0.15635298640E+04  0.25500000920E-02 0.  1.
        2   -1    0    0  501    0  0.00000000000E+00  0.00000000000E+00 -0.11509104253E+04  0.11509104253E+04  0.25500000920E-02 0. -1.
    10030    2    1    2    0    0  0.00000000000E+00  0.00000000000E+00  0.41261943870E+03  0.27144402893E+04  0.26828960626E+04 0.  0.
        3    1    3    3  502    0 -0.58898196825E+03  0.81966584738E+03  0.11002883604E+04  0.14931129718E+04  0.10100000352E+00 0.  1.
       -3    1    3    3    0  502  0.58898196825E+03 -0.81966584738E+03 -0.68766892174E+03  0.12213273175E+04  0.10100000352E+00 0. -1.
</event>
<event>
 5   0  0.1788003E-05  0.2713218E+04  0.7818609E-02  0.8330729E-01
        2   -1    0    0  501    0  0.00000000000E+00  0.00000000000E+00  0.17576564639E+04  0.17576564639E+04  0.25500000920E-02 0.  1.
       -2   -1    0    0    0  501  0.00000000000E+00  0.00000000000E+00 -0.10470688463E+04  0.10470688463E+04  0.25500000920E-02 0. -1.
    10030    2    1    2    0    0  0.00000000000E+00  0.00000000000E+00  0.71058761758E+03  0.28047253102E+04  0.27132175186E+04 0.  0.
        2    1    3    3  502    0 -0.11613027065E+04 -0.58229836234E+03 -0.48643358867E+02  0.13000236672E+04  0.25500000920E-02 0. -1.
       -2    1    3    3    0  502  0.11613027065E+04  0.58229836234E+03  0.75923097644E+03  0.15047016430E+04  0.25500000920E-02 0.  1.
</event>
<event>
 5   0  0.7348964E-06  0.2703505E+04  0.7818609E-02  0.8333869E-01
       -1   -1    0    0    0  501  0.00000000000E+00  0.00000000000E+00  0.11171868318E+04  0.11171868318E+04  0.50400001928E-02 0.  1.
        1   -1    0    0  501    0  0.00000000000E+00  0.00000000000E+00 -0.16355673162E+04  0.16355673162E+04  0.50400001928E-02 0. -1.
    10030    2    1    2    0    0  0.00000000000E+00  0.00000000000E+00 -0.51838048440E+03  0.27527541481E+04  0.27035045909E+04 0.  0.
        1    1    3    3  502    0 -0.57167311637E+03 -0.10767222784E+04 -0.85386140361E+03  0.14883616205E+04  0.50400001928E-02 0. -1.
       -1    1    3    3    0  502  0.57167311637E+03  0.10767222784E+04  0.33548091921E+03  0.12643925276E+04  0.50400001928E-02 0.  1.
</event>
<event>
 5   0  0.1881699E-05  0.2708110E+04  0.7818609E-02  0.8332378E-01
       -2   -1    0    0    0  501  0.00000000000E+00  0.00000000000E+00  0.81031144295E+03  0.81031144295E+03  0.25500000920E-02 0.  1.
        2   -1    0    0  501    0  0.00000000000E+00  0.00000000000E+00 -0.22626668806E+04  0.22626668806E+04  0.25500000920E-02 0. -1.
    10030    2    1    2    0    0  0.00000000000E+00  0.00000000000E+00 -0.14523554376E+04  0.30729783235E+04  0.27081099423E+04 0.  0.
        4    1    3    3  502    0 -0.31952987789E+03 -0.83225729742E+03  0.43030917919E+03  0.98990865971E+03  0.12699999809E+01 0.  1.
       -4    1    3    3    0  502  0.31952987789E+03  0.83225729742E+03 -0.18826646168E+04  0.20830696638E+04  0.12699999809E+01 0. -1.
</event>
<event>
 5   0  0.7351590E-06  0.2679258E+04  0.7818609E-02  0.8341767E-01
       -1   -1    0    0    0  501  0.00000000000E+00  0.00000000000E+00  0.10251554655E+04  0.10251554655E+04  0.50400001928E-02 0.  1.
        1   -1    0    0  501    0  0.00000000000E+00  0.00000000000E+00 -0.17505693333E+04  0.17505693333E+04  0.50400001928E-02 0. -1.
    10030    2    1    2    0    0  0.00000000000E+00  0.00000000000E+00 -0.72541386774E+03  0.27757247988E+04  0.26792578971E+04 0.  0.
        3    1    3    3  502    0 -0.49491206952E+03 -0.10415707245E+04 -0.10690148844E+04  0.15724504329E+04  0.10100000352E+00 0. -1.
       -3    1    3    3    0  502  0.49491206952E+03  0.10415707245E+04  0.34360101667E+03  0.12032743659E+04  0.10100000352E+00 0.  1.
</event>
<event>
 5   0  0.1931119E-05  0.2711839E+04  0.7818609E-02  0.8331174E-01
        2   -1    0    0  501    0  0.00000000000E+00  0.00000000000E+00  0.16128616772E+04  0.16128616772E+04  0.25500000920E-02 0. -1.
       -2   -1    0    0    0  501  0.00000000000E+00  0.00000000000E+00 -0.11399103821E+04  0.11399103822E+04  0.25500000920E-02 0.  1.
    10030    2    1    2    0    0  0.00000000000E+00  0.00000000000E+00  0.47295129501E+03  0.27527720593E+04  0.27118390592E+04 0.  0.
        3    1    3    3  502    0  0.12291026962E+04  0.56741234664E+03  0.15871948771E+03  0.13630268137E+04  0.10100000352E+00 0.  1.
       -3    1    3    3    0  502 -0.12291026962E+04 -0.56741234664E+03  0.31423180730E+03  0.13897452456E+04  0.10100000352E+00 0. -1.
</event>
<event>
 5   0  0.1826851E-05  0.2701576E+04  0.7818609E-02  0.8334494E-01
        2   -1    0    0  501    0  0.00000000000E+00  0.00000000000E+00  0.18826390716E+04  0.18826390716E+04  0.25500000920E-02 0.  1.
       -2   -1    0    0    0  501  0.00000000000E+00  0.00000000000E+00 -0.96918626597E+03  0.96918626598E+03  0.25500000920E-02 0. -1.
    10030    2    1    2    0    0  0.00000000000E+00  0.00000000000E+00  0.91345280562E+03  0.28518253376E+04  0.27015757861E+04 0.  0.
        5    1    3    3  502    0 -0.13926440669E+03  0.76996119363E+02 -0.95924828580E+03  0.97236944685E+03  0.46999998093E+01 0. -1.
       -5    1    3    3    0  502  0.13926440669E+03 -0.76996119363E+02  0.18727010914E+04  0.18794558907E+04  0.46999998093E+01 0.  1.
</event>
<event>
 5   0  0.7348964E-06  0.2709332E+04  0.7818609E-02  0.8331983E-01
       -1   -1    0    0    0  501  0.00000000000E+00  0.00000000000E+00  0.13528894288E+04  0.13528894288E+04  0.50400001928E-02 0. -1.
        1   -1    0    0  501    0  0.00000000000E+00  0.00000000000E+00 -0.13564453623E+04  0.13564453623E+04  0.50400001928E-02 0.  1.
    10030    2    1    2    0    0  0.00000000000E+00  0.00000000000E+00 -0.35559335237E+01  0.27093347912E+04  0.27093324576E+04 0.  0.
        1    1    3    3  502    0  0.69602791572E+03 -0.62056476729E+03 -0.98441053536E+03  0.13559570760E+04  0.50400001928E-02 0.  1.
       -1    1    3    3    0  502 -0.69602791572E+03  0.62056476729E+03  0.98085460184E+03  0.13533777151E+04  0.50400001928E-02 0. -1.
</event>
<event>
 5   0  0.7348964E-06  0.2703484E+04  0.7818609E-02  0.8333875E-01
        1   -1    0    0  501    0  0.00000000000E+00  0.00000000000E+00  0.20204187100E+04  0.20204187100E+04  0.50400001928E-02 0.  1.
       -1   -1    0    0    0  501  0.00000000000E+00  0.00000000000E+00 -0.90437003472E+03  0.90437003473E+03  0.50400001928E-02 0. -1.
    10030    2    1    2    0    0  0.00000000000E+00  0.00000000000E+00  0.11160486753E+04  0.29247887448E+04  0.27034837813E+04 0.  0.
        1    1    3    3  502    0 -0.33155046482E+03 -0.12890643717E+04  0.30294067751E+03  0.13650588703E+04  0.50400001928E-02 0. -1.
       -1    1    3    3    0  502  0.33155046482E+03  0.12890643717E+04  0.81310799778E+03  0.15597298745E+04  0.50400001928E-02 0.  1.
</event>
<event>
 5   0  0.1878160E-05  0.2692955E+04  0.7818609E-02  0.8337294E-01
        2   -1    0    0  501    0  0.00000000000E+00  0.00000000000E+00  0.17228622709E+04  0.17228622709E+04  0.25500000920E-02 0.  1.
       -2   -1    0    0    0  501  0.00000000000E+00  0.00000000000E+00 -0.10523196776E+04  0.10523196776E+04  0.25500000920E-02 0. -1.
    10030    2    1    2    0    0  0.00000000000E+00  0.00000000000E+00  0.67054259326E+03  0.27751819485E+04  0.26929551570E+04 0.  0.
        1    1    3    3  502    0  0.91022199401E+03  0.62496784623E+03 -0.45891748763E+03  0.11956981842E+04  0.50400001928E-02 0. -1.
       -1    1    3    3    0  502 -0.91022199401E+03 -0.62496784623E+03  0.11294600809E+04  0.15794837643E+04  0.50400001928E-02 0.  1.
</event>
<event>
 5   0  0.7754912E-06  0.2636146E+04  0.7818609E-02  0.8356026E-01
        1   -1    0    0  501    0  0.00000000000E+00  0.00000000000E+00  0.12225862746E+04  0.12225862747E+04  0.50400001928E-02 0.  1.
       -1   -1    0    0    0  501  0.00000000000E+00  0.00000000000E+00 -0.14210176731E+04  0.14210176731E+04  0.50400001928E-02 0. -1.
    10030    2    1    2    0    0  0.00000000000E+00  0.00000000000E+00 -0.19843139846E+03  0.26436039478E+04  0.26361462047E+04 0.  0.
        4    1    3    3  502    0 -0.72330220159E+02 -0.44398966391E+03  0.11432229418E+04  0.12285433611E+04  0.12699999809E+01 0.  1.
       -4    1    3    3    0  502  0.72330220159E+02  0.44398966391E+03 -0.13416543403E+04  0.14150605867E+04  0.12699999809E+01 0. -1.
</event>
<event>
 5   0  0.1826851E-05  0.2733150E+04  0.7818609E-02  0.8324329E-01
       -2   -1    0    0    0  501  0.00000000000E+00  0.00000000000E+00  0.85119145374E+03  0.85119145374E+03  0.25500000920E-02 0.  1.
        2   -1    0    0  501    0  0.00000000000E+00  0.00000000000E+00 -0.21940147601E+04  0.21940147601E+04  0.25500000920E-02 0. -1.
    10030    2    1    2    0    0  0.00000000000E+00  0.00000000000E+00 -0.13428233064E+04  0.30452062138E+04  0.27331495482E+04 0.  0.
        5    1    3    3  502    0 -0.66047617820E+03  0.10309574880E+04  0.48496496574E+01  0.12243968854E+04  0.46999998093E+01 0.  1.
       -5    1    3    3    0  502  0.66047617820E+03 -0.10309574880E+04 -0.13476729560E+04  0.18208093284E+04  0.46999998093E+01 0. -1.
</event>
<event>
 5   0  0.6804685E-06  0.2712607E+04  0.7818609E-02  0.8330926E-01
        1   -1    0    0  501    0  0.00000000000E+00  0.00000000000E+00  0.20811657324E+04  0.20811657324E+04  0.50400001928E-02 0. -1.
       -1   -1    0    0    0  501  0.00000000000E+00  0.00000000000E+00 -0.88390801143E+03  0.88390801145E+03  0.50400001928E-02 0.  1.
    10030    2    1    2    0    0  0.00000000000E+00  0.00000000000E+00  0.11972577210E+04  0.29650737439E+04  0.27126069115E+04 0.  0.
        2    1    3    3  502    0 -0.47270637738E+03  0.83014361279E+03 -0.45377229685E+03  0.10575911471E+04  0.25500000920E-02 0.  1.
       -2    1    3    3    0  502  0.47270637738E+03 -0.83014361279E+03  0.16510300179E+04  0.19074825968E+04  0.25500000920E-02 0. -1.
</event>
<event>
 5   0  0.7600052E-06  0.2994163E+04  0.7818609E-02  0.8245400E-01
       -1   -1    0    0    0  501  0.00000000000E+00  0.00000000000E+00  0.12241803647E+04  0.12241803647E+04  0.50400001928E-02 0.  1.
        1   -1    0    0  501    0  0.00000000000E+00  0.00000000000E+00 -0.18308197172E+04  0.18308197172E+04  0.50400001928E-02 0. -1.
    10030    2    1    2    0    0  0.00000000000E+00  0.00000000000E+00 -0.60663935252E+03  0.30550000819E+04  0.29941633550E+04 0.  0.
        5    1    3    3  502    0 -0.14558289329E+04  0.11279823067E+03 -0.64028767892E+03  0.15944126581E+04  0.46999998093E+01 0. -1.
       -5    1    3    3    0  502  0.14558289329E+04 -0.11279823067E+03  0.33648326401E+02  0.14605874238E+04  0.46999998093E+01 0.  1.
</event>
<event>
 5   0  0.7351590E-06  0.2824971E+04  0.7818609E-02  0.8295558E-01
        1   -1    0    0  501    0  0.00000000000E+00  0.00000000000E+00  0.15267476974E+04  0.15267476974E+04  0.50400001928E-02 0. -1.
       -1   -1    0    0    0  501  0.00000000000E+00  0.00000000000E+00 -0.13067745884E+04  0.13067745884E+04  0.50400001928E-02 0.  1.
    10030    2    1    2    0    0  0.00000000000E+00  0.00000000000E+00  0.21997310897E+03  0.28335222858E+04  0.28249708628E+04 0.  0.
        3    1    3    3  502    0 -0.90106717952E+03 -0.10756212377E+04  0.27243971011E+03  0.14293727698E+04  0.10100000352E+00 0.  1.
       -3    1    3    3    0  502  0.90106717952E+03  0.10756212377E+04 -0.52466601136E+02  0.14041495161E+04  0.10100000352E+00 0. -1.
</event>
<event>
 5   0  0.1826851E-05  0.2724230E+04  0.7818609E-02  0.8327186E-01
        2   -1    0    0  501    0  0.00000000000E+00  0.00000000000E+00  0.16142325536E+04  0.16142325536E+04  0.25500000920E-02 0.  1.
       -2   -1    0    0    0  501  0.00000000000E+00  0.00000000000E+00 -0.11493742067E+04  0.11493742067E+04  0.25500000920E-02 0. -1.
    10030    2    1    2    0    0  0.00000000000E+00  0.00000000000E+00  0.46485834696E+03  0.27636067603E+04  0.27242299908E+04 0.  0.
        5    1    3    3  502    0  0.12588635718E+04 -0.21875270935E+03  0.71120960385E+03  0.14623376597E+04  0.46999998093E+01 0.  1.
       -5    1    3    3    0  502 -0.12588635718E+04  0.21875270935E+03 -0.24635125690E+03  0.13012691006E+04  0.46999998093E+01 0. -1.
</event>
<event>
 5   0  0.6804685E-06  0.2756160E+04  0.7818609E-02  0.8317010E-01
       -1   -1    0    0    0  501  0.00000000000E+00  0.00000000000E+00  0.19376614810E+04  0.19376614810E+04  0.50400001928E-02 0.  1.
        1   -1    0    0  501    0  0.00000000000E+00  0.00000000000E+00 -0.98010104062E+03  0.98010104063E+03  0.50400001928E-02 0. -1.
    10030    2    1    2    0    0  0.00000000000E+00  0.00000000000E+00  0.95756044038E+03  0.29177625216E+04  0.27561596717E+04 0.  0.
        2    1    3    3  502    0  0.13070878832E+04  0.41453648832E+03  0.33368642298E+03  0.14112639241E+04  0.25500000920E-02 0. -1.
       -2    1    3    3    0  502 -0.13070878832E+04 -0.41453648832E+03  0.62387401740E+03  0.15064985975E+04  0.25500000920E-02 0.  1.
</event>
<event>
 5   0  0.7351590E-06  0.2706624E+04  0.7818609E-02  0.8332859E-01
       -1   -1    0    0    0  501  0.00000000000E+00  0.00000000000E+00  0.89535656984E+03  0.89535656985E+03  0.50400001928E-02 0. -1.
        1   -1    0    0  501    0  0.00000000000E+00  0.00000000000E+00 -0.20455022096E+04  0.20455022096E+04  0.50400001928E-02 0.  1.
    10030    2    1    2    0    0  0.00000000000E+00  0.00000000000E+00 -0.11501456398E+04  0.29408587795E+04  0.27066243493E+04 0.  0.
        3    1    3    3  502    0 -0.11477403924E+04 -0.14247527774E+03 -0.13386311648E+04  0.17690507677E+04  0.10100000352E+00 0. -1.
       -3    1    3    3    0  502  0.11477403924E+04  0.14247527774E+03  0.18848552500E+03  0.11718080118E+04  0.10100000352E+00 0.  1.
</event>
<event>
 5   0  0.1931119E-05  0.2674513E+04  0.7818609E-02  0.8343322E-01
       -2   -1    0    0    0  501  0.00000000000E+00  0.00000000000E+00  0.76343590827E+03  0.76343590828E+03  0.25500000920E-02 0.  1.
        2   -1    0    0  501    0  0.00000000000E+00  0.00000000000E+00 -0.23423766560E+04  0.23423766560E+04  0.25500000920E-02 0. -1.
    10030    2    1    2    0    0  0.00000000000E+00  0.00000000000E+00 -0.15789407477E+04  0.31058125643E+04  0.26745126284E+04 0.  0.
        3    1    3    3  502    0  0.52626013180E+03 -0.54178174197E+01 -0.22170567363E+04  0.22786662023E+04  0.10100000352E+00 0. -1.
       -3    1    3    3    0  502 -0.52626013180E+03  0.54178174197E+01  0.63811598860E+03  0.82714636201E+03  0.10100000352E+00 0.  1.
</event>
<event>
 5   0  0.1826851E-05  0.2336293E+04  0.7818609E-02  0.8463747E-01
        2   -1    0    0  501    0  0.00000000000E+00  0.00000000000E+00  0.93673094595E+03  0.93673094595E+03  0.25500000920E-02 0. -1.
       -2   -1    0    0    0  501  0.00000000000E+00  0.00000000000E+00 -0.14567324818E+04  0.14567324818E+04  0.25500000920E-02 0.  1.
    10030    2    1    2    0    0  0.00000000000E+00  0.00000000000E+00 -0.52000153584E+03  0.23934634277E+04  0.23362931286E+04 0.  0.
        5    1    3    3  502    0  0.43767762292E+03 -0.30357312581E+03  0.80506726055E+03  0.96533607015E+03  0.46999998093E+01 0. -1.
       -5    1    3    3    0  502 -0.43767762292E+03  0.30357312581E+03 -0.13250687964E+04  0.14281273576E+04  0.46999998093E+01 0.  1.
</event>
<event>
 5   0  0.1878160E-05  0.2715972E+04  0.7818609E-02  0.8329841E-01
        2   -1    0    0  501    0  0.00000000000E+00  0.00000000000E+00  0.14697401064E+04  0.14697401064E+04  0.25500000920E-02 0.  1.
       -2   -1    0    0    0  501  0.00000000000E+00  0.00000000000E+00 -0.12547292883E+04  0.12547292883E+04  0.25500000920E-02 0. -1.
    10030    2    1    2    0    0  0.00000000000E+00  0.00000000000E+00  0.21501081815E+03  0.27244693947E+04  0.27159719864E+04 0.  0.
        1    1    3    3  502    0 -0.10652475957E+04  0.70702452543E+03 -0.35162718840E+03  0.13260006785E+04  0.50400001928E-02 0. -1.
       -1    1    3    3    0  502  0.10652475957E+04 -0.70702452543E+03  0.56663800654E+03  0.13984687162E+04  0.50400001928E-02 0.  1.
</event>
<event>
 5   0  0.7754912E-06  0.2646189E+04  0.7818609E-02  0.8352679E-01
       -1   -1    0    0    0  501  0.00000000000E+00  0.00000000000E+00  0.11234613364E+04  0.11234613364E+04  0.50400001928E-02 0. -1.
        1   -1    0    0  501    0  0.00000000000E+00  0.00000000000E+00 -0.15582011222E+04  0.15582011222E+04  0.50400001928E-02 0.  1.
    10030    2    1    2    0    0  0.00000000000E+00  0.00000000000E+00 -0.43473978579E+03  0.26816624586E+04  0.26461887424E+04 0.  0.
        4    1    3    3  502    0  0.71838130612E+03 -0.59183453938E+03 -0.11703146063E+04  0.14953185994E+04  0.12699999809E+01 0.  1.
       -4    1    3    3    0  502 -0.71838130612E+03  0.59183453938E+03  0.73557482049E+03  0.11863438593E+04  0.12699999809E+01 0. -1.
</event>
<event>
 5   0  0.7600052E-06  0.2687413E+04  0.7818609E-02  0.8339100E-01
       -1   -1    0    0    0  501  0.00000000000E+00  0.00000000000E+00  0.12300079949E+04  0.12300079949E+04  0.50400001928E-02 0. -1.
        1   -1    0    0  501    0  0.00000000000E+00  0.00000000000E+00 -0.14679154210E+04  0.14679154210E+04  0.50400001928E-02 0.  1.
    10030    2    1    2    0    0  0.00000000000E+00  0.00000000000E+00 -0.23790742606E+03  0.26979234159E+04  0.26874134060E+04 0.  0.
        5    1    3    3  502    0  0.12016473391E+03  0.29339251469E+03  0.11919120067E+04  0.12333673633E+04  0.46999998093E+01 0. -1.
       -5    1    3    3    0  502 -0.12016473391E+03 -0.29339251469E+03 -0.14298194328E+04  0.14645560527E+04  0.46999998093E+01 0.  1.
</event>
<event>
 5   0  0.7351590E-06  0.2704506E+04  0.7818609E-02  0.8333544E-01
       -1   -1    0    0    0  501  0.00000000000E+00  0.00000000000E+00  0.87569787411E+03  0.87569787412E+03  0.50400001928E-02 0. -1.
        1   -1    0    0  501    0  0.00000000000E+00  0.00000000000E+00 -0.20881498910E+04  0.20881498910E+04  0.50400001928E-02 0.  1.
    10030    2    1    2    0    0  0.00000000000E+00  0.00000000000E+00 -0.12124520169E+04  0.29638477651E+04  0.27045061807E+04 0.  0.
        3    1    3    3  502    0 -0.55445035950E+03  0.10601054090E+04 -0.12970292648E+04  0.17645179521E+04  0.10100000352E+00 0.  1.
       -3    1    3    3    0  502  0.55445035950E+03 -0.10601054090E+04  0.84577247976E+02  0.11993298130E+04  0.10100000352E+00 0. -1.
</event>
<event>
 5   0  0.1788003E-05  0.2713379E+04  0.7818609E-02  0.8330677E-01
       -2   -1    0    0    0  501  0.00000000000E+00  0.00000000000E+00  0.14653710792E+04  0.14653710792E+04  0.25500000920E-02 0. -1.
        2   -1    0    0  501    0  0.00000000000E+00  0.00000000000E+00 -0.12560688362E+04  0.12560688362E+04  0.25500000920E-02 0.  1.
    10030    2    1    2    0    0  0.00000000000E+00  0.00000000000E+00  0.20930224302E+03  0.27214399154E+04  0.27133794029E+04 0.  0.
        2    1    3    3  502    0 -0.44181123036E+03 -0.90422690648E+03 -0.80787773098E+03  0.12905386046E+04  0.25500000920E-02 0.  1.
       -2    1    3    3    0  502  0.44181123036E+03  0.90422690648E+03  0.10171799740E+04  0.14309013108E+04  0.25500000920E-02 0. -1.
</event>
<event>
 5   0  0.7351590E-06  0.2643677E+04  0.7818609E-02  0.8353515E-01
       -1   -1    0    0    0  501  0.00000000000E+00  0.00000000000E+00  0.79819441166E+03  0.79819441168E+03  0.50400001928E-02 0.  1.
        1   -1    0    0  501    0  0.00000000000E+00  0.00000000000E+00 -0.21890113364E+04  0.21890113364E+04  0.50400001928E-02 0. -1.
    10030    2    1    2    0    0  0.00000000000E+00  0.00000000000E+00 -0.13908169248E+04  0.29872057481E+04  0.26436766942E+04 0.  0.
        3    1    3    3  502    0 -0.77929879211E+03  0.54664356039E+03  0.34089885805E+03  0.10111072303E+04  0.10100000352E+00 0.  1.
       -3    1    3    3    0  502  0.77929879211E+03 -0.54664356039E+03 -0.17317157828E+04  0.19760985178E+04  0.10100000352E+00 0. -1.
</event>
<event>
 5   0  0.6804685E-06  0.2056565E+04  0.7818609E-02  0.8580622E-01
        1   -1    0    0  501    0  0.00000000000E+00  0.00000000000E+00  0.84144370201E+03  0.84144370203E+03  0.50400001928E-02 0. -1.
       -1   -1    0    0    0  501  0.00000000000E+00  0.00000000000E+00 -0.12566083203E+04  0.12566083203E+04  0.50400001928E-02 0.  1.
    10030    2    1    2    0    0  0.00000000000E+00  0.00000000000E+00 -0.41516461827E+03  0.20980520223E+04  0.20565652501E+04 0.  0.
        2    1    3    3  502    0 -0.29424344361E+03  0.83531333399E+03 -0.74065321228E+03  0.11545106110E+04  0.25500000920E-02 0.  1.
       -2    1    3    3    0  502  0.29424344361E+03 -0.83531333399E+03  0.32548859400E+03  0.94354141132E+03  0.25500000920E-02 0. -1.
</event>
<event>
 5   0  0.7754912E-06  0.2694404E+04  0.7818609E-02  0.8336823E-01
        1   -1    0    0  501    0  0.00000000000E+00  0.00000000000E+00  0.17743531582E+04  0.17743531582E+04  0.50400001928E-02 0. -1.
       -1   -1    0    0    0  501  0.00000000000E+00  0.00000000000E+00 -0.10228814750E+04  0.10228814750E+04  0.50400001928E-02 0.  1.
    10030    2    1    2    0    0  0.00000000000E+00  0.00000000000E+00  0.75147168324E+03  0.27972346332E+04  0.26944038121E+04 0.  0.
        4    1    3    3  502    0 -0.73221987191E+03 -0.21824512568E+03 -0.77619396530E+03  0.10891535982E+04  0.12699999809E+01 0.  1.
       -4    1    3    3    0  502  0.73221987191E+03  0.21824512568E+03  0.15276656485E+04  0.17080810351E+04  0.12699999809E+01 0. -1.
</event>
<event>
 5   0  0.1931119E-05  0.2644154E+04  0.7818609E-02  0.8353356E-01
        2   -1    0    0  501    0  0.00000000000E+00  0.00000000000E+00  0.10993129410E+04  0.10993129410E+04  0.25500000920E-02 0.  1.
       -2   -1    0    0    0  501  0.00000000000E+00  0.00000000000E+00 -0.15899815302E+04  0.15899815302E+04  0.25500000920E-02 0. -1.
    10030    2    1    2    0    0  0.00000000000E+00  0.00000000000E+00 -0.49066858923E+03  0.26892944712E+04  0.26441537566E+04 0.  0.
        3    1    3    3  502    0  0.86577435850E+03 -0.50862946865E+03 -0.11200268185E+04  0.15042371025E+04  0.10100000352E+00 0. -1.
       -3    1    3    3    0  502 -0.86577435850E+03  0.50862946865E+03  0.62935822924E+03  0.11850573687E+04  0.10100000352E+00 0.  1.
</event>
<event>
 5   0  0.1931119E-05  0.2763108E+04  0.7818609E-02  0.8314814E-01
        2   -1    0    0  501    0  0.00000000000E+00  0.00000000000E+00  0.12467089089E+04  0.12467089089E+04  0.25500000920E-02 0. -1.
       -2   -1    0    0    0  501  0.00000000000E+00  0.00000000000E+00 -0.15309844491E+04  0.15309844491E+04  0.25500000920E-02 0.  1.
    10030    2    1    2    0    0  0.00000000000E+00  0.00000000000E+00 -0.28427554024E+03  0.27776933580E+04  0.27631083599E+04 0.  0.
        3    1    3    3  502    0  0.61803200040E+03 -0.52753146620E+03  0.98109570167E+03  0.12738923767E+04  0.10100000352E+00 0. -1.
       -3    1    3    3    0  502 -0.61803200040E+03  0.52753146620E+03 -0.12653712419E+04  0.15038009813E+04  0.10100000352E+00 0.  1.
</event>
<event>
 5   0  0.6804685E-06  0.2676677E+04  0.7818609E-02  0.8342612E-01
       -1   -1    0    0    0  501  0.00000000000E+00  0.00000000000E+00  0.82517479701E+03  0.82517479703E+03  0.50400001928E-02 0.  1.
        1   -1    0    0  501    0  0.00000000000E+00  0.00000000000E+00 -0.21706313845E+04  0.21706313845E+04  0.50400001928E-02 0. -1.
    10030    2    1    2    0    0  0.00000000000E+00  0.00000000000E+00 -0.13454565875E+04  0.29958061816E+04  0.26766772776E+04 0.  0.
        2    1    3    3  502    0 -0.10089979729E+04  0.59211174507E+03  0.54748725912E+02  0.11711834404E+04  0.25500000920E-02 0.  1.
       -2    1    3    3    0  502  0.10089979729E+04 -0.59211174507E+03 -0.14002053134E+04  0.18246227412E+04  0.25500000920E-02 0. -1.
</event>
<event>
 5   0  0.7600052E-06  0.2692820E+04  0.7818609E-02  0.8337338E-01
        1   -1    0    0  501    0  0.00000000000E+00  0.00000000000E+00  0.64928496509E+03  0.64928496511E+03  0.50400001928E-02 0.  1.
       -1   -1    0    0    0  501  0.00000000000E+00  0.00000000000E+00 -0.27920254507E+04  0.27920254507E+04  0.50400001928E-02 0. -1.
    10030    2    1    2    0    0  0.00000000000E+00  0.00000000000E+00 -0.21427404856E+04  0.34413104158E+04  0.26928201925E+04 0.  0.
        5    1    3    3  502    0 -0.48025709683E+03  0.52598093122E+03 -0.25315426581E+04  0.26298351923E+04  0.46999998093E+01 0. -1.
       -5    1    3    3    0  502  0.48025709683E+03 -0.52598093122E+03  0.38880217246E+03  0.81147522351E+03  0.46999998093E+01 0.  1.
</event>
<event>
 5   0  0.1826851E-05  0.2681051E+04  0.7818609E-02  0.8341180E-01
        2   -1    0    0  501    0  0.00000000000E+00  0.00000000000E+00  0.20023482160E+04  0.20023482160E+04  0.25500000920E-02 0. -1.
       -2   -1    0    0    0  501  0.00000000000E+00  0.00000000000E+00 -0.89745065199E+03  0.89745065200E+03  0.25500000920E-02 0.  1.
    10030    2    1    2    0    0  0.00000000000E+00  0.00000000000E+00  0.11048975640E+04  0.28997988680E+04  0.26810510715E+04 0.  0.
        5    1    3    3  502    0  0.85534149916E+02  0.40336200809E+03 -0.82714907476E+03  0.92423735169E+03  0.46999998093E+01 0.  1.
       -5    1    3    3    0  502 -0.85534149916E+02 -0.40336200809E+03  0.19320466388E+04  0.19755615163E+04  0.46999998093E+01 0. -1.
</event>
<event>
 5   0  0.1878160E-05  0.2731999E+04  0.7818609E-02  0.8324696E-01
        2   -1    0    0  501    0  0.00000000000E+00  0.00000000000E+00  0.91588625620E+03  0.91588625620E+03  0.25500000920E-02 0.  1.
       -2   -1    0    0    0  501  0.00000000000E+00  0.00000000000E+00 -0.20373218684E+04  0.20373218684E+04  0.25500000920E-02 0. -1.
    10030    2    1    2    0    0  0.00000000000E+00  0.00000000000E+00 -0.11214356122E+04  0.29532081246E+04  0.27319993402E+04 0.  0.
        1    1    3    3  502    0  0.11966949403E+04 -0.51480750272E+03 -0.10049023301E+04  0.16452763409E+04  0.50400001928E-02 0.  1.
       -1    1    3    3    0  502 -0.11966949403E+04  0.51480750272E+03 -0.11653328214E+03  0.13079317837E+04  0.50400001928E-02 0. -1.
</event>
<event>
 5   0  0.6175875E-06  0.2738925E+04  0.7818609E-02  0.8322485E-01
        3   -1    0    0  501    0  0.00000000000E+00  0.00000000000E+00  0.16849052105E+04  0.16849052135E+04  0.10100000352E+00 0. -1.
       -3   -1    0    0    0  501  0.00000000000E+00  0.00000000000E+00 -0.11130759970E+04  0.11130760016E+04  0.10100000352E+00 0.  1.
    10030    2    1    2    0    0  0.00000000000E+00  0.00000000000E+00  0.57182921347E+03  0.27979812152E+04  0.27389250138E+04 0.  0.
        5    1    3    3  502    0  0.60187905208E+03  0.10016117167E+04 -0.44356997903E+03  0.12499043326E+04  0.46999998093E+01 0.  1.
       -5    1    3    3    0  502 -0.60187905208E+03 -0.10016117167E+04  0.10153991925E+04  0.15480768826E+04  0.46999998093E+01 0. -1.
</event>
<event>
 5   0  0.7754912E-06  0.2536930E+04  0.7818609E-02  0.8389946E-01
        1   -1    0    0  501    0  0.00000000000E+00  0.00000000000E+00  0.18134123206E+04  0.18134123206E+04  0.50400001928E-02 0. -1.
       -1   -1    0    0    0  501  0.00000000000E+00  0.00000000000E+00 -0.88727951480E+03  0.88727951481E+03  0.50400001928E-02 0.  1.
    10030    2    1    2    0    0  0.00000000000E+00  0.00000000000E+00  0.92613280579E+03  0.27006918354E+04  0.25369301165E+04 0.  0.
        4    1    3    3  502    0  0.10420985849E+04  0.38539967975E+03  0.11145330954E+04  0.15737496648E+04  0.12699999809E+01 0. -1.
       -4    1    3    3    0  502 -0.10420985849E+04 -0.38539967975E+03 -0.18840028965E+03  0.11269421706E+04  0.12699999809E+01 0.  1.
</event>
<event>
 5   0  0.1881699E-05  0.2723137E+04  0.7818609E-02  0.8327537E-01
       -2   -1    0    0    0  501  0.00000000000E+00  0.00000000000E+00  0.81725774684E+03  0.81725774684E+03  0.25500000920E-02 0.  1.
        2   -1    0    0  501    0  0.00000000000E+00  0.00000000000E+00 -0.22684021343E+04  0.22684021343E+04  0.25500000920E-02 0. -1.
    10030    2    1    2    0    0  0.00000000000E+00  0.00000000000E+00 -0.14511443874E+04  0.30856598811E+04  0.27231373209E+04 0.  0.
        4    1    3    3  502    0  0.13155679802E+04 -0.33262428782E+03 -0.59883624419E+03  0.14832277261E+04  0.12699999809E+01 0. -1.
       -4    1    3    3    0  502 -0.13155679802E+04  0.33262428782E+03 -0.85230814324E+03  0.16024321550E+04  0.12699999809E+01 0.  1.
</event>
<event>
 5   0  0.1931119E-05  0.2715480E+04  0.7818609E-02  0.8330000E-01
        2   -1    0    0  501    0  0.00000000000E+00  0.00000000000E+00  0.17176523585E+04  0.17176523585E+04  0.25500000920E-02 0. -1.
       -2   -1    0    0    0  501  0.00000000000E+00  0.00000000000E+00 -0.10732427456E+04  0.10732427456E+04  0.25500000920E-02 0.  1.
    10030    2    1    2    0    0  0.00000000000E+00  0.00000000000E+00  0.64440961292E+03  0.27908951042E+04  0.27154800189E+04 0.  0.
        3    1    3    3  502    0  0.31141466093E+03 -0.13201857023E+04  0.38377294272E+03  0.14096634568E+04  0.10100000352E+00 0.  1.
       -3    1    3    3    0  502 -0.31141466093E+03  0.13201857023E+04  0.26063667020E+03  0.13812316474E+04  0.10100000352E+00 0. -1.
</event>
<event>
 5   0  0.1826851E-05  0.2675464E+04  0.7818609E-02  0.8343010E-01
       -2   -1    0    0    0  501  0.00000000000E+00  0.00000000000E+00  0.12004361932E+04  0.12004361932E+04  0.25500000920E-02 0.  1.
        2   -1    0    0  501    0  0.00000000000E+00  0.00000000000E+00 -0.14907305498E+04  0.14907305498E+04  0.25500000920E-02 0. -1.
    10030    2    1    2    0    0  0.00000000000E+00  0.00000000000E+00 -0.29029435656E+03  0.26911667431E+04  0.26754640019E+04 0.  0.
        5    1    3    3  502    0  0.27035715666E+03  0.16192166365E+03  0.11625574782E+04  0.12045221449E+04  0.46999998093E+01 0.  1.
       -5    1    3    3    0  502 -0.27035715666E+03 -0.16192166365E+03 -0.14528518348E+04  0.14866445982E+04  0.46999998093E+01 0. -1.
</event>
<event>
 5   0  0.1826851E-05  0.2687006E+04  0.7818609E-02  0.8339233E-01
        2   -1    0    0  501    0  0.00000000000E+00  0.00000000000E+00  0.16933516714E+04  0.16933516714E+04  0.25500000920E-02 0.  1.
       -2   -1    0    0    0  501  0.00000000000E+00  0.00000000000E+00 -0.10659335620E+04  0.10659335620E+04  0.25500000920E-02 0. -1.
    10030    2    1    2    0    0  0.00000000000E+00  0.00000000000E+00  0.62741810942E+03  0.27592852334E+04  0.26870060504E+04 0.  0.
        5    1    3    3  502    0 -0.10097078845E+04  0.52580131822E+03 -0.41892546411E+03  0.12130530379E+04  0.46999998093E+01 0. -1.
       -5    1    3    3    0  502  0.10097078845E+04 -0.52580131822E+03  0.10463435735E+04  0.15462321954E+04  0.46999998093E+01 0.  1.
</event>
<event>
 5   0  0.1826851E-05  0.2641955E+04  0.7818609E-02  0.8354088E-01
        2   -1    0    0  501    0  0.00000000000E+00  0.00000000000E+00  0.25181432756E+04  0.25181432756E+04  0.25500000920E-02 0. -1.
       -2   -1    0    0    0  501  0.00000000000E+00  0.00000000000E+00 -0.69296343659E+03  0.69296343659E+03  0.25500000920E-02 0.  1.
    10030    2    1    2    0    0  0.00000000000E+00  0.00000000000E+00  0.18251798391E+04  0.32111067122E+04  0.26419547446E+04 0.  0.
        5    1    3    3  502    0  0.12984863213E+04 -0.23088444232E+03  0.82175930757E+03  0.15539256101E+04  0.46999998093E+01 0. -1.
       -5    1    3    3    0  502 -0.12984863213E+04  0.23088444232E+03  0.10034205315E+04  0.16571811021E+04  0.46999998093E+01 0.  1.
</event>
<event>
 5   0  0.7600052E-06  0.2700426E+04  0.7818609E-02  0.8334867E-01
        1   -1    0    0  501    0  0.00000000000E+00  0.00000000000E+00  0.95414325187E+03  0.95414325188E+03  0.50400001928E-02 0. -1.
       -1   -1    0    0    0  501  0.00000000000E+00  0.00000000000E+00 -0.19106936078E+04  0.19106936078E+04  0.50400001928E-02 0.  1.
    10030    2    1    2    0    0  0.00000000000E+00  0.00000000000E+00 -0.95655035593E+03  0.28648368597E+04  0.27004261977E+04 0.  0.
        5    1    3    3  502    0 -0.93539494830E+03 -0.93823207032E+03 -0.20201703983E+03  0.13401776380E+04  0.46999998093E+01 0. -1.
       -5    1    3    3    0  502  0.93539494830E+03  0.93823207032E+03 -0.75453331610E+03  0.15246592217E+04  0.46999998093E+01 0.  1.
</event>
<event>
 5   0  0.1878160E-05  0.2697456E+04  0.7818609E-02  0.8335831E-01
        2   -1    0    0  501    0  0.00000000000E+00  0.00000000000E+00  0.18990361356E+04  0.18990361356E+04  0.25500000920E-02 0. -1.
       -2   -1    0    0    0  501  0.00000000000E+00  0.00000000000E+00 -0.95788994893E+03  0.95788994893E+03  0.25500000920E-02 0.  1.
    10030    2    1    2    0    0  0.00000000000E+00  0.00000000000E+00  0.94114618670E+03  0.28569260846E+04  0.26974563032E+04 0.  0.
        1    1    3    3  502    0 -0.52610671130E+03 -0.60644453045E+03 -0.67724193782E+03  0.10503427453E+04  0.50400001928E-02 0.  1.
       -1    1    3    3    0  502  0.52610671130E+03  0.60644453045E+03  0.16183881245E+04  0.18065833393E+04  0.50400001928E-02 0. -1.
</event>
<event>
 5   0  0.6804685E-06  0.2723616E+04  0.7818609E-02  0.8327383E-01
       -1   -1    0    0    0  501  0.00000000000E+00  0.00000000000E+00  0.92612727542E+03  0.92612727543E+03  0.50400001928E-02 0.  1.
        1   -1    0    0  501    0  0.00000000000E+00  0.00000000000E+00 -0.20024470635E+04  0.20024470635E+04  0.50400001928E-02 0. -1.
    10030    2    1    2    0    0  0.00000000000E+00  0.00000000000E+00 -0.10763197881E+04  0.29285743389E+04  0.27236158636E+04 0.  0.
        2    1    3    3  502    0 -0.51093440979E+03  0.42397316188E+03 -0.18166315975E+04  0.19341555196E+04  0.25500000920E-02 0. -1.
       -2    1    3    3    0  502  0.51093440979E+03 -0.42397316188E+03  0.74031180939E+03  0.99441881933E+03  0.25500000920E-02 0.  1.
</event>
<event>
 5   0  0.6804685E-06  0.2579731E+04  0.7818609E-02  0.8375119E-01
        1   -1    0    0  501    0  0.00000000000E+00  0.00000000000E+00  0.14920220471E+04  0.14920220471E+04  0.50400001928E-02 0. -1.
       -1   -1    0    0    0  501  0.00000000000E+00  0.00000000000E+00 -0.11150997317E+04  0.11150997317E+04  0.50400001928E-02 0.  1.
    10030    2    1    2    0    0  0.00000000000E+00  0.00000000000E+00  0.37692231539E+03  0.26071217788E+04  0.25797312918E+04 0.  0.
        2    1    3    3  502    0  0.96236305479E+03 -0.60813771534E+03  0.80134822874E+03  0.13921684933E+04  0.25500000920E-02 0.  1.
       -2    1    3    3    0  502 -0.96236305479E+03  0.60813771534E+03 -0.42442591334E+03  0.12149532855E+04  0.25500000920E-02 0. -1.
</event>
<event>
 5   0  0.7351590E-06  0.2700136E+04  0.7818609E-02  0.8334961E-01
       -1   -1    0    0    0  501  0.00000000000E+00  0.00000000000E+00  0.25214164859E+04  0.25214164859E+04  0.50400001928E-02 0.  1.
        1   -1    0    0  501    0  0.00000000000E+00  0.00000000000E+00 -0.72288061213E+03  0.72288061215E+03  0.50400001928E-02 0. -1.
    10030    2    1    2    0    0  0.00000000000E+00  0.00000000000E+00  0.17985358737E+04  0.32442970980E+04  0.27001356209E+04 0.  0.
        3    1    3    3  502    0  0.11835822827E+03  0.82695713754E+03 -0.37504426453E+03  0.91571010046E+03  0.10100000352E+00 0. -1.
       -3    1    3    3    0  502 -0.11835822827E+03 -0.82695713754E+03  0.21735801383E+04  0.23285869976E+04  0.10100000352E+00 0.  1.
</event>
<event>
 5   0  0.1878160E-05  0.2714299E+04  0.7818609E-02  0.8330380E-01
        2   -1    0    0  501    0  0.00000000000E+00  0.00000000000E+00  0.32694210634E+04  0.32694210634E+04  0.25500000920E-02 0.  1.
       -2   -1    0    0    0  501  0.00000000000E+00  0.00000000000E+00 -0.56335805122E+03  0.56335805122E+03  0.25500000920E-02 0. -1.
    10030    2    1    2    0    0  0.00000000000E+00  0.00000000000E+00  0.27060630121E+04  0.38327791146E+04  0.27142989363E+04 0.  0.
        1    1    3    3  502    0 -0.33684538267E+03 -0.10322789256E+04  0.20343848965E+03  0.11047406081E+04  0.50400001928E-02 0. -1.
       -1    1    3    3    0  502  0.33684538267E+03  0.10322789256E+04  0.25026245225E+04  0.27280385065E+04  0.50400001928E-02 0.  1.
</event>
<event>
 5   0  0.7754912E-06  0.2718434E+04  0.7818609E-02  0.8329048E-01
       -1   -1    0    0    0  501  0.00000000000E+00  0.00000000000E+00  0.12952049596E+04  0.12952049596E+04  0.50400001928E-02 0. -1.
        1   -1    0    0  501    0  0.00000000000E+00  0.00000000000E+00 -0.14263927320E+04  0.14263927320E+04  0.50400001928E-02 0.  1.
    10030    2    1    2    0    0  0.00000000000E+00  0.00000000000E+00 -0.13118777242E+03  0.27215976916E+04  0.27184340646E+04 0.  0.
        4    1    3    3  502    0 -0.85078437878E+03  0.83626620847E+03 -0.71773055284E+03  0.13922334538E+04  0.12699999809E+01 0.  1.
       -4    1    3    3    0  502  0.85078437878E+03 -0.83626620847E+03  0.58654278042E+03  0.13293642378E+04  0.12699999809E+01 0. -1.
</event>
<event>
 5   0  0.7754912E-06  0.2826728E+04  0.7818609E-02  0.8295018E-01
       -1   -1    0    0    0  501  0.00000000000E+00  0.00000000000E+00  0.76022338240E+03  0.76022338241E+03  0.50400001928E-02 0.  1.
        1   -1    0    0  501    0  0.00000000000E+00  0.00000000000E+00 -0.26276455803E+04  0.26276455803E+04  0.50400001928E-02 0. -1.
    10030    2    1    2    0    0  0.00000000000E+00  0.00000000000E+00 -0.18674221979E+04  0.33878689627E+04  0.28267278686E+04 0.  0.
        4    1    3    3  502    0 -0.11296352242E+04 -0.73885550662E+03 -0.14359619548E+04  0.19707794265E+04  0.12699999809E+01 0. -1.
       -4    1    3    3    0  502  0.11296352242E+04  0.73885550662E+03 -0.43146024315E+03  0.14170895362E+04  0.12699999809E+01 0.  1.
</event>
<event>
 5   0  0.7600052E-06  0.2711558E+04  0.7818609E-02  0.8331265E-01
       -1   -1    0    0    0  501  0.00000000000E+00  0.00000000000E+00  0.24841819807E+04  0.24841819807E+04  0.50400001928E-02 0.  1.
        1   -1    0    0  501    0  0.00000000000E+00  0.00000000000E+00 -0.73993627384E+03  0.73993627385E+03  0.50400001928E-02 0. -1.
    10030    2    1    2    0    0  0.00000000000E+00  0.00000000000E+00  0.17442457068E+04  0.32241182545E+04  0.27115577503E+04 0.  0.
        5    1    3    3  502    0 -0.57606280628E+03 -0.12264925245E+04  0.81918774293E+03  0.15834212697E+04  0.46999998093E+01 0. -1.
       -5    1    3    3    0  502  0.57606280628E+03  0.12264925245E+04  0.92505796391E+03  0.16406969848E+04  0.46999998093E+01 0.  1.
</event>
<event>
 5   0  0.1788003E-05  0.2739140E+04  0.7818609E-02  0.8322416E-01
       -2   -1    0    0    0  501  0.00000000000E+00  0.00000000000E+00  0.17360592693E+04  0.17360592693E+04  0.25500000920E-02 0. -1.
        2   -1    0    0  501    0  0.00000000000E+00  0.00000000000E+00 -0.10804477648E+04  0.10804477648E+04  0.25500000920E-02 0.  1.
    10030    2    1    2    0    0  0.00000000000E+00  0.00000000000E+00  0.65561150453E+03  0.28165070340E+04  0.27391395415E+04 0.  0.
        2    1    3    3  502    0  0.16358300011E+03 -0.11242953458E+04 -0.45859810803E+03  0.12251986154E+04  0.25500000920E-02 0.  1.
       -2    1    3    3    0  502 -0.16358300011E+03  0.11242953458E+04  0.11142096126E+04  0.15913084186E+04  0.25500000920E-02 0. -1.
</event>
<event>
 5   0  0.1881699E-05  0.2606622E+04  0.7818609E-02  0.8365955E-01
        2   -1    0    0  501    0  0.00000000000E+00  0.00000000000E+00  0.21450307675E+04  0.21450307675E+04  0.25500000920E-02 0. -1.
       -2   -1    0    0    0  501  0.00000000000E+00  0.00000000000E+00 -0.79188615302E+03  0.79188615303E+03  0.25500000920E-02 0.  1.
    10030    2    1    2    0    0  0.00000000000E+00  0.00000000000E+00  0.13531446145E+04  0.29369169206E+04  0.26066224603E+04 0.  0.
        4    1    3    3  502    0  0.73780814944E+03  0.34425613709E+03 -0.47010187444E+03  0.94014389248E+03  0.12699999809E+01 0.  1.
       -4    1    3    3    0  502 -0.73780814944E+03 -0.34425613709E+03  0.18232464889E+04  0.19967730281E+04  0.12699999809E+01 0. -1.
</event>
<event>
 5   0  0.1826851E-05  0.2692226E+04  0.7818609E-02  0.8337532E-01
        2   -1    0    0  501    0  0.00000000000E+00  0.00000000000E+00  0.25621489881E+04  0.25621489881E+04  0.25500000920E-02 0. -1.
       -2   -1    0    0    0  501  0.00000000000E+00  0.00000000000E+00 -0.70722658695E+03  0.70722658696E+03  0.25500000920E-02 0.  1.
    10030    2    1    2    0    0  0.00000000000E+00  0.00000000000E+00  0.18549224011E+04  0.32693755750E+04  0.26922257588E+04 0.  0.
        5    1    3    3  502    0  0.13035545949E+04  0.43412192134E+02  0.52312928679E+03  0.14052848611E+04  0.46999998093E+01 0.  1.
       -5    1    3    3    0  502 -0.13035545949E+04 -0.43412192134E+02  0.13317931143E+04  0.18640907139E+04  0.46999998093E+01 0. -1.
</event>
<event>
 5   0  0.1931119E-05  0.2693912E+04  0.7818609E-02  0.8336983E-01
        2   -1    0    0  501    0  0.00000000000E+00  0.00000000000E+00  0.89136160320E+03  0.89136160320E+03  0.25500000920E-02 0.  1.
       -2   -1    0    0    0  501  0.00000000000E+00  0.00000000000E+00 -0.20354139564E+04  0.20354139564E+04  0.25500000920E-02 0. -1.
    10030    2    1    2    0    0  0.00000000000E+00  0.00000000000E+00 -0.11440523532E+04  0.29267755596E+04  0.26939115408E+04 0.  0.
        3    1    3    3  502    0 -0.13251247611E+04 -0.24148675444E+03 -0.57668040843E+03  0.14652070805E+04  0.10100000352E+00 0.  1.
       -3    1    3    3    0  502  0.13251247611E+04  0.24148675444E+03 -0.56737194477E+03  0.14615684791E+04  0.10100000352E+00 0. -1.
</event>
<event>
 5   0  0.1826851E-05  0.2645553E+04  0.7818609E-02  0.8352890E-01
        2   -1    0    0  501    0  0.00000000000E+00  0.00000000000E+00  0.23026667050E+04  0.23026667050E+04  0.25500000920E-02 0. -1.
       -2   -1    0    0    0  501  0.00000000000E+00  0.00000000000E+00 -0.75987472022E+03  0.75987472023E+03  0.25500000920E-02 0.  1.
    10030    2    1    2    0    0  0.00000000000E+00  0.00000000000E+00  0.15427919848E+04  0.30625414252E+04  0.26455534152E+04 0.  0.
        5    1    3    3  502    0 -0.58619857632E+03  0.11073446230E+03 -0.59529269303E+03  0.84278489094E+03  0.46999998093E+01 0.  1.
       -5    1    3    3    0  502  0.58619857632E+03 -0.11073446230E+03  0.21380846778E+04  0.22197565343E+04  0.46999998093E+01 0. -1.
</event>
<event>
 5   0  0.1788003E-05  0.2633534E+04  0.7818609E-02  0.8356899E-01
        2   -1    0    0  501    0  0.00000000000E+00  0.00000000000E+00  0.12571440867E+04  0.12571440867E+04  0.25500000920E-02 0.  1.
       -2   -1    0    0    0  501  0.00000000000E+00  0.00000000000E+00 -0.13792172101E+04  0.13792172101E+04  0.25500000920E-02 0. -1.
    10030    2    1    2    0    0  0.00000000000E+00  0.00000000000E+00 -0.12207312335E+03  0.26363612968E+04  0.26335335654E+04 0.  0.
        2    1    3    3  502    0 -0.34874508561E+03 -0.98412983678E+03 -0.86423221111E+03  0.13553715303E+04  0.25500000920E-02 0. -1.
       -2    1    3    3    0  502  0.34874508561E+03  0.98412983678E+03  0.74215908776E+03  0.12809897665E+04  0.25500000920E-02 0.  1.
</event>
<event>
 5   0  0.7348964E-06  0.2612373E+04  0.7818609E-02  0.8364011E-01
        1   -1    0    0  501    0  0.00000000000E+00  0.00000000000E+00  0.15801997429E+04  0.15801997429E+04  0.50400001928E-02 0. -1.
       -1   -1    0    0    0  501  0.00000000000E+00  0.00000000000E+00 -0.10796879707E+04  0.10796879707E+04  0.50400001928E-02 0.  1.
    10030    2    1    2    0    0  0.00000000000E+00  0.00000000000E+00  0.50051177219E+03  0.26598877136E+04  0.26123726026E+04 0.  0.
        1    1    3    3  502    0 -0.11045327400E+04  0.69307384077E+03  0.17285526893E+03  0.13153793622E+04  0.50400001928E-02 0. -1.
       -1    1    3    3    0  502  0.11045327400E+04 -0.69307384077E+03  0.32765650326E+03  0.13445083513E+04  0.50400001928E-02 0.  1.
</event>
<event>
 5   0  0.7754912E-06  0.2676082E+04  0.7818609E-02  0.8342807E-01
       -1   -1    0    0    0  501  0.00000000000E+00  0.00000000000E+00  0.15890556080E+04  0.15890556080E+04  0.50400001928E-02 0. -1.
        1   -1    0    0  501    0  0.00000000000E+00  0.00000000000E+00 -0.11266779219E+04  0.11266779219E+04  0.50400001928E-02 0.  1.
    10030    2    1    2    0    0  0.00000000000E+00  0.00000000000E+00  0.46237768614E+03  0.27157335299E+04  0.26760821140E+04 0.  0.
        4    1    3    3  502    0  0.10347061316E+04 -0.21040201225E+03 -0.60285641465E+03  0.12158631729E+04  0.12699999809E+01 0.  1.
       -4    1    3    3    0  502 -0.10347061316E+04  0.21040201225E+03  0.10652341008E+04  0.14998703570E+04  0.12699999809E+01 0. -1.
</event>
<event>
 5   0  0.1881699E-05  0.2697874E+04  0.7818609E-02  0.8335695E-01
        2   -1    0    0  501    0  0.00000000000E+00  0.00000000000E+00  0.13941081659E+04  0.13941081659E+04  0.25500000920E-02 0. -1.
       -2   -1    0    0    0  501  0.00000000000E+00  0.00000000000E+00 -0.13052293825E+04  0.13052293825E+04  0.25500000920E-02 0.  1.
    10030    2    1    2    0    0  0.00000000000E+00  0.00000000000E+00  0.88878783448E+02  0.26993375484E+04  0.26978739337E+04 0.  0.
        4    1    3    3  502    0  0.91545706516E+03 -0.78521427792E+03 -0.56004582010E+03  0.13297654056E+04  0.12699999809E+01 0.  1.
       -4    1    3    3    0  502 -0.91545706516E+03  0.78521427792E+03  0.64892460355E+03  0.13695721428E+04  0.12699999809E+01 0. -1.
</event>
<event>
 5   0  0.1881699E-05  0.2030911E+04  0.7818609E-02  0.8592304E-01
       -2   -1    0    0    0  501  0.00000000000E+00  0.00000000000E+00  0.15816928847E+04  0.15816928847E+04  0.25500000920E-02 0. -1.
        2   -1    0    0  501    0  0.00000000000E+00  0.00000000000E+00 -0.65192778114E+03  0.65192778115E+03  0.25500000920E-02 0.  1.
    10030    2    1    2    0    0  0.00000000000E+00  0.00000000000E+00  0.92976510358E+03  0.22336206659E+04  0.20309106655E+04 0.  0.
        4    1    3    3  502    0  0.54296523277E+03 -0.85037255446E+03  0.59125666161E+03  0.11694147161E+04  0.12699999809E+01 0.  1.
       -4    1    3    3    0  502 -0.54296523277E+03  0.85037255446E+03  0.33850844197E+03  0.10642059498E+04  0.12699999809E+01 0. -1.
</event>
<event>
 5   0  0.6804685E-06  0.2606775E+04  0.7818609E-02  0.8365904E-01
       -1   -1    0    0    0  501  0.00000000000E+00  0.00000000000E+00  0.74285179772E+03  0.74285179774E+03  0.50400001928E-02 0. -1.
        1   -1    0    0  501    0  0.00000000000E+00  0.00000000000E+00 -0.22868879889E+04  0.22868879889E+04  0.50400001928E-02 0.  1.
    10030    2    1    2    0    0  0.00000000000E+00  0.00000000000E+00 -0.15440361912E+04  0.30297397867E+04  0.26067749069E+04 0.  0.
        2    1    3    3  502    0 -0.59864118161E+02  0.12851964855E+04 -0.10144401114E+04  0.16384146174E+04  0.25500000920E-02 0.  1.
       -2    1    3    3    0  502  0.59864118161E+02 -0.12851964855E+04 -0.52959607984E+03  0.13913251693E+04  0.25500000920E-02 0. -1.
</event>
<event>
 5   0  0.6804685E-06  0.2731342E+04  0.7818609E-02  0.8324907E-01
        1   -1    0    0  501    0  0.00000000000E+00  0.00000000000E+00  0.13133252836E+04  0.13133252836E+04  0.50400001928E-02 0. -1.
       -1   -1    0    0    0  501  0.00000000000E+00  0.00000000000E+00 -0.14201033150E+04  0.14201033150E+04  0.50400001928E-02 0.  1.
    10030    2    1    2    0    0  0.00000000000E+00  0.00000000000E+00 -0.10677803135E+03  0.27334285986E+04  0.27313422260E+04 0.  0.
        2    1    3    3  502    0  0.29859068561E+03 -0.59736565202E+03  0.11387620764E+04  0.13201443809E+04  0.25500000920E-02 0. -1.
       -2    1    3    3    0  502 -0.29859068561E+03  0.59736565202E+03 -0.12455401078E+04  0.14132842177E+04  0.25500000920E-02 0.  1.
</event>
<event>
 5   0  0.1788003E-05  0.2601516E+04  0.7818609E-02  0.8367687E-01
       -2   -1    0    0    0  501  0.00000000000E+00  0.00000000000E+00  0.77636841376E+03  0.77636841376E+03  0.25500000920E-02 0. -1.
        2   -1    0    0  501    0  0.00000000000E+00  0.00000000000E+00 -0.21793400630E+04  0.21793400630E+04  0.25500000920E-02 0.  1.
    10030    2    1    2    0    0  0.00000000000E+00  0.00000000000E+00 -0.14029716493E+04  0.29557084768E+04  0.26015155489E+04 0.  0.
        2    1    3    3  502    0 -0.85600974946E+03  0.97852859656E+03 -0.74832881385E+03  0.15000889704E+04  0.25500000920E-02 0.  1.
       -2    1    3    3    0  502  0.85600974946E+03 -0.97852859656E+03 -0.65464283542E+03  0.14556195064E+04  0.25500000920E-02 0. -1.
</event>
<event>
 5   0  0.1931119E-05  0.1942439E+04  0.7818609E-02  0.8634016E-01
       -2   -1    0    0    0  501  0.00000000000E+00  0.00000000000E+00  0.73922668002E+03  0.73922668002E+03  0.25500000920E-02 0.  1.
        2   -1    0    0  501    0  0.00000000000E+00  0.00000000000E+00 -0.12760186023E+04  0.12760186023E+04  0.25500000920E-02 0. -1.
    10030    2    1    2    0    0  0.00000000000E+00  0.00000000000E+00 -0.53679192232E+03  0.20152452824E+04  0.19424386683E+04 0.  0.
        3    1    3    3  502    0  0.91804487731E+03 -0.19928729236E+03 -0.12692592365E+02  0.93951207217E+03  0.10100000352E+00 0. -1.
       -3    1    3    3    0  502 -0.91804487731E+03  0.19928729236E+03 -0.52409932996E+03  0.10757332102E+04  0.10100000352E+00 0.  1.
</event>
<event>
 5   0  0.1788003E-05  0.2723425E+04  0.7818609E-02  0.8327444E-01
        2   -1    0    0  501    0  0.00000000000E+00  0.00000000000E+00  0.11114820440E+04  0.11114820440E+04  0.25500000920E-02 0.  1.
       -2   -1    0    0    0  501  0.00000000000E+00  0.00000000000E+00 -0.16682774527E+04  0.16682774527E+04  0.25500000920E-02 0. -1.
    10030    2    1    2    0    0  0.00000000000E+00  0.00000000000E+00 -0.55679540875E+03  0.27797594967E+04  0.27234246331E+04 0.  0.
        2    1    3    3  502    0 -0.11161353604E+04  0.55019629075E+03 -0.84281575697E+03  0.15029346298E+04  0.25500000920E-02 0. -1.
       -2    1    3    3    0  502  0.11161353604E+04 -0.55019629075E+03  0.28602034822E+03  0.12768248669E+04  0.25500000920E-02 0.  1.
</event>
<event>
 5   0  0.1878160E-05  0.2713177E+04  0.7818609E-02  0.8330742E-01
        2   -1    0    0  501    0  0.00000000000E+00  0.00000000000E+00  0.18993337772E+04  0.18993337772E+04  0.25500000920E-02 0. -1.
       -2   -1    0    0    0  501  0.00000000000E+00  0.00000000000E+00 -0.96893579346E+03  0.96893579347E+03  0.25500000920E-02 0.  1.
    10030    2    1    2    0    0  0.00000000000E+00  0.00000000000E+00  0.93039798371E+03  0.28682695706E+04  0.27131770900E+04 0.  0.
        1    1    3    3  502    0 -0.60624591593E+02 -0.17330686400E+03 -0.95574007881E+03  0.97321616740E+03  0.50400001928E-02 0.  1.
       -1    1    3    3    0  502  0.60624591593E+02  0.17330686400E+03  0.18861380625E+04  0.18950534032E+04  0.50400001928E-02 0. -1.
</event>
<event>
 5   0  0.7600052E-06  0.2661349E+04  0.7818609E-02  0.8347656E-01
        1   -1    0    0  501    0  0.00000000000E+00  0.00000000000E+00  0.10815314509E+04  0.10815314509E+04  0.50400001928E-02 0. -1.
       -1   -1    0    0    0  501  0.00000000000E+00  0.00000000000E+00 -0.16372103403E+04  0.16372103403E+04  0.50400001928E-02 0.  1.
    10030    2    1    2    0    0  0.00000000000E+00  0.00000000000E+00 -0.55567888940E+03  0.27187417911E+04  0.26613488871E+04 0.  0.
        5    1    3    3  502    0  0.35677938440E+03 -0.28227441494E+03  0.99960831357E+03  0.10982755779E+04  0.46999998093E+01 0. -1.
       -5    1    3    3    0  502 -0.35677938440E+03  0.28227441494E+03 -0.15552872030E+04  0.16204662132E+04  0.46999998093E+01 0.  1.
</event>
<event>
 5   0  0.1826851E-05  0.2896215E+04  0.7818609E-02  0.8274005E-01
        2   -1    0    0  501    0  0.00000000000E+00  0.00000000000E+00  0.15712612872E+04  0.15712612872E+04  0.25500000920E-02 0. -1.
       -2   -1    0    0    0  501  0.00000000000E+00  0.00000000000E+00 -0.13346062654E+04  0.13346062654E+04  0.25500000920E-02 0.  1.
    10030    2    1    2    0    0  0.00000000000E+00  0.00000000000E+00  0.23665502175E+03  0.29058675526E+04  0.28962148805E+04 0.  0.
        5    1    3    3  502    0  0.66527572649E+03  0.12401769663E+03  0.14028368881E+04  0.15575447364E+04  0.46999998093E+01 0. -1.
       -5    1    3    3    0  502 -0.66527572649E+03 -0.12401769663E+03 -0.11661818663E+04  0.13483228162E+04  0.46999998093E+01 0.  1.
</event>
<event>
 5   0  0.1881699E-05  0.2555946E+04  0.7818609E-02  0.8383321E-01
       -2   -1    0    0    0  501  0.00000000000E+00  0.00000000000E+00  0.25007630566E+04  0.25007630566E+04  0.25500000920E-02 0.  1.
        2   -1    0    0  501    0  0.00000000000E+00  0.00000000000E+00 -0.65308689036E+03  0.65308689036E+03  0.25500000920E-02 0. -1.
    10030    2    1    2    0    0  0.00000000000E+00  0.00000000000E+00  0.18476761662E+04  0.31538499469E+04  0.25559464534E+04 0.  0.
        4    1    3    3  502    0 -0.11431431498E+04  0.22980376630E+03  0.27837786163E+03  0.11987834995E+04  0.12699999809E+01 0. -1.
       -4    1    3    3    0  502  0.11431431498E+04 -0.22980376630E+03  0.15692983046E+04  0.19550664474E+04  0.12699999809E+01 0.  1.
</event>
<event>
 5   0  0.1788003E-05  0.2683818E+04  0.7818609E-02  0.8340275E-01
        2   -1    0    0  501    0  0.00000000000E+00  0.00000000000E+00  0.13584791596E+04  0.13584791596E+04  0.25500000920E-02 0. -1.
       -2   -1    0    0    0  501  0.00000000000E+00  0.00000000000E+00 -0.13255407349E+04  0.13255407349E+04  0.25500000920E-02 0.  1.
    10030    2    1    2    0    0  0.00000000000E+00  0.00000000000E+00  0.32938424752E+02  0.26840198945E+04  0.26838177759E+04 0.  0.
        2    1    3    3  502    0  0.22592187228E+03  0.72893787857E+03  0.11203314557E+04  0.13555565993E+04  0.25500000920E-02 0.  1.
       -2    1    3    3    0  502 -0.22592187228E+03 -0.72893787857E+03 -0.10873930309E+04  0.13284632953E+04  0.25500000920E-02 0. -1.
</event>
<event>
 5   0  0.7600052E-06  0.2729520E+04  0.7818609E-02  0.8325490E-01
       -1   -1    0    0    0  501  0.00000000000E+00  0.00000000000E+00  0.75202701726E+03  0.75202701728E+03  0.50400001928E-02 0.  1.
        1   -1    0    0  501    0  0.00000000000E+00  0.00000000000E+00 -0.24767320161E+04  0.24767320161E+04  0.50400001928E-02 0. -1.
    10030    2    1    2    0    0  0.00000000000E+00  0.00000000000E+00 -0.17247049988E+04  0.32287590333E+04  0.27295196578E+04 0.  0.
        5    1    3    3  502    0 -0.93354590782E+03  0.69001820319E+02 -0.20371123625E+04  0.22419005510E+04  0.46999998093E+01 0. -1.
       -5    1    3    3    0  502  0.93354590782E+03 -0.69001820319E+02  0.31240736371E+03  0.98685848231E+03  0.46999998093E+01 0.  1.
</event>
<event>
 5   0  0.7600052E-06  0.2665219E+04  0.7818609E-02  0.8346379E-01
        1   -1    0    0  501    0  0.00000000000E+00  0.00000000000E+00  0.11984969881E+04  0.11984969881E+04  0.50400001928E-02 0.  1.
       -1   -1    0    0    0  501  0.00000000000E+00  0.00000000000E+00 -0.14817293156E+04  0.14817293156E+04  0.50400001928E-02 0. -1.
    10030    2    1    2    0    0  0.00000000000E+00  0.00000000000E+00 -0.28323232748E+03  0.26802263037E+04  0.26652190318E+04 0.  0.
        5    1    3    3  502    0  0.18051600864E+03  0.66444473272E+03  0.10057522401E+04  0.12188652471E+04  0.46999998093E+01 0.  1.
       -5    1    3    3    0  502 -0.18051600864E+03 -0.66444473272E+03 -0.12889845675E+04  0.14613610565E+04  0.46999998093E+01 0. -1.
</event>
<event>
 5   0  0.1878160E-05  0.2697797E+04  0.7818609E-02  0.8335720E-01
       -2   -1    0    0    0  501  0.00000000000E+00  0.00000000000E+00  0.87947487849E+03  0.87947487849E+03  0.25500000920E-02 0. -1.
        2   -1    0    0  501    0  0.00000000000E+00  0.00000000000E+00 -0.20688797269E+04  0.20688797269E+04  0.25500000920E-02 0.  1.
    10030    2    1    2    0    0  0.00000000000E+00  0.00000000000E+00 -0.11894048485E+04  0.29483546054E+04  0.26977974323E+04 0.  0.
        1    1    3    3  502    0  0.12693175079E+04  0.16501651382E+02 -0.96168834595E+02  0.12730623257E+04  0.50400001928E-02 0. -1.
       -1    1    3    3    0  502 -0.12693175079E+04 -0.16501651382E+02 -0.10932360139E+04  0.16752922797E+04  0.50400001928E-02 0.  1.
</event>
<event>
 5   0  0.1826851E-05  0.2686311E+04  0.7818609E-02  0.8339460E-01
       -2   -1    0    0    0  501  0.00000000000E+00  0.00000000000E+00  0.11003317276E+04  0.11003317276E+04  0.25500000920E-02 0. -1.
        2   -1    0    0  501    0  0.00000000000E+00  0.00000000000E+00 -0.16395662138E+04  0.16395662138E+04  0.25500000920E-02 0.  1.
    10030    2    1    2    0    0  0.00000000000E+00  0.00000000000E+00 -0.53923448618E+03  0.27398979414E+04  0.26863110204E+04 0.  0.
        5    1    3    3  502    0 -0.90655742950E+03 -0.98160962659E+03 -0.40887211418E+03  0.13973554765E+04  0.46999998093E+01 0. -1.
       -5    1    3    3    0  502  0.90655742950E+03  0.98160962659E+03 -0.13036237200E+03  0.13425424649E+04  0.46999998093E+01 0.  1.
</event>
<event>
 5   0  0.1826851E-05  0.2710302E+04  0.7818609E-02  0.8331670E-01
        2   -1    0    0  501    0  0.00000000000E+00  0.00000000000E+00  0.12592471241E+04  0.12592471241E+04  0.25500000920E-02 0. -1.
       -2   -1    0    0    0  501  0.00000000000E+00  0.00000000000E+00 -0.14583585870E+04  0.14583585870E+04  0.25500000920E-02 0.  1.
    10030    2    1    2    0    0  0.00000000000E+00  0.00000000000E+00 -0.19911146298E+03  0.27176057111E+04  0.27103017224E+04 0.  0.
        5    1    3    3  502    0 -0.33495196837E+02 -0.13257777611E+04  0.17976844500E+03  0.13383375448E+04  0.46999998093E+01 0.  1.
       -5    1    3    3    0  502  0.33495196837E+02  0.13257777611E+04 -0.37887990797E+03  0.13792681663E+04  0.46999998093E+01 0. -1.
</event>
<event>
 5   0  0.7754912E-06  0.2730214E+04  0.7818609E-02  0.8325268E-01
       -1   -1    0    0    0  501  0.00000000000E+00  0.00000000000E+00  0.13292515121E+04  0.13292515121E+04  0.50400001928E-02 0. -1.
        1   -1    0    0  501    0  0.00000000000E+00  0.00000000000E+00 -0.14019295075E+04  0.14019295075E+04  0.50400001928E-02 0.  1.
    10030    2    1    2    0    0  0.00000000000E+00  0.00000000000E+00 -0.72677995386E+02  0.27311810196E+04  0.27302138508E+04 0.  0.
        4    1    3    3  502    0  0.46342151842E+03 -0.41471339501E+03 -0.12519931701E+04  0.13979396319E+04  0.12699999809E+01 0.  1.
       -4    1    3    3    0  502 -0.46342151842E+03  0.41471339501E+03  0.11793151747E+04  0.13332413877E+04  0.12699999809E+01 0. -1.
</event>
<event>
 5   0  0.7754912E-06  0.2673084E+04  0.7818609E-02  0.8343791E-01
       -1   -1    0    0    0  501  0.00000000000E+00  0.00000000000E+00  0.95127085181E+03  0.95127085182E+03  0.50400001928E-02 0. -1.
        1   -1    0    0  501    0  0.00000000000E+00  0.00000000000E+00 -0.18778506619E+04  0.18778506619E+04  0.50400001928E-02 0.  1.
    10030    2    1    2    0    0  0.00000000000E+00  0.00000000000E+00 -0.92657981010E+03  0.28291215137E+04  0.26730840606E+04 0.  0.
        4    1    3    3  502    0 -0.11784530503E+04  0.52394412796E+03 -0.83458742273E+03  0.15361662735E+04  0.12699999809E+01 0.  1.
       -4    1    3    3    0  502  0.11784530503E+04 -0.52394412796E+03 -0.91992387374E+02  0.12929552402E+04  0.12699999809E+01 0. -1.
</event>
<event>
 5   0  0.6804685E-06  0.2677438E+04  0.7818609E-02  0.8342363E-01
        1   -1    0    0  501    0  0.00000000000E+00  0.00000000000E+00  0.18048989912E+04  0.18048989912E+04  0.50400001928E-02 0.  1.
       -1   -1    0    0    0  501  0.00000000000E+00  0.00000000000E+00 -0.99294683211E+03  0.99294683212E+03  0.50400001928E-02 0. -1.
    10030    2    1    2    0    0  0.00000000000E+00  0.00000000000E+00  0.81195215908E+03  0.27978458233E+04  0.26774381304E+04 0.  0.
        2    1    3    3  502    0  0.12911523090E+04 -0.29467531968E+03  0.61037658370E+03  0.14582412019E+04  0.25500000920E-02 0. -1.
       -2    1    3    3    0  502 -0.12911523090E+04  0.29467531968E+03  0.20157557537E+03  0.13396046214E+04  0.25500000920E-02 0.  1.
</event>
<event>
 5   0  0.1878160E-05  0.2689770E+04  0.7818609E-02  0.8338332E-01
        2   -1    0    0  501    0  0.00000000000E+00  0.00000000000E+00  0.18555524023E+04  0.18555524023E+04  0.25500000920E-02 0.  1.
       -2   -1    0    0    0  501  0.00000000000E+00  0.00000000000E+00 -0.97475863404E+03  0.97475863405E+03  0.25500000920E-02 0. -1.
    10030    2    1    2    0    0  0.00000000000E+00  0.00000000000E+00  0.88079376825E+03  0.28303110363E+04  0.26897700460E+04 0.  0.
        1    1    3    3  502    0 -0.13351016030E+04 -0.15865031709E+03  0.40630801406E+03  0.14045470501E+04  0.50400001928E-02 0.  1.
       -1    1    3    3    0  502  0.13351016030E+04  0.15865031709E+03  0.47448575419E+03  0.14257639863E+04  0.50400001928E-02 0. -1.
</event>
<event>
 5   0  0.1826851E-05  0.2728595E+04  0.7818609E-02  0.8325786E-01
        2   -1    0    0  501    0  0.00000000000E+00  0.00000000000E+00  0.15043994259E+04  0.15043994259E+04  0.25500000920E-02 0.  1.
       -2   -1    0    0    0  501  0.00000000000E+00  0.00000000000E+00 -0.12372427116E+04  0.12372427116E+04  0.25500000920E-02 0. -1.
    10030    2    1    2    0    0  0.00000000000E+00  0.00000000000E+00  0.26715671425E+03  0.27416421375E+04  0.27285946750E+04 0.  0.
        5    1    3    3  502    0  0.10494274274E+03 -0.10963533069E+04 -0.67543106712E+03  0.12919879138E+04  0.46999998093E+01 0. -1.
       -5    1    3    3    0  502 -0.10494274274E+03  0.10963533069E+04  0.94258778137E+03  0.14496542238E+04  0.46999998093E+01 0.  1.
</event>
<event>
 5   0  0.1931119E-05  0.2794704E+04  0.7818609E-02  0.8304914E-01
       -2   -1    0    0    0  501  0.00000000000E+00  0.00000000000E+00  0.10597725134E+04  0.10597725134E+04  0.25500000920E-02 0. -1.
        2   -1    0    0  501    0  0.00000000000E+00  0.00000000000E+00 -0.18424640901E+04  0.18424640901E+04  0.25500000920E-02 0.  1.
    10030    2    1    2    0    0  0.00000000000E+00  0.00000000000E+00 -0.78269157667E+03  0.29022366034E+04  0.27947041343E+04 0.  0.
        3    1    3    3  502    0  0.65055652044E+03  0.97746387161E+03  0.39538785219E+03  0.12389475253E+04  0.10100000352E+00 0. -1.
       -3    1    3    3    0  502 -0.65055652044E+03 -0.97746387161E+03 -0.11780794289E+04  0.16632890781E+04  0.10100000352E+00 0.  1.
</event>
<event>
 5   0  0.7348964E-06  0.2690699E+04  0.7818609E-02  0.8338029E-01
        1   -1    0    0  501    0  0.00000000000E+00  0.00000000000E+00  0.12320443034E+04  0.12320443034E+04  0.50400001928E-02 0. -1.
       -1   -1    0    0    0  501  0.00000000000E+00  0.00000000000E+00 -0.14690746876E+04  0.14690746877E+04  0.50400001928E-02 0.  1.
    10030    2    1    2    0    0  0.00000000000E+00  0.00000000000E+00 -0.23703038427E+03  0.27011189910E+04  0.26906988685E+04 0.  0.
        1    1    3    3  502    0  0.10387847908E+04  0.30724497989E+03 -0.91940915550E+03  0.14208400735E+04  0.50400001928E-02 0.  1.
       -1    1    3    3    0  502 -0.10387847908E+04 -0.30724497989E+03  0.68237877123E+03  0.12802789175E+04  0.50400001928E-02 0. -1.
</event>
<event>
 5   0  0.1878160E-05  0.2660298E+04  0.7818609E-02  0.8348003E-01
        2   -1    0    0  501    0  0.00000000000E+00  0.00000000000E+00  0.16412645349E+04  0.16412645349E+04  0.25500000920E-02 0.  1.
       -2   -1    0    0    0  501  0.00000000000E+00  0.00000000000E+00 -0.10780078856E+04  0.10780078856E+04  0.25500000920E-02 0. -1.
    10030    2    1    2    0    0  0.00000000000E+00  0.00000000000E+00  0.56325664933E+03  0.27192724205E+04  0.26602978111E+04 0.  0.
        1    1    3    3  502    0 -0.12365452302E+04  0.35412456471E+03  0.62803304071E+03  0.14313887710E+04  0.50400001928E-02 0.  1.
       -1    1    3    3    0  502  0.12365452302E+04 -0.35412456471E+03 -0.64776391384E+02  0.12878836494E+04  0.50400001928E-02 0. -1.
</event>
<event>
 5   0  0.7754912E-06  0.2694229E+04  0.7818609E-02  0.8336880E-01
       -1   -1    0    0    0  501  0.00000000000E+00  0.00000000000E+00  0.11133303197E+04  0.11133303197E+04  0.50400001928E-02 0. -1.
        1   -1    0    0  501    0  0.00000000000E+00  0.00000000000E+00 -0.16299899498E+04  0.16299899498E+04  0.50400001928E-02 0.  1.
    10030    2    1    2    0    0  0.00000000000E+00  0.00000000000E+00 -0.51665963007E+03  0.27433202695E+04  0.26942288187E+04 0.  0.
        4    1    3    3  502    0 -0.13190434146E+02 -0.96068841564E+03 -0.12197910744E+04  0.15527356818E+04  0.12699999809E+01 0.  1.
       -4    1    3    3    0  502  0.13190434146E+02  0.96068841564E+03  0.70313144431E+03  0.11905845877E+04  0.12699999809E+01 0. -1.
</event>
<event>
 5   0  0.1931119E-05  0.2715896E+04  0.7818609E-02  0.8329866E-01
        2   -1    0    0  501    0  0.00000000000E+00  0.00000000000E+00  0.17192567435E+04  0.17192567435E+04  0.25500000920E-02 0.  1.
       -2   -1    0    0    0  501  0.00000000000E+00  0.00000000000E+00 -0.10725695762E+04  0.10725695762E+04  0.25500000920E-02 0. -1.
    10030    2    1    2    0    0  0.00000000000E+00  0.00000000000E+00  0.64668716733E+03  0.27918263197E+04  0.27158957836E+04 0.  0.
        3    1    3    3  502    0 -0.12463004813E+03 -0.10361733679E+04  0.12164458410E+04  0.16027876939E+04  0.10100000352E+00 0.  1.
       -3    1    3    3    0  502  0.12463004813E+03  0.10361733679E+04 -0.56975867370E+03  0.11890386259E+04  0.10100000352E+00 0. -1.
</event>
<event>
 5   0  0.1881699E-05  0.2719552E+04  0.7818609E-02  0.8328689E-01
        2   -1    0    0  501    0  0.00000000000E+00  0.00000000000E+00  0.11802714522E+04  0.11802714522E+04  0.25500000920E-02 0.  1.
       -2   -1    0    0    0  501  0.00000000000E+00  0.00000000000E+00 -0.15665813500E+04  0.15665813500E+04  0.25500000920E-02 0. -1.
    10030    2    1    2    0    0  0.00000000000E+00  0.00000000000E+00 -0.38630989777E+03  0.27468528022E+04  0.27195523491E+04 0.  0.
        4    1    3    3  502    0  0.10127352918E+04 -0.86757700179E+03  0.75346301332E+02  0.13356651164E+04  0.12699999809E+01 0.  1.
       -4    1    3    3    0  502 -0.10127352918E+04  0.86757700179E+03 -0.46165619910E+03  0.14111876857E+04  0.12699999809E+01 0. -1.
</event>
<event>
 5   0  0.7348964E-06  0.2345966E+04  0.7818609E-02  0.8460015E-01
        1   -1    0    0  501    0  0.00000000000E+00  0.00000000000E+00  0.18794713685E+04  0.18794713685E+04  0.50400001928E-02 0. -1.
       -1   -1    0    0    0  501  0.00000000000E+00  0.00000000000E+00 -0.73206194536E+03  0.73206194538E+03  0.50400001928E-02 0.  1.
    10030    2    1    2    0    0  0.00000000000E+00  0.00000000000E+00  0.11474094232E+04  0.26115333139E+04  0.23459662967E+04 0.  0.
        1    1    3    3  502    0  0.56823767488E+03  0.28478116692E+03 -0.52374214169E+03  0.82358982461E+03  0.50400001928E-02 0.  1.
       -1    1    3    3    0  502 -0.56823767488E+03 -0.28478116692E+03  0.16711515649E+04  0.17879434893E+04  0.50400001928E-02 0. -1.
</event>
<event>
 5   0  0.1878160E-05  0.2864494E+04  0.7818609E-02  0.8283521E-01
        2   -1    0    0  501    0  0.00000000000E+00  0.00000000000E+00  0.21671186519E+04  0.21671186519E+04  0.25500000920E-02 0.  1.
       -2   -1    0    0    0  501  0.00000000000E+00  0.00000000000E+00 -0.94657082643E+03  0.94657082643E+03  0.25500000920E-02 0. -1.
    10030    2    1    2    0    0  0.00000000000E+00  0.00000000000E+00  0.12205478255E+04  0.31136894784E+04  0.28644938774E+04 0.  0.
        1    1    3    3  502    0  0.98636081191E+03  0.94558516844E+03  0.10769129128E+04  0.17397644622E+04  0.50400001928E-02 0.  1.
       -1    1    3    3    0  502 -0.98636081191E+03 -0.94558516844E+03  0.14363491273E+03  0.13739250162E+04  0.50400001928E-02 0. -1.
</event>
<event>
 5   0  0.7600052E-06  0.2706457E+04  0.7818609E-02  0.8332913E-01
       -1   -1    0    0    0  501  0.00000000000E+00  0.00000000000E+00  0.12339213884E+04  0.12339213884E+04  0.50400001928E-02 0. -1.
        1   -1    0    0  501    0  0.00000000000E+00  0.00000000000E+00 -0.14840711938E+04  0.14840711938E+04  0.50400001928E-02 0.  1.
    10030    2    1    2    0    0  0.00000000000E+00  0.00000000000E+00 -0.25014980540E+03  0.27179925821E+04  0.27064568630E+04 0.  0.
        5    1    3    3  502    0 -0.12424967003E+04 -0.38042561483E+03 -0.50441948083E+03  0.13939091797E+04  0.46999998093E+01 0.  1.
       -5    1    3    3    0  502  0.12424967003E+04  0.38042561483E+03  0.25426967543E+03  0.13240834024E+04  0.46999998093E+01 0. -1.
</event>
<event>
 5   0  0.7600052E-06  0.2705821E+04  0.7818609E-02  0.8333119E-01
        1   -1    0    0  501    0  0.00000000000E+00  0.00000000000E+00  0.12606418714E+04  0.12606418714E+04  0.50400001928E-02 0. -1.
       -1   -1    0    0    0  501  0.00000000000E+00  0.00000000000E+00 -0.14519319169E+04  0.14519319170E+04  0.50400001928E-02 0.  1.
    10030    2    1    2    0    0  0.00000000000E+00  0.00000000000E+00 -0.19129004554E+03  0.27125737884E+04  0.27058205180E+04 0.  0.
        5    1    3    3  502    0 -0.29850521495E+03  0.11615438364E+04 -0.72335042976E+03  0.14005525272E+04  0.46999998093E+01 0.  1.
       -5    1    3    3    0  502  0.29850521495E+03 -0.11615438364E+04  0.53206038422E+03  0.13120212611E+04  0.46999998093E+01 0. -1.
</event>
<event>
 5   0  0.7348964E-06  0.2742227E+04  0.7818609E-02  0.8321432E-01
        1   -1    0    0  501    0  0.00000000000E+00  0.00000000000E+00  0.14047359002E+04  0.14047359002E+04  0.50400001928E-02 0. -1.
       -1   -1    0    0    0  501  0.00000000000E+00  0.00000000000E+00 -0.13382955791E+04  0.13382955792E+04  0.50400001928E-02 0.  1.
    10030    2    1    2    0    0  0.00000000000E+00  0.00000000000E+00  0.66440321013E+02  0.27430314793E+04  0.27422267193E+04 0.  0.
        1    1    3    3  502    0 -0.42925204524E+03  0.31025829371E+03  0.12982787465E+04  0.14021573488E+04  0.50400001928E-02 0. -1.
       -1    1    3    3    0  502  0.42925204524E+03 -0.31025829371E+03 -0.12318384255E+04  0.13408741305E+04  0.50400001928E-02 0.  1.
</event>
<event>
 5   0  0.7351590E-06  0.2725373E+04  0.7818609E-02  0.8326819E-01
       -1   -1    0    0    0  501  0.00000000000E+00  0.00000000000E+00  0.17761715138E+04  0.17761715138E+04  0.50400001928E-02 0. -1.
        1   -1    0    0  501    0  0.00000000000E+00  0.00000000000E+00 -0.10454587500E+04  0.10454587500E+04  0.50400001928E-02 0.  1.
    10030    2    1    2    0    0  0.00000000000E+00  0.00000000000E+00  0.73071276380E+03  0.28216302638E+04  0.27253726722E+04 0.  0.
        3    1    3    3  502    0  0.56373647468E+03 -0.51692923533E+03  0.15329738617E+04  0.17131910338E+04  0.10100000352E+00 0. -1.
       -3    1    3    3    0  502 -0.56373647468E+03  0.51692923533E+03 -0.80226109791E+03  0.11084392300E+04  0.10100000352E+00 0.  1.
</event>
<event>
 5   0  0.7351590E-06  0.2723703E+04  0.7818609E-02  0.8327355E-01
       -1   -1    0    0    0  501  0.00000000000E+00  0.00000000000E+00  0.21689388196E+04  0.21689388196E+04  0.50400001928E-02 0.  1.
        1   -1    0    0  501    0  0.00000000000E+00  0.00000000000E+00 -0.85509098080E+03  0.85509098081E+03  0.50400001928E-02 0. -1.
    10030    2    1    2    0    0  0.00000000000E+00  0.00000000000E+00  0.13138478388E+04  0.30240298004E+04  0.27237033778E+04 0.  0.
        3    1    3    3  502    0 -0.12198672103E+03 -0.48360578648E+03  0.20638893822E+04  0.21232980735E+04  0.10100000352E+00 0.  1.
       -3    1    3    3    0  502  0.12198672103E+03  0.48360578648E+03 -0.75004154340E+03  0.90073172690E+03  0.10100000352E+00 0. -1.
</event>
<event>
 5   0  0.7754912E-06  0.2657624E+04  0.7818609E-02  0.8348887E-01
       -1   -1    0    0    0  501  0.00000000000E+00  0.00000000000E+00  0.15670195157E+04  0.15670195157E+04  0.50400001928E-02 0.  1.
        1   -1    0    0  501    0  0.00000000000E+00  0.00000000000E+00 -0.11268148623E+04  0.11268148623E+04  0.50400001928E-02 0. -1.
    10030    2    1    2    0    0  0.00000000000E+00  0.00000000000E+00  0.44020465339E+03  0.26938343780E+04  0.26576236602E+04 0.  0.
        4    1    3    3  502    0 -0.12542959717E+04 -0.73294526236E+02 -0.21835215135E+03  0.12752685000E+04  0.12699999809E+01 0. -1.
       -4    1    3    3    0  502  0.12542959717E+04  0.73294526236E+02  0.65855680474E+03  0.14185658780E+04  0.12699999809E+01 0.  1.
</event>
<event>
 5   0  0.7351590E-06  0.2724109E+04  0.7818609E-02  0.8327224E-01
       -1   -1    0    0    0  501  0.00000000000E+00  0.00000000000E+00  0.10553494373E+04  0.10553494373E+04  0.50400001928E-02 0. -1.
        1   -1    0    0  501    0  0.00000000000E+00  0.00000000000E+00 -0.17578945792E+04  0.17578945792E+04  0.50400001928E-02 0.  1.
    10030    2    1    2    0    0  0.00000000000E+00  0.00000000000E+00 -0.70254514186E+03  0.28132440165E+04  0.27241094361E+04 0.  0.
        3    1    3    3  502    0  0.10102878305E+04  0.88850681029E+03 -0.57050919430E+03  0.14613714803E+04  0.10100000352E+00 0.  1.
       -3    1    3    3    0  502 -0.10102878305E+04 -0.88850681029E+03 -0.13203594756E+03  0.13518725362E+04  0.10100000352E+00 0. -1.
</event>
<event>
 5   0  0.7348964E-06  0.2783800E+04  0.7818609E-02  0.8308315E-01
       -1   -1    0    0    0  501  0.00000000000E+00  0.00000000000E+00  0.12489289916E+04  0.12489289916E+04  0.50400001928E-02 0.  1.
        1   -1    0    0  501    0  0.00000000000E+00  0.00000000000E+00 -0.15512381059E+04  0.15512381059E+04  0.50400001928E-02 0. -1.
    10030    2    1    2    0    0  0.00000000000E+00  0.00000000000E+00 -0.30230911437E+03  0.28001670975E+04  0.27838004550E+04 0.  0.
        1    1    3    3  502    0  0.15285897131E+03  0.97666125766E+03  0.83448041779E+03  0.12936733146E+04  0.50400001928E-02 0.  1.
       -1    1    3    3    0  502 -0.15285897131E+03 -0.97666125766E+03 -0.11367895322E+04  0.15064937829E+04  0.50400001928E-02 0. -1.
</event>
<event>
 5   0  0.7600052E-06  0.2710245E+04  0.7818609E-02  0.8331688E-01
       -1   -1    0    0    0  501  0.00000000000E+00  0.00000000000E+00  0.13184511476E+04  0.13184511477E+04  0.50400001928E-02 0.  1.
        1   -1    0    0  501    0  0.00000000000E+00  0.00000000000E+00 -0.13928140662E+04  0.13928140662E+04  0.50400001928E-02 0. -1.
    10030    2    1    2    0    0  0.00000000000E+00  0.00000000000E+00 -0.74362918582E+02  0.27112652139E+04  0.27102452318E+04 0.  0.
        5    1    3    3  502    0 -0.10235411139E+04 -0.57917077284E+03  0.63631779449E+03  0.13371602827E+04  0.46999998093E+01 0.  1.
       -5    1    3    3    0  502  0.10235411139E+04  0.57917077284E+03 -0.71068071307E+03  0.13741049312E+04  0.46999998093E+01 0. -1.
</event>
<event>
 5   0  0.1931119E-05  0.2787283E+04  0.7818609E-02  0.8307227E-01
        2   -1    0    0  501    0  0.00000000000E+00  0.00000000000E+00  0.24326072910E+04  0.24326072910E+04  0.25500000920E-02 0.  1.
       -2   -1    0    0    0  501  0.00000000000E+00  0.00000000000E+00 -0.79841787931E+03  0.79841787931E+03  0.25500000920E-02 0. -1.
    10030    2    1    2    0    0  0.00000000000E+00  0.00000000000E+00  0.16341894117E+04  0.32310251703E+04  0.27872833760E+04 0.  0.
        3    1    3    3  502    0  0.69224549362E+03  0.12151813945E+01 -0.58502827096E+03  0.90634617455E+03  0.10100000352E+00 0. -1.
       -3    1    3    3    0  502 -0.69224549362E+03 -0.12151813945E+01  0.22192176827E+04  0.23246789958E+04  0.10100000352E+00 0.  1.
</event>
<event>
 5   0  0.1788003E-05  0.2717816E+04  0.7818609E-02  0.8329248E-01
        2   -1    0    0  501    0  0.00000000000E+00  0.00000000000E+00  0.13874291376E+04  0.13874291377E+04  0.25500000920E-02 0. -1.
       -2   -1    0    0    0  501  0.00000000000E+00  0.00000000000E+00 -0.13309726823E+04  0.13309726823E+04  0.25500000920E-02 0.  1.
    10030    2    1    2    0    0  0.00000000000E+00  0.00000000000E+00  0.56456455392E+02  0.27184018199E+04  0.27178155057E+04 0.  0.
        2    1    3    3  502    0  0.86475089013E+03  0.49081688042E+03  0.95467583720E+03  0.13784416078E+04  0.25500000920E-02 0. -1.
       -2    1    3    3    0  502 -0.86475089013E+03 -0.49081688042E+03 -0.89821938181E+03  0.13399602121E+04  0.25500000920E-02 0.  1.
</event>
<event>
 5   0  0.7600052E-06  0.2703781E+04  0.7818609E-02  0.8333779E-01
        1   -1    0    0  501    0  0.00000000000E+00  0.00000000000E+00  0.13773333035E+04  0.13773333035E+04  0.50400001928E-02 0.  1.
       -1   -1    0    0    0  501  0.00000000000E+00  0.00000000000E+00 -0.13269173835E+04  0.13269173835E+04  0.50400001928E-02 0. -1.
    10030    2    1    2    0    0  0.00000000000E+00  0.00000000000E+00  0.50415919945E+02  0.27042506870E+04  0.27037806888E+04 0.  0.
        5    1    3    3  502    0  0.17809532731E+03  0.13364437553E+04  0.12414712866E+03  0.13539698875E+04  0.46999998093E+01 0. -1.
       -5    1    3    3    0  502 -0.17809532731E+03 -0.13364437553E+04 -0.73731208715E+02  0.13502807996E+04  0.46999998093E+01 0.  1.
</event>
<event>
 5   0  0.1931119E-05  0.2459892E+04  0.7818609E-02  0.8417415E-01
        2   -1    0    0  501    0  0.00000000000E+00  0.00000000000E+00  0.17113425383E+04  0.17113425383E+04  0.25500000920E-02 0.  1.
       -2   -1    0    0    0  501  0.00000000000E+00  0.00000000000E+00 -0.88396484114E+03  0.88396484114E+03  0.25500000920E-02 0. -1.
    10030    2    1    2    0    0  0.00000000000E+00  0.00000000000E+00  0.82737769719E+03  0.25953073795E+04  0.24598915708E+04 0.  0.
        3    1    3    3  502    0  0.65907351755E+01  0.10093337796E+04  0.11552081647E+04  0.15340482490E+04  0.10100000352E+00 0.  1.
       -3    1    3    3    0  502 -0.65907351755E+01 -0.10093337796E+04 -0.32783046748E+03  0.10612591305E+04  0.10100000352E+00 0. -1.
</event>
<event>
 5   0  0.1878160E-05  0.2893865E+04  0.7818609E-02  0.8274705E-01
        2   -1    0    0  501    0  0.00000000000E+00  0.00000000000E+00  0.17057342199E+04  0.17057342199E+04  0.25500000920E-02 0.  1.
       -2   -1    0    0    0  501  0.00000000000E+00  0.00000000000E+00 -0.12273970932E+04  0.12273970932E+04  0.25500000920E-02 0. -1.
    10030    2    1    2    0    0  0.00000000000E+00  0.00000000000E+00  0.47833712673E+03  0.29331313130E+04  0.28938646984E+04 0.  0.
        1    1    3    3  502    0 -0.84510269277E+02  0.94025725525E+03  0.13505816760E+04  0.16478156921E+04  0.50400001928E-02 0.  1.
       -1    1    3    3    0  502  0.84510269277E+02 -0.94025725525E+03 -0.87224454926E+03  0.12853156209E+04  0.50400001928E-02 0. -1.
</event>
<event>
 5   0  0.1881699E-05  0.2699991E+04  0.7818609E-02  0.8335008E-01
       -2   -1    0    0    0  501  0.00000000000E+00  0.00000000000E+00  0.77476437875E+03  0.77476437876E+03  0.25500000920E-02 0.  1.
        2   -1    0    0  501    0  0.00000000000E+00  0.00000000000E+00 -0.23523125198E+04  0.23523125198E+04  0.25500000920E-02 0. -1.
    10030    2    1    2    0    0  0.00000000000E+00  0.00000000000E+00 -0.15775481411E+04  0.31270768986E+04  0.26999910726E+04 0.  0.
        4    1    3    3  502    0 -0.72265075457E+03  0.10534227980E+04 -0.12943601443E+04  0.18185965744E+04  0.12699999809E+01 0.  1.
       -4    1    3    3    0  502  0.72265075457E+03 -0.10534227980E+04 -0.28318799679E+03  0.13084803242E+04  0.12699999809E+01 0. -1.
</event>
<event>
 5   0  0.1788003E-05  0.2691545E+04  0.7818609E-02  0.8337754E-01
        2   -1    0    0  501    0  0.00000000000E+00  0.00000000000E+00  0.10232751404E+04  0.10232751404E+04  0.25500000920E-02 0. -1.
       -2   -1    0    0    0  501  0.00000000000E+00  0.00000000000E+00 -0.17699088544E+04  0.17699088544E+04  0.25500000920E-02 0.  1.
    10030    2    1    2    0    0  0.00000000000E+00  0.00000000000E+00 -0.74663371402E+03  0.27931839948E+04  0.26915450815E+04 0.  0.
        2    1    3    3  502    0  0.74399289052E+03 -0.11175342550E+04 -0.47008783809E+03  0.14224594222E+04  0.25500000920E-02 0. -1.
       -2    1    3    3    0  502 -0.74399289052E+03  0.11175342550E+04 -0.27654587593E+03  0.13707245726E+04  0.25500000920E-02 0.  1.
</event>
<event>
 5   0  0.7600052E-06  0.2691152E+04  0.7818609E-02  0.8337881E-01
       -1   -1    0    0    0  501  0.00000000000E+00  0.00000000000E+00  0.12962478885E+04  0.12962478885E+04  0.50400001928E-02 0.  1.
        1   -1    0    0  501    0  0.00000000000E+00  0.00000000000E+00 -0.13967815947E+04  0.13967815947E+04  0.50400001928E-02 0. -1.
    10030    2    1    2    0    0  0.00000000000E+00  0.00000000000E+00 -0.10053370615E+03  0.26930294832E+04  0.26911523130E+04 0.  0.
        5    1    3    3  502    0 -0.77137915780E+02  0.59835407362E+03 -0.12538423688E+04  0.13914455186E+04  0.46999998093E+01 0. -1.
       -5    1    3    3    0  502  0.77137915780E+02 -0.59835407362E+03  0.11533086627E+04  0.13015839646E+04  0.46999998093E+01 0.  1.
</event>
<event>
 5   0  0.1788003E-05  0.2705218E+04  0.7818609E-02  0.8333314E-01
        2   -1    0    0  501    0  0.00000000000E+00  0.00000000000E+00  0.93417114066E+03  0.93417114067E+03  0.25500000920E-02 0. -1.
       -2   -1    0    0    0  501  0.00000000000E+00  0.00000000000E+00 -0.19584758049E+04  0.19584758049E+04  0.25500000920E-02 0.  1.
    10030    2    1    2    0    0  0.00000000000E+00  0.00000000000E+00 -0.10243046642E+04  0.28926469456E+04  0.27052183473E+04 0.  0.
        2    1    3    3  502    0  0.60390070090E+03  0.70954445734E+02 -0.18040940060E+04  0.19038082289E+04  0.25500000920E-02 0.  1.
       -2    1    3    3    0  502 -0.60390070090E+03 -0.70954445734E+02  0.77978934180E+03  0.98883871663E+03  0.25500000920E-02 0. -1.
</event>
<event>
 5   0  0.7600052E-06  0.2703178E+04  0.7818609E-02  0.8333975E-01
        1   -1    0    0  501    0  0.00000000000E+00  0.00000000000E+00  0.18943852802E+04  0.18943852802E+04  0.50400001928E-02 0.  1.
       -1   -1    0    0    0  501  0.00000000000E+00  0.00000000000E+00 -0.96431962238E+03  0.96431962240E+03  0.50400001928E-02 0. -1.
    10030    2    1    2    0    0  0.00000000000E+00  0.00000000000E+00  0.93006565782E+03  0.28587049026E+04  0.27031780541E+04 0.  0.
        5    1    3    3  502    0 -0.24774032841E+02  0.94976784043E+03 -0.55157561657E+03  0.10986038659E+04  0.46999998093E+01 0. -1.
       -5    1    3    3    0  502  0.24774032841E+02 -0.94976784043E+03  0.14816412744E+04  0.17601010367E+04  0.46999998093E+01 0.  1.
</event>
<event>
 5   0  0.7754912E-06  0.2687908E+04  0.7818609E-02  0.8338939E-01
       -1   -1    0    0    0  501  0.00000000000E+00  0.00000000000E+00  0.86458774169E+03  0.86458774170E+03  0.50400001928E-02 0.  1.
        1   -1    0    0  501    0  0.00000000000E+00  0.00000000000E+00 -0.20891024409E+04  0.20891024409E+04  0.50400001928E-02 0. -1.
    10030    2    1    2    0    0  0.00000000000E+00  0.00000000000E+00 -0.12245146992E+04  0.29536901826E+04  0.26879080056E+04 0.  0.
        4    1    3    3  502    0  0.94962760540E+03  0.22973060183E+03 -0.16263533666E+04  0.18972600307E+04  0.12699999809E+01 0. -1.
       -4    1    3    3    0  502 -0.94962760540E+03 -0.22973060183E+03  0.40183866735E+03  0.10564301519E+04  0.12699999809E+01 0.  1.
</event>
<event>
 5   0  0.6804685E-06  0.2715759E+04  0.7818609E-02  0.8329910E-01
        1   -1    0    0  501    0  0.00000000000E+00  0.00000000000E+00  0.10292697943E+04  0.10292697943E+04  0.50400001928E-02 0.  1.
       -1   -1    0    0    0  501  0.00000000000E+00  0.00000000000E+00 -0.17914033250E+04  0.17914033250E+04  0.50400001928E-02 0. -1.
    10030    2    1    2    0    0  0.00000000000E+00  0.00000000000E+00 -0.76213353066E+03  0.28206731193E+04  0.27157594384E+04 0.  0.
        2    1    3    3  502    0  0.11108214562E+04 -0.34328588152E+03 -0.11096412332E+04  0.16071941919E+04  0.25500000920E-02 0. -1.
       -2    1    3    3    0  502 -0.11108214562E+04  0.34328588152E+03  0.34750770259E+03  0.12134789274E+04  0.25500000920E-02 0.  1.
</event>
<event>
 5   0  0.7754912E-06  0.2417456E+04  0.7818609E-02  0.8432997E-01
        1   -1    0    0  501    0  0.00000000000E+00  0.00000000000E+00  0.10382858698E+04  0.10382858698E+04  0.50400001928E-02 0.  1.
       -1   -1    0    0    0  501  0.00000000000E+00  0.00000000000E+00 -0.14071491551E+04  0.14071491551E+04  0.50400001928E-02 0. -1.
    10030    2    1    2    0    0  0.00000000000E+00  0.00000000000E+00 -0.36886328525E+03  0.24454350249E+04  0.24174557572E+04 0.  0.
        4    1    3    3  502    0 -0.47299133374E+03  0.75232587388E+03  0.64438412236E+03  0.10977010214E+04  0.12699999809E+01 0.  1.
       -4    1    3    3    0  502  0.47299133374E+03 -0.75232587388E+03 -0.10132474076E+04  0.13477340035E+04  0.12699999809E+01 0. -1.
</event>
<event>
 5   0  0.1878160E-05  0.2336591E+04  0.7818609E-02  0.8463632E-01
       -2   -1    0    0    0  501  0.00000000000E+00  0.00000000000E+00  0.19978590867E+04  0.19978590867E+04  0.25500000920E-02 0.  1.
        2   -1    0    0  501    0  0.00000000000E+00  0.00000000000E+00 -0.68318824178E+03  0.68318824178E+03  0.25500000920E-02 0. -1.
    10030    2    1    2    0    0  0.00000000000E+00  0.00000000000E+00  0.13146708449E+04  0.26810473285E+04  0.23365905390E+04 0.  0.
        1    1    3    3  502    0  0.54548794841E+03 -0.10233743154E+04  0.81985520208E+03  0.14202164073E+04  0.50400001928E-02 0.  1.
       -1    1    3    3    0  502 -0.54548794841E+03  0.10233743154E+04  0.49481564283E+03  0.12608309211E+04  0.50400001928E-02 0. -1.
</event>
<event>
 5   0  0.1881699E-05  0.2636054E+04  0.7818609E-02  0.8356057E-01
        2   -1    0    0  501    0  0.00000000000E+00  0.00000000000E+00  0.20993123445E+04  0.20993123445E+04  0.25500000920E-02 0.  1.
       -2   -1    0    0    0  501  0.00000000000E+00  0.00000000000E+00 -0.82750673050E+03  0.82750673050E+03  0.25500000920E-02 0. -1.
    10030    2    1    2    0    0  0.00000000000E+00  0.00000000000E+00  0.12718056140E+04  0.29268190750E+04  0.26360539406E+04 0.  0.
        4    1    3    3  502    0  0.10218250979E+04  0.31089404235E+03 -0.22155886054E+03  0.10908123476E+04  0.12699999809E+01 0. -1.
       -4    1    3    3    0  502 -0.10218250979E+04 -0.31089404235E+03  0.14933644745E+04  0.18360067273E+04  0.12699999809E+01 0.  1.
</event>
<event>
 5   0  0.7351590E-06  0.2782457E+04  0.7818609E-02  0.8308735E-01
        1   -1    0    0  501    0  0.00000000000E+00  0.00000000000E+00  0.22312545469E+04  0.22312545469E+04  0.50400001928E-02 0. -1.
       -1   -1    0    0    0  501  0.00000000000E+00  0.00000000000E+00 -0.86745690839E+03  0.86745690840E+03  0.50400001928E-02 0.  1.
    10030    2    1    2    0    0  0.00000000000E+00  0.00000000000E+00  0.13637976385E+04  0.30987114553E+04  0.27824573105E+04 0.  0.
        3    1    3    3  502    0  0.27546230854E+03  0.29017807565E+02  0.22002367821E+04  0.22176030808E+04  0.10100000352E+00 0. -1.
       -3    1    3    3    0  502 -0.27546230854E+03 -0.29017807565E+02 -0.83643914355E+03  0.88110837452E+03  0.10100000352E+00 0.  1.
</event>
<event>
 5   0  0.1931119E-05  0.2676436E+04  0.7818609E-02  0.8342691E-01
        2   -1    0    0  501    0  0.00000000000E+00  0.00000000000E+00  0.15943133909E+04  0.15943133909E+04  0.25500000920E-02 0. -1.
       -2   -1    0    0    0  501  0.00000000000E+00  0.00000000000E+00 -0.11232593185E+04  0.11232593185E+04  0.25500000920E-02 0.  1.
    10030    2    1    2    0    0  0.00000000000E+00  0.00000000000E+00  0.47105407236E+03  0.27175727094E+04  0.26764359682E+04 0.  0.
        3    1    3    3  502    0  0.69122457834E+03  0.88300372856E+03 -0.50599923138E+03  0.12302529149E+04  0.10100000352E+00 0.  1.
       -3    1    3    3    0  502 -0.69122457834E+03 -0.88300372856E+03  0.97705330374E+03  0.14873197944E+04  0.10100000352E+00 0. -1.
</event>
<event>
 5   0  0.7351590E-06  0.2768864E+04  0.7818609E-02  0.8313001E-01
        1   -1    0    0  501    0  0.00000000000E+00  0.00000000000E+00  0.12436144362E+04  0.12436144362E+04  0.50400001928E-02 0.  1.
       -1   -1    0    0    0  501  0.00000000000E+00  0.00000000000E+00 -0.15411944365E+04  0.15411944365E+04  0.50400001928E-02 0. -1.
    10030    2    1    2    0    0  0.00000000000E+00  0.00000000000E+00 -0.29758000033E+03  0.27848088728E+04  0.27688637744E+04 0.  0.
        3    1    3    3  502    0 -0.88851378457E+03 -0.38418691200E+03  0.84665473393E+03  0.12860328835E+04  0.10100000352E+00 0.  1.
       -3    1    3    3    0  502  0.88851378457E+03  0.38418691200E+03 -0.11442347343E+04  0.14987759893E+04  0.10100000352E+00 0. -1.
</event>
<event>
 5   0  0.6804685E-06  0.2542299E+04  0.7818609E-02  0.8388069E-01
        1   -1    0    0  501    0  0.00000000000E+00  0.00000000000E+00  0.18126911332E+04  0.18126911332E+04  0.50400001928E-02 0.  1.
       -1   -1    0    0    0  501  0.00000000000E+00  0.00000000000E+00 -0.89139340335E+03  0.89139340336E+03  0.50400001928E-02 0. -1.
    10030    2    1    2    0    0  0.00000000000E+00  0.00000000000E+00  0.92129772989E+03  0.27040845366E+04  0.25422988955E+04 0.  0.
        2    1    3    3  502    0 -0.37749853427E+03  0.78895144659E+03 -0.52047901385E+03  0.10177661481E+04  0.25500000920E-02 0. -1.
       -2    1    3    3    0  502  0.37749853427E+03 -0.78895144659E+03  0.14417767437E+04  0.16863183885E+04  0.25500000920E-02 0.  1.
</event>
<event>
 5   0  0.1788003E-05  0.2744106E+04  0.7818609E-02  0.8320834E-01
        2   -1    0    0  501    0  0.00000000000E+00  0.00000000000E+00  0.17273248184E+04  0.17273248184E+04  0.25500000920E-02 0. -1.
       -2   -1    0    0    0  501  0.00000000000E+00  0.00000000000E+00 -0.10898528674E+04  0.10898528674E+04  0.25500000920E-02 0.  1.
    10030    2    1    2    0    0  0.00000000000E+00  0.00000000000E+00  0.63747195098E+03  0.28171776857E+04  0.27441063436E+04 0.  0.
        2    1    3    3  502    0 -0.71703046028E+03 -0.78485776043E+03  0.12092410586E+04  0.16100926442E+04  0.25500000920E-02 0. -1.
       -2    1    3    3    0  502  0.71703046028E+03  0.78485776043E+03 -0.57176910763E+03  0.12070850415E+04  0.25500000920E-02 0.  1.
</event>
<event>
 5   0  0.6175875E-06  0.2704351E+04  0.7818609E-02  0.8333595E-01
       -3   -1    0    0    0  501  0.00000000000E+00  0.00000000000E+00  0.11814735217E+04  0.11814735261E+04  0.10100000352E+00 0. -1.
        3   -1    0    0  501    0  0.00000000000E+00  0.00000000000E+00 -0.15475404613E+04  0.15475404646E+04  0.10100000352E+00 0.  1.
    10030    2    1    2    0    0  0.00000000000E+00  0.00000000000E+00 -0.36606693960E+03  0.27290139907E+04  0.27043506350E+04 0.  0.
        1    1    3    3  502    0  0.82983438623E+03  0.43494070327E+03  0.80083490146E+03  0.12325319725E+04  0.50400001928E-02 0. -1.
       -1    1    3    3    0  502 -0.82983438623E+03 -0.43494070327E+03 -0.11669018411E+04  0.14964820181E+04  0.50400001928E-02 0.  1.
</event>
<event>
 5   0  0.7348964E-06  0.2629567E+04  0.7818609E-02  0.8358227E-01
       -1   -1    0    0    0  501  0.00000000000E+00  0.00000000000E+00  0.10587652411E+04  0.10587652411E+04  0.50400001928E-02 0. -1.
        1   -1    0    0  501    0  0.00000000000E+00  0.00000000000E+00 -0.16327092002E+04  0.16327092002E+04  0.50400001928E-02 0.  1.
    10030    2    1    2    0    0  0.00000000000E+00  0.00000000000E+00 -0.57394395909E+03  0.26914744413E+04  0.26295670747E+04 0.  0.
        1    1    3    3  502    0  0.27993440677E+03 -0.12310185730E+04  0.88942490908E+02  0.12655752707E+04  0.50400001928E-02 0. -1.
       -1    1    3    3    0  502 -0.27993440677E+03  0.12310185730E+04 -0.66288645000E+03  0.14258991706E+04  0.50400001928E-02 0.  1.
</event>
<event>
 5   0  0.1881699E-05  0.2680548E+04  0.7818609E-02  0.8341344E-01
        2   -1    0    0  501    0  0.00000000000E+00  0.00000000000E+00  0.23111633272E+04  0.23111633272E+04  0.25500000920E-02 0.  1.
       -2   -1    0    0    0  501  0.00000000000E+00  0.00000000000E+00 -0.77724223872E+03  0.77724223873E+03  0.25500000920E-02 0. -1.
    10030    2    1    2    0    0  0.00000000000E+00  0.00000000000E+00  0.15339210885E+04  0.30884055659E+04  0.26805475250E+04 0.  0.
        4    1    3    3  502    0  0.12600733160E+04  0.62373034982E+02  0.12881841837E+04  0.18030793830E+04  0.12699999809E+01 0. -1.
       -4    1    3    3    0  502 -0.12600733160E+04 -0.62373034982E+02  0.24573690476E+03  0.12853261829E+04  0.12699999809E+01 0.  1.
</event>
<event>
 5   0  0.7348964E-06  0.2697600E+04  0.7818609E-02  0.8335784E-01
       -1   -1    0    0    0  501  0.00000000000E+00  0.00000000000E+00  0.19060381060E+04  0.19060381060E+04  0.50400001928E-02 0. -1.
        1   -1    0    0  501    0  0.00000000000E+00  0.00000000000E+00 -0.95447291713E+03  0.95447291714E+03  0.50400001928E-02 0.  1.
    10030    2    1    2    0    0  0.00000000000E+00  0.00000000000E+00  0.95156518890E+03  0.28605110232E+04  0.26976002308E+04 0.  0.
        1    1    3    3  502    0 -0.16526991718E+03  0.12537755819E+04  0.97314372841E+03  0.15957055090E+04  0.50400001928E-02 0. -1.
       -1    1    3    3    0  502  0.16526991718E+03 -0.12537755819E+04 -0.21578539509E+02  0.12648055142E+04  0.50400001928E-02 0.  1.
</event>
<event>
 5   0  0.1881699E-05  0.2647052E+04  0.7818609E-02  0.8352392E-01
       -2   -1    0    0    0  501  0.00000000000E+00  0.00000000000E+00  0.13890595537E+04  0.13890595537E+04  0.25500000920E-02 0.  1.
        2   -1    0    0  501    0  0.00000000000E+00  0.00000000000E+00 -0.12610844471E+04  0.12610844471E+04  0.25500000920E-02 0. -1.
    10030    2    1    2    0    0  0.00000000000E+00  0.00000000000E+00  0.12797510662E+03  0.26501440007E+04  0.26470522467E+04 0.  0.
        4    1    3    3  502    0  0.11747474032E+04 -0.32765415413E+03 -0.45074433581E+03  0.13002156649E+04  0.12699999809E+01 0. -1.
       -4    1    3    3    0  502 -0.11747474032E+04  0.32765415413E+03  0.57871944243E+03  0.13499283359E+04  0.12699999809E+01 0.  1.
</event>
<event>
 5   0  0.1826851E-05  0.2514099E+04  0.7818609E-02  0.8397980E-01
        2   -1    0    0  501    0  0.00000000000E+00  0.00000000000E+00  0.16506622422E+04  0.16506622422E+04  0.25500000920E-02 0.  1.
       -2   -1    0    0    0  501  0.00000000000E+00  0.00000000000E+00 -0.95729665668E+03  0.95729665668E+03  0.25500000920E-02 0. -1.
    10030    2    1    2    0    0  0.00000000000E+00  0.00000000000E+00  0.69336558553E+03  0.26079588989E+04  0.25140990003E+04 0.  0.
        5    1    3    3  502    0 -0.94177166587E+03 -0.72969648938E+03 -0.69235542837E+02  0.11934012266E+04  0.46999998093E+01 0. -1.
       -5    1    3    3    0  502  0.94177166587E+03  0.72969648938E+03  0.76260112837E+03  0.14145576723E+04  0.46999998093E+01 0.  1.
</event>
<event>
 5   0  0.7754912E-06  0.2632846E+04  0.7818609E-02  0.8357129E-01
       -1   -1    0    0    0  501  0.00000000000E+00  0.00000000000E+00  0.22270731132E+04  0.22270731132E+04  0.50400001928E-02 0. -1.
        1   -1    0    0  501    0  0.00000000000E+00  0.00000000000E+00 -0.77813747098E+03  0.77813747099E+03  0.50400001928E-02 0.  1.
    10030    2    1    2    0    0  0.00000000000E+00  0.00000000000E+00  0.14489356422E+04  0.30052105842E+04  0.26328456392E+04 0.  0.
        4    1    3    3  502    0  0.24532989016E+03 -0.10119059626E+04  0.16438878651E+04  0.19458955157E+04  0.12699999809E+01 0. -1.
       -4    1    3    3    0  502 -0.24532989016E+03  0.10119059626E+04 -0.19495222292E+03  0.10593150685E+04  0.12699999809E+01 0.  1.
</event>
<event>
 5   0  0.1826851E-05  0.2734455E+04  0.7818609E-02  0.8323911E-01
       -2   -1    0    0    0  501  0.00000000000E+00  0.00000000000E+00  0.96729487611E+03  0.96729487611E+03  0.25500000920E-02 0.  1.
        2   -1    0    0  501    0  0.00000000000E+00  0.00000000000E+00 -0.19325146030E+04  0.19325146030E+04  0.25500000920E-02 0. -1.
    10030    2    1    2    0    0  0.00000000000E+00  0.00000000000E+00 -0.96521972691E+03  0.28998094791E+04  0.27344553194E+04 0.  0.
        5    1    3    3  502    0 -0.29774701986E+02 -0.12549401407E+04  0.91934370985E+02  0.12586640967E+04  0.46999998093E+01 0.  1.
       -5    1    3    3    0  502  0.29774701986E+02  0.12549401407E+04 -0.10571540979E+04  0.16411453825E+04  0.46999998093E+01 0. -1.
</event>
<event>
 5   0  0.6804685E-06  0.2716245E+04  0.7818609E-02  0.8329753E-01
        1   -1    0    0  501    0  0.00000000000E+00  0.00000000000E+00  0.20106877262E+04  0.20106877262E+04  0.50400001928E-02 0.  1.
       -1   -1    0    0    0  501  0.00000000000E+00  0.00000000000E+00 -0.91734623485E+03  0.91734623487E+03  0.50400001928E-02 0. -1.
    10030    2    1    2    0    0  0.00000000000E+00  0.00000000000E+00  0.10933414913E+04  0.29280339610E+04  0.27162450663E+04 0.  0.
        2    1    3    3  502    0 -0.75105475919E+03  0.54957118470E+03 -0.51958668076E+03  0.10658715013E+04  0.25500000920E-02 0. -1.
       -2    1    3    3    0  502  0.75105475919E+03 -0.54957118470E+03  0.16129281721E+04  0.18621624598E+04  0.25500000920E-02 0.  1.
</event>
<event>
 5   0  0.1788003E-05  0.2738135E+04  0.7818609E-02  0.8322737E-01
        2   -1    0    0  501    0  0.00000000000E+00  0.00000000000E+00  0.14857770433E+04  0.14857770433E+04  0.25500000920E-02 0. -1.
       -2   -1    0    0    0  501  0.00000000000E+00  0.00000000000E+00 -0.12615252223E+04  0.12615252223E+04  0.25500000920E-02 0.  1.
    10030    2    1    2    0    0  0.00000000000E+00  0.00000000000E+00  0.22425182096E+03  0.27473022656E+04  0.27381345583E+04 0.  0.
        2    1    3    3  502    0 -0.46713475514E+03  0.12578003419E+04  0.38519266546E+03  0.13959405320E+04  0.25500000920E-02 0. -1.
       -2    1    3    3    0  502  0.46713475514E+03 -0.12578003419E+04 -0.16094084450E+03  0.13513617335E+04  0.25500000920E-02 0.  1.
</event>
<event>
 5   0  0.7600052E-06  0.2692578E+04  0.7818609E-02  0.8337417E-01
        1   -1    0    0  501    0  0.00000000000E+00  0.00000000000E+00  0.24788919509E+04  0.24788919509E+04  0.50400001928E-02 0.  1.
       -1   -1    0    0    0  501  0.00000000000E+00  0.00000000000E+00 -0.73117089517E+03  0.73117089519E+03  0.50400001928E-02 0. -1.
    10030    2    1    2    0    0  0.00000000000E+00  0.00000000000E+00  0.17477210557E+04  0.32100628461E+04  0.26925776845E+04 0.  0.
        5    1    3    3  502    0  0.97152463020E+01  0.10589893476E+04 -0.11710552365E+03  0.10654992342E+04  0.46999998093E+01 0. -1.
       -5    1    3    3    0  502 -0.97152463020E+01 -0.10589893476E+04  0.18648265794E+04  0.21445636119E+04  0.46999998093E+01 0.  1.
</event>
</LesHouchesEvents>
