<LesHouchesEvents version="3.0">
<header>
<!--
#*********************************************************************
#                                                                    *
#                        MadGraph5_aMC@NLO                           *
#                                                                    *
#                           Going Beyond                             *
#                                                                    *
#                   http://madgraph.hep.uiuc.edu                     *
#                   http://madgraph.phys.ucl.ac.be                   *
#                   http://amcatnlo.cern.ch                          *
#                                                                    *
#                     The MadGraph5_aMC@NLO team                     *
#                                                                    *
#....................................................................*
#                                                                    *
# This file contains all the information necessary to reproduce      *
# the events generated:                                              *
#                                                                    *
# 1. software version                                                *
# 2. proc_card          : code generation info including model       *
# 3. param_card         : model primary parameters in the LH format  *
# 4. run_card           : running parameters (collider and cuts)     *
# 5. pythia_card        : present only if pythia has been run        *
# 6. pgs_card           : present only if pgs has been run           *
# 7. delphes_cards      : present only if delphes has been run       *
#                                                                    *
#                                                                    *
#*********************************************************************
-->
<MGVersion>
#5.2.2.3
</MGVersion>
<MG5ProcCard>
#************************************************************
#*                     MadGraph5_aMC@NLO                    *
#*                                                          *
#*                *                       *                 *
#*                  *        * *        *                   *
#*                    * * * * 5 * * * *                     *
#*                  *        * *        *                   *
#*                *                       *                 *
#*                                                          *
#*                                                          *
#*         VERSION 2.2.3                 2015-02-10         *
#*                                                          *
#*    The MadGraph5_aMC@NLO Development Team - Find us at   *
#*    https://server06.fynu.ucl.ac.be/projects/madgraph     *
#*                                                          *
#************************************************************
#*                                                          *
#*               Command File for MadGraph5_aMC@NLO         *
#*                                                          *
#*     run as ./bin/mg5_aMC  filename                       *
#*                                                          *
#************************************************************
set group_subprocesses Auto
set ignore_six_quark_processes False
set loop_optimized_output True
set gauge unitary
set complex_mass_scheme False
import model sm
define p = g u c d s u~ c~ d~ s~
define j = g u c d s u~ c~ d~ s~
define l+ = e+ mu+
define l- = e- mu-
define vl = ve vm vt
define vl~ = ve~ vm~ vt~
import model Zprime_UFO
generate p p > zph, zph > j j
add process p p > zph, zph > b b~
output Dijet_signal
</MG5ProcCard>
<MGProcCard>
#*********************************************************************
#                        MadGraph/MadEvent                           *
#                   http://madgraph.hep.uiuc.edu                     *
#                                                                    *
#                          proc_card.dat                             *
#*********************************************************************
#                                                                    *
#            This Files is generated by MADGRAPH 5                   *
#                                                                    *
# WARNING: This Files is generated for MADEVENT (compatibility issue)*
#          This files is NOT a valid MG4 proc_card.dat               *
#          Running this in MG4 will NEVER reproduce the result of MG5*
#                                                                    *
#*********************************************************************
#*********************************************************************
# Process(es) requested : mg2 input                                  *
#*********************************************************************
# Begin PROCESS # This is TAG. Do not modify this line
p p > zph , zph > j j           #Process
# Be carefull the coupling are here in MG5 convention
          
end_coup           # End the couplings input

done               # this tells MG there are no more procs
# End PROCESS  # This is TAG. Do not modify this line
#*********************************************************************
# Model information                                                  *
#*********************************************************************
# Begin MODEL  # This is TAG. Do not modify this line
Zprime_UFO
# End   MODEL  # This is TAG. Do not modify this line
#*********************************************************************
# Start multiparticle definitions                                    *
#*********************************************************************
# Begin MULTIPARTICLES # This is TAG. Do not modify this line

# End  MULTIPARTICLES # This is TAG. Do not modify this line
</MGProcCard>
<MGRunCard>
#*********************************************************************
#                       MadGraph5_aMC@NLO                            *
#                                                                    *
#                     run_card.dat MadEvent                          *
#                                                                    *
#  This file is used to set the parameters of the run.               *
#                                                                    *
#  Some notation/conventions:                                        *
#                                                                    *
#   Lines starting with a '# ' are info or comments                  *
#                                                                    *
#   mind the format:   value    = variable     ! comment             *
#*********************************************************************
#
#*******************                                                 
# Running parameters
#*******************                                                 
#                                                                    
#*********************************************************************
# Tag name for the run (one word)                                    *
#*********************************************************************
  tag_1     = run_tag ! name of the run 
#*********************************************************************
# Run to generate the grid pack                                      *
#*********************************************************************
  .false.     = gridpack  !True = setting up the grid pack
#*********************************************************************
# Number of events and rnd seed                                      *
# Warning: Do not generate more than 1M events in a single run       *
# If you want to run Pythia, avoid more than 50k events in a run.    *
#*********************************************************************
  2000 = nevents ! Number of unweighted events requested 
 1470 = iseed   ! rnd seed (0=assigned automatically=default))
#*********************************************************************
# Collider type and energy                                           *
# lpp: 0=No PDF, 1=proton, -1=antiproton, 2=photon from proton,      *
#                                         3=photon from electron     *
#*********************************************************************
        1     = lpp1    ! beam 1 type 
        1     = lpp2    ! beam 2 type
     4000     = ebeam1  ! beam 1 total energy in GeV
     4000     = ebeam2  ! beam 2 total energy in GeV
#*********************************************************************
# Beam polarization from -100 (left-handed) to 100 (right-handed)    *
#*********************************************************************
        0     = polbeam1 ! beam polarization for beam 1
        0     = polbeam2 ! beam polarization for beam 2
#*********************************************************************
# PDF CHOICE: this automatically fixes also alpha_s and its evol.    *
#*********************************************************************
 'nn23lo1'    = pdlabel     ! PDF set                                     
 230000    = lhaid     ! if pdlabel=lhapdf, this is the lhapdf number
#*********************************************************************
# Renormalization and factorization scales                           *
#*********************************************************************
 F        = fixed_ren_scale  ! if .true. use fixed ren scale
 F        = fixed_fac_scale  ! if .true. use fixed fac scale
 91.1880  = scale            ! fixed ren scale
 91.1880  = dsqrt_q2fact1    ! fixed fact scale for pdf1
 91.1880  = dsqrt_q2fact2    ! fixed fact scale for pdf2
 1        = scalefact        ! scale factor for event-by-event scales
#*********************************************************************
# Matching - Warning! ickkw > 1 is still beta
#*********************************************************************
 0        = ickkw            ! 0 no matching, 1 MLM, 2 CKKW matching
 1        = highestmult      ! for ickkw=2, highest mult group
 1        = ktscheme         ! for ickkw=1, 1 Durham kT, 2 Pythia pTE
 1        = alpsfact         ! scale factor for QCD emission vx
 F        = chcluster        ! cluster only according to channel diag
 T        = pdfwgt           ! for ickkw=1, perform pdf reweighting
 5        = asrwgtflavor     ! highest quark flavor for a_s reweight
 T        = clusinfo         ! include clustering tag in output
 3.0      = lhe_version       ! Change the way clustering information pass to shower.        
#*********************************************************************
#**********************************************************
#
#**********************************************************
# Automatic ptj and mjj cuts if xqcut > 0
# (turn off for VBF and single top processes)
#**********************************************************
   T  = auto_ptj_mjj  ! Automatic setting of ptj and mjj
#**********************************************************
#                                                                    
#**********************************
# BW cutoff (M+/-bwcutoff*Gamma)
#**********************************
  15  = bwcutoff      ! (M+/-bwcutoff*Gamma)
#**********************************************************
# Apply pt/E/eta/dr/mij cuts on decay products or not
# (note that etmiss/ptll/ptheavy/ht/sorted cuts always apply)
#**********************************************************
   T  = cut_decays    ! Cut decay products 
#*************************************************************
# Number of helicities to sum per event (0 = all helicities)
# 0 gives more stable result, but longer run time (needed for
# long decay chains e.g.).
# Use >=2 if most helicities contribute, e.g. pure QCD.
#*************************************************************
   0  = nhel          ! Number of helicities used per event
#*******************                                                 
# Standard Cuts
#*******************                                                 
#                                                                    
#*********************************************************************
# Minimum and maximum pt's (for max, -1 means no cut)                *
#*********************************************************************
 20  = ptj       ! minimum pt for the jets 
  0  = ptb       ! minimum pt for the b 
 10  = pta       ! minimum pt for the photons 
 10  = ptl       ! minimum pt for the charged leptons 
  0  = misset    ! minimum missing Et (sum of neutrino's momenta)
  0  = ptheavy   ! minimum pt for one heavy final state
 1.0 = ptonium   ! minimum pt for the quarkonium states
 -1  = ptjmax    ! maximum pt for the jets
 -1  = ptbmax    ! maximum pt for the b
 -1  = ptamax    ! maximum pt for the photons
 -1  = ptlmax    ! maximum pt for the charged leptons
 -1  = missetmax ! maximum missing Et (sum of neutrino's momenta)
#*********************************************************************
# Minimum and maximum E's (in the center of mass frame)              *
#*********************************************************************
  0  = ej     ! minimum E for the jets 
  0  = eb     ! minimum E for the b 
  0  = ea     ! minimum E for the photons 
  0  = el     ! minimum E for the charged leptons 
 -1   = ejmax ! maximum E for the jets
 -1   = ebmax ! maximum E for the b
 -1   = eamax ! maximum E for the photons
 -1   = elmax ! maximum E for the charged leptons
#*********************************************************************
# Maximum and minimum absolute rapidity (for max, -1 means no cut)   *
#*********************************************************************
   5  = etaj    ! max rap for the jets 
  -1  = etab    ! max rap for the b
 2.5  = etaa    ! max rap for the photons 
 2.5  = etal    ! max rap for the charged leptons 
 0.6  = etaonium ! max rap for the quarkonium states
   0  = etajmin ! min rap for the jets
   0  = etabmin ! min rap for the b
   0  = etaamin ! min rap for the photons
   0  = etalmin ! main rap for the charged leptons
#*********************************************************************
# Minimum and maximum DeltaR distance                                *
#*********************************************************************
 0.4 = drjj    ! min distance between jets 
 0   = drbb    ! min distance between b's 
 0.4 = drll    ! min distance between leptons 
 0.4 = draa    ! min distance between gammas 
 0   = drbj    ! min distance between b and jet 
 0.4 = draj    ! min distance between gamma and jet 
 0.4 = drjl    ! min distance between jet and lepton 
 0   = drab    ! min distance between gamma and b 
 0   = drbl    ! min distance between b and lepton 
 0.4 = dral    ! min distance between gamma and lepton 
 -1  = drjjmax ! max distance between jets
 -1  = drbbmax ! max distance between b's
 -1  = drllmax ! max distance between leptons
 -1  = draamax ! max distance between gammas
 -1  = drbjmax ! max distance between b and jet
 -1  = drajmax ! max distance between gamma and jet
 -1  = drjlmax ! max distance between jet and lepton
 -1  = drabmax ! max distance between gamma and b
 -1  = drblmax ! max distance between b and lepton
 -1  = dralmax ! maxdistance between gamma and lepton
#*********************************************************************
# Minimum and maximum invariant mass for pairs                       *
# WARNING: for four lepton final state mmll cut require to have      *
#          different lepton masses for each flavor!                  *           
#*********************************************************************
 0   = mmjj    ! min invariant mass of a jet pair 
 0   = mmbb    ! min invariant mass of a b pair 
 0   = mmaa    ! min invariant mass of gamma gamma pair
 0   = mmll    ! min invariant mass of l+l- (same flavour) lepton pair
 -1  = mmjjmax ! max invariant mass of a jet pair
 -1  = mmbbmax ! max invariant mass of a b pair
 -1  = mmaamax ! max invariant mass of gamma gamma pair
 -1  = mmllmax ! max invariant mass of l+l- (same flavour) lepton pair
#*********************************************************************
# Minimum and maximum invariant mass for all letpons                 *
#*********************************************************************
 0   = mmnl    ! min invariant mass for all letpons (l+- and vl) 
 -1  = mmnlmax ! max invariant mass for all letpons (l+- and vl) 
#*********************************************************************
# Minimum and maximum pt for 4-momenta sum of leptons                *
#*********************************************************************
 0   = ptllmin  ! Minimum pt for 4-momenta sum of leptons(l and vl)
 -1  = ptllmax  ! Maximum pt for 4-momenta sum of leptons(l and vl)
#*********************************************************************
# Inclusive cuts                                                     *
#*********************************************************************
 0  = xptj ! minimum pt for at least one jet  
 0  = xptb ! minimum pt for at least one b 
 0  = xpta ! minimum pt for at least one photon 
 0  = xptl ! minimum pt for at least one charged lepton 
#*********************************************************************
# Control the pt's of the jets sorted by pt                          *
#*********************************************************************
 0   = ptj1min ! minimum pt for the leading jet in pt
 0   = ptj2min ! minimum pt for the second jet in pt
 0   = ptj3min ! minimum pt for the third jet in pt
 0   = ptj4min ! minimum pt for the fourth jet in pt
 -1  = ptj1max ! maximum pt for the leading jet in pt 
 -1  = ptj2max ! maximum pt for the second jet in pt
 -1  = ptj3max ! maximum pt for the third jet in pt
 -1  = ptj4max ! maximum pt for the fourth jet in pt
 0   = cutuse  ! reject event if fails any (0) / all (1) jet pt cuts
#*********************************************************************
# Control the pt's of leptons sorted by pt                           *
#*********************************************************************
 0   = ptl1min ! minimum pt for the leading lepton in pt
 0   = ptl2min ! minimum pt for the second lepton in pt
 0   = ptl3min ! minimum pt for the third lepton in pt
 0   = ptl4min ! minimum pt for the fourth lepton in pt
 -1  = ptl1max ! maximum pt for the leading lepton in pt 
 -1  = ptl2max ! maximum pt for the second lepton in pt
 -1  = ptl3max ! maximum pt for the third lepton in pt
 -1  = ptl4max ! maximum pt for the fourth lepton in pt
#*********************************************************************
# Control the Ht(k)=Sum of k leading jets                            *
#*********************************************************************
 0   = htjmin ! minimum jet HT=Sum(jet pt)
 -1  = htjmax ! maximum jet HT=Sum(jet pt)
 0   = ihtmin  !inclusive Ht for all partons (including b)
 -1  = ihtmax  !inclusive Ht for all partons (including b)
 0   = ht2min ! minimum Ht for the two leading jets
 0   = ht3min ! minimum Ht for the three leading jets
 0   = ht4min ! minimum Ht for the four leading jets
 -1  = ht2max ! maximum Ht for the two leading jets
 -1  = ht3max ! maximum Ht for the three leading jets
 -1  = ht4max ! maximum Ht for the four leading jets
#***********************************************************************
# Photon-isolation cuts, according to hep-ph/9801442                   *
# When ptgmin=0, all the other parameters are ignored                  *
# When ptgmin>0, pta and draj are not going to be used                 *
#***********************************************************************
   0 = ptgmin ! Min photon transverse momentum
 0.4 = R0gamma ! Radius of isolation code
 1.0 = xn ! n parameter of eq.(3.4) in hep-ph/9801442
 1.0 = epsgamma ! epsilon_gamma parameter of eq.(3.4) in hep-ph/9801442
 .true. = isoEM ! isolate photons from EM energy (photons and leptons)
#*********************************************************************
# WBF cuts                                                           *
#*********************************************************************
 0   = xetamin ! minimum rapidity for two jets in the WBF case  
 0   = deltaeta ! minimum rapidity for two jets in the WBF case 
#*********************************************************************
# KT DURHAM CUT                                                      *
#*********************************************************************
 -1    =  ktdurham        
 0.4  =  dparameter 
#*********************************************************************
# maximal pdg code for quark to be considered as a light jet         *
# (otherwise b cuts are applied)                                     *
#*********************************************************************
 4 = maxjetflavor    ! Maximum jet pdg code
#*********************************************************************
# Jet measure cuts                                                   *
#*********************************************************************
 0   = xqcut   ! minimum kt jet measure between partons
#*********************************************************************
#
#*********************************************************************
# Store info for systematics studies                                 *
# WARNING: If use_syst is T, matched Pythia output is                *
#          meaningful ONLY if plotted taking matchscale              *
#          reweighting into account!                                 *
#*********************************************************************
   F  = use_syst      ! Enable systematics studies
#
#**************************************
# Parameter of the systematics study
#  will be used by SysCalc (if installed)
#**************************************                                  
#
0.5 1 2 = sys_scalefact  # factorization/renormalization scale factor
0.5 1 2 = sys_alpsfact  # \alpha_s emission scale factors
30 50 = sys_matchscale # variation of merging scale
# PDF sets and number of members (0 or none for all members).
CT10nlo.LHgrid = sys_pdf # matching scales
# MSTW2008nlo68cl.LHgrid 1  = sys_pdf
</MGRunCard>
<slha>
######################################################################
## PARAM_CARD AUTOMATICALY GENERATED BY MG5 FOLLOWING UFO MODEL   ####
######################################################################
##                                                                  ##
##  Width set on Auto will be computed following the information    ##
##        present in the decay.py files of the model.               ##
##        See  arXiv:1402.1178 for more details.                    ##
##                                                                  ##
######################################################################

###################################
## INFORMATION FOR CKMBLOCK
###################################
Block ckmblock 
    1 2.277360e-01 # cabi 

###################################
## INFORMATION FOR FRBLOCK
###################################
Block frblock 
    1 8.000000e-01 # gz 

###################################
## INFORMATION FOR MASS
###################################
Block mass 
    1 5.040000e-03 # MD 
    2 2.550000e-03 # MU 
    3 1.010000e-01 # MS 
    4 1.270000e+00 # MC 
    5 4.700000e+00 # MB 
    6 1.720000e+02 # MT 
   11 5.110000e-04 # Me 
   13 1.056600e-01 # MM 
   15 1.777000e+00 # MTA 
   23 9.118760e+01 # MZ 
   25 1.200000e+02 # MH 
  10030 5.000000e+02 # MZph 
  10031 3.000000e+02 # MZpl 
## Dependent parameters, given by model restrictions.
## Those values should be edited following the 
## analytical expression. MG5 ignores those values 
## but they are important for interfacing the output of MG5
## to external program such as Pythia.
  12 0.000000 # ve : 0.0 
  14 0.000000 # vm : 0.0 
  16 0.000000 # vt : 0.0 
  21 0.000000 # g : 0.0 
  22 0.000000 # a : 0.0 
  24 79.824360 # w+ : cmath.sqrt(MZ__exp__2/2. + cmath.sqrt(MZ__exp__4/4. - (aEW*cmath.pi*MZ__exp__2)/(Gf*sqrt__2))) 

###################################
## INFORMATION FOR SMINPUTS
###################################
Block sminputs 
    1 1.279000e+02 # aEWM1 
    2 1.166370e-05 # Gf 
    3 1.184000e-01 # aS 

###################################
## INFORMATION FOR YUKAWA
###################################
Block yukawa 
    1 5.040000e-03 # ymdo 
    2 2.550000e-03 # ymup 
    3 1.010000e-01 # yms 
    4 1.270000e+00 # ymc 
    5 4.700000e+00 # ymb 
    6 1.720000e+02 # ymt 
   11 5.110000e-04 # yme 
   13 1.056600e-01 # ymm 
   15 1.777000e+00 # ymtau 

###################################
## INFORMATION FOR DECAY
###################################
DECAY   6 1.508336e+00 # WT 
DECAY  23 2.495200e+00 # WZ 
DECAY  24 2.085000e+00 # WW 
DECAY  25 5.753088e-03 # WH 
## Dependent parameters, given by model restrictions.
## Those values should be edited following the 
## analytical expression. MG5 ignores those values 
## but they are important for interfacing the output of MG5
## to external program such as Pythia.
DECAY  1 0.000000 # d : 0.0 
DECAY  2 0.000000 # u : 0.0 
DECAY  3 0.000000 # s : 0.0 
DECAY  4 0.000000 # c : 0.0 
DECAY  5 0.000000 # b : 0.0 
DECAY  11 0.000000 # e- : 0.0 
DECAY  12 0.000000 # ve : 0.0 
DECAY  13 0.000000 # mu- : 0.0 
DECAY  14 0.000000 # vm : 0.0 
DECAY  15 0.000000 # ta- : 0.0 
DECAY  16 0.000000 # vt : 0.0 
DECAY  21 0.000000 # g : 0.0 
DECAY  22 0.000000 # a : 0.0 
DECAY  10030 0.308725 # zph : (gz__exp__2*MZph*(5 + cmath.sqrt(1 - (4*MT__exp__2)/MZph__exp__2)))/(144.*cmath.pi) 
DECAY  10031 0.132629 # zpl : (5*gz__exp__2*MZpl)/(144.*cmath.pi) 
#===========================================================
# QUANTUM NUMBERS OF NEW STATE(S) (NON SM PDG CODE)
#===========================================================

Block QNUMBERS 10030  # zph 
        1 0  # 3 times electric charge
        2 3  # number of spin states (2S+1)
        3 1  # colour rep (1: singlet, 3: triplet, 8: octet)
        4 0  # Particle/Antiparticle distinction (0=own anti)
Block QNUMBERS 10031  # zpl 
        1 0  # 3 times electric charge
        2 3  # number of spin states (2S+1)
        3 1  # colour rep (1: singlet, 3: triplet, 8: octet)
        4 0  # Particle/Antiparticle distinction (0=own anti)
</slha>
## END BANNER##
<MGGenerationInfo>
#  Number of Events        :         4186
#  Integrated weight (pb)  :  0.25687E+02
#  Max wgt                 :  0.82087E-02
#  Average wgt             :  0.61364E-02
</MGGenerationInfo>
</header>
<init>
     2212     2212  0.40000000000E+04  0.40000000000E+04 0 0  247000  247000 2   1
  0.25652462703E+02  0.50572910957E-01  0.82087200000E-02   0
</init>
<event>
 5   0  0.7881060E-02  0.5003894E+03  0.7818609E-02  0.1013677E+00
       -2   -1    0    0    0  501  0.00000000000E+00  0.00000000000E+00  0.82168685130E+02  0.82168685169E+02  0.25500000920E-02 0. -1.
        2   -1    0    0  501    0  0.00000000000E+00  0.00000000000E+00 -0.76181567018E+03  0.76181567018E+03  0.25500000920E-02 0.  1.
    10030    2    1    2    0    0  0.00000000000E+00  0.00000000000E+00 -0.67964698505E+03  0.84398435535E+03  0.50038941615E+03 0.  0.
        1    1    3    3  502    0  0.86728419645E+02 -0.22029718977E+03 -0.47627296491E+03  0.53187273640E+03  0.50400001928E-02 0.  1.
       -1    1    3    3    0  502 -0.86728419645E+02  0.22029718977E+03 -0.20337402014E+03  0.31211161895E+03  0.50400001928E-02 0. -1.
</event>
<event>
 5   0  0.3210875E-02  0.4985804E+03  0.7818609E-02  0.1014150E+00
        3   -1    0    0  501    0  0.00000000000E+00  0.00000000000E+00  0.13342634024E+03  0.13342637847E+03  0.10100000352E+00 0. -1.
       -3   -1    0    0    0  501  0.00000000000E+00  0.00000000000E+00 -0.46576693337E+03  0.46576694432E+03  0.10100000352E+00 0.  1.
    10030    2    1    2    0    0  0.00000000000E+00  0.00000000000E+00 -0.33234059313E+03  0.59919332279E+03  0.49858035284E+03 0.  0.
        1    1    3    3  502    0  0.15953937957E+03  0.31228519178E+01 -0.39634859881E+03  0.42726429483E+03  0.50400001928E-02 0.  1.
       -1    1    3    3    0  502 -0.15953937957E+03 -0.31228519178E+01  0.64008005680E+02  0.17192902796E+03  0.50400001928E-02 0. -1.
</event>
<event>
 5   0  0.7881060E-02  0.4990282E+03  0.7818609E-02  0.1014033E+00
       -2   -1    0    0    0  501  0.00000000000E+00  0.00000000000E+00  0.76991689577E+03  0.76991689577E+03  0.25500000920E-02 0.  1.
        2   -1    0    0  501    0  0.00000000000E+00  0.00000000000E+00 -0.80862347563E+02  0.80862347604E+02  0.25500000920E-02 0. -1.
    10030    2    1    2    0    0  0.00000000000E+00  0.00000000000E+00  0.68905454820E+03  0.85077924337E+03  0.49902820617E+03 0.  0.
        1    1    3    3  502    0 -0.10831681674E+03  0.12256408330E+03  0.23292096938E+02  0.16521806533E+03  0.50400001928E-02 0. -1.
       -1    1    3    3    0  502  0.10831681674E+03 -0.12256408330E+03  0.66576245126E+03  0.68556117805E+03  0.50400001928E-02 0.  1.
</event>
<event>
 5   0  0.8208720E-02  0.4999045E+03  0.7818609E-02  0.1013804E+00
        2   -1    0    0  501    0  0.00000000000E+00  0.00000000000E+00  0.99802724324E+03  0.99802724325E+03  0.25500000920E-02 0.  1.
       -2   -1    0    0    0  501  0.00000000000E+00  0.00000000000E+00 -0.62599632827E+02  0.62599632879E+02  0.25500000920E-02 0. -1.
    10030    2    1    2    0    0  0.00000000000E+00  0.00000000000E+00  0.93542761042E+03  0.10606268761E+04  0.49990454692E+03 0.  0.
        3    1    3    3  502    0  0.13812085873E+03  0.14794483395E+02  0.26838007222E+02  0.14147981195E+03  0.10100000352E+00 0. -1.
       -3    1    3    3    0  502 -0.13812085873E+03 -0.14794483395E+02  0.90858960319E+03  0.91914706418E+03  0.10100000352E+00 0.  1.
</event>
<event>
 5   0  0.7881060E-02  0.5006989E+03  0.7818609E-02  0.1013597E+00
        2   -1    0    0  501    0  0.00000000000E+00  0.00000000000E+00  0.85371128838E+03  0.85371128839E+03  0.25500000920E-02 0.  1.
       -2   -1    0    0    0  501  0.00000000000E+00  0.00000000000E+00 -0.73414573465E+02  0.73414573510E+02  0.25500000920E-02 0. -1.
    10030    2    1    2    0    0  0.00000000000E+00  0.00000000000E+00  0.78029671492E+03  0.92712586190E+03  0.50069891201E+03 0.  0.
        1    1    3    3  502    0  0.11509047496E+03  0.20806980103E+03  0.24510281395E+03  0.34148828524E+03  0.50400001928E-02 0. -1.
       -1    1    3    3    0  502 -0.11509047496E+03 -0.20806980103E+03  0.53519390097E+03  0.58563757665E+03  0.50400001928E-02 0.  1.
</event>
<event>
 5   0  0.8208720E-02  0.5025066E+03  0.7818609E-02  0.1013127E+00
       -2   -1    0    0    0  501  0.00000000000E+00  0.00000000000E+00  0.42697948352E+03  0.42697948352E+03  0.25500000920E-02 0.  1.
        2   -1    0    0  501    0  0.00000000000E+00  0.00000000000E+00 -0.14784839854E+03  0.14784839856E+03  0.25500000920E-02 0. -1.
    10030    2    1    2    0    0  0.00000000000E+00  0.00000000000E+00  0.27913108498E+03  0.57482788209E+03  0.50250664814E+03 0.  0.
        3    1    3    3  502    0 -0.10262359998E+03 -0.17251828684E+03  0.31242278609E+03  0.37135181437E+03  0.10100000352E+00 0.  1.
       -3    1    3    3    0  502  0.10262359998E+03  0.17251828684E+03 -0.33291701117E+02  0.20347606771E+03  0.10100000352E+00 0. -1.
</event>
<event>
 5   0  0.5038436E-02  0.5034310E+03  0.7818609E-02  0.1012887E+00
        1   -1    0    0  501    0  0.00000000000E+00  0.00000000000E+00  0.22446476297E+03  0.22446476303E+03  0.50400001928E-02 0. -1.
       -1   -1    0    0    0  501  0.00000000000E+00  0.00000000000E+00 -0.28227451190E+03  0.28227451194E+03  0.50400001928E-02 0.  1.
    10030    2    1    2    0    0  0.00000000000E+00  0.00000000000E+00 -0.57809748923E+02  0.50673927497E+03  0.50343095428E+03 0.  0.
        1    1    3    3  502    0 -0.36032214633E+02 -0.23834228689E+03  0.44065073176E+02  0.24504509159E+03  0.50400001928E-02 0. -1.
       -1    1    3    3    0  502  0.36032214633E+02  0.23834228689E+03 -0.10187482210E+03  0.26169418338E+03  0.50400001928E-02 0.  1.
</event>
<event>
 5   0  0.4884478E-02  0.5048289E+03  0.7818609E-02  0.1012526E+00
       -1   -1    0    0    0  501  0.00000000000E+00  0.00000000000E+00  0.38576101889E+02  0.38576102219E+02  0.50400001928E-02 0.  1.
        1   -1    0    0  501    0  0.00000000000E+00  0.00000000000E+00 -0.16516197151E+04  0.16516197151E+04  0.50400001928E-02 0. -1.
    10030    2    1    2    0    0  0.00000000000E+00  0.00000000000E+00 -0.16130436132E+04  0.16901958173E+04  0.50482888466E+03 0.  0.
        3    1    3    3  502    0  0.10594932379E+03 -0.48824645009E+02 -0.57095824323E+02  0.12988090132E+03  0.10100000352E+00 0.  1.
       -3    1    3    3    0  502 -0.10594932379E+03  0.48824645009E+02 -0.15559477889E+04  0.15603149160E+04  0.10100000352E+00 0. -1.
</event>
<event>
 5   0  0.7881060E-02  0.4956037E+03  0.7818609E-02  0.1014933E+00
       -2   -1    0    0    0  501  0.00000000000E+00  0.00000000000E+00  0.36192753845E+02  0.36192753935E+02  0.25500000920E-02 0.  1.
        2   -1    0    0  501    0  0.00000000000E+00  0.00000000000E+00 -0.16966311728E+04  0.16966311728E+04  0.25500000920E-02 0. -1.
    10030    2    1    2    0    0  0.00000000000E+00  0.00000000000E+00 -0.16604384190E+04  0.17328239267E+04  0.49560369039E+03 0.  0.
        1    1    3    3  502    0 -0.23620753491E+03 -0.74827742335E+02 -0.81782605386E+03  0.85453650886E+03  0.50400001928E-02 0. -1.
       -1    1    3    3    0  502  0.23620753491E+03  0.74827742335E+02 -0.84261236509E+03  0.87828741788E+03  0.50400001928E-02 0.  1.
</event>
<event>
 5   0  0.3210875E-02  0.5012772E+03  0.7818609E-02  0.1013446E+00
       -4   -1    0    0    0  501  0.00000000000E+00  0.00000000000E+00  0.57901350970E+02  0.57915277294E+02  0.12699999809E+01 0. -1.
        4   -1    0    0  501    0  0.00000000000E+00  0.00000000000E+00 -0.10847991590E+04  0.10847999024E+04  0.12699999809E+01 0.  1.
    10030    2    1    2    0    0  0.00000000000E+00  0.00000000000E+00 -0.10268978080E+04  0.11427151797E+04  0.50127724244E+03 0.  0.
        1    1    3    3  502    0 -0.10375286935E+03 -0.15668758580E+03 -0.13539091562E+03  0.23161683337E+03  0.50400001928E-02 0. -1.
       -1    1    3    3    0  502  0.10375286935E+03  0.15668758580E+03 -0.89150689241E+03  0.91109834633E+03  0.50400001928E-02 0.  1.
</event>
<event>
 5   0  0.7881060E-02  0.4977410E+03  0.7818609E-02  0.1014370E+00
       -2   -1    0    0    0  501  0.00000000000E+00  0.00000000000E+00  0.77061603307E+02  0.77061603349E+02  0.25500000920E-02 0. -1.
        2   -1    0    0  501    0  0.00000000000E+00  0.00000000000E+00 -0.80372752922E+03  0.80372752922E+03  0.25500000920E-02 0.  1.
    10030    2    1    2    0    0  0.00000000000E+00  0.00000000000E+00 -0.72666592591E+03  0.88078913257E+03  0.49774102521E+03 0.  0.
        1    1    3    3  502    0 -0.58544018625E+02 -0.11316392914E+03  0.14971204347E+02  0.12828723226E+03  0.50400001928E-02 0. -1.
       -1    1    3    3    0  502  0.58544018625E+02  0.11316392914E+03 -0.74163713026E+03  0.75250190031E+03  0.50400001928E-02 0.  1.
</event>
<event>
 5   0  0.3210875E-02  0.5009322E+03  0.7818609E-02  0.1013536E+00
        4   -1    0    0  501    0  0.00000000000E+00  0.00000000000E+00  0.14456718652E+03  0.14457276479E+03  0.12699999809E+01 0.  1.
       -4   -1    0    0    0  501  0.00000000000E+00  0.00000000000E+00 -0.43392361278E+03  0.43392547129E+03  0.12699999809E+01 0. -1.
    10030    2    1    2    0    0  0.00000000000E+00  0.00000000000E+00 -0.28935642626E+03  0.57849823608E+03  0.50093219873E+03 0.  0.
        2    1    3    3  502    0  0.19012350853E+03 -0.15547028640E+03 -0.20143390128E+03  0.31763748998E+03  0.25500000920E-02 0. -1.
       -2    1    3    3    0  502 -0.19012350853E+03  0.15547028640E+03 -0.87922524976E+02  0.26086074610E+03  0.25500000920E-02 0.  1.
</event>
<event>
 5   0  0.7933103E-02  0.4981448E+03  0.7818609E-02  0.1014264E+00
       -2   -1    0    0    0  501  0.00000000000E+00  0.00000000000E+00  0.31509305733E+02  0.31509305836E+02  0.25500000920E-02 0. -1.
        2   -1    0    0  501    0  0.00000000000E+00  0.00000000000E+00 -0.19688485985E+04  0.19688485985E+04  0.25500000920E-02 0.  1.
    10030    2    1    2    0    0  0.00000000000E+00  0.00000000000E+00 -0.19373392927E+04  0.20003579043E+04  0.49814476826E+03 0.  0.
        5    1    3    3  502    0 -0.35307666555E+02  0.86749403230E+02 -0.42089754506E+02  0.10278972571E+03  0.46999998093E+01 0. -1.
       -5    1    3    3    0  502  0.35307666555E+02 -0.86749403230E+02 -0.18952495382E+04  0.18975681786E+04  0.46999998093E+01 0.  1.
</event>
<event>
 5   0  0.4803890E-02  0.4970228E+03  0.7818609E-02  0.1014559E+00
       -1   -1    0    0    0  501  0.00000000000E+00  0.00000000000E+00  0.10049574657E+03  0.10049574670E+03  0.50400001928E-02 0. -1.
        1   -1    0    0  501    0  0.00000000000E+00  0.00000000000E+00 -0.61453254136E+03  0.61453254138E+03  0.50400001928E-02 0.  1.
    10030    2    1    2    0    0  0.00000000000E+00  0.00000000000E+00 -0.51403679479E+03  0.71502828808E+03  0.49702276241E+03 0.  0.
        5    1    3    3  502    0 -0.12900878033E+03  0.13222789745E+03 -0.17980341689E+02  0.18566869675E+03  0.46999998093E+01 0.  1.
       -5    1    3    3    0  502  0.12900878033E+03 -0.13222789745E+03 -0.49605645310E+03  0.52935959133E+03  0.46999998093E+01 0. -1.
</event>
<event>
 5   0  0.3210875E-02  0.5013375E+03  0.7818609E-02  0.1013430E+00
       -3   -1    0    0    0  501  0.00000000000E+00  0.00000000000E+00  0.30522237809E+03  0.30522239480E+03  0.10100000352E+00 0.  1.
        3   -1    0    0  501    0  0.00000000000E+00  0.00000000000E+00 -0.20586564174E+03  0.20586566651E+03  0.10100000352E+00 0. -1.
    10030    2    1    2    0    0  0.00000000000E+00  0.00000000000E+00  0.99356736353E+02  0.51108806132E+03  0.50133745657E+03 0.  0.
        2    1    3    3  502    0  0.89060234155E+02  0.35475613057E+02  0.28579601946E+03  0.30144586442E+03  0.25500000920E-02 0.  1.
       -2    1    3    3    0  502 -0.89060234155E+02 -0.35475613057E+02 -0.18643928310E+03  0.20964219690E+03  0.25500000920E-02 0. -1.
</event>
<event>
 5   0  0.3210875E-02  0.4999842E+03  0.7818609E-02  0.1013783E+00
        3   -1    0    0  501    0  0.00000000000E+00  0.00000000000E+00  0.35654828737E+02  0.35654971788E+02  0.10100000352E+00 0. -1.
       -3   -1    0    0    0  501  0.00000000000E+00  0.00000000000E+00 -0.17528038925E+04  0.17528038954E+04  0.10100000352E+00 0.  1.
    10030    2    1    2    0    0  0.00000000000E+00  0.00000000000E+00 -0.17171490637E+04  0.17884588672E+04  0.49998421222E+03 0.  0.
        5    1    3    3  502    0 -0.21692023678E+03  0.37709773507E+02 -0.12817774290E+04  0.13005582969E+04  0.46999998093E+01 0.  1.
       -5    1    3    3    0  502  0.21692023678E+03 -0.37709773507E+02 -0.43537163474E+03  0.48790057027E+03  0.46999998093E+01 0. -1.
</event>
<event>
 5   0  0.5038436E-02  0.4974287E+03  0.7818609E-02  0.1014452E+00
        1   -1    0    0  501    0  0.00000000000E+00  0.00000000000E+00  0.25335732180E+03  0.25335732185E+03  0.50400001928E-02 0. -1.
       -1   -1    0    0    0  501  0.00000000000E+00  0.00000000000E+00 -0.24415643726E+03  0.24415643731E+03  0.50400001928E-02 0.  1.
    10030    2    1    2    0    0  0.00000000000E+00  0.00000000000E+00  0.92008845458E+01  0.49751375916E+03  0.49742867255E+03 0.  0.
        1    1    3    3  502    0  0.97211628984E+02  0.15337759018E+03 -0.16538166651E+03  0.24561327656E+03  0.50400001928E-02 0.  1.
       -1    1    3    3    0  502 -0.97211628984E+02 -0.15337759018E+03  0.17458255105E+03  0.25190048260E+03  0.50400001928E-02 0. -1.
</event>
<event>
 5   0  0.4884478E-02  0.4973292E+03  0.7818609E-02  0.1014478E+00
        1   -1    0    0  501    0  0.00000000000E+00  0.00000000000E+00  0.69189836779E+03  0.69189836781E+03  0.50400001928E-02 0.  1.
       -1   -1    0    0    0  501  0.00000000000E+00  0.00000000000E+00 -0.89368736202E+02  0.89368736344E+02  0.50400001928E-02 0. -1.
    10030    2    1    2    0    0  0.00000000000E+00  0.00000000000E+00  0.60252963159E+03  0.78126710416E+03  0.49732919791E+03 0.  0.
        3    1    3    3  502    0  0.10348827639E+03 -0.17005118236E+03  0.53536351903E+03  0.57117539835E+03  0.10100000352E+00 0.  1.
       -3    1    3    3    0  502 -0.10348827639E+03  0.17005118236E+03  0.67166112561E+02  0.21009170581E+03  0.10100000352E+00 0. -1.
</event>
<event>
 5   0  0.4884478E-02  0.4942064E+03  0.7818609E-02  0.1015302E+00
       -1   -1    0    0    0  501  0.00000000000E+00  0.00000000000E+00  0.12174383399E+03  0.12174383409E+03  0.50400001928E-02 0. -1.
        1   -1    0    0  501    0  0.00000000000E+00  0.00000000000E+00 -0.50154475854E+03  0.50154475857E+03  0.50400001928E-02 0.  1.
    10030    2    1    2    0    0  0.00000000000E+00  0.00000000000E+00 -0.37980092456E+03  0.62328859266E+03  0.49420636120E+03 0.  0.
        3    1    3    3  502    0 -0.10082221420E+03 -0.20931565067E+03 -0.29603409237E+03  0.37631682734E+03  0.10100000352E+00 0.  1.
       -3    1    3    3    0  502  0.10082221420E+03  0.20931565067E+03 -0.83766832188E+02  0.24697176532E+03  0.10100000352E+00 0. -1.
</event>
<event>
 5   0  0.7881060E-02  0.5036050E+03  0.7818609E-02  0.1012842E+00
       -2   -1    0    0    0  501  0.00000000000E+00  0.00000000000E+00  0.83546778644E+02  0.83546778683E+02  0.25500000920E-02 0.  1.
        2   -1    0    0  501    0  0.00000000000E+00  0.00000000000E+00 -0.75891022137E+03  0.75891022138E+03  0.25500000920E-02 0. -1.
    10030    2    1    2    0    0  0.00000000000E+00  0.00000000000E+00 -0.67536344273E+03  0.84245700006E+03  0.50360502100E+03 0.  0.
        1    1    3    3  502    0 -0.25013741619E+03 -0.25609367674E+02 -0.31524193974E+03  0.40323944163E+03  0.50400001928E-02 0. -1.
       -1    1    3    3    0  502  0.25013741619E+03  0.25609367674E+02 -0.36012150299E+03  0.43921755843E+03  0.50400001928E-02 0.  1.
</event>
<event>
 5   0  0.5191358E-02  0.4994525E+03  0.7818609E-02  0.1013922E+00
        1   -1    0    0  501    0  0.00000000000E+00  0.00000000000E+00  0.14119641469E+04  0.14119641469E+04  0.50400001928E-02 0.  1.
       -1   -1    0    0    0  501  0.00000000000E+00  0.00000000000E+00 -0.44167687565E+02  0.44167687852E+02  0.50400001928E-02 0. -1.
    10030    2    1    2    0    0  0.00000000000E+00  0.00000000000E+00  0.13677964594E+04  0.14561318348E+04  0.49945246625E+03 0.  0.
        4    1    3    3  502    0 -0.46423298746E+02  0.23234057918E+03  0.45388533465E+03  0.51200661843E+03  0.12699999809E+01 0. -1.
       -4    1    3    3    0  502  0.46423298746E+02 -0.23234057918E+03  0.91391112470E+03  0.94412521635E+03  0.12699999809E+01 0.  1.
</event>
<event>
 5   0  0.5038436E-02  0.4978483E+03  0.7818609E-02  0.1014342E+00
       -1   -1    0    0    0  501  0.00000000000E+00  0.00000000000E+00  0.15677268979E+03  0.15677268987E+03  0.50400001928E-02 0. -1.
        1   -1    0    0  501    0  0.00000000000E+00  0.00000000000E+00 -0.39524251013E+03  0.39524251017E+03  0.50400001928E-02 0.  1.
    10030    2    1    2    0    0  0.00000000000E+00  0.00000000000E+00 -0.23846982034E+03  0.55201520004E+03  0.49784829603E+03 0.  0.
        1    1    3    3  502    0 -0.11246536977E+03  0.10255435929E+03 -0.33763619307E+03  0.37035665905E+03  0.50400001928E-02 0.  1.
       -1    1    3    3    0  502  0.11246536977E+03 -0.10255435929E+03  0.99166372726E+02  0.18165854099E+03  0.50400001928E-02 0. -1.
</event>
<event>
 5   0  0.7698747E-02  0.4997843E+03  0.7818609E-02  0.1013835E+00
       -2   -1    0    0    0  501  0.00000000000E+00  0.00000000000E+00  0.90730133774E+03  0.90730133775E+03  0.25500000920E-02 0.  1.
        2   -1    0    0  501    0  0.00000000000E+00  0.00000000000E+00 -0.68826185499E+02  0.68826185546E+02  0.25500000920E-02 0. -1.
    10030    2    1    2    0    0  0.00000000000E+00  0.00000000000E+00  0.83847515224E+03  0.97612752329E+03  0.49978431428E+03 0.  0.
        2    1    3    3  502    0 -0.38899888695E+02 -0.78887540604E+01 -0.62630249484E+02  0.74148377852E+02  0.25500000920E-02 0. -1.
       -2    1    3    3    0  502  0.38899888695E+02  0.78887540604E+01  0.90110540173E+03  0.90197914544E+03  0.25500000920E-02 0.  1.
</event>
<event>
 5   0  0.4884478E-02  0.5021154E+03  0.7818609E-02  0.1013228E+00
        1   -1    0    0  501    0  0.00000000000E+00  0.00000000000E+00  0.43246538230E+03  0.43246538233E+03  0.50400001928E-02 0.  1.
       -1   -1    0    0    0  501  0.00000000000E+00  0.00000000000E+00 -0.14574570036E+03  0.14574570045E+03  0.50400001928E-02 0. -1.
    10030    2    1    2    0    0  0.00000000000E+00  0.00000000000E+00  0.28671968194E+03  0.57821108278E+03  0.50211540530E+03 0.  0.
        3    1    3    3  502    0  0.14688972104E+03 -0.19709625991E+03  0.20215021661E+03  0.31825814380E+03  0.10100000352E+00 0.  1.
       -3    1    3    3    0  502 -0.14688972104E+03  0.19709625991E+03  0.84569465329E+02  0.25995293898E+03  0.10100000352E+00 0. -1.
</event>
<event>
 5   0  0.3210875E-02  0.5067934E+03  0.7818609E-02  0.1012021E+00
       -3   -1    0    0    0  501  0.00000000000E+00  0.00000000000E+00  0.10845752054E+03  0.10845756757E+03  0.10100000352E+00 0.  1.
        3   -1    0    0  501    0  0.00000000000E+00  0.00000000000E+00 -0.59202769167E+03  0.59202770028E+03  0.10100000352E+00 0. -1.
    10030    2    1    2    0    0  0.00000000000E+00  0.00000000000E+00 -0.48357017112E+03  0.70048526785E+03  0.50679335047E+03 0.  0.
        4    1    3    3  502    0 -0.87796202182E+02  0.15292125683E+03 -0.49331036853E+03  0.52387958206E+03  0.12699999809E+01 0. -1.
       -4    1    3    3    0  502  0.87796202182E+02 -0.15292125683E+03  0.97401974080E+01  0.17660568579E+03  0.12699999809E+01 0.  1.
</event>
<event>
 5   0  0.8208720E-02  0.4994279E+03  0.7818609E-02  0.1013928E+00
       -2   -1    0    0    0  501  0.00000000000E+00  0.00000000000E+00  0.78001293201E+02  0.78001293243E+02  0.25500000920E-02 0.  1.
        2   -1    0    0  501    0  0.00000000000E+00  0.00000000000E+00 -0.79943624846E+03  0.79943624846E+03  0.25500000920E-02 0. -1.
    10030    2    1    2    0    0  0.00000000000E+00  0.00000000000E+00 -0.72143495526E+03  0.87743754171E+03  0.49942791765E+03 0.  0.
        3    1    3    3  502    0 -0.19765427659E+03  0.11826371969E+03 -0.53017751245E+03  0.57804993328E+03  0.10100000352E+00 0. -1.
       -3    1    3    3    0  502  0.19765427659E+03 -0.11826371969E+03 -0.19125744281E+03  0.29938760843E+03  0.10100000352E+00 0.  1.
</event>
<event>
 5   0  0.5191358E-02  0.5008700E+03  0.7818609E-02  0.1013552E+00
       -1   -1    0    0    0  501  0.00000000000E+00  0.00000000000E+00  0.10827040842E+03  0.10827040854E+03  0.50400001928E-02 0. -1.
        1   -1    0    0  501    0  0.00000000000E+00  0.00000000000E+00 -0.57926898580E+03  0.57926898582E+03  0.50400001928E-02 0.  1.
    10030    2    1    2    0    0  0.00000000000E+00  0.00000000000E+00 -0.47099857737E+03  0.68753939436E+03  0.50087000201E+03 0.  0.
        4    1    3    3  502    0 -0.20903832755E+03 -0.56498308220E+02 -0.40819112452E+03  0.46207216780E+03  0.12699999809E+01 0.  1.
       -4    1    3    3    0  502  0.20903832755E+03  0.56498308220E+02 -0.62807452847E+02  0.22546722656E+03  0.12699999809E+01 0. -1.
</event>
<event>
 5   0  0.7698747E-02  0.5078812E+03  0.7818609E-02  0.1011742E+00
        2   -1    0    0  501    0  0.00000000000E+00  0.00000000000E+00  0.10678766667E+04  0.10678766667E+04  0.25500000920E-02 0. -1.
       -2   -1    0    0    0  501  0.00000000000E+00  0.00000000000E+00 -0.60386961242E+02  0.60386961296E+02  0.25500000920E-02 0.  1.
    10030    2    1    2    0    0  0.00000000000E+00  0.00000000000E+00  0.10074897055E+04  0.11282636280E+04  0.50788119445E+03 0.  0.
        2    1    3    3  502    0  0.19223912894E+03  0.13901946885E+03  0.70495453747E+03  0.74380319664E+03  0.25500000920E-02 0.  1.
       -2    1    3    3    0  502 -0.19223912894E+03 -0.13901946885E+03  0.30253516803E+03  0.38446043141E+03  0.25500000920E-02 0. -1.
</event>
<event>
 5   0  0.4865501E-02  0.4983423E+03  0.7818609E-02  0.1014213E+00
       -1   -1    0    0    0  501  0.00000000000E+00  0.00000000000E+00  0.50927560797E+03  0.50927560800E+03  0.50400001928E-02 0.  1.
        1   -1    0    0  501    0  0.00000000000E+00  0.00000000000E+00 -0.12191092930E+03  0.12191092940E+03  0.50400001928E-02 0. -1.
    10030    2    1    2    0    0  0.00000000000E+00  0.00000000000E+00  0.38736467868E+03  0.63118653739E+03  0.49834230274E+03 0.  0.
        2    1    3    3  502    0 -0.41603193559E+02  0.20555330770E+03  0.36409762334E+03  0.42017861363E+03  0.25500000920E-02 0.  1.
       -2    1    3    3    0  502  0.41603193559E+02 -0.20555330770E+03  0.23267055335E+02  0.21100792377E+03  0.25500000920E-02 0. -1.
</event>
<event>
 5   0  0.8208720E-02  0.5016743E+03  0.7818609E-02  0.1013343E+00
       -2   -1    0    0    0  501  0.00000000000E+00  0.00000000000E+00  0.49479187707E+02  0.49479187773E+02  0.25500000920E-02 0.  1.
        2   -1    0    0  501    0  0.00000000000E+00  0.00000000000E+00 -0.12716311479E+04  0.12716311479E+04  0.25500000920E-02 0. -1.
    10030    2    1    2    0    0  0.00000000000E+00  0.00000000000E+00 -0.12221519602E+04  0.13211103357E+04  0.50167430194E+03 0.  0.
        3    1    3    3  502    0  0.59284843941E+02 -0.18366012659E+02  0.28939765827E+02  0.68480094839E+02  0.10100000352E+00 0.  1.
       -3    1    3    3    0  502 -0.59284843941E+02  0.18366012659E+02 -0.12510917260E+04  0.12526302408E+04  0.10100000352E+00 0. -1.
</event>
<event>
 5   0  0.7933103E-02  0.4990097E+03  0.7818609E-02  0.1014038E+00
        2   -1    0    0  501    0  0.00000000000E+00  0.00000000000E+00  0.10858340507E+04  0.10858340507E+04  0.25500000920E-02 0. -1.
       -2   -1    0    0    0  501  0.00000000000E+00  0.00000000000E+00 -0.57331650691E+02  0.57331650748E+02  0.25500000920E-02 0.  1.
    10030    2    1    2    0    0  0.00000000000E+00  0.00000000000E+00  0.10285024000E+04  0.11431657014E+04  0.49900965335E+03 0.  0.
        5    1    3    3  502    0  0.12542582462E+03  0.93434173836E+02  0.69038132864E+02  0.17102612698E+03  0.46999998093E+01 0.  1.
       -5    1    3    3    0  502 -0.12542582462E+03 -0.93434173836E+02  0.95946426710E+03  0.97213957443E+03  0.46999998093E+01 0. -1.
</event>
<event>
 5   0  0.4865501E-02  0.5051703E+03  0.7818609E-02  0.1012438E+00
        1   -1    0    0  501    0  0.00000000000E+00  0.00000000000E+00  0.58338738170E+03  0.58338738173E+03  0.50400001928E-02 0.  1.
       -1   -1    0    0    0  501  0.00000000000E+00  0.00000000000E+00 -0.10936002588E+03  0.10936002600E+03  0.50400001928E-02 0. -1.
    10030    2    1    2    0    0  0.00000000000E+00  0.00000000000E+00  0.47402735582E+03  0.69274740772E+03  0.50517030479E+03 0.  0.
        2    1    3    3  502    0  0.20009789630E+03  0.15408477052E+03  0.23119979027E+03  0.34239542584E+03  0.25500000920E-02 0.  1.
       -2    1    3    3    0  502 -0.20009789630E+03 -0.15408477052E+03  0.24282756555E+03  0.35035198188E+03  0.25500000920E-02 0. -1.
</event>
<event>
 5   0  0.8208720E-02  0.5010251E+03  0.7818609E-02  0.1013512E+00
       -2   -1    0    0    0  501  0.00000000000E+00  0.00000000000E+00  0.70963898902E+02  0.70963898948E+02  0.25500000920E-02 0.  1.
        2   -1    0    0  501    0  0.00000000000E+00  0.00000000000E+00 -0.88434457560E+03  0.88434457560E+03  0.25500000920E-02 0. -1.
    10030    2    1    2    0    0  0.00000000000E+00  0.00000000000E+00 -0.81338067670E+03  0.95530847455E+03  0.50102510548E+03 0.  0.
        3    1    3    3  502    0  0.24176754555E+03 -0.29313020077E+02 -0.29476594673E+03  0.38235817342E+03  0.10100000352E+00 0.  1.
       -3    1    3    3    0  502 -0.24176754555E+03  0.29313020077E+02 -0.51861472996E+03  0.57295030113E+03  0.10100000352E+00 0. -1.
</event>
<event>
 5   0  0.7881060E-02  0.4968327E+03  0.7818609E-02  0.1014609E+00
       -2   -1    0    0    0  501  0.00000000000E+00  0.00000000000E+00  0.13401930786E+03  0.13401930788E+03  0.25500000920E-02 0. -1.
        2   -1    0    0  501    0  0.00000000000E+00  0.00000000000E+00 -0.46046120123E+03  0.46046120124E+03  0.25500000920E-02 0.  1.
    10030    2    1    2    0    0  0.00000000000E+00  0.00000000000E+00 -0.32644189337E+03  0.59448050912E+03  0.49683273440E+03 0.  0.
        1    1    3    3  502    0 -0.49101339797E+02 -0.24342012339E+03 -0.17137090991E+03  0.30171557273E+03  0.50400001928E-02 0.  1.
       -1    1    3    3    0  502  0.49101339797E+02  0.24342012339E+03 -0.15507098346E+03  0.29276493639E+03  0.50400001928E-02 0. -1.
</event>
<event>
 5   0  0.4884478E-02  0.5003306E+03  0.7818609E-02  0.1013693E+00
        1   -1    0    0  501    0  0.00000000000E+00  0.00000000000E+00  0.89709014571E+03  0.89709014572E+03  0.50400001928E-02 0. -1.
       -1   -1    0    0    0  501  0.00000000000E+00  0.00000000000E+00 -0.69761848800E+02  0.69761848982E+02  0.50400001928E-02 0.  1.
    10030    2    1    2    0    0  0.00000000000E+00  0.00000000000E+00  0.82732829691E+03  0.96685199471E+03  0.50033055953E+03 0.  0.
        3    1    3    3  502    0 -0.23120526748E+03  0.16643449978E+02  0.23187450913E+03  0.32786991067E+03  0.10100000352E+00 0.  1.
       -3    1    3    3    0  502  0.23120526748E+03 -0.16643449978E+02  0.59545378778E+03  0.63898208404E+03  0.10100000352E+00 0. -1.
</event>
<event>
 5   0  0.8208720E-02  0.5062222E+03  0.7818609E-02  0.1012167E+00
        2   -1    0    0  501    0  0.00000000000E+00  0.00000000000E+00  0.76383045320E+03  0.76383045320E+03  0.25500000920E-02 0. -1.
       -2   -1    0    0    0  501  0.00000000000E+00  0.00000000000E+00 -0.83873629399E+02  0.83873629438E+02  0.25500000920E-02 0.  1.
    10030    2    1    2    0    0  0.00000000000E+00  0.00000000000E+00  0.67995682380E+03  0.84770408264E+03  0.50622221355E+03 0.  0.
        3    1    3    3  502    0 -0.18726105943E+03 -0.45409940298E+02  0.61481420796E+03  0.64430217101E+03  0.10100000352E+00 0. -1.
       -3    1    3    3    0  502  0.18726105943E+03  0.45409940298E+02  0.65142615840E+02  0.20340191163E+03  0.10100000352E+00 0.  1.
</event>
<event>
 5   0  0.5191358E-02  0.4996587E+03  0.7818609E-02  0.1013868E+00
        1   -1    0    0  501    0  0.00000000000E+00  0.00000000000E+00  0.99643363084E+03  0.99643363085E+03  0.50400001928E-02 0. -1.
       -1   -1    0    0    0  501  0.00000000000E+00  0.00000000000E+00 -0.62638104429E+02  0.62638104632E+02  0.50400001928E-02 0.  1.
    10030    2    1    2    0    0  0.00000000000E+00  0.00000000000E+00  0.93379552641E+03  0.10590717355E+04  0.49965873930E+03 0.  0.
        4    1    3    3  502    0 -0.30462518266E+02  0.20436583746E+03  0.76454543351E+03  0.79197518480E+03  0.12699999809E+01 0. -1.
       -4    1    3    3    0  502  0.30462518266E+02 -0.20436583746E+03  0.16925009290E+03  0.26709655069E+03  0.12699999809E+01 0.  1.
</event>
<event>
 5   0  0.5191358E-02  0.4986872E+03  0.7818609E-02  0.1014122E+00
        1   -1    0    0  501    0  0.00000000000E+00  0.00000000000E+00  0.90017030793E+03  0.90017030794E+03  0.50400001928E-02 0.  1.
       -1   -1    0    0    0  501  0.00000000000E+00  0.00000000000E+00 -0.69067183106E+02  0.69067183289E+02  0.50400001928E-02 0. -1.
    10030    2    1    2    0    0  0.00000000000E+00  0.00000000000E+00  0.83110312482E+03  0.96923749123E+03  0.49868718684E+03 0.  0.
        4    1    3    3  502    0 -0.19498979923E+03 -0.15334361987E+03  0.46454080132E+03  0.52662610697E+03  0.12699999809E+01 0.  1.
       -4    1    3    3    0  502  0.19498979923E+03  0.15334361987E+03  0.36656232351E+03  0.44261138426E+03  0.12699999809E+01 0. -1.
</event>
<event>
 5   0  0.4884478E-02  0.5001744E+03  0.7818609E-02  0.1013733E+00
       -1   -1    0    0    0  501  0.00000000000E+00  0.00000000000E+00  0.44841568043E+02  0.44841568326E+02  0.50400001928E-02 0. -1.
        1   -1    0    0  501    0  0.00000000000E+00  0.00000000000E+00 -0.13947683513E+04  0.13947683513E+04  0.50400001928E-02 0.  1.
    10030    2    1    2    0    0  0.00000000000E+00  0.00000000000E+00 -0.13499267833E+04  0.14396099196E+04  0.50017437015E+03 0.  0.
        3    1    3    3  502    0 -0.97683583728E+01  0.74250294226E+02  0.11809744689E+02  0.75815613751E+02  0.10100000352E+00 0. -1.
       -3    1    3    3    0  502  0.97683583728E+01 -0.74250294226E+02 -0.13617365279E+04  0.13637943059E+04  0.10100000352E+00 0.  1.
</event>
<event>
 5   0  0.7776070E-02  0.5009318E+03  0.7818609E-02  0.1013536E+00
       -2   -1    0    0    0  501  0.00000000000E+00  0.00000000000E+00  0.46751252311E+02  0.46751252381E+02  0.25500000920E-02 0.  1.
        2   -1    0    0  501    0  0.00000000000E+00  0.00000000000E+00 -0.13418497294E+04  0.13418497294E+04  0.25500000920E-02 0. -1.
    10030    2    1    2    0    0  0.00000000000E+00  0.00000000000E+00 -0.12950984771E+04  0.13886009818E+04  0.50093175309E+03 0.  0.
        4    1    3    3  502    0 -0.17746184582E+02  0.13540679718E+03 -0.65542982316E+02  0.15148406919E+03  0.12699999809E+01 0.  1.
       -4    1    3    3    0  502  0.17746184582E+02 -0.13540679718E+03 -0.12295554948E+04  0.12371169126E+04  0.12699999809E+01 0. -1.
</event>
<event>
 5   0  0.7776070E-02  0.4983234E+03  0.7818609E-02  0.1014217E+00
       -2   -1    0    0    0  501  0.00000000000E+00  0.00000000000E+00  0.26237995404E+03  0.26237995406E+03  0.25500000920E-02 0.  1.
        2   -1    0    0  501    0  0.00000000000E+00  0.00000000000E+00 -0.23660939685E+03  0.23660939686E+03  0.25500000920E-02 0. -1.
    10030    2    1    2    0    0  0.00000000000E+00  0.00000000000E+00  0.25770557196E+02  0.49898935092E+03  0.49832343986E+03 0.  0.
        4    1    3    3  502    0  0.18220212570E+03 -0.15294072845E+03 -0.61318192244E+02  0.24566239971E+03  0.12699999809E+01 0. -1.
       -4    1    3    3    0  502 -0.18220212570E+03  0.15294072845E+03  0.87088749440E+02  0.25332695121E+03  0.12699999809E+01 0.  1.
</event>
<event>
 5   0  0.3210875E-02  0.4915386E+03  0.7818609E-02  0.1016011E+00
       -4   -1    0    0    0  501  0.00000000000E+00  0.00000000000E+00  0.12984903018E+03  0.12985524071E+03  0.12699999809E+01 0. -1.
        4   -1    0    0  501    0  0.00000000000E+00  0.00000000000E+00 -0.46515703358E+03  0.46515876729E+03  0.12699999809E+01 0.  1.
    10030    2    1    2    0    0  0.00000000000E+00  0.00000000000E+00 -0.33530800340E+03  0.59501400800E+03  0.49153861758E+03 0.  0.
        4    1    3    3  502    0  0.22504012799E+03 -0.91034475748E+02 -0.21407533437E+03  0.32366679883E+03  0.12699999809E+01 0.  1.
       -4    1    3    3    0  502 -0.22504012799E+03  0.91034475748E+02 -0.12123266903E+03  0.27134720916E+03  0.12699999809E+01 0. -1.
</event>
<event>
 5   0  0.4884478E-02  0.4968817E+03  0.7818609E-02  0.1014596E+00
       -1   -1    0    0    0  501  0.00000000000E+00  0.00000000000E+00  0.45422203050E+03  0.45422203052E+03  0.50400001928E-02 0.  1.
        1   -1    0    0  501    0  0.00000000000E+00  0.00000000000E+00 -0.13588696251E+03  0.13588696261E+03  0.50400001928E-02 0. -1.
    10030    2    1    2    0    0  0.00000000000E+00  0.00000000000E+00  0.31833506798E+03  0.59010899313E+03  0.49688168437E+03 0.  0.
        3    1    3    3  502    0  0.18730802606E+03  0.14940094037E+03  0.23720726232E+03  0.33715313006E+03  0.10100000352E+00 0.  1.
       -3    1    3    3    0  502 -0.18730802606E+03 -0.14940094037E+03  0.81127805660E+02  0.25295586307E+03  0.10100000352E+00 0. -1.
</event>
<event>
 5   0  0.4803890E-02  0.5012558E+03  0.7818609E-02  0.1013452E+00
        1   -1    0    0  501    0  0.00000000000E+00  0.00000000000E+00  0.57135818549E+03  0.57135818552E+03  0.50400001928E-02 0.  1.
       -1   -1    0    0    0  501  0.00000000000E+00  0.00000000000E+00 -0.10993864325E+03  0.10993864336E+03  0.50400001928E-02 0. -1.
    10030    2    1    2    0    0  0.00000000000E+00  0.00000000000E+00  0.46141954225E+03  0.68129682888E+03  0.50125579805E+03 0.  0.
        5    1    3    3  502    0 -0.23342911585E+03  0.82665084359E+02  0.28281416924E+03  0.37593697959E+03  0.46999998093E+01 0.  1.
       -5    1    3    3    0  502  0.23342911585E+03 -0.82665084359E+02  0.17860537300E+03  0.30535984930E+03  0.46999998093E+01 0. -1.
</event>
<event>
 5   0  0.7698747E-02  0.4969652E+03  0.7818609E-02  0.1014574E+00
        2   -1    0    0  501    0  0.00000000000E+00  0.00000000000E+00  0.17627986952E+03  0.17627986953E+03  0.25500000920E-02 0. -1.
       -2   -1    0    0    0  501  0.00000000000E+00  0.00000000000E+00 -0.35025894161E+03  0.35025894162E+03  0.25500000920E-02 0.  1.
    10030    2    1    2    0    0  0.00000000000E+00  0.00000000000E+00 -0.17397907209E+03  0.52653881115E+03  0.49696519206E+03 0.  0.
        2    1    3    3  502    0  0.51005542199E+02 -0.47477311315E+02 -0.33969493544E+03  0.34676838033E+03  0.25500000920E-02 0.  1.
       -2    1    3    3    0  502 -0.51005542199E+02  0.47477311315E+02  0.16571586335E+03  0.17977043082E+03  0.25500000920E-02 0. -1.
</event>
<event>
 5   0  0.8208720E-02  0.5144015E+03  0.7818609E-02  0.1010087E+00
        2   -1    0    0  501    0  0.00000000000E+00  0.00000000000E+00  0.86535164065E+03  0.86535164065E+03  0.25500000920E-02 0. -1.
       -2   -1    0    0    0  501  0.00000000000E+00  0.00000000000E+00 -0.76445485251E+02  0.76445485293E+02  0.25500000920E-02 0.  1.
    10030    2    1    2    0    0  0.00000000000E+00  0.00000000000E+00  0.78890615540E+03  0.94179712595E+03  0.51440150118E+03 0.  0.
        3    1    3    3  502    0 -0.22233890531E+03  0.87167982182E+02  0.56929177061E+03  0.61735401207E+03  0.10100000352E+00 0. -1.
       -3    1    3    3    0  502  0.22233890531E+03 -0.87167982182E+02  0.21961438479E+03  0.32444311387E+03  0.10100000352E+00 0.  1.
</event>
<event>
 5   0  0.7881060E-02  0.5009319E+03  0.7818609E-02  0.1013536E+00
        2   -1    0    0  501    0  0.00000000000E+00  0.00000000000E+00  0.24243598261E+03  0.24243598262E+03  0.25500000920E-02 0.  1.
       -2   -1    0    0    0  501  0.00000000000E+00  0.00000000000E+00 -0.25876191945E+03  0.25876191946E+03  0.25500000920E-02 0. -1.
    10030    2    1    2    0    0  0.00000000000E+00  0.00000000000E+00 -0.16325936843E+02  0.50119790209E+03  0.50093193234E+03 0.  0.
        1    1    3    3  502    0  0.13674276258E+03  0.15930939085E+03 -0.14481928988E+03  0.25505037126E+03  0.50400001928E-02 0. -1.
       -1    1    3    3    0  502 -0.13674276258E+03 -0.15930939085E+03  0.12849335304E+03  0.24614753083E+03  0.50400001928E-02 0.  1.
</event>
<event>
 5   0  0.7698747E-02  0.5008896E+03  0.7818609E-02  0.1013547E+00
       -2   -1    0    0    0  501  0.00000000000E+00  0.00000000000E+00  0.45549959392E+02  0.45549959463E+02  0.25500000920E-02 0. -1.
        2   -1    0    0  501    0  0.00000000000E+00  0.00000000000E+00 -0.13770066456E+04  0.13770066456E+04  0.25500000920E-02 0.  1.
    10030    2    1    2    0    0  0.00000000000E+00  0.00000000000E+00 -0.13314566862E+04  0.14225566050E+04  0.50088959598E+03 0.  0.
        2    1    3    3  502    0  0.72506734580E+02  0.20975822335E+03 -0.33614846708E+03  0.40280458134E+03  0.25500000920E-02 0.  1.
       -2    1    3    3    0  502 -0.72506734580E+02 -0.20975822335E+03 -0.99530821908E+03  0.10197520237E+04  0.25500000920E-02 0. -1.
</event>
<event>
 5   0  0.8208720E-02  0.5032863E+03  0.7818609E-02  0.1012925E+00
       -2   -1    0    0    0  501  0.00000000000E+00  0.00000000000E+00  0.53949902650E+02  0.53949902711E+02  0.25500000920E-02 0. -1.
        2   -1    0    0  501    0  0.00000000000E+00  0.00000000000E+00 -0.11737607777E+04  0.11737607777E+04  0.25500000920E-02 0.  1.
    10030    2    1    2    0    0  0.00000000000E+00  0.00000000000E+00 -0.11198108751E+04  0.12277106804E+04  0.50328631903E+03 0.  0.
        3    1    3    3  502    0  0.10493979363E+02  0.11025949281E+03 -0.87063198954E+01  0.11109945799E+03  0.10100000352E+00 0. -1.
       -3    1    3    3    0  502 -0.10493979363E+02 -0.11025949281E+03 -0.11111045552E+04  0.11166112224E+04  0.10100000352E+00 0.  1.
</event>
<event>
 5   0  0.4884478E-02  0.5011548E+03  0.7818609E-02  0.1013478E+00
        1   -1    0    0  501    0  0.00000000000E+00  0.00000000000E+00  0.15667431271E+03  0.15667431279E+03  0.50400001928E-02 0.  1.
       -1   -1    0    0    0  501  0.00000000000E+00  0.00000000000E+00 -0.40076155194E+03  0.40076155198E+03  0.50400001928E-02 0. -1.
    10030    2    1    2    0    0  0.00000000000E+00  0.00000000000E+00 -0.24408723923E+03  0.55743586477E+03  0.50115482934E+03 0.  0.
        3    1    3    3  502    0 -0.24269631304E+03 -0.37011876618E+02 -0.66232496019E+02  0.25427963564E+03  0.10100000352E+00 0.  1.
       -3    1    3    3    0  502  0.24269631304E+03  0.37011876618E+02 -0.17785474321E+03  0.30315622913E+03  0.10100000352E+00 0. -1.
</event>
<event>
 5   0  0.7933103E-02  0.5007868E+03  0.7818609E-02  0.1013574E+00
        2   -1    0    0  501    0  0.00000000000E+00  0.00000000000E+00  0.17321445413E+04  0.17321445413E+04  0.25500000920E-02 0. -1.
       -2   -1    0    0    0  501  0.00000000000E+00  0.00000000000E+00 -0.36196081859E+02  0.36196081948E+02  0.25500000920E-02 0.  1.
    10030    2    1    2    0    0  0.00000000000E+00  0.00000000000E+00  0.16959484595E+04  0.17683406233E+04  0.50078676376E+03 0.  0.
        5    1    3    3  502    0 -0.21455765170E+03 -0.12255459432E+03  0.99010546016E+03  0.10204829870E+04  0.46999998093E+01 0. -1.
       -5    1    3    3    0  502  0.21455765170E+03  0.12255459432E+03  0.70584299931E+03  0.74785763630E+03  0.46999998093E+01 0.  1.
</event>
<event>
 5   0  0.4803890E-02  0.4989861E+03  0.7818609E-02  0.1014044E+00
       -1   -1    0    0    0  501  0.00000000000E+00  0.00000000000E+00  0.56949353158E+02  0.56949353381E+02  0.50400001928E-02 0.  1.
        1   -1    0    0  501    0  0.00000000000E+00  0.00000000000E+00 -0.10930199737E+04  0.10930199737E+04  0.50400001928E-02 0. -1.
    10030    2    1    2    0    0  0.00000000000E+00  0.00000000000E+00 -0.10360706206E+04  0.11499693271E+04  0.49898609450E+03 0.  0.
        5    1    3    3  502    0  0.19961022340E+03  0.48675292357E+02 -0.84404762312E+03  0.86870708842E+03  0.46999998093E+01 0. -1.
       -5    1    3    3    0  502 -0.19961022340E+03 -0.48675292357E+02 -0.19202299745E+03  0.28126223870E+03  0.46999998093E+01 0.  1.
</event>
<event>
 5   0  0.4884478E-02  0.4911889E+03  0.7818609E-02  0.1016105E+00
       -1   -1    0    0    0  501  0.00000000000E+00  0.00000000000E+00  0.58234312083E+02  0.58234312301E+02  0.50400001928E-02 0. -1.
        1   -1    0    0  501    0  0.00000000000E+00  0.00000000000E+00 -0.10357576707E+04  0.10357576707E+04  0.50400001928E-02 0.  1.
    10030    2    1    2    0    0  0.00000000000E+00  0.00000000000E+00 -0.97752335859E+03  0.10939919830E+04  0.49118890689E+03 0.  0.
        3    1    3    3  502    0  0.96825468289E+02 -0.16245190045E+03 -0.83774021423E+03  0.85882155772E+03  0.10100000352E+00 0.  1.
       -3    1    3    3    0  502 -0.96825468289E+02  0.16245190045E+03 -0.13978314436E+03  0.23517042526E+03  0.10100000352E+00 0. -1.
</event>
<event>
 5   0  0.3210875E-02  0.5046043E+03  0.7818609E-02  0.1012584E+00
        3   -1    0    0  501    0  0.00000000000E+00  0.00000000000E+00  0.97319323736E+02  0.97319376146E+02  0.10100000352E+00 0. -1.
       -3   -1    0    0    0  501  0.00000000000E+00  0.00000000000E+00 -0.65409784071E+03  0.65409784851E+03  0.10100000352E+00 0.  1.
    10030    2    1    2    0    0  0.00000000000E+00  0.00000000000E+00 -0.55677851697E+03  0.75141722465E+03  0.50460432870E+03 0.  0.
        3    1    3    3  502    0 -0.10224180265E+02 -0.39137128349E+02 -0.64923772446E+03  0.65049664237E+03  0.10100000352E+00 0.  1.
       -3    1    3    3    0  502  0.10224180265E+02  0.39137128349E+02  0.92459207486E+02  0.10092058228E+03  0.10100000352E+00 0. -1.
</event>
<event>
 5   0  0.8208720E-02  0.4999165E+03  0.7818609E-02  0.1013801E+00
       -2   -1    0    0    0  501  0.00000000000E+00  0.00000000000E+00  0.56045831377E+02  0.56045831435E+02  0.25500000920E-02 0.  1.
        2   -1    0    0  501    0  0.00000000000E+00  0.00000000000E+00 -0.11147862156E+04  0.11147862156E+04  0.25500000920E-02 0. -1.
    10030    2    1    2    0    0  0.00000000000E+00  0.00000000000E+00 -0.10587403842E+04  0.11708320470E+04  0.49991647421E+03 0.  0.
        3    1    3    3  502    0  0.21027223108E+03 -0.77597561381E+02 -0.78851750298E+03  0.81975341134E+03  0.10100000352E+00 0. -1.
       -3    1    3    3    0  502 -0.21027223108E+03  0.77597561381E+02 -0.27022288124E+03  0.35107863570E+03  0.10100000352E+00 0.  1.
</event>
<event>
 5   0  0.5038436E-02  0.5005576E+03  0.7818609E-02  0.1013633E+00
       -1   -1    0    0    0  501  0.00000000000E+00  0.00000000000E+00  0.37366202520E+02  0.37366202860E+02  0.50400001928E-02 0.  1.
        1   -1    0    0  501    0  0.00000000000E+00  0.00000000000E+00 -0.16763670975E+04  0.16763670975E+04  0.50400001928E-02 0. -1.
    10030    2    1    2    0    0  0.00000000000E+00  0.00000000000E+00 -0.16390008950E+04  0.17137333003E+04  0.50055758014E+03 0.  0.
        1    1    3    3  502    0  0.13023106909E+03 -0.71533805845E+02 -0.12997508672E+03  0.19741008062E+03  0.50400001928E-02 0.  1.
       -1    1    3    3    0  502 -0.13023106909E+03  0.71533805845E+02 -0.15090258082E+04  0.15163232197E+04  0.50400001928E-02 0. -1.
</event>
<event>
 5   0  0.4884478E-02  0.5013162E+03  0.7818609E-02  0.1013436E+00
       -1   -1    0    0    0  501  0.00000000000E+00  0.00000000000E+00  0.18368591447E+03  0.18368591454E+03  0.50400001928E-02 0. -1.
        1   -1    0    0  501    0  0.00000000000E+00  0.00000000000E+00 -0.34204838734E+03  0.34204838738E+03  0.50400001928E-02 0.  1.
    10030    2    1    2    0    0  0.00000000000E+00  0.00000000000E+00 -0.15836247287E+03  0.52573430192E+03  0.50131615115E+03 0.  0.
        3    1    3    3  502    0 -0.16986568241E+03  0.64882204058E+02 -0.26011122384E+03  0.31736715242E+03  0.10100000352E+00 0.  1.
       -3    1    3    3    0  502  0.16986568241E+03 -0.64882204058E+02  0.10174875097E+03  0.20836714950E+03  0.10100000352E+00 0. -1.
</event>
<event>
 5   0  0.4865501E-02  0.5034321E+03  0.7818609E-02  0.1012887E+00
       -1   -1    0    0    0  501  0.00000000000E+00  0.00000000000E+00  0.16931487922E+03  0.16931487930E+03  0.50400001928E-02 0. -1.
        1   -1    0    0  501    0  0.00000000000E+00  0.00000000000E+00 -0.37421968224E+03  0.37421968227E+03  0.50400001928E-02 0.  1.
    10030    2    1    2    0    0  0.00000000000E+00  0.00000000000E+00 -0.20490480301E+03  0.54353456157E+03  0.50343206227E+03 0.  0.
        2    1    3    3  502    0  0.11014583431E+03  0.11741698823E+03 -0.31136586539E+03  0.35052468683E+03  0.25500000920E-02 0.  1.
       -2    1    3    3    0  502 -0.11014583431E+03 -0.11741698823E+03  0.10646106237E+03  0.19300987474E+03  0.25500000920E-02 0. -1.
</event>
<event>
 5   0  0.4803890E-02  0.5016383E+03  0.7818609E-02  0.1013352E+00
       -1   -1    0    0    0  501  0.00000000000E+00  0.00000000000E+00  0.93644095924E+02  0.93644096059E+02  0.50400001928E-02 0. -1.
        1   -1    0    0  501    0  0.00000000000E+00  0.00000000000E+00 -0.67180148470E+03  0.67180148472E+03  0.50400001928E-02 0.  1.
    10030    2    1    2    0    0  0.00000000000E+00  0.00000000000E+00 -0.57815738878E+03  0.76544558078E+03  0.50163828695E+03 0.  0.
        5    1    3    3  502    0  0.13892717580E+02 -0.10246631741E+02 -0.67082658493E+03  0.67106512211E+03  0.46999998093E+01 0.  1.
       -5    1    3    3    0  502 -0.13892717580E+02  0.10246631741E+02  0.92669196156E+02  0.94380458667E+02  0.46999998093E+01 0. -1.
</event>
<event>
 5   0  0.7776070E-02  0.4956435E+03  0.7818609E-02  0.1014922E+00
       -2   -1    0    0    0  501  0.00000000000E+00  0.00000000000E+00  0.81477341463E+02  0.81477341503E+02  0.25500000920E-02 0. -1.
        2   -1    0    0  501    0  0.00000000000E+00  0.00000000000E+00 -0.75377545735E+03  0.75377545736E+03  0.25500000920E-02 0.  1.
    10030    2    1    2    0    0  0.00000000000E+00  0.00000000000E+00 -0.67229811589E+03  0.83525279886E+03  0.49564350230E+03 0.  0.
        4    1    3    3  502    0  0.21898708289E+02 -0.16758351330E+03 -0.64158325803E+03  0.66347153461E+03  0.12699999809E+01 0.  1.
       -4    1    3    3    0  502 -0.21898708289E+02  0.16758351330E+03 -0.30714857858E+02  0.17178126425E+03  0.12699999809E+01 0. -1.
</event>
<event>
 5   0  0.7881060E-02  0.5057552E+03  0.7818609E-02  0.1012288E+00
        2   -1    0    0  501    0  0.00000000000E+00  0.00000000000E+00  0.42894200777E+03  0.42894200778E+03  0.25500000920E-02 0. -1.
       -2   -1    0    0    0  501  0.00000000000E+00  0.00000000000E+00 -0.14908092665E+03  0.14908092667E+03  0.25500000920E-02 0.  1.
    10030    2    1    2    0    0  0.00000000000E+00  0.00000000000E+00  0.27986108112E+03  0.57802293445E+03  0.50575516609E+03 0.  0.
        1    1    3    3  502    0  0.44301992280E+02  0.14464222118E+03 -0.91665034055E+02  0.17687995127E+03  0.50400001928E-02 0.  1.
       -1    1    3    3    0  502 -0.44301992280E+02 -0.14464222118E+03  0.37152611518E+03  0.40114298318E+03  0.50400001928E-02 0. -1.
</event>
<event>
 5   0  0.5191358E-02  0.5038434E+03  0.7818609E-02  0.1012781E+00
        1   -1    0    0  501    0  0.00000000000E+00  0.00000000000E+00  0.21808695138E+03  0.21808695144E+03  0.50400001928E-02 0. -1.
       -1   -1    0    0    0  501  0.00000000000E+00  0.00000000000E+00 -0.29100563862E+03  0.29100563866E+03  0.50400001928E-02 0.  1.
    10030    2    1    2    0    0  0.00000000000E+00  0.00000000000E+00 -0.72918687239E+02  0.50909259010E+03  0.50384335894E+03 0.  0.
        4    1    3    3  502    0  0.76861558284E+01 -0.24246404269E+03  0.32182435972E+02  0.24471455019E+03  0.12699999809E+01 0. -1.
       -4    1    3    3    0  502 -0.76861558284E+01  0.24246404269E+03 -0.10510112321E+03  0.26437803991E+03  0.12699999809E+01 0.  1.
</event>
<event>
 5   0  0.7698747E-02  0.5039182E+03  0.7818609E-02  0.1012761E+00
       -2   -1    0    0    0  501  0.00000000000E+00  0.00000000000E+00  0.12791094498E+03  0.12791094501E+03  0.25500000920E-02 0. -1.
        2   -1    0    0  501    0  0.00000000000E+00  0.00000000000E+00 -0.49630922316E+03  0.49630922317E+03  0.25500000920E-02 0.  1.
    10030    2    1    2    0    0  0.00000000000E+00  0.00000000000E+00 -0.36839827818E+03  0.62422016817E+03  0.50391817490E+03 0.  0.
        2    1    3    3  502    0  0.24345398465E+03 -0.39450419121E+02 -0.24805344440E+03  0.34979521079E+03  0.25500000920E-02 0.  1.
       -2    1    3    3    0  502 -0.24345398465E+03  0.39450419121E+02 -0.12034483378E+03  0.27442495738E+03  0.25500000920E-02 0. -1.
</event>
<event>
 5   0  0.4803890E-02  0.4980636E+03  0.7818609E-02  0.1014286E+00
        1   -1    0    0  501    0  0.00000000000E+00  0.00000000000E+00  0.34256397608E+03  0.34256397611E+03  0.50400001928E-02 0. -1.
       -1   -1    0    0    0  501  0.00000000000E+00  0.00000000000E+00 -0.18103721778E+03  0.18103721785E+03  0.50400001928E-02 0.  1.
    10030    2    1    2    0    0  0.00000000000E+00  0.00000000000E+00  0.16152675830E+03  0.52360119396E+03  0.49806356690E+03 0.  0.
        5    1    3    3  502    0 -0.18948295862E+03  0.85200182359E+02  0.22502893462E+03  0.30630536087E+03  0.46999998093E+01 0. -1.
       -5    1    3    3    0  502  0.18948295862E+03 -0.85200182359E+02 -0.63502176322E+02  0.21729583309E+03  0.46999998093E+01 0.  1.
</event>
<event>
 5   0  0.7698747E-02  0.4995095E+03  0.7818609E-02  0.1013907E+00
        2   -1    0    0  501    0  0.00000000000E+00  0.00000000000E+00  0.42875135442E+03  0.42875135443E+03  0.25500000920E-02 0.  1.
       -2   -1    0    0    0  501  0.00000000000E+00  0.00000000000E+00 -0.14548628459E+03  0.14548628461E+03  0.25500000920E-02 0. -1.
    10030    2    1    2    0    0  0.00000000000E+00  0.00000000000E+00  0.28326506983E+03  0.57423763904E+03  0.49950952574E+03 0.  0.
        2    1    3    3  502    0 -0.12292985015E+02 -0.20674212071E+03 -0.18834992103E+02  0.20796196501E+03  0.25500000920E-02 0. -1.
       -2    1    3    3    0  502  0.12292985015E+02  0.20674212071E+03  0.30210006194E+03  0.36627567403E+03  0.25500000920E-02 0.  1.
</event>
<event>
 5   0  0.4865501E-02  0.4999213E+03  0.7818609E-02  0.1013799E+00
       -1   -1    0    0    0  501  0.00000000000E+00  0.00000000000E+00  0.12654586652E+03  0.12654586662E+03  0.50400001928E-02 0. -1.
        1   -1    0    0  501    0  0.00000000000E+00  0.00000000000E+00 -0.49373654469E+03  0.49373654471E+03  0.50400001928E-02 0.  1.
    10030    2    1    2    0    0  0.00000000000E+00  0.00000000000E+00 -0.36719067817E+03  0.62028241133E+03  0.49992126947E+03 0.  0.
        2    1    3    3  502    0  0.11575456224E+03 -0.10352916388E+03 -0.42661624610E+03  0.45400311441E+03  0.25500000920E-02 0.  1.
       -2    1    3    3    0  502 -0.11575456224E+03  0.10352916388E+03  0.59425567931E+02  0.16627929692E+03  0.25500000920E-02 0. -1.
</event>
<event>
 5   0  0.4865501E-02  0.5018926E+03  0.7818609E-02  0.1013286E+00
       -1   -1    0    0    0  501  0.00000000000E+00  0.00000000000E+00  0.14066150271E+03  0.14066150280E+03  0.50400001928E-02 0. -1.
        1   -1    0    0  501    0  0.00000000000E+00  0.00000000000E+00 -0.44769923197E+03  0.44769923200E+03  0.50400001928E-02 0.  1.
    10030    2    1    2    0    0  0.00000000000E+00  0.00000000000E+00 -0.30703772926E+03  0.58836073480E+03  0.50189260511E+03 0.  0.
        2    1    3    3  502    0 -0.15179141559E+03  0.19017140421E+03 -0.81556945822E+02  0.25662683462E+03  0.25500000920E-02 0.  1.
       -2    1    3    3    0  502  0.15179141559E+03 -0.19017140421E+03 -0.22548078344E+03  0.33173390018E+03  0.25500000920E-02 0. -1.
</event>
<event>
 5   0  0.4865501E-02  0.4937232E+03  0.7818609E-02  0.1015430E+00
        1   -1    0    0  501    0  0.00000000000E+00  0.00000000000E+00  0.23953586583E+04  0.23953586583E+04  0.50400001928E-02 0. -1.
       -1   -1    0    0    0  501  0.00000000000E+00  0.00000000000E+00 -0.25441140206E+02  0.25441140705E+02  0.50400001928E-02 0.  1.
    10030    2    1    2    0    0  0.00000000000E+00  0.00000000000E+00  0.23699175181E+04  0.24207997990E+04  0.49372322644E+03 0.  0.
        2    1    3    3  502    0  0.19973327769E+03 -0.88554705529E+02  0.62151564342E+03  0.65879967601E+03  0.25500000920E-02 0.  1.
       -2    1    3    3    0  502 -0.19973327769E+03  0.88554705529E+02  0.17484018747E+04  0.17620001230E+04  0.25500000920E-02 0. -1.
</event>
<event>
 5   0  0.7698747E-02  0.5070696E+03  0.7818609E-02  0.1011950E+00
       -2   -1    0    0    0  501  0.00000000000E+00  0.00000000000E+00  0.26992117429E+03  0.26992117430E+03  0.25500000920E-02 0.  1.
        2   -1    0    0  501    0  0.00000000000E+00  0.00000000000E+00 -0.23814325015E+03  0.23814325016E+03  0.25500000920E-02 0. -1.
    10030    2    1    2    0    0  0.00000000000E+00  0.00000000000E+00  0.31777924144E+02  0.50806442447E+03  0.50706964309E+03 0.  0.
        2    1    3    3  502    0  0.60288358884E+02 -0.18938118023E+03  0.17361439251E+03  0.26389747050E+03  0.25500000920E-02 0.  1.
       -2    1    3    3    0  502 -0.60288358884E+02  0.18938118023E+03 -0.14183646837E+03  0.24416695397E+03  0.25500000920E-02 0. -1.
</event>
<event>
 5   0  0.4803890E-02  0.4992152E+03  0.7818609E-02  0.1013984E+00
        1   -1    0    0  501    0  0.00000000000E+00  0.00000000000E+00  0.74667741337E+03  0.74667741339E+03  0.50400001928E-02 0.  1.
       -1   -1    0    0    0  501  0.00000000000E+00  0.00000000000E+00 -0.83441582115E+02  0.83441582268E+02  0.50400001928E-02 0. -1.
    10030    2    1    2    0    0  0.00000000000E+00  0.00000000000E+00  0.66323583126E+03  0.83011899566E+03  0.49921516312E+03 0.  0.
        5    1    3    3  502    0  0.19000829891E+02 -0.16915020391E+03  0.28135460952E+02  0.17258770866E+03  0.46999998093E+01 0.  1.
       -5    1    3    3    0  502 -0.19000829891E+02  0.16915020391E+03  0.63510037031E+03  0.65753128700E+03  0.46999998093E+01 0. -1.
</event>
<event>
 5   0  0.7933103E-02  0.5036842E+03  0.7818609E-02  0.1012822E+00
       -2   -1    0    0    0  501  0.00000000000E+00  0.00000000000E+00  0.15430553200E+03  0.15430553203E+03  0.25500000920E-02 0.  1.
        2   -1    0    0  501    0  0.00000000000E+00  0.00000000000E+00 -0.41103148276E+03  0.41103148277E+03  0.25500000920E-02 0. -1.
    10030    2    1    2    0    0  0.00000000000E+00  0.00000000000E+00 -0.25672595076E+03  0.56533701480E+03  0.50368415352E+03 0.  0.
        5    1    3    3  502    0 -0.74431844821E+02  0.24054557139E+03 -0.12866033251E+03  0.28280354065E+03  0.46999998093E+01 0. -1.
       -5    1    3    3    0  502  0.74431844821E+02 -0.24054557139E+03 -0.12806561824E+03  0.28253347415E+03  0.46999998093E+01 0.  1.
</event>
<event>
 5   0  0.7933103E-02  0.5021162E+03  0.7818609E-02  0.1013228E+00
        2   -1    0    0  501    0  0.00000000000E+00  0.00000000000E+00  0.15902584725E+04  0.15902584725E+04  0.25500000920E-02 0. -1.
       -2   -1    0    0    0  501  0.00000000000E+00  0.00000000000E+00 -0.39635171102E+02  0.39635171184E+02  0.25500000920E-02 0.  1.
    10030    2    1    2    0    0  0.00000000000E+00  0.00000000000E+00  0.15506233014E+04  0.16298936436E+04  0.50211618863E+03 0.  0.
        5    1    3    3  502    0  0.68697827183E+02 -0.20674039416E+03  0.37056835445E+03  0.42988833126E+03  0.46999998093E+01 0. -1.
       -5    1    3    3    0  502 -0.68697827183E+02  0.20674039416E+03  0.11800549469E+04  0.12000053124E+04  0.46999998093E+01 0.  1.
</event>
<event>
 5   0  0.7776070E-02  0.5052999E+03  0.7818609E-02  0.1012405E+00
        2   -1    0    0  501    0  0.00000000000E+00  0.00000000000E+00  0.15061095750E+03  0.15061095752E+03  0.25500000920E-02 0.  1.
       -2   -1    0    0    0  501  0.00000000000E+00  0.00000000000E+00 -0.42382041195E+03  0.42382041196E+03  0.25500000920E-02 0. -1.
    10030    2    1    2    0    0  0.00000000000E+00  0.00000000000E+00 -0.27320945446E+03  0.57443136948E+03  0.50529990326E+03 0.  0.
        4    1    3    3  502    0  0.15363332489E+03  0.14307806483E+03  0.23180578333E+02  0.21121904096E+03  0.12699999809E+01 0.  1.
       -4    1    3    3    0  502 -0.15363332489E+03 -0.14307806483E+03 -0.29639003279E+03  0.36321232852E+03  0.12699999809E+01 0. -1.
</event>
<event>
 5   0  0.5191358E-02  0.4987447E+03  0.7818609E-02  0.1014107E+00
       -1   -1    0    0    0  501  0.00000000000E+00  0.00000000000E+00  0.23269467901E+03  0.23269467907E+03  0.50400001928E-02 0. -1.
        1   -1    0    0  501    0  0.00000000000E+00  0.00000000000E+00 -0.26724529699E+03  0.26724529703E+03  0.50400001928E-02 0.  1.
    10030    2    1    2    0    0  0.00000000000E+00  0.00000000000E+00 -0.34550617972E+02  0.49993997610E+03  0.49874465862E+03 0.  0.
        4    1    3    3  502    0 -0.24234639652E+03 -0.58166738516E+02 -0.25649992451E+02  0.25054875851E+03  0.12699999809E+01 0.  1.
       -4    1    3    3    0  502  0.24234639652E+03  0.58166738516E+02 -0.89006255207E+01  0.24939121759E+03  0.12699999809E+01 0. -1.
</event>
<event>
 5   0  0.3210875E-02  0.4956809E+03  0.7818609E-02  0.1014912E+00
        4   -1    0    0  501    0  0.00000000000E+00  0.00000000000E+00  0.18948595441E+03  0.18949021035E+03  0.12699999809E+01 0. -1.
       -4   -1    0    0    0  501  0.00000000000E+00  0.00000000000E+00 -0.32415675427E+03  0.32415924210E+03  0.12699999809E+01 0.  1.
    10030    2    1    2    0    0  0.00000000000E+00  0.00000000000E+00 -0.13467079986E+03  0.51364945244E+03  0.49568088087E+03 0.  0.
        3    1    3    3  502    0  0.17470189687E+03 -0.16359605780E+03 -0.65649224975E+00  0.23934256638E+03  0.10100000352E+00 0. -1.
       -3    1    3    3    0  502 -0.17470189687E+03  0.16359605780E+03 -0.13401430761E+03  0.27430688607E+03  0.10100000352E+00 0.  1.
</event>
<event>
 5   0  0.3210875E-02  0.5010653E+03  0.7818609E-02  0.1013501E+00
        3   -1    0    0  501    0  0.00000000000E+00  0.00000000000E+00  0.32933015128E+02  0.32933170003E+02  0.10100000352E+00 0.  1.
       -3   -1    0    0    0  501  0.00000000000E+00  0.00000000000E+00 -0.19058823915E+04  0.19058823942E+04  0.10100000352E+00 0. -1.
    10030    2    1    2    0    0  0.00000000000E+00  0.00000000000E+00 -0.18729493764E+04  0.19388155642E+04  0.50106529061E+03 0.  0.
        4    1    3    3  502    0 -0.13831679206E+03  0.18659992858E+03 -0.57320692747E+03  0.61848109342E+03  0.12699999809E+01 0.  1.
       -4    1    3    3    0  502  0.13831679206E+03 -0.18659992858E+03 -0.12997424489E+04  0.13203344708E+04  0.12699999809E+01 0. -1.
</event>
<event>
 5   0  0.7698747E-02  0.4999319E+03  0.7818609E-02  0.1013797E+00
       -2   -1    0    0    0  501  0.00000000000E+00  0.00000000000E+00  0.10118859544E+03  0.10118859547E+03  0.25500000920E-02 0.  1.
        2   -1    0    0  501    0  0.00000000000E+00  0.00000000000E+00 -0.61749027400E+03  0.61749027400E+03  0.25500000920E-02 0. -1.
    10030    2    1    2    0    0  0.00000000000E+00  0.00000000000E+00 -0.51630167856E+03  0.71867886947E+03  0.49993188950E+03 0.  0.
        2    1    3    3  502    0  0.20544894092E+03 -0.10031767930E+03 -0.11289340020E+03  0.25498592887E+03  0.25500000920E-02 0. -1.
       -2    1    3    3    0  502 -0.20544894092E+03  0.10031767930E+03 -0.40340827836E+03  0.46369294060E+03  0.25500000920E-02 0.  1.
</event>
<event>
 5   0  0.4865501E-02  0.4751660E+03  0.7818609E-02  0.1020472E+00
        1   -1    0    0  501    0  0.00000000000E+00  0.00000000000E+00  0.11896650358E+03  0.11896650368E+03  0.50400001928E-02 0.  1.
       -1   -1    0    0    0  501  0.00000000000E+00  0.00000000000E+00 -0.47446696579E+03  0.47446696582E+03  0.50400001928E-02 0. -1.
    10030    2    1    2    0    0  0.00000000000E+00  0.00000000000E+00 -0.35550046221E+03  0.59343346950E+03  0.47516597531E+03 0.  0.
        2    1    3    3  502    0 -0.35213816731E+02  0.10950537089E+03 -0.43737141488E+03  0.45224461711E+03  0.25500000920E-02 0. -1.
       -2    1    3    3    0  502  0.35213816731E+02 -0.10950537089E+03  0.81870952669E+02  0.14118885239E+03  0.25500000920E-02 0.  1.
</event>
<event>
 5   0  0.8208720E-02  0.5039211E+03  0.7818609E-02  0.1012760E+00
       -2   -1    0    0    0  501  0.00000000000E+00  0.00000000000E+00  0.13562087684E+03  0.13562087686E+03  0.25500000920E-02 0.  1.
        2   -1    0    0  501    0  0.00000000000E+00  0.00000000000E+00 -0.46809987607E+03  0.46809987608E+03  0.25500000920E-02 0. -1.
    10030    2    1    2    0    0  0.00000000000E+00  0.00000000000E+00 -0.33247899923E+03  0.60372075294E+03  0.50392108767E+03 0.  0.
        3    1    3    3  502    0  0.19983180112E+03  0.10282804819E+03 -0.29758164882E+02  0.22669784915E+03  0.10100000352E+00 0.  1.
       -3    1    3    3    0  502 -0.19983180112E+03 -0.10282804819E+03 -0.30272083435E+03  0.37702290379E+03  0.10100000352E+00 0. -1.
</event>
<event>
 5   0  0.7933103E-02  0.4995520E+03  0.7818609E-02  0.1013896E+00
       -2   -1    0    0    0  501  0.00000000000E+00  0.00000000000E+00  0.84792455687E+02  0.84792455725E+02  0.25500000920E-02 0.  1.
        2   -1    0    0  501    0  0.00000000000E+00  0.00000000000E+00 -0.73577362929E+03  0.73577362929E+03  0.25500000920E-02 0. -1.
    10030    2    1    2    0    0  0.00000000000E+00  0.00000000000E+00 -0.65098117360E+03  0.82056608502E+03  0.49955201080E+03 0.  0.
        5    1    3    3  502    0 -0.31570468883E+02  0.30622162740E+01 -0.73237883070E+03  0.73308042760E+03  0.46999998093E+01 0. -1.
       -5    1    3    3    0  502  0.31570468883E+02 -0.30622162740E+01  0.81397657101E+02  0.87485657417E+02  0.46999998093E+01 0.  1.
</event>
<event>
 5   0  0.4803890E-02  0.5071101E+03  0.7818609E-02  0.1011940E+00
        1   -1    0    0  501    0  0.00000000000E+00  0.00000000000E+00  0.10009369237E+04  0.10009369237E+04  0.50400001928E-02 0.  1.
       -1   -1    0    0    0  501  0.00000000000E+00  0.00000000000E+00 -0.64229988805E+02  0.64229989002E+02  0.50400001928E-02 0. -1.
    10030    2    1    2    0    0  0.00000000000E+00  0.00000000000E+00  0.93670693485E+03  0.10651669127E+04  0.50711011630E+03 0.  0.
        5    1    3    3  502    0  0.94181149675E+01  0.21173695865E+03  0.17619372089E+03  0.27565840787E+03  0.46999998093E+01 0. -1.
       -5    1    3    3    0  502 -0.94181149675E+01 -0.21173695865E+03  0.76051321396E+03  0.78950850480E+03  0.46999998093E+01 0.  1.
</event>
<event>
 5   0  0.4884478E-02  0.4978045E+03  0.7818609E-02  0.1014354E+00
       -1   -1    0    0    0  501  0.00000000000E+00  0.00000000000E+00  0.82891890947E+02  0.82891891100E+02  0.50400001928E-02 0. -1.
        1   -1    0    0  501    0  0.00000000000E+00  0.00000000000E+00 -0.74738713104E+03  0.74738713106E+03  0.50400001928E-02 0.  1.
    10030    2    1    2    0    0  0.00000000000E+00  0.00000000000E+00 -0.66449524009E+03  0.83027902216E+03  0.49780451035E+03 0.  0.
        3    1    3    3  502    0 -0.13806009381E+03  0.20690939520E+03 -0.31730772807E+03  0.40318270277E+03  0.10100000352E+00 0.  1.
       -3    1    3    3    0  502  0.13806009381E+03 -0.20690939520E+03 -0.34718751202E+03  0.42709631938E+03  0.10100000352E+00 0. -1.
</event>
<event>
 5   0  0.8208720E-02  0.5046827E+03  0.7818609E-02  0.1012564E+00
       -2   -1    0    0    0  501  0.00000000000E+00  0.00000000000E+00  0.32752384754E+02  0.32752384854E+02  0.25500000920E-02 0. -1.
        2   -1    0    0  501    0  0.00000000000E+00  0.00000000000E+00 -0.19441688013E+04  0.19441688013E+04  0.25500000920E-02 0.  1.
    10030    2    1    2    0    0  0.00000000000E+00  0.00000000000E+00 -0.19114164166E+04  0.19769211862E+04  0.50468273087E+03 0.  0.
        3    1    3    3  502    0 -0.21018222528E+03 -0.74285796785E+02 -0.49253519708E+03  0.54063469921E+03  0.10100000352E+00 0. -1.
       -3    1    3    3    0  502  0.21018222528E+03  0.74285796785E+02 -0.14188812195E+04  0.14362864870E+04  0.10100000352E+00 0.  1.
</event>
<event>
 5   0  0.7881060E-02  0.5014972E+03  0.7818609E-02  0.1013389E+00
        2   -1    0    0  501    0  0.00000000000E+00  0.00000000000E+00  0.41036589388E+03  0.41036589388E+03  0.25500000920E-02 0. -1.
       -2   -1    0    0    0  501  0.00000000000E+00  0.00000000000E+00 -0.15321658883E+03  0.15321658885E+03  0.25500000920E-02 0.  1.
    10030    2    1    2    0    0  0.00000000000E+00  0.00000000000E+00  0.25714930504E+03  0.56358248274E+03  0.50149720813E+03 0.  0.
        1    1    3    3  502    0  0.14782384628E+03  0.10920615268E+03  0.32027062656E+03  0.36925756265E+03  0.50400001928E-02 0. -1.
       -1    1    3    3    0  502 -0.14782384628E+03 -0.10920615268E+03 -0.63121321518E+02  0.19432492009E+03  0.50400001928E-02 0.  1.
</event>
<event>
 5   0  0.7881060E-02  0.4981041E+03  0.7818609E-02  0.1014275E+00
       -2   -1    0    0    0  501  0.00000000000E+00  0.00000000000E+00  0.11416361776E+03  0.11416361779E+03  0.25500000920E-02 0. -1.
        2   -1    0    0  501    0  0.00000000000E+00  0.00000000000E+00 -0.54331597301E+03  0.54331597302E+03  0.25500000920E-02 0.  1.
    10030    2    1    2    0    0  0.00000000000E+00  0.00000000000E+00 -0.42915235525E+03  0.65747959081E+03  0.49810407378E+03 0.  0.
        1    1    3    3  502    0  0.58756962233E+02 -0.13417967234E+03  0.51292129510E+02  0.15520131332E+03  0.50400001928E-02 0. -1.
       -1    1    3    3    0  502 -0.58756962233E+02  0.13417967234E+03 -0.48044448476E+03  0.50227827749E+03  0.50400001928E-02 0.  1.
</event>
<event>
 5   0  0.7698747E-02  0.4988862E+03  0.7818609E-02  0.1014070E+00
        2   -1    0    0  501    0  0.00000000000E+00  0.00000000000E+00  0.10809916348E+04  0.10809916348E+04  0.25500000920E-02 0.  1.
       -2   -1    0    0    0  501  0.00000000000E+00  0.00000000000E+00 -0.57559988925E+02  0.57559988982E+02  0.25500000920E-02 0. -1.
    10030    2    1    2    0    0  0.00000000000E+00  0.00000000000E+00  0.10234316459E+04  0.11385516238E+04  0.49888622575E+03 0.  0.
        2    1    3    3  502    0 -0.59042472714E+02 -0.17793351550E+03  0.13619018453E+03  0.23171990827E+03  0.25500000920E-02 0. -1.
       -2    1    3    3    0  502  0.59042472714E+02  0.17793351550E+03  0.88724146133E+03  0.90683171549E+03  0.25500000920E-02 0.  1.
</event>
<event>
 5   0  0.5038436E-02  0.4980622E+03  0.7818609E-02  0.1014286E+00
        1   -1    0    0  501    0  0.00000000000E+00  0.00000000000E+00  0.31578848700E+03  0.31578848704E+03  0.50400001928E-02 0. -1.
       -1   -1    0    0    0  501  0.00000000000E+00  0.00000000000E+00 -0.19638617717E+03  0.19638617724E+03  0.50400001928E-02 0.  1.
    10030    2    1    2    0    0  0.00000000000E+00  0.00000000000E+00  0.11940230983E+03  0.51217466428E+03  0.49806222015E+03 0.  0.
        1    1    3    3  502    0  0.14928368984E+03 -0.46595302198E+02  0.25899589953E+03  0.30254853865E+03  0.50400001928E-02 0. -1.
       -1    1    3    3    0  502 -0.14928368984E+03  0.46595302198E+02 -0.13959358970E+03  0.20962612563E+03  0.50400001928E-02 0.  1.
</event>
<event>
 5   0  0.7881060E-02  0.5002867E+03  0.7818609E-02  0.1013704E+00
       -2   -1    0    0    0  501  0.00000000000E+00  0.00000000000E+00  0.27106910637E+02  0.27106910757E+02  0.25500000920E-02 0. -1.
        2   -1    0    0  501    0  0.00000000000E+00  0.00000000000E+00 -0.23083304634E+04  0.23083304634E+04  0.25500000920E-02 0.  1.
    10030    2    1    2    0    0  0.00000000000E+00  0.00000000000E+00 -0.22812235527E+04  0.23354373741E+04  0.50028674871E+03 0.  0.
        1    1    3    3  502    0  0.42197339427E+02  0.91638394663E+02 -0.72078826299E+02  0.12399019339E+03  0.50400001928E-02 0. -1.
       -1    1    3    3    0  502 -0.42197339427E+02 -0.91638394663E+02 -0.22091447264E+04  0.22114471807E+04  0.50400001928E-02 0.  1.
</event>
<event>
 5   0  0.7776070E-02  0.4994725E+03  0.7818609E-02  0.1013917E+00
       -2   -1    0    0    0  501  0.00000000000E+00  0.00000000000E+00  0.18959561148E+03  0.18959561149E+03  0.25500000920E-02 0. -1.
        2   -1    0    0  501    0  0.00000000000E+00  0.00000000000E+00 -0.32895384408E+03  0.32895384409E+03  0.25500000920E-02 0.  1.
    10030    2    1    2    0    0  0.00000000000E+00  0.00000000000E+00 -0.13935823261E+03  0.51854945559E+03  0.49947254268E+03 0.  0.
        4    1    3    3  502    0 -0.13875358395E+03 -0.14223370751E+03 -0.22673015419E+03  0.30148160861E+03  0.12699999809E+01 0.  1.
       -4    1    3    3    0  502  0.13875358395E+03  0.14223370751E+03  0.87371921585E+02  0.21706784698E+03  0.12699999809E+01 0. -1.
</event>
<event>
 5   0  0.8208720E-02  0.5026917E+03  0.7818609E-02  0.1013079E+00
       -2   -1    0    0    0  501  0.00000000000E+00  0.00000000000E+00  0.37939766043E+03  0.37939766044E+03  0.25500000920E-02 0.  1.
        2   -1    0    0  501    0  0.00000000000E+00  0.00000000000E+00 -0.16651324594E+03  0.16651324596E+03  0.25500000920E-02 0. -1.
    10030    2    1    2    0    0  0.00000000000E+00  0.00000000000E+00  0.21288441449E+03  0.54591090640E+03  0.50269169855E+03 0.  0.
        3    1    3    3  502    0  0.19191969682E+03 -0.53260414340E+02  0.27293640897E+03  0.33788183630E+03  0.10100000352E+00 0.  1.
       -3    1    3    3    0  502 -0.19191969682E+03  0.53260414340E+02 -0.60051994483E+02  0.20802907009E+03  0.10100000352E+00 0. -1.
</event>
<event>
 5   0  0.4884478E-02  0.4984519E+03  0.7818609E-02  0.1014184E+00
       -1   -1    0    0    0  501  0.00000000000E+00  0.00000000000E+00  0.26703927306E+03  0.26703927311E+03  0.50400001928E-02 0. -1.
        1   -1    0    0  501    0  0.00000000000E+00  0.00000000000E+00 -0.23260086133E+03  0.23260086139E+03  0.50400001928E-02 0.  1.
    10030    2    1    2    0    0  0.00000000000E+00  0.00000000000E+00  0.34438411729E+02  0.49964013449E+03  0.49845186307E+03 0.  0.
        3    1    3    3  502    0 -0.98909148636E+01  0.24094259302E+03  0.80316797107E+02  0.25416915908E+03  0.10100000352E+00 0. -1.
       -3    1    3    3    0  502  0.98909148636E+01 -0.24094259302E+03 -0.45878385379E+02  0.24547097542E+03  0.10100000352E+00 0.  1.
</event>
<event>
 5   0  0.3210875E-02  0.4978222E+03  0.7818609E-02  0.1014349E+00
        4   -1    0    0  501    0  0.00000000000E+00  0.00000000000E+00  0.43922922112E+03  0.43923105717E+03  0.12699999809E+01 0.  1.
       -4   -1    0    0    0  501  0.00000000000E+00  0.00000000000E+00 -0.14105287963E+03  0.14105859688E+03  0.12699999809E+01 0. -1.
    10030    2    1    2    0    0  0.00000000000E+00  0.00000000000E+00  0.29817634148E+03  0.58028965405E+03  0.49782220920E+03 0.  0.
        4    1    3    3  502    0 -0.74920652375E+02  0.22953649834E+03  0.78616388851E+02  0.25393356950E+03  0.12699999809E+01 0.  1.
       -4    1    3    3    0  502  0.74920652375E+02 -0.22953649834E+03  0.21955995263E+03  0.32635608455E+03  0.12699999809E+01 0. -1.
</event>
<event>
 5   0  0.7881060E-02  0.4982184E+03  0.7818609E-02  0.1014245E+00
       -2   -1    0    0    0  501  0.00000000000E+00  0.00000000000E+00  0.53239925981E+02  0.53239926042E+02  0.25500000920E-02 0. -1.
        2   -1    0    0  501    0  0.00000000000E+00  0.00000000000E+00 -0.11655801055E+04  0.11655801055E+04  0.25500000920E-02 0.  1.
    10030    2    1    2    0    0  0.00000000000E+00  0.00000000000E+00 -0.11123401796E+04  0.12188200316E+04  0.49821842030E+03 0.  0.
        1    1    3    3  502    0  0.74809457648E+02  0.19624976245E+03 -0.22845893542E+03  0.31032871187E+03  0.50400001928E-02 0.  1.
       -1    1    3    3    0  502 -0.74809457648E+02 -0.19624976245E+03 -0.88388124414E+03  0.90849131971E+03  0.50400001928E-02 0. -1.
</event>
<event>
 5   0  0.7776070E-02  0.5031497E+03  0.7818609E-02  0.1012960E+00
        2   -1    0    0  501    0  0.00000000000E+00  0.00000000000E+00  0.56239791650E+03  0.56239791651E+03  0.25500000920E-02 0. -1.
       -2   -1    0    0    0  501  0.00000000000E+00  0.00000000000E+00 -0.11253582449E+03  0.11253582452E+03  0.25500000920E-02 0.  1.
    10030    2    1    2    0    0  0.00000000000E+00  0.00000000000E+00  0.44986209202E+03  0.67493374103E+03  0.50314973213E+03 0.  0.
        4    1    3    3  502    0 -0.13282208438E+03  0.13300204389E+03  0.64122215150E+00  0.18797147082E+03  0.12699999809E+01 0.  1.
       -4    1    3    3    0  502  0.13282208438E+03 -0.13300204389E+03  0.44922086987E+03  0.48696227020E+03  0.12699999809E+01 0. -1.
</event>
<event>
 5   0  0.8208720E-02  0.5020826E+03  0.7818609E-02  0.1013237E+00
       -2   -1    0    0    0  501  0.00000000000E+00  0.00000000000E+00  0.36406328628E+02  0.36406328717E+02  0.25500000920E-02 0. -1.
        2   -1    0    0  501    0  0.00000000000E+00  0.00000000000E+00 -0.17310654454E+04  0.17310654454E+04  0.25500000920E-02 0.  1.
    10030    2    1    2    0    0  0.00000000000E+00  0.00000000000E+00 -0.16946591168E+04  0.17674717742E+04  0.50208261298E+03 0.  0.
        3    1    3    3  502    0  0.15124257476E+03 -0.18765879386E+03 -0.60011690293E+03  0.64670738879E+03  0.10100000352E+00 0. -1.
       -3    1    3    3    0  502 -0.15124257476E+03  0.18765879386E+03 -0.10945422139E+04  0.11207643854E+04  0.10100000352E+00 0.  1.
</event>
<event>
 5   0  0.5038436E-02  0.4949119E+03  0.7818609E-02  0.1015116E+00
        1   -1    0    0  501    0  0.00000000000E+00  0.00000000000E+00  0.86129655461E+02  0.86129655608E+02  0.50400001928E-02 0.  1.
       -1   -1    0    0    0  501  0.00000000000E+00  0.00000000000E+00 -0.71095658806E+03  0.71095658808E+03  0.50400001928E-02 0. -1.
    10030    2    1    2    0    0  0.00000000000E+00  0.00000000000E+00 -0.62482693260E+03  0.79708624368E+03  0.49491189536E+03 0.  0.
        1    1    3    3  502    0  0.20225907226E+03  0.82717794595E+02 -0.49942931908E+03  0.54514274336E+03  0.50400001928E-02 0. -1.
       -1    1    3    3    0  502 -0.20225907226E+03 -0.82717794595E+02 -0.12539761352E+03  0.25194350033E+03  0.50400001928E-02 0.  1.
</event>
<event>
 5   0  0.7698747E-02  0.5003143E+03  0.7818609E-02  0.1013697E+00
        2   -1    0    0  501    0  0.00000000000E+00  0.00000000000E+00  0.20115804902E+03  0.20115804904E+03  0.25500000920E-02 0. -1.
       -2   -1    0    0    0  501  0.00000000000E+00  0.00000000000E+00 -0.31109167184E+03  0.31109167185E+03  0.25500000920E-02 0.  1.
    10030    2    1    2    0    0  0.00000000000E+00  0.00000000000E+00 -0.10993362282E+03  0.51224972089E+03  0.50031427636E+03 0.  0.
        2    1    3    3  502    0  0.10567950957E+03 -0.15747091179E+02 -0.28655401654E+03  0.30582565953E+03  0.25500000920E-02 0.  1.
       -2    1    3    3    0  502 -0.10567950957E+03  0.15747091179E+02  0.17662039372E+03  0.20642406136E+03  0.25500000920E-02 0. -1.
</event>
<event>
 5   0  0.5191358E-02  0.5028475E+03  0.7818609E-02  0.1013038E+00
       -1   -1    0    0    0  501  0.00000000000E+00  0.00000000000E+00  0.13957387363E+03  0.13957387372E+03  0.50400001928E-02 0.  1.
        1   -1    0    0  501    0  0.00000000000E+00  0.00000000000E+00 -0.45290649226E+03  0.45290649228E+03  0.50400001928E-02 0. -1.
    10030    2    1    2    0    0  0.00000000000E+00  0.00000000000E+00 -0.31333261863E+03  0.59248036600E+03  0.50284754568E+03 0.  0.
        4    1    3    3  502    0 -0.56267665298E+02 -0.87008789852E+02  0.11324236079E+03  0.15349926660E+03  0.12699999809E+01 0.  1.
       -4    1    3    3    0  502  0.56267665298E+02  0.87008789852E+02 -0.42657497942E+03  0.43898109940E+03  0.12699999809E+01 0. -1.
</event>
<event>
 5   0  0.4865501E-02  0.5008517E+03  0.7818609E-02  0.1013557E+00
       -1   -1    0    0    0  501  0.00000000000E+00  0.00000000000E+00  0.29697083196E+03  0.29697083200E+03  0.50400001928E-02 0. -1.
        1   -1    0    0  501    0  0.00000000000E+00  0.00000000000E+00 -0.21117597684E+03  0.21117597690E+03  0.50400001928E-02 0.  1.
    10030    2    1    2    0    0  0.00000000000E+00  0.00000000000E+00  0.85794855119E+02  0.50814680890E+03  0.50085169685E+03 0.  0.
        2    1    3    3  502    0  0.12312547652E+03  0.10677351808E+03  0.23580534472E+03  0.28664372963E+03  0.25500000920E-02 0. -1.
       -2    1    3    3    0  502 -0.12312547652E+03 -0.10677351808E+03 -0.15001048960E+03  0.22150307927E+03  0.25500000920E-02 0.  1.
</event>
<event>
 5   0  0.7933103E-02  0.5001542E+03  0.7818609E-02  0.1013739E+00
       -2   -1    0    0    0  501  0.00000000000E+00  0.00000000000E+00  0.78281500620E+02  0.78281500661E+02  0.25500000920E-02 0. -1.
        2   -1    0    0  501    0  0.00000000000E+00  0.00000000000E+00 -0.79889321688E+03  0.79889321688E+03  0.25500000920E-02 0.  1.
    10030    2    1    2    0    0  0.00000000000E+00  0.00000000000E+00 -0.72061171626E+03  0.87717471754E+03  0.50015421571E+03 0.  0.
        5    1    3    3  502    0  0.15700175236E+03 -0.15465646115E+03 -0.56743575589E+03  0.60874756532E+03  0.46999998093E+01 0. -1.
       -5    1    3    3    0  502 -0.15700175236E+03  0.15465646115E+03 -0.15317596037E+03  0.26842715222E+03  0.46999998093E+01 0.  1.
</event>
<event>
 5   0  0.5038436E-02  0.5210608E+03  0.7818609E-02  0.1008423E+00
       -1   -1    0    0    0  501  0.00000000000E+00  0.00000000000E+00  0.19850664220E+03  0.19850664226E+03  0.50400001928E-02 0. -1.
        1   -1    0    0  501    0  0.00000000000E+00  0.00000000000E+00 -0.34193353269E+03  0.34193353273E+03  0.50400001928E-02 0.  1.
    10030    2    1    2    0    0  0.00000000000E+00  0.00000000000E+00 -0.14342689049E+03  0.54044017499E+03  0.52106075444E+03 0.  0.
        1    1    3    3  502    0  0.11203996280E+03 -0.22270888055E+03  0.67567028634E+01  0.24939497148E+03  0.50400001928E-02 0. -1.
       -1    1    3    3    0  502 -0.11203996280E+03  0.22270888055E+03 -0.15018359336E+03  0.29104520350E+03  0.50400001928E-02 0.  1.
</event>
<event>
 5   0  0.7776070E-02  0.5220729E+03  0.7818609E-02  0.1008173E+00
        2   -1    0    0  501    0  0.00000000000E+00  0.00000000000E+00  0.45310111340E+03  0.45310111340E+03  0.25500000920E-02 0. -1.
       -2   -1    0    0    0  501  0.00000000000E+00  0.00000000000E+00 -0.15038593005E+03  0.15038593007E+03  0.25500000920E-02 0.  1.
    10030    2    1    2    0    0  0.00000000000E+00  0.00000000000E+00  0.30271518335E+03  0.60348704347E+03  0.52207291580E+03 0.  0.
        4    1    3    3  502    0  0.62414107535E+02 -0.54063254240E+02 -0.13488752337E+03  0.15816008706E+03  0.12699999809E+01 0.  1.
       -4    1    3    3    0  502 -0.62414107535E+02  0.54063254240E+02  0.43760270672E+03  0.44532695641E+03  0.12699999809E+01 0. -1.
</event>
<event>
 5   0  0.4803890E-02  0.4978267E+03  0.7818609E-02  0.1014348E+00
       -1   -1    0    0    0  501  0.00000000000E+00  0.00000000000E+00  0.77468166977E+02  0.77468167141E+02  0.50400001928E-02 0. -1.
        1   -1    0    0  501    0  0.00000000000E+00  0.00000000000E+00 -0.79978479601E+03  0.79978479603E+03  0.50400001928E-02 0.  1.
    10030    2    1    2    0    0  0.00000000000E+00  0.00000000000E+00 -0.72231662903E+03  0.87725296317E+03  0.49782672569E+03 0.  0.
        5    1    3    3  502    0 -0.17553876025E+03  0.14712393530E+03 -0.53270004364E+03  0.57987130916E+03  0.46999998093E+01 0.  1.
       -5    1    3    3    0  502  0.17553876025E+03 -0.14712393530E+03 -0.18961658539E+03  0.29738165401E+03  0.46999998093E+01 0. -1.
</event>
<event>
 5   0  0.8208720E-02  0.4988693E+03  0.7818609E-02  0.1014074E+00
       -2   -1    0    0    0  501  0.00000000000E+00  0.00000000000E+00  0.12852521156E+03  0.12852521159E+03  0.25500000920E-02 0. -1.
        2   -1    0    0  501    0  0.00000000000E+00  0.00000000000E+00 -0.48408906483E+03  0.48408906484E+03  0.25500000920E-02 0.  1.
    10030    2    1    2    0    0  0.00000000000E+00  0.00000000000E+00 -0.35556385327E+03  0.61261427643E+03  0.49886931949E+03 0.  0.
        3    1    3    3  502    0 -0.11069535080E+03 -0.17698631484E+03 -0.10124213048E+02  0.20899790961E+03  0.10100000352E+00 0. -1.
       -3    1    3    3    0  502  0.11069535080E+03  0.17698631484E+03 -0.34543964022E+03  0.40361636682E+03  0.10100000352E+00 0.  1.
</event>
<event>
 5   0  0.8208720E-02  0.5007897E+03  0.7818609E-02  0.1013573E+00
        2   -1    0    0  501    0  0.00000000000E+00  0.00000000000E+00  0.10559522823E+04  0.10559522823E+04  0.25500000920E-02 0.  1.
       -2   -1    0    0    0  501  0.00000000000E+00  0.00000000000E+00 -0.59375397805E+02  0.59375397860E+02  0.25500000920E-02 0. -1.
    10030    2    1    2    0    0  0.00000000000E+00  0.00000000000E+00  0.99657688446E+03  0.11153276801E+04  0.50078972375E+03 0.  0.
        3    1    3    3  502    0  0.12073640606E+03  0.32768348104E+02  0.98135934712E+03  0.98930138117E+03  0.10100000352E+00 0.  1.
       -3    1    3    3    0  502 -0.12073640606E+03 -0.32768348104E+02  0.15217537331E+02  0.12602629896E+03  0.10100000352E+00 0. -1.
</event>
<event>
 5   0  0.4884478E-02  0.5013068E+03  0.7818609E-02  0.1013438E+00
        1   -1    0    0  501    0  0.00000000000E+00  0.00000000000E+00  0.43892404489E+03  0.43892404492E+03  0.50400001928E-02 0. -1.
       -1   -1    0    0    0  501  0.00000000000E+00  0.00000000000E+00 -0.14313895083E+03  0.14313895092E+03  0.50400001928E-02 0.  1.
    10030    2    1    2    0    0  0.00000000000E+00  0.00000000000E+00  0.29578509405E+03  0.58206299584E+03  0.50130680153E+03 0.  0.
        3    1    3    3  502    0 -0.15302538855E+03 -0.12694694194E+03  0.32510575475E+03  0.38108536784E+03  0.10100000352E+00 0. -1.
       -3    1    3    3    0  502  0.15302538855E+03  0.12694694194E+03 -0.29320660702E+02  0.20097762800E+03  0.10100000352E+00 0.  1.
</event>
<event>
 5   0  0.7698747E-02  0.4985232E+03  0.7818609E-02  0.1014165E+00
        2   -1    0    0  501    0  0.00000000000E+00  0.00000000000E+00  0.16066631056E+04  0.16066631056E+04  0.25500000920E-02 0.  1.
       -2   -1    0    0    0  501  0.00000000000E+00  0.00000000000E+00 -0.38671053510E+02  0.38671053594E+02  0.25500000920E-02 0. -1.
    10030    2    1    2    0    0  0.00000000000E+00  0.00000000000E+00  0.15679920521E+04  0.16453341592E+04  0.49852323918E+03 0.  0.
        2    1    3    3  502    0 -0.13066350513E+03  0.48410443987E+02  0.10188030493E+03  0.17261552421E+03  0.25500000920E-02 0. -1.
       -2    1    3    3    0  502  0.13066350513E+03 -0.48410443987E+02  0.14661117472E+04  0.14727186350E+04  0.25500000920E-02 0.  1.
</event>
<event>
 5   0  0.7776070E-02  0.4989006E+03  0.7818609E-02  0.1014066E+00
       -2   -1    0    0    0  501  0.00000000000E+00  0.00000000000E+00  0.22365322628E+03  0.22365322630E+03  0.25500000920E-02 0. -1.
        2   -1    0    0  501    0  0.00000000000E+00  0.00000000000E+00 -0.27822296289E+03  0.27822296291E+03  0.25500000920E-02 0.  1.
    10030    2    1    2    0    0  0.00000000000E+00  0.00000000000E+00 -0.54569736611E+02  0.50187618920E+03  0.49890064455E+03 0.  0.
        4    1    3    3  502    0 -0.11078950248E+03  0.12260414123E+03 -0.21526230414E+03  0.27137715783E+03  0.12699999809E+01 0.  1.
       -4    1    3    3    0  502  0.11078950248E+03 -0.12260414123E+03  0.16069256753E+03  0.23049903138E+03  0.12699999809E+01 0. -1.
</event>
<event>
 5   0  0.7776070E-02  0.4953738E+03  0.7818609E-02  0.1014994E+00
        2   -1    0    0  501    0  0.00000000000E+00  0.00000000000E+00  0.56629407002E+03  0.56629407003E+03  0.25500000920E-02 0.  1.
       -2   -1    0    0    0  501  0.00000000000E+00  0.00000000000E+00 -0.10833383085E+03  0.10833383088E+03  0.25500000920E-02 0. -1.
    10030    2    1    2    0    0  0.00000000000E+00  0.00000000000E+00  0.45796023917E+03  0.67462790091E+03  0.49537382250E+03 0.  0.
        4    1    3    3  502    0 -0.24694881935E+01  0.14184458147E+03  0.50547787526E+03  0.52500997985E+03  0.12699999809E+01 0.  1.
       -4    1    3    3    0  502  0.24694881935E+01 -0.14184458147E+03 -0.47517636088E+02  0.14961792106E+03  0.12699999809E+01 0. -1.
</event>
<event>
 5   0  0.4865501E-02  0.4947608E+03  0.7818609E-02  0.1015156E+00
       -1   -1    0    0    0  501  0.00000000000E+00  0.00000000000E+00  0.58035456479E+03  0.58035456481E+03  0.50400001928E-02 0. -1.
        1   -1    0    0  501    0  0.00000000000E+00  0.00000000000E+00 -0.10544770227E+03  0.10544770239E+03  0.50400001928E-02 0.  1.
    10030    2    1    2    0    0  0.00000000000E+00  0.00000000000E+00  0.47490686252E+03  0.68580226721E+03  0.49476077213E+03 0.  0.
        2    1    3    3  502    0  0.22133556670E+03 -0.70158962422E+02  0.11914147398E+03  0.26097203667E+03  0.25500000920E-02 0.  1.
       -2    1    3    3    0  502 -0.22133556670E+03  0.70158962422E+02  0.35576538854E+03  0.42483023054E+03  0.25500000920E-02 0. -1.
</event>
<event>
 5   0  0.4884478E-02  0.4987282E+03  0.7818609E-02  0.1014111E+00
       -1   -1    0    0    0  501  0.00000000000E+00  0.00000000000E+00  0.64061054892E+02  0.64061055090E+02  0.50400001928E-02 0. -1.
        1   -1    0    0  501    0  0.00000000000E+00  0.00000000000E+00 -0.97067488105E+03  0.97067488106E+03  0.50400001928E-02 0.  1.
    10030    2    1    2    0    0  0.00000000000E+00  0.00000000000E+00 -0.90661382615E+03  0.10347359361E+04  0.49872821033E+03 0.  0.
        3    1    3    3  502    0  0.33976823318E+02  0.27845039106E+02  0.55969740746E+02  0.71150494066E+02  0.10100000352E+00 0. -1.
       -3    1    3    3    0  502 -0.33976823318E+02 -0.27845039106E+02 -0.96258356690E+03  0.96358544208E+03  0.10100000352E+00 0.  1.
</event>
<event>
 5   0  0.5038436E-02  0.4994158E+03  0.7818609E-02  0.1013932E+00
        1   -1    0    0  501    0  0.00000000000E+00  0.00000000000E+00  0.63077101106E+03  0.63077101108E+03  0.50400001928E-02 0. -1.
       -1   -1    0    0    0  501  0.00000000000E+00  0.00000000000E+00 -0.98853675563E+02  0.98853675691E+02  0.50400001928E-02 0.  1.
    10030    2    1    2    0    0  0.00000000000E+00  0.00000000000E+00  0.53191733549E+03  0.72962468677E+03  0.49941579044E+03 0.  0.
        1    1    3    3  502    0  0.41862468075E+02  0.17376498291E+03  0.52071568827E+03  0.55053752238E+03  0.50400001928E-02 0.  1.
       -1    1    3    3    0  502 -0.41862468075E+02 -0.17376498291E+03  0.11201647226E+02  0.17908716438E+03  0.50400001928E-02 0. -1.
</event>
<event>
 5   0  0.4865501E-02  0.5006497E+03  0.7818609E-02  0.1013609E+00
        1   -1    0    0  501    0  0.00000000000E+00  0.00000000000E+00  0.91061085675E+02  0.91061085814E+02  0.50400001928E-02 0.  1.
       -1   -1    0    0    0  501  0.00000000000E+00  0.00000000000E+00 -0.68813734554E+03  0.68813734556E+03  0.50400001928E-02 0. -1.
    10030    2    1    2    0    0  0.00000000000E+00  0.00000000000E+00 -0.59707625987E+03  0.77919843137E+03  0.50064971323E+03 0.  0.
        2    1    3    3  502    0 -0.45487089229E+02 -0.15303967264E+03 -0.59860905334E+03  0.61953451513E+03  0.25500000920E-02 0.  1.
       -2    1    3    3    0  502  0.45487089229E+02  0.15303967264E+03  0.15327934708E+01  0.15966391625E+03  0.25500000920E-02 0. -1.
</event>
<event>
 5   0  0.5038436E-02  0.5003317E+03  0.7818609E-02  0.1013692E+00
       -1   -1    0    0    0  501  0.00000000000E+00  0.00000000000E+00  0.17308609636E+03  0.17308609643E+03  0.50400001928E-02 0.  1.
        1   -1    0    0  501    0  0.00000000000E+00  0.00000000000E+00 -0.36157127383E+03  0.36157127387E+03  0.50400001928E-02 0. -1.
    10030    2    1    2    0    0  0.00000000000E+00  0.00000000000E+00 -0.18848517748E+03  0.53465737030E+03  0.50033173144E+03 0.  0.
        1    1    3    3  502    0  0.11811819614E+03  0.16167720746E+03 -0.25450328918E+03  0.32382611368E+03  0.50400001928E-02 0. -1.
       -1    1    3    3    0  502 -0.11811819614E+03 -0.16167720746E+03  0.66018111707E+02  0.21083125662E+03  0.50400001928E-02 0.  1.
</event>
<event>
 5   0  0.7698747E-02  0.5098578E+03  0.7818609E-02  0.1011237E+00
        2   -1    0    0  501    0  0.00000000000E+00  0.00000000000E+00  0.12041279883E+04  0.12041279883E+04  0.25500000920E-02 0.  1.
       -2   -1    0    0    0  501  0.00000000000E+00  0.00000000000E+00 -0.53971634932E+02  0.53971634992E+02  0.25500000920E-02 0. -1.
    10030    2    1    2    0    0  0.00000000000E+00  0.00000000000E+00  0.11501563533E+04  0.12580996233E+04  0.50985784777E+03 0.  0.
        2    1    3    3  502    0 -0.11235205062E+03 -0.14161256676E+03  0.10186311736E+04  0.10345465529E+04  0.25500000920E-02 0.  1.
       -2    1    3    3    0  502  0.11235205062E+03  0.14161256676E+03  0.13152517972E+03  0.22355307032E+03  0.25500000920E-02 0. -1.
</event>
<event>
 5   0  0.4865501E-02  0.5169728E+03  0.7818609E-02  0.1009441E+00
       -1   -1    0    0    0  501  0.00000000000E+00  0.00000000000E+00  0.50850327972E+03  0.50850327974E+03  0.50400001928E-02 0. -1.
        1   -1    0    0  501    0  0.00000000000E+00  0.00000000000E+00 -0.13139586973E+03  0.13139586983E+03  0.50400001928E-02 0.  1.
    10030    2    1    2    0    0  0.00000000000E+00  0.00000000000E+00  0.37710740999E+03  0.63989914957E+03  0.51697284547E+03 0.  0.
        2    1    3    3  502    0 -0.83392563884E+02  0.18912842853E+03  0.38067449176E+03  0.43317081027E+03  0.25500000920E-02 0. -1.
       -2    1    3    3    0  502  0.83392563884E+02 -0.18912842853E+03 -0.35670817720E+01  0.20672833930E+03  0.25500000920E-02 0.  1.
</event>
<event>
 5   0  0.7698747E-02  0.5021231E+03  0.7818609E-02  0.1013226E+00
       -2   -1    0    0    0  501  0.00000000000E+00  0.00000000000E+00  0.41927768169E+02  0.41927768247E+02  0.25500000920E-02 0. -1.
        2   -1    0    0  501    0  0.00000000000E+00  0.00000000000E+00 -0.15033449787E+04  0.15033449787E+04  0.25500000920E-02 0.  1.
    10030    2    1    2    0    0  0.00000000000E+00  0.00000000000E+00 -0.14614172105E+04  0.15452727470E+04  0.50212309171E+03 0.  0.
        2    1    3    3  502    0  0.13876724217E+03  0.25036518267E+02 -0.91446537908E+02  0.16806440447E+03  0.25500000920E-02 0. -1.
       -2    1    3    3    0  502 -0.13876724217E+03 -0.25036518267E+02 -0.13699706726E+04  0.13772083425E+04  0.25500000920E-02 0.  1.
</event>
<event>
 5   0  0.5191358E-02  0.5020588E+03  0.7818609E-02  0.1013243E+00
        1   -1    0    0  501    0  0.00000000000E+00  0.00000000000E+00  0.35742347969E+03  0.35742347973E+03  0.50400001928E-02 0. -1.
       -1   -1    0    0    0  501  0.00000000000E+00  0.00000000000E+00 -0.17630560445E+03  0.17630560453E+03  0.50400001928E-02 0.  1.
    10030    2    1    2    0    0  0.00000000000E+00  0.00000000000E+00  0.18111787524E+03  0.53372908426E+03  0.50205881194E+03 0.  0.
        4    1    3    3  502    0 -0.74176854423E+01  0.22483201127E+03  0.20898487167E+03  0.30705169734E+03  0.12699999809E+01 0.  1.
       -4    1    3    3    0  502  0.74176854423E+01 -0.22483201127E+03 -0.27866996431E+02  0.22667738692E+03  0.12699999809E+01 0. -1.
</event>
<event>
 5   0  0.4884478E-02  0.4828152E+03  0.7818609E-02  0.1018364E+00
        1   -1    0    0  501    0  0.00000000000E+00  0.00000000000E+00  0.80188609378E+03  0.80188609379E+03  0.50400001928E-02 0.  1.
       -1   -1    0    0    0  501  0.00000000000E+00  0.00000000000E+00 -0.72675693897E+02  0.72675694072E+02  0.50400001928E-02 0. -1.
    10030    2    1    2    0    0  0.00000000000E+00  0.00000000000E+00  0.72921039988E+03  0.87456178786E+03  0.48281519601E+03 0.  0.
        3    1    3    3  502    0  0.14433156339E+03 -0.14530602328E+03  0.59609486899E+03  0.63029718675E+03  0.10100000352E+00 0.  1.
       -3    1    3    3    0  502 -0.14433156339E+03  0.14530602328E+03  0.13311553089E+03  0.24426460111E+03  0.10100000352E+00 0. -1.
</event>
<event>
 5   0  0.7698747E-02  0.5040421E+03  0.7818609E-02  0.1012729E+00
        2   -1    0    0  501    0  0.00000000000E+00  0.00000000000E+00  0.68968507098E+03  0.68968507098E+03  0.25500000920E-02 0.  1.
       -2   -1    0    0    0  501  0.00000000000E+00  0.00000000000E+00 -0.92092208481E+02  0.92092208517E+02  0.25500000920E-02 0. -1.
    10030    2    1    2    0    0  0.00000000000E+00  0.00000000000E+00  0.59759286249E+03  0.78177727950E+03  0.50404214649E+03 0.  0.
        2    1    3    3  502    0  0.94773682715E+02 -0.17175058780E+03  0.53391112873E+02  0.20330008924E+03  0.25500000920E-02 0. -1.
       -2    1    3    3    0  502 -0.94773682715E+02  0.17175058780E+03  0.54420174962E+03  0.57847719025E+03  0.25500000920E-02 0.  1.
</event>
<event>
 5   0  0.7881060E-02  0.4978302E+03  0.7818609E-02  0.1014347E+00
       -2   -1    0    0    0  501  0.00000000000E+00  0.00000000000E+00  0.59219268925E+02  0.59219268980E+02  0.25500000920E-02 0.  1.
        2   -1    0    0  501    0  0.00000000000E+00  0.00000000000E+00 -0.10462594535E+04  0.10462594535E+04  0.25500000920E-02 0. -1.
    10030    2    1    2    0    0  0.00000000000E+00  0.00000000000E+00 -0.98704018454E+03  0.11054787224E+04  0.49783017173E+03 0.  0.
        1    1    3    3  502    0  0.12546072736E+03  0.17612779352E+03 -0.76726923406E+03  0.79715962726E+03  0.50400001928E-02 0.  1.
       -1    1    3    3    0  502 -0.12546072736E+03 -0.17612779352E+03 -0.21977095048E+03  0.30831909519E+03  0.50400001928E-02 0. -1.
</event>
<event>
 5   0  0.7933103E-02  0.4888338E+03  0.7818609E-02  0.1016735E+00
       -2   -1    0    0    0  501  0.00000000000E+00  0.00000000000E+00  0.51938421061E+02  0.51938421123E+02  0.25500000920E-02 0. -1.
        2   -1    0    0  501    0  0.00000000000E+00  0.00000000000E+00 -0.11502009739E+04  0.11502009739E+04  0.25500000920E-02 0.  1.
    10030    2    1    2    0    0  0.00000000000E+00  0.00000000000E+00 -0.10982625529E+04  0.12021393951E+04  0.48883380623E+03 0.  0.
        5    1    3    3  502    0  0.67589102098E+01  0.80744684342E+02  0.17830782753E+02  0.83098819056E+02  0.46999998093E+01 0. -1.
       -5    1    3    3    0  502 -0.67589102098E+01 -0.80744684342E+02 -0.11160933356E+04  0.11190405760E+04  0.46999998093E+01 0.  1.
</event>
<event>
 5   0  0.4865501E-02  0.5002057E+03  0.7818609E-02  0.1013725E+00
        1   -1    0    0  501    0  0.00000000000E+00  0.00000000000E+00  0.45282819116E+03  0.45282819119E+03  0.50400001928E-02 0.  1.
       -1   -1    0    0    0  501  0.00000000000E+00  0.00000000000E+00 -0.13813504397E+03  0.13813504406E+03  0.50400001928E-02 0. -1.
    10030    2    1    2    0    0  0.00000000000E+00  0.00000000000E+00  0.31469314720E+03  0.59096323525E+03  0.50020572620E+03 0.  0.
        2    1    3    3  502    0 -0.33981195688E+02  0.11497206110E+03  0.41666707014E+03  0.43357207456E+03  0.25500000920E-02 0.  1.
       -2    1    3    3    0  502  0.33981195688E+02 -0.11497206110E+03 -0.10197392295E+03  0.15739116068E+03  0.25500000920E-02 0. -1.
</event>
<event>
 5   0  0.5038436E-02  0.5137126E+03  0.7818609E-02  0.1010260E+00
       -1   -1    0    0    0  501  0.00000000000E+00  0.00000000000E+00  0.15785127934E+03  0.15785127942E+03  0.50400001928E-02 0.  1.
        1   -1    0    0  501    0  0.00000000000E+00  0.00000000000E+00 -0.41795773491E+03  0.41795773494E+03  0.50400001928E-02 0. -1.
    10030    2    1    2    0    0  0.00000000000E+00  0.00000000000E+00 -0.26010645557E+03  0.57580901436E+03  0.51371261692E+03 0.  0.
        1    1    3    3  502    0  0.76697596697E+02  0.30826117369E+02  0.14253536095E+03  0.16476983947E+03  0.50400001928E-02 0.  1.
       -1    1    3    3    0  502 -0.76697596697E+02 -0.30826117369E+02 -0.40264181653E+03  0.41103917489E+03  0.50400001928E-02 0. -1.
</event>
<event>
 5   0  0.4884478E-02  0.5005861E+03  0.7818609E-02  0.1013626E+00
        1   -1    0    0  501    0  0.00000000000E+00  0.00000000000E+00  0.13016305017E+04  0.13016305017E+04  0.50400001928E-02 0. -1.
       -1   -1    0    0    0  501  0.00000000000E+00  0.00000000000E+00 -0.48129326224E+02  0.48129326488E+02  0.50400001928E-02 0.  1.
    10030    2    1    2    0    0  0.00000000000E+00  0.00000000000E+00  0.12535011755E+04  0.13497598282E+04  0.50058605344E+03 0.  0.
        3    1    3    3  502    0 -0.97379385898E+02 -0.92381715249E+02  0.57126189413E+02  0.14587850365E+03  0.10100000352E+00 0.  1.
       -3    1    3    3    0  502  0.97379385898E+02  0.92381715249E+02  0.11963749861E+04  0.12038813245E+04  0.10100000352E+00 0. -1.
</event>
<event>
 5   0  0.8208720E-02  0.5006760E+03  0.7818609E-02  0.1013603E+00
       -2   -1    0    0    0  501  0.00000000000E+00  0.00000000000E+00  0.39959871398E+03  0.39959871399E+03  0.25500000920E-02 0.  1.
        2   -1    0    0  501    0  0.00000000000E+00  0.00000000000E+00 -0.15683009755E+03  0.15683009757E+03  0.25500000920E-02 0. -1.
    10030    2    1    2    0    0  0.00000000000E+00  0.00000000000E+00  0.24276861643E+03  0.55642881156E+03  0.50067596428E+03 0.  0.
        3    1    3    3  502    0 -0.12165275663E+03 -0.92340307252E+02  0.34182229443E+03  0.37439099443E+03  0.10100000352E+00 0.  1.
       -3    1    3    3    0  502  0.12165275663E+03  0.92340307252E+02 -0.99053677999E+02  0.18203781713E+03  0.10100000352E+00 0. -1.
</event>
<event>
 5   0  0.7698747E-02  0.4978609E+03  0.7818609E-02  0.1014339E+00
        2   -1    0    0  501    0  0.00000000000E+00  0.00000000000E+00  0.48799791128E+03  0.48799791128E+03  0.25500000920E-02 0. -1.
       -2   -1    0    0    0  501  0.00000000000E+00  0.00000000000E+00 -0.12698082700E+03  0.12698082703E+03  0.25500000920E-02 0.  1.
    10030    2    1    2    0    0  0.00000000000E+00  0.00000000000E+00  0.36101708428E+03  0.61497873831E+03  0.49786093785E+03 0.  0.
        2    1    3    3  502    0 -0.22076423621E+03 -0.11105978549E+02  0.32192183607E+03  0.39050462135E+03  0.25500000920E-02 0. -1.
       -2    1    3    3    0  502  0.22076423621E+03  0.11105978549E+02  0.39095248209E+02  0.22447411697E+03  0.25500000920E-02 0.  1.
</event>
<event>
 5   0  0.3210875E-02  0.5029060E+03  0.7818609E-02  0.1013023E+00
       -4   -1    0    0    0  501  0.00000000000E+00  0.00000000000E+00  0.15048994110E+03  0.15049529983E+03  0.12699999809E+01 0. -1.
        4   -1    0    0  501    0  0.00000000000E+00  0.00000000000E+00 -0.42013786566E+03  0.42013978515E+03  0.12699999809E+01 0.  1.
    10030    2    1    2    0    0  0.00000000000E+00  0.00000000000E+00 -0.26964792457E+03  0.57063508498E+03  0.50290595243E+03 0.  0.
        4    1    3    3  502    0 -0.65119904165E+02  0.22173942441E+03 -0.22393634791E+02  0.23218971130E+03  0.12699999809E+01 0. -1.
       -4    1    3    3    0  502  0.65119904165E+02 -0.22173942441E+03 -0.24725428977E+03  0.33844537368E+03  0.12699999809E+01 0.  1.
</event>
<event>
 5   0  0.3210875E-02  0.5071745E+03  0.7818609E-02  0.1011923E+00
        4   -1    0    0  501    0  0.00000000000E+00  0.00000000000E+00  0.17074687055E+03  0.17075159356E+03  0.12699999809E+01 0.  1.
       -4   -1    0    0    0  501  0.00000000000E+00  0.00000000000E+00 -0.37660790819E+03  0.37661004953E+03  0.12699999809E+01 0. -1.
    10030    2    1    2    0    0  0.00000000000E+00  0.00000000000E+00 -0.20586103764E+03  0.54736164309E+03  0.50717452767E+03 0.  0.
        3    1    3    3  502    0  0.15619756107E+03  0.19581787355E+03 -0.14561394267E+03  0.28973392654E+03  0.10100000352E+00 0. -1.
       -3    1    3    3    0  502 -0.15619756107E+03 -0.19581787355E+03 -0.60247094965E+02  0.25762771656E+03  0.10100000352E+00 0.  1.
</event>
<event>
 5   0  0.7776070E-02  0.4976917E+03  0.7818609E-02  0.1014383E+00
        2   -1    0    0  501    0  0.00000000000E+00  0.00000000000E+00  0.33726220728E+03  0.33726220729E+03  0.25500000920E-02 0. -1.
       -2   -1    0    0    0  501  0.00000000000E+00  0.00000000000E+00 -0.18360862682E+03  0.18360862684E+03  0.25500000920E-02 0.  1.
    10030    2    1    2    0    0  0.00000000000E+00  0.00000000000E+00  0.15365358046E+03  0.52087083413E+03  0.49769167470E+03 0.  0.
        4    1    3    3  502    0 -0.84958958855E+02  0.12233332006E+03  0.28545790130E+03  0.32198026679E+03  0.12699999809E+01 0. -1.
       -4    1    3    3    0  502  0.84958958855E+02 -0.12233332006E+03 -0.13180432084E+03  0.19889056734E+03  0.12699999809E+01 0.  1.
</event>
<event>
 5   0  0.4884478E-02  0.4898670E+03  0.7818609E-02  0.1016458E+00
       -1   -1    0    0    0  501  0.00000000000E+00  0.00000000000E+00  0.10270907755E+03  0.10270907768E+03  0.50400001928E-02 0.  1.
        1   -1    0    0  501    0  0.00000000000E+00  0.00000000000E+00 -0.58410053394E+03  0.58410053396E+03  0.50400001928E-02 0. -1.
    10030    2    1    2    0    0  0.00000000000E+00  0.00000000000E+00 -0.48139145639E+03  0.68680961163E+03  0.48986703130E+03 0.  0.
        3    1    3    3  502    0 -0.18839185257E+03  0.63714620619E+02 -0.40242435976E+02  0.20290516714E+03  0.10100000352E+00 0.  1.
       -3    1    3    3    0  502  0.18839185257E+03 -0.63714620619E+02 -0.44114902041E+03  0.48390444450E+03  0.10100000352E+00 0. -1.
</event>
<event>
 5   0  0.7881060E-02  0.4892697E+03  0.7818609E-02  0.1016618E+00
       -2   -1    0    0    0  501  0.00000000000E+00  0.00000000000E+00  0.42541970084E+02  0.42541970160E+02  0.25500000920E-02 0. -1.
        2   -1    0    0  501    0  0.00000000000E+00  0.00000000000E+00 -0.14067569355E+04  0.14067569355E+04  0.25500000920E-02 0.  1.
    10030    2    1    2    0    0  0.00000000000E+00  0.00000000000E+00 -0.13642149654E+04  0.14492989057E+04  0.48926970690E+03 0.  0.
        1    1    3    3  502    0 -0.56373418686E+02 -0.22541241681E+03 -0.90881476507E+03  0.93804743868E+03  0.50400001928E-02 0.  1.
       -1    1    3    3    0  502  0.56373418686E+02  0.22541241681E+03 -0.45540020033E+03  0.51125146697E+03  0.50400001928E-02 0. -1.
</event>
<event>
 5   0  0.3210875E-02  0.5007518E+03  0.7818609E-02  0.1013583E+00
        4   -1    0    0  501    0  0.00000000000E+00  0.00000000000E+00  0.15472154001E+03  0.15472675219E+03  0.12699999809E+01 0.  1.
       -4   -1    0    0    0  501  0.00000000000E+00  0.00000000000E+00 -0.40515409134E+03  0.40515608181E+03  0.12699999809E+01 0. -1.
    10030    2    1    2    0    0  0.00000000000E+00  0.00000000000E+00 -0.25043255132E+03  0.55988283401E+03  0.50075175991E+03 0.  0.
        4    1    3    3  502    0 -0.20125280651E+03  0.74512892004E+01 -0.29153771971E+03  0.35433609575E+03  0.12699999809E+01 0. -1.
       -4    1    3    3    0  502  0.20125280651E+03 -0.74512892004E+01  0.41105168386E+02  0.20554673825E+03  0.12699999809E+01 0.  1.
</event>
<event>
 5   0  0.4865501E-02  0.5004987E+03  0.7818609E-02  0.1013649E+00
        1   -1    0    0  501    0  0.00000000000E+00  0.00000000000E+00  0.28258555390E+04  0.28258555390E+04  0.50400001928E-02 0. -1.
       -1   -1    0    0    0  501  0.00000000000E+00  0.00000000000E+00 -0.22161337250E+02  0.22161337824E+02  0.50400001928E-02 0.  1.
    10030    2    1    2    0    0  0.00000000000E+00  0.00000000000E+00  0.28036942018E+04  0.28480168769E+04  0.50049870507E+03 0.  0.
        2    1    3    3  502    0 -0.11479470254E+03  0.22232818697E+03  0.14253724387E+04  0.14471676597E+04  0.25500000920E-02 0. -1.
       -2    1    3    3    0  502  0.11479470254E+03 -0.22232818697E+03  0.13783217631E+04  0.14008492171E+04  0.25500000920E-02 0.  1.
</event>
<event>
 5   0  0.7776070E-02  0.4934778E+03  0.7818609E-02  0.1015495E+00
       -2   -1    0    0    0  501  0.00000000000E+00  0.00000000000E+00  0.65158373402E+03  0.65158373403E+03  0.25500000920E-02 0.  1.
        2   -1    0    0  501    0  0.00000000000E+00  0.00000000000E+00 -0.93433996720E+02  0.93433996755E+02  0.25500000920E-02 0. -1.
    10030    2    1    2    0    0  0.00000000000E+00  0.00000000000E+00  0.55814973730E+03  0.74501773078E+03  0.49347775019E+03 0.  0.
        4    1    3    3  502    0 -0.20043124609E+03 -0.13364330700E+03  0.35960503810E+03  0.43284017170E+03  0.12699999809E+01 0.  1.
       -4    1    3    3    0  502  0.20043124609E+03  0.13364330700E+03  0.19854469920E+03  0.31217755908E+03  0.12699999809E+01 0. -1.
</event>
<event>
 5   0  0.7698747E-02  0.5013707E+03  0.7818609E-02  0.1013422E+00
       -2   -1    0    0    0  501  0.00000000000E+00  0.00000000000E+00  0.74583055647E+02  0.74583055691E+02  0.25500000920E-02 0. -1.
        2   -1    0    0  501    0  0.00000000000E+00  0.00000000000E+00 -0.84259273719E+03  0.84259273720E+03  0.25500000920E-02 0.  1.
    10030    2    1    2    0    0  0.00000000000E+00  0.00000000000E+00 -0.76800968155E+03  0.91717579289E+03  0.50137068533E+03 0.  0.
        2    1    3    3  502    0  0.91565626725E+02 -0.37241968743E+01  0.42842594963E+02  0.10116136411E+03  0.25500000920E-02 0. -1.
       -2    1    3    3    0  502 -0.91565626725E+02  0.37241968743E+01 -0.81085227651E+03  0.81601442877E+03  0.25500000920E-02 0.  1.
</event>
<event>
 5   0  0.4803890E-02  0.4848654E+03  0.7818609E-02  0.1017807E+00
       -1   -1    0    0    0  501  0.00000000000E+00  0.00000000000E+00  0.90968777195E+02  0.90968777334E+02  0.50400001928E-02 0. -1.
        1   -1    0    0  501    0  0.00000000000E+00  0.00000000000E+00 -0.64608562613E+03  0.64608562615E+03  0.50400001928E-02 0.  1.
    10030    2    1    2    0    0  0.00000000000E+00  0.00000000000E+00 -0.55511684893E+03  0.73705440348E+03  0.48486542228E+03 0.  0.
        5    1    3    3  502    0 -0.20531009223E+03  0.78235785854E+01 -0.82070035105E+02  0.22129397419E+03  0.46999998093E+01 0. -1.
       -5    1    3    3    0  502  0.20531009223E+03 -0.78235785854E+01 -0.47304681383E+03  0.51576042929E+03  0.46999998093E+01 0.  1.
</event>
<event>
 5   0  0.7933103E-02  0.4999985E+03  0.7818609E-02  0.1013779E+00
       -2   -1    0    0    0  501  0.00000000000E+00  0.00000000000E+00  0.18072565056E+03  0.18072565058E+03  0.25500000920E-02 0. -1.
        2   -1    0    0  501    0  0.00000000000E+00  0.00000000000E+00 -0.34582599082E+03  0.34582599083E+03  0.25500000920E-02 0.  1.
    10030    2    1    2    0    0  0.00000000000E+00  0.00000000000E+00 -0.16510034025E+03  0.52655164141E+03  0.49999850872E+03 0.  0.
        5    1    3    3  502    0 -0.97482957350E+02 -0.18385995463E+03  0.63258973820E+02  0.21755734338E+03  0.46999998093E+01 0. -1.
       -5    1    3    3    0  502  0.97482957350E+02  0.18385995463E+03 -0.22835931407E+03  0.30899429803E+03  0.46999998093E+01 0.  1.
</event>
<event>
 5   0  0.7698747E-02  0.5002757E+03  0.7818609E-02  0.1013707E+00
       -2   -1    0    0    0  501  0.00000000000E+00  0.00000000000E+00  0.24085585055E+03  0.24085585057E+03  0.25500000920E-02 0.  1.
        2   -1    0    0  501    0  0.00000000000E+00  0.00000000000E+00 -0.25977757619E+03  0.25977757621E+03  0.25500000920E-02 0. -1.
    10030    2    1    2    0    0  0.00000000000E+00  0.00000000000E+00 -0.18921725638E+02  0.50063342677E+03  0.50027572028E+03 0.  0.
        2    1    3    3  502    0 -0.13285196413E+03 -0.20434963265E+03  0.46797946503E+02  0.24819037963E+03  0.25500000920E-02 0.  1.
       -2    1    3    3    0  502  0.13285196413E+03  0.20434963265E+03 -0.65719672141E+02  0.25244304714E+03  0.25500000920E-02 0. -1.
</event>
<event>
 5   0  0.3210875E-02  0.5029046E+03  0.7818609E-02  0.1013024E+00
        4   -1    0    0  501    0  0.00000000000E+00  0.00000000000E+00  0.53410865040E+02  0.53425961894E+02  0.12699999809E+01 0. -1.
       -4   -1    0    0    0  501  0.00000000000E+00  0.00000000000E+00 -0.11836260512E+04  0.11836267325E+04  0.12699999809E+01 0.  1.
    10030    2    1    2    0    0  0.00000000000E+00  0.00000000000E+00 -0.11302151861E+04  0.12370526944E+04  0.50290456527E+03 0.  0.
        2    1    3    3  502    0 -0.24277387464E+03  0.65426431002E+02 -0.57226998993E+03  0.62507016683E+03  0.25500000920E-02 0. -1.
       -2    1    3    3    0  502  0.24277387464E+03 -0.65426431002E+02 -0.55794519621E+03  0.61198252758E+03  0.25500000920E-02 0.  1.
</event>
<event>
 5   0  0.4884478E-02  0.5020472E+03  0.7818609E-02  0.1013246E+00
       -1   -1    0    0    0  501  0.00000000000E+00  0.00000000000E+00  0.36727252015E+03  0.36727252018E+03  0.50400001928E-02 0. -1.
        1   -1    0    0  501    0  0.00000000000E+00  0.00000000000E+00 -0.17156974489E+03  0.17156974496E+03  0.50400001928E-02 0.  1.
    10030    2    1    2    0    0  0.00000000000E+00  0.00000000000E+00  0.19570277526E+03  0.53884226514E+03  0.50204721935E+03 0.  0.
        3    1    3    3  502    0  0.84666286351E+02  0.10705304180E+02  0.35122481058E+03  0.36144413310E+03  0.10100000352E+00 0. -1.
       -3    1    3    3    0  502 -0.84666286351E+02 -0.10705304180E+02 -0.15552203532E+03  0.17739813204E+03  0.10100000352E+00 0.  1.
</event>
<event>
 5   0  0.7881060E-02  0.4990644E+03  0.7818609E-02  0.1014023E+00
        2   -1    0    0  501    0  0.00000000000E+00  0.00000000000E+00  0.15435089511E+03  0.15435089513E+03  0.25500000920E-02 0. -1.
       -2   -1    0    0    0  501  0.00000000000E+00  0.00000000000E+00 -0.40340750219E+03  0.40340750220E+03  0.25500000920E-02 0.  1.
    10030    2    1    2    0    0  0.00000000000E+00  0.00000000000E+00 -0.24905660708E+03  0.55775839733E+03  0.49906436084E+03 0.  0.
        1    1    3    3  502    0  0.19182161043E+03  0.10365698304E+03 -0.26015090995E+03  0.33943894345E+03  0.50400001928E-02 0.  1.
       -1    1    3    3    0  502 -0.19182161043E+03 -0.10365698304E+03  0.11094302861E+02  0.21831945388E+03  0.50400001928E-02 0. -1.
</event>
<event>
 5   0  0.4884478E-02  0.5077861E+03  0.7818609E-02  0.1011766E+00
       -1   -1    0    0    0  501  0.00000000000E+00  0.00000000000E+00  0.39333290950E+02  0.39333291273E+02  0.50400001928E-02 0.  1.
        1   -1    0    0  501    0  0.00000000000E+00  0.00000000000E+00 -0.16388583508E+04  0.16388583508E+04  0.50400001928E-02 0. -1.
    10030    2    1    2    0    0  0.00000000000E+00  0.00000000000E+00 -0.15995250599E+04  0.16781916421E+04  0.50778614639E+03 0.  0.
        3    1    3    3  502    0 -0.22268592643E+03  0.41788793622E+02 -0.11784080447E+04  0.11999920229E+04  0.10100000352E+00 0. -1.
       -3    1    3    3    0  502  0.22268592643E+03 -0.41788793622E+02 -0.42111701518E+03  0.47819961917E+03  0.10100000352E+00 0.  1.
</event>
<event>
 5   0  0.7698747E-02  0.5084606E+03  0.7818609E-02  0.1011594E+00
        2   -1    0    0  501    0  0.00000000000E+00  0.00000000000E+00  0.44312553642E+03  0.44312553643E+03  0.25500000920E-02 0. -1.
       -2   -1    0    0    0  501  0.00000000000E+00  0.00000000000E+00 -0.14585721293E+03  0.14585721295E+03  0.25500000920E-02 0.  1.
    10030    2    1    2    0    0  0.00000000000E+00  0.00000000000E+00  0.29726832349E+03  0.58898274938E+03  0.50846064047E+03 0.  0.
        2    1    3    3  502    0 -0.19257868520E+03  0.13713725473E+03  0.40341769615E+02  0.23983459927E+03  0.25500000920E-02 0.  1.
       -2    1    3    3    0  502  0.19257868520E+03 -0.13713725473E+03  0.25692655388E+03  0.34914815010E+03  0.25500000920E-02 0. -1.
</event>
<event>
 5   0  0.8208720E-02  0.5005268E+03  0.7818609E-02  0.1013641E+00
       -2   -1    0    0    0  501  0.00000000000E+00  0.00000000000E+00  0.28074280154E+03  0.28074280155E+03  0.25500000920E-02 0.  1.
        2   -1    0    0  501    0  0.00000000000E+00  0.00000000000E+00 -0.22309309690E+03  0.22309309692E+03  0.25500000920E-02 0. -1.
    10030    2    1    2    0    0  0.00000000000E+00  0.00000000000E+00  0.57649704632E+02  0.50383589847E+03  0.50052684657E+03 0.  0.
        3    1    3    3  502    0  0.19484635144E+03  0.15639865262E+03  0.14372649678E+02  0.25026430523E+03  0.10100000352E+00 0. -1.
       -3    1    3    3    0  502 -0.19484635144E+03 -0.15639865262E+03  0.43277054954E+02  0.25357159324E+03  0.10100000352E+00 0.  1.
</event>
<event>
 5   0  0.7881060E-02  0.4934163E+03  0.7818609E-02  0.1015512E+00
        2   -1    0    0  501    0  0.00000000000E+00  0.00000000000E+00  0.36698002112E+03  0.36698002113E+03  0.25500000920E-02 0. -1.
       -2   -1    0    0    0  501  0.00000000000E+00  0.00000000000E+00 -0.16585350223E+03  0.16585350225E+03  0.25500000920E-02 0.  1.
    10030    2    1    2    0    0  0.00000000000E+00  0.00000000000E+00  0.20112651890E+03  0.53283352338E+03  0.49341634249E+03 0.  0.
        1    1    3    3  502    0 -0.74242394029E+02  0.23465364128E+03  0.82152630468E+02  0.25946737590E+03  0.50400001928E-02 0.  1.
       -1    1    3    3    0  502  0.74242394029E+02 -0.23465364128E+03  0.11897388843E+03  0.27336614748E+03  0.50400001928E-02 0. -1.
</event>
<event>
 5   0  0.7933103E-02  0.4995135E+03  0.7818609E-02  0.1013906E+00
       -2   -1    0    0    0  501  0.00000000000E+00  0.00000000000E+00  0.19096866059E+03  0.19096866060E+03  0.25500000920E-02 0. -1.
        2   -1    0    0  501    0  0.00000000000E+00  0.00000000000E+00 -0.32664223227E+03  0.32664223228E+03  0.25500000920E-02 0.  1.
    10030    2    1    2    0    0  0.00000000000E+00  0.00000000000E+00 -0.13567357168E+03  0.51761089288E+03  0.49951348168E+03 0.  0.
        5    1    3    3  502    0 -0.15234359030E+03 -0.84628718138E+02 -0.25316197985E+03  0.30738195698E+03  0.46999998093E+01 0.  1.
       -5    1    3    3    0  502  0.15234359030E+03  0.84628718138E+02  0.11748840817E+03  0.21022893590E+03  0.46999998093E+01 0. -1.
</event>
<event>
 5   0  0.4865501E-02  0.5002694E+03  0.7818609E-02  0.1013709E+00
        1   -1    0    0  501    0  0.00000000000E+00  0.00000000000E+00  0.99981618065E+03  0.99981618067E+03  0.50400001928E-02 0.  1.
       -1   -1    0    0    0  501  0.00000000000E+00  0.00000000000E+00 -0.62578868152E+02  0.62578868355E+02  0.50400001928E-02 0. -1.
    10030    2    1    2    0    0  0.00000000000E+00  0.00000000000E+00  0.93723731250E+03  0.10623950490E+04  0.50026938767E+03 0.  0.
        2    1    3    3  502    0 -0.13825617483E+03 -0.51677257050E+02  0.89747977034E+03  0.90953573154E+03  0.25500000920E-02 0.  1.
       -2    1    3    3    0  502  0.13825617483E+03  0.51677257050E+02  0.39757542158E+02  0.15285931748E+03  0.25500000920E-02 0. -1.
</event>
<event>
 5   0  0.4884478E-02  0.4994851E+03  0.7818609E-02  0.1013913E+00
        1   -1    0    0  501    0  0.00000000000E+00  0.00000000000E+00  0.84921002460E+03  0.84921002462E+03  0.50400001928E-02 0. -1.
       -1   -1    0    0    0  501  0.00000000000E+00  0.00000000000E+00 -0.73446303797E+02  0.73446303970E+02  0.50400001928E-02 0.  1.
    10030    2    1    2    0    0  0.00000000000E+00  0.00000000000E+00  0.77576372080E+03  0.92265632859E+03  0.49948508503E+03 0.  0.
        3    1    3    3  502    0 -0.12084840545E+03  0.74959749425E+02  0.86489131395E+01  0.14247145340E+03  0.10100000352E+00 0.  1.
       -3    1    3    3    0  502  0.12084840545E+03 -0.74959749425E+02  0.76711480766E+03  0.78018487519E+03  0.10100000352E+00 0. -1.
</event>
<event>
 5   0  0.3210875E-02  0.4975982E+03  0.7818609E-02  0.1014408E+00
        3   -1    0    0  501    0  0.00000000000E+00  0.00000000000E+00  0.22168435638E+03  0.22168437938E+03  0.10100000352E+00 0. -1.
       -3   -1    0    0    0  501  0.00000000000E+00  0.00000000000E+00 -0.27923021786E+03  0.27923023612E+03  0.10100000352E+00 0.  1.
    10030    2    1    2    0    0  0.00000000000E+00  0.00000000000E+00 -0.57545861480E+02  0.50091461550E+03  0.49759815700E+03 0.  0.
        4    1    3    3  502    0  0.10527976569E+03  0.15648377305E+03 -0.19211457102E+03  0.26922225314E+03  0.12699999809E+01 0.  1.
       -4    1    3    3    0  502 -0.10527976569E+03 -0.15648377305E+03  0.13456870954E+03  0.23169236236E+03  0.12699999809E+01 0. -1.
</event>
<event>
 5   0  0.7776070E-02  0.5177393E+03  0.7818609E-02  0.1009250E+00
       -2   -1    0    0    0  501  0.00000000000E+00  0.00000000000E+00  0.43525138159E+03  0.43525138159E+03  0.25500000920E-02 0. -1.
        2   -1    0    0  501    0  0.00000000000E+00  0.00000000000E+00 -0.15396506711E+03  0.15396506713E+03  0.25500000920E-02 0.  1.
    10030    2    1    2    0    0  0.00000000000E+00  0.00000000000E+00  0.28128631448E+03  0.58921644872E+03  0.51773934826E+03 0.  0.
        4    1    3    3  502    0  0.82114760243E+02  0.10934121984E+03  0.39079183136E+03  0.41402681623E+03  0.12699999809E+01 0. -1.
       -4    1    3    3    0  502 -0.82114760243E+02 -0.10934121984E+03 -0.10950551688E+03  0.17518963249E+03  0.12699999809E+01 0.  1.
</event>
<event>
 5   0  0.5191358E-02  0.5038854E+03  0.7818609E-02  0.1012770E+00
        1   -1    0    0  501    0  0.00000000000E+00  0.00000000000E+00  0.57389758895E+03  0.57389758898E+03  0.50400001928E-02 0.  1.
       -1   -1    0    0    0  501  0.00000000000E+00  0.00000000000E+00 -0.11060356658E+03  0.11060356669E+03  0.50400001928E-02 0. -1.
    10030    2    1    2    0    0  0.00000000000E+00  0.00000000000E+00  0.46329402238E+03  0.68450115567E+03  0.50388538473E+03 0.  0.
        4    1    3    3  502    0  0.74066283082E+02  0.19999225626E+02 -0.94345318255E+02  0.12160771066E+03  0.12699999809E+01 0. -1.
       -4    1    3    3    0  502 -0.74066283082E+02 -0.19999225626E+02  0.55763934063E+03  0.56289344501E+03  0.12699999809E+01 0.  1.
</event>
<event>
 5   0  0.3210875E-02  0.4986667E+03  0.7818609E-02  0.1014128E+00
        3   -1    0    0  501    0  0.00000000000E+00  0.00000000000E+00  0.64515180059E+03  0.64515180850E+03  0.10100000352E+00 0. -1.
       -3   -1    0    0    0  501  0.00000000000E+00  0.00000000000E+00 -0.96360430946E+02  0.96360483877E+02  0.10100000352E+00 0.  1.
    10030    2    1    2    0    0  0.00000000000E+00  0.00000000000E+00  0.54879136965E+03  0.74151229237E+03  0.49866673475E+03 0.  0.
        4    1    3    3  502    0 -0.24714752328E+03  0.32540733165E+02  0.26700284719E+03  0.36528472578E+03  0.12699999809E+01 0.  1.
       -4    1    3    3    0  502  0.24714752328E+03 -0.32540733165E+02  0.28178852246E+03  0.37622756660E+03  0.12699999809E+01 0. -1.
</event>
<event>
 5   0  0.5038436E-02  0.4985682E+03  0.7818609E-02  0.1014153E+00
        1   -1    0    0  501    0  0.00000000000E+00  0.00000000000E+00  0.22049238401E+03  0.22049238407E+03  0.50400001928E-02 0.  1.
       -1   -1    0    0    0  501  0.00000000000E+00  0.00000000000E+00 -0.28183538078E+03  0.28183538083E+03  0.50400001928E-02 0. -1.
    10030    2    1    2    0    0  0.00000000000E+00  0.00000000000E+00 -0.61342996772E+02  0.50232776490E+03  0.49856817000E+03 0.  0.
        1    1    3    3  502    0 -0.45646170788E+02 -0.24505358492E+03 -0.33471413493E+02  0.25150580100E+03  0.50400001928E-02 0. -1.
       -1    1    3    3    0  502  0.45646170788E+02  0.24505358492E+03 -0.27871583279E+02  0.25082196389E+03  0.50400001928E-02 0.  1.
</event>
<event>
 5   0  0.7881060E-02  0.5032204E+03  0.7818609E-02  0.1012942E+00
        2   -1    0    0  501    0  0.00000000000E+00  0.00000000000E+00  0.15173566235E+04  0.15173566235E+04  0.25500000920E-02 0. -1.
       -2   -1    0    0    0  501  0.00000000000E+00  0.00000000000E+00 -0.41722360997E+02  0.41722361075E+02  0.25500000920E-02 0.  1.
    10030    2    1    2    0    0  0.00000000000E+00  0.00000000000E+00  0.14756342625E+04  0.15590789846E+04  0.50322043230E+03 0.  0.
        1    1    3    3  502    0 -0.83993751823E+01 -0.22891279737E+03  0.10603292240E+04  0.10847901555E+04  0.50400001928E-02 0.  1.
       -1    1    3    3    0  502  0.83993751823E+01  0.22891279737E+03  0.41530503853E+03  0.47428882905E+03  0.50400001928E-02 0. -1.
</event>
<event>
 5   0  0.4803890E-02  0.5014119E+03  0.7818609E-02  0.1013411E+00
       -1   -1    0    0    0  501  0.00000000000E+00  0.00000000000E+00  0.54461995387E+03  0.54461995389E+03  0.50400001928E-02 0. -1.
        1   -1    0    0  501    0  0.00000000000E+00  0.00000000000E+00 -0.11540794556E+03  0.11540794567E+03  0.50400001928E-02 0.  1.
    10030    2    1    2    0    0  0.00000000000E+00  0.00000000000E+00  0.42921200831E+03  0.66002789955E+03  0.50141188669E+03 0.  0.
        5    1    3    3  502    0  0.45151493018E+02 -0.21991408714E+03  0.67844462884E+02  0.23457583888E+03  0.46999998093E+01 0.  1.
       -5    1    3    3    0  502 -0.45151493018E+02  0.21991408714E+03  0.36136754543E+03  0.42545206067E+03  0.46999998093E+01 0. -1.
</event>
<event>
 5   0  0.7776070E-02  0.4987658E+03  0.7818609E-02  0.1014102E+00
        2   -1    0    0  501    0  0.00000000000E+00  0.00000000000E+00  0.22336970020E+04  0.22336970020E+04  0.25500000920E-02 0.  1.
       -2   -1    0    0    0  501  0.00000000000E+00  0.00000000000E+00 -0.27842559397E+02  0.27842559514E+02  0.25500000920E-02 0. -1.
    10030    2    1    2    0    0  0.00000000000E+00  0.00000000000E+00  0.22058544426E+04  0.22615395615E+04  0.49876584320E+03 0.  0.
        4    1    3    3  502    0 -0.33390015954E+02 -0.11052632749E+03  0.10066593296E+03  0.15318683100E+03  0.12699999809E+01 0. -1.
       -4    1    3    3    0  502  0.33390015954E+02  0.11052632749E+03  0.21051885096E+04  0.21083527305E+04  0.12699999809E+01 0.  1.
</event>
<event>
 5   0  0.7881060E-02  0.4988675E+03  0.7818609E-02  0.1014075E+00
       -2   -1    0    0    0  501  0.00000000000E+00  0.00000000000E+00  0.42371872607E+02  0.42371872684E+02  0.25500000920E-02 0.  1.
        2   -1    0    0  501    0  0.00000000000E+00  0.00000000000E+00 -0.14683605434E+04  0.14683605434E+04  0.25500000920E-02 0. -1.
    10030    2    1    2    0    0  0.00000000000E+00  0.00000000000E+00 -0.14259886708E+04  0.15107324161E+04  0.49886746115E+03 0.  0.
        1    1    3    3  502    0 -0.14697307863E+03 -0.79407186079E+02 -0.15205419414E+03  0.22589171083E+03  0.50400001928E-02 0.  1.
       -1    1    3    3    0  502  0.14697307863E+03  0.79407186079E+02 -0.12739344767E+04  0.12848407053E+04  0.50400001928E-02 0. -1.
</event>
<event>
 5   0  0.8208720E-02  0.4954219E+03  0.7818609E-02  0.1014981E+00
       -2   -1    0    0    0  501  0.00000000000E+00  0.00000000000E+00  0.55176572081E+03  0.55176572081E+03  0.25500000920E-02 0.  1.
        2   -1    0    0  501    0  0.00000000000E+00  0.00000000000E+00 -0.11120793444E+03  0.11120793447E+03  0.25500000920E-02 0. -1.
    10030    2    1    2    0    0  0.00000000000E+00  0.00000000000E+00  0.44055778636E+03  0.66297365528E+03  0.49542194589E+03 0.  0.
        3    1    3    3  502    0  0.22542875955E+01  0.86954576798E+02 -0.90098521970E+02  0.12523551453E+03  0.10100000352E+00 0. -1.
       -3    1    3    3    0  502 -0.22542875955E+01 -0.86954576798E+02  0.53065630833E+03  0.53773814075E+03  0.10100000352E+00 0.  1.
</event>
<event>
 5   0  0.7698747E-02  0.5013295E+03  0.7818609E-02  0.1013432E+00
       -2   -1    0    0    0  501  0.00000000000E+00  0.00000000000E+00  0.30883465175E+02  0.30883465280E+02  0.25500000920E-02 0. -1.
        2   -1    0    0  501    0  0.00000000000E+00  0.00000000000E+00 -0.20345133453E+04  0.20345133453E+04  0.25500000920E-02 0.  1.
    10030    2    1    2    0    0  0.00000000000E+00  0.00000000000E+00 -0.20036298801E+04  0.20653968106E+04  0.50132952100E+03 0.  0.
        2    1    3    3  502    0 -0.17335641301E+03 -0.15139035276E+03 -0.14109325091E+04  0.14295810681E+04  0.25500000920E-02 0.  1.
       -2    1    3    3    0  502  0.17335641301E+03  0.15139035276E+03 -0.59269737096E+03  0.63581574248E+03  0.25500000920E-02 0. -1.
</event>
<event>
 5   0  0.7881060E-02  0.5007527E+03  0.7818609E-02  0.1013583E+00
        2   -1    0    0  501    0  0.00000000000E+00  0.00000000000E+00  0.75093483638E+03  0.75093483638E+03  0.25500000920E-02 0. -1.
       -2   -1    0    0    0  501  0.00000000000E+00  0.00000000000E+00 -0.83480377717E+02  0.83480377756E+02  0.25500000920E-02 0.  1.
    10030    2    1    2    0    0  0.00000000000E+00  0.00000000000E+00  0.66745445866E+03  0.83441521414E+03  0.50075272860E+03 0.  0.
        1    1    3    3  502    0  0.35586666847E+02 -0.18710753051E+02  0.74552057389E+03  0.74660393064E+03  0.50400001928E-02 0. -1.
       -1    1    3    3    0  502 -0.35586666847E+02  0.18710753051E+02 -0.78066115227E+02  0.87811283495E+02  0.50400001928E-02 0.  1.
</event>
<event>
 5   0  0.7933103E-02  0.4518001E+03  0.7818609E-02  0.1027187E+00
       -2   -1    0    0    0  501  0.00000000000E+00  0.00000000000E+00  0.12187071796E+03  0.12187071799E+03  0.25500000920E-02 0.  1.
        2   -1    0    0  501    0  0.00000000000E+00  0.00000000000E+00 -0.41872927362E+03  0.41872927363E+03  0.25500000920E-02 0. -1.
    10030    2    1    2    0    0  0.00000000000E+00  0.00000000000E+00 -0.29685855566E+03  0.54059999161E+03  0.45180012048E+03 0.  0.
        5    1    3    3  502    0  0.12420386877E+03 -0.18859804164E+03 -0.15273100751E+03  0.27266219573E+03  0.46999998093E+01 0.  1.
       -5    1    3    3    0  502 -0.12420386877E+03  0.18859804164E+03 -0.14412754815E+03  0.26793779588E+03  0.46999998093E+01 0. -1.
</event>
<event>
 5   0  0.3210875E-02  0.4988760E+03  0.7818609E-02  0.1014073E+00
        3   -1    0    0  501    0  0.00000000000E+00  0.00000000000E+00  0.67577039597E+03  0.67577040352E+03  0.10100000352E+00 0. -1.
       -3   -1    0    0    0  501  0.00000000000E+00  0.00000000000E+00 -0.92071659896E+02  0.92071715293E+02  0.10100000352E+00 0.  1.
    10030    2    1    2    0    0  0.00000000000E+00  0.00000000000E+00  0.58369873607E+03  0.76784211881E+03  0.49887604164E+03 0.  0.
        3    1    3    3  502    0 -0.23265117171E+03  0.85957702493E+02  0.25101063021E+03  0.35287624033E+03  0.10100000352E+00 0. -1.
       -3    1    3    3    0  502  0.23265117171E+03 -0.85957702493E+02  0.33268810586E+03  0.41496587848E+03  0.10100000352E+00 0.  1.
</event>
<event>
 5   0  0.7698747E-02  0.4972507E+03  0.7818609E-02  0.1014499E+00
       -2   -1    0    0    0  501  0.00000000000E+00  0.00000000000E+00  0.12352946853E+03  0.12352946856E+03  0.25500000920E-02 0. -1.
        2   -1    0    0  501    0  0.00000000000E+00  0.00000000000E+00 -0.50040347683E+03  0.50040347684E+03  0.25500000920E-02 0.  1.
    10030    2    1    2    0    0  0.00000000000E+00  0.00000000000E+00 -0.37687400830E+03  0.62393294540E+03  0.49725074381E+03 0.  0.
        2    1    3    3  502    0 -0.12250711491E+03  0.20053320524E+03 -0.29032066455E+03  0.37350722601E+03  0.25500000920E-02 0.  1.
       -2    1    3    3    0  502  0.12250711491E+03 -0.20053320524E+03 -0.86553343746E+02  0.25042571939E+03  0.25500000920E-02 0. -1.
</event>
<event>
 5   0  0.4884478E-02  0.4937358E+03  0.7818609E-02  0.1015427E+00
       -1   -1    0    0    0  501  0.00000000000E+00  0.00000000000E+00  0.29316801604E+03  0.29316801608E+03  0.50400001928E-02 0.  1.
        1   -1    0    0  501    0  0.00000000000E+00  0.00000000000E+00 -0.20787999215E+03  0.20787999222E+03  0.50400001928E-02 0. -1.
    10030    2    1    2    0    0  0.00000000000E+00  0.00000000000E+00  0.85288023884E+02  0.50104800830E+03  0.49373581964E+03 0.  0.
        3    1    3    3  502    0  0.18239549410E+03  0.12146181793E+03 -0.72717450001E+02  0.23088726085E+03  0.10100000352E+00 0. -1.
       -3    1    3    3    0  502 -0.18239549410E+03 -0.12146181793E+03  0.15800547388E+03  0.27016074745E+03  0.10100000352E+00 0.  1.
</event>
<event>
 5   0  0.5038436E-02  0.5081992E+03  0.7818609E-02  0.1011661E+00
       -1   -1    0    0    0  501  0.00000000000E+00  0.00000000000E+00  0.12932209373E+04  0.12932209373E+04  0.50400001928E-02 0.  1.
        1   -1    0    0  501    0  0.00000000000E+00  0.00000000000E+00 -0.49926975767E+02  0.49926976021E+02  0.50400001928E-02 0. -1.
    10030    2    1    2    0    0  0.00000000000E+00  0.00000000000E+00  0.12432939616E+04  0.13431479134E+04  0.50819921518E+03 0.  0.
        1    1    3    3  502    0  0.12978394966E+02  0.23845075418E+03  0.39215975171E+03  0.45914754904E+03  0.50400001928E-02 0.  1.
       -1    1    3    3    0  502 -0.12978394966E+02 -0.23845075418E+03  0.85113420986E+03  0.88400036432E+03  0.50400001928E-02 0. -1.
</event>
<event>
 5   0  0.7698747E-02  0.4953276E+03  0.7818609E-02  0.1015006E+00
       -2   -1    0    0    0  501  0.00000000000E+00  0.00000000000E+00  0.34264145507E+02  0.34264145602E+02  0.25500000920E-02 0. -1.
        2   -1    0    0  501    0  0.00000000000E+00  0.00000000000E+00 -0.17901322161E+04  0.17901322161E+04  0.25500000920E-02 0.  1.
    10030    2    1    2    0    0  0.00000000000E+00  0.00000000000E+00 -0.17558680706E+04  0.18243963617E+04  0.49532757168E+03 0.  0.
        2    1    3    3  502    0  0.48099932015E+02  0.23156562107E+03 -0.60724652020E+03  0.65167827693E+03  0.25500000920E-02 0.  1.
       -2    1    3    3    0  502 -0.48099932015E+02 -0.23156562107E+03 -0.11486215504E+04  0.11727180848E+04  0.25500000920E-02 0. -1.
</event>
<event>
 5   0  0.7933103E-02  0.5030141E+03  0.7818609E-02  0.1012995E+00
       -2   -1    0    0    0  501  0.00000000000E+00  0.00000000000E+00  0.53037930360E+03  0.53037930361E+03  0.25500000920E-02 0.  1.
        2   -1    0    0  501    0  0.00000000000E+00  0.00000000000E+00 -0.11926518926E+03  0.11926518929E+03  0.25500000920E-02 0. -1.
    10030    2    1    2    0    0  0.00000000000E+00  0.00000000000E+00  0.41111411434E+03  0.64964449289E+03  0.50301406754E+03 0.  0.
        5    1    3    3  502    0 -0.15890964390E+03 -0.15327215513E+03  0.50098053764E+02  0.22644322346E+03  0.46999998093E+01 0. -1.
       -5    1    3    3    0  502  0.15890964390E+03  0.15327215513E+03  0.36101606058E+03  0.42320126944E+03  0.46999998093E+01 0.  1.
</event>
<event>
 5   0  0.7933103E-02  0.4557423E+03  0.7818609E-02  0.1026023E+00
       -2   -1    0    0    0  501  0.00000000000E+00  0.00000000000E+00  0.96007579952E+02  0.96007579986E+02  0.25500000920E-02 0. -1.
        2   -1    0    0  501    0  0.00000000000E+00  0.00000000000E+00 -0.54084547467E+03  0.54084547468E+03  0.25500000920E-02 0.  1.
    10030    2    1    2    0    0  0.00000000000E+00  0.00000000000E+00 -0.44483789472E+03  0.63685305466E+03  0.45574231826E+03 0.  0.
        5    1    3    3  502    0 -0.19975243627E+03 -0.91271838821E+02 -0.30709235071E+03  0.37757037254E+03  0.46999998093E+01 0.  1.
       -5    1    3    3    0  502  0.19975243627E+03  0.91271838821E+02 -0.13774554401E+03  0.25928268213E+03  0.46999998093E+01 0. -1.
</event>
<event>
 5   0  0.4865501E-02  0.4951261E+03  0.7818609E-02  0.1015059E+00
       -1   -1    0    0    0  501  0.00000000000E+00  0.00000000000E+00  0.32367833741E+03  0.32367833745E+03  0.50400001928E-02 0.  1.
        1   -1    0    0  501    0  0.00000000000E+00  0.00000000000E+00 -0.18934680890E+03  0.18934680897E+03  0.50400001928E-02 0. -1.
    10030    2    1    2    0    0  0.00000000000E+00  0.00000000000E+00  0.13433152851E+03  0.51302514642E+03  0.49512608627E+03 0.  0.
        2    1    3    3  502    0  0.19997419070E+03  0.12598257379E+03  0.14349127547E+03  0.27649779744E+03  0.25500000920E-02 0.  1.
       -2    1    3    3    0  502 -0.19997419070E+03 -0.12598257379E+03 -0.91597469539E+01  0.23652734898E+03  0.25500000920E-02 0. -1.
</event>
<event>
 5   0  0.4803890E-02  0.4999519E+03  0.7818609E-02  0.1013791E+00
       -1   -1    0    0    0  501  0.00000000000E+00  0.00000000000E+00  0.58651651251E+02  0.58651651468E+02  0.50400001928E-02 0. -1.
        1   -1    0    0  501    0  0.00000000000E+00  0.00000000000E+00 -0.10654086120E+04  0.10654086121E+04  0.50400001928E-02 0.  1.
    10030    2    1    2    0    0  0.00000000000E+00  0.00000000000E+00 -0.10067569608E+04  0.11240602635E+04  0.49995189561E+03 0.  0.
        5    1    3    3  502    0  0.16968269362E+03 -0.66111244270E+02 -0.88825126873E+03  0.90673883756E+03  0.46999998093E+01 0.  1.
       -5    1    3    3    0  502 -0.16968269362E+03  0.66111244270E+02 -0.11850569206E+03  0.21732142597E+03  0.46999998093E+01 0. -1.
</event>
<event>
 5   0  0.7881060E-02  0.4956581E+03  0.7818609E-02  0.1014918E+00
        2   -1    0    0  501    0  0.00000000000E+00  0.00000000000E+00  0.19955032353E+03  0.19955032355E+03  0.25500000920E-02 0. -1.
       -2   -1    0    0    0  501  0.00000000000E+00  0.00000000000E+00 -0.30778818218E+03  0.30778818219E+03  0.25500000920E-02 0.  1.
    10030    2    1    2    0    0  0.00000000000E+00  0.00000000000E+00 -0.10823785865E+03  0.50733850574E+03  0.49565807303E+03 0.  0.
        1    1    3    3  502    0 -0.52638189594E+02 -0.23783013864E+03 -0.10085988271E+03  0.26364117625E+03  0.50400001928E-02 0.  1.
       -1    1    3    3    0  502  0.52638189594E+02  0.23783013864E+03 -0.73779759420E+01  0.24369732949E+03  0.50400001928E-02 0. -1.
</event>
<event>
 5   0  0.7776070E-02  0.5157101E+03  0.7818609E-02  0.1009758E+00
        2   -1    0    0  501    0  0.00000000000E+00  0.00000000000E+00  0.23491529580E+03  0.23491529581E+03  0.25500000920E-02 0.  1.
       -2   -1    0    0    0  501  0.00000000000E+00  0.00000000000E+00 -0.28303486224E+03  0.28303486225E+03  0.25500000920E-02 0. -1.
    10030    2    1    2    0    0  0.00000000000E+00  0.00000000000E+00 -0.48119566442E+02  0.51795015806E+03  0.51571006735E+03 0.  0.
        4    1    3    3  502    0 -0.30736990859E+02  0.89840078591E+02  0.21671389999E+03  0.23660627565E+03  0.12699999809E+01 0.  1.
       -4    1    3    3    0  502  0.30736990859E+02 -0.89840078591E+02 -0.26483346643E+03  0.28134388241E+03  0.12699999809E+01 0. -1.
</event>
<event>
 5   0  0.7698747E-02  0.4910642E+03  0.7818609E-02  0.1016138E+00
       -2   -1    0    0    0  501  0.00000000000E+00  0.00000000000E+00  0.11555688148E+03  0.11555688151E+03  0.25500000920E-02 0. -1.
        2   -1    0    0  501    0  0.00000000000E+00  0.00000000000E+00 -0.52169987390E+03  0.52169987391E+03  0.25500000920E-02 0.  1.
    10030    2    1    2    0    0  0.00000000000E+00  0.00000000000E+00 -0.40614299242E+03  0.63725675542E+03  0.49106419340E+03 0.  0.
        2    1    3    3  502    0  0.11487046347E+03 -0.21473710460E+03 -0.24367046094E+03  0.34450332511E+03  0.25500000920E-02 0.  1.
       -2    1    3    3    0  502 -0.11487046347E+03  0.21473710460E+03 -0.16247253147E+03  0.29275343031E+03  0.25500000920E-02 0. -1.
</event>
<event>
 5   0  0.7698747E-02  0.4985004E+03  0.7818609E-02  0.1014171E+00
        2   -1    0    0  501    0  0.00000000000E+00  0.00000000000E+00  0.53817868252E+03  0.53817868253E+03  0.25500000920E-02 0.  1.
       -2   -1    0    0    0  501  0.00000000000E+00  0.00000000000E+00 -0.11543688193E+03  0.11543688195E+03  0.25500000920E-02 0. -1.
    10030    2    1    2    0    0  0.00000000000E+00  0.00000000000E+00  0.42274180060E+03  0.65361556449E+03  0.49850042745E+03 0.  0.
        2    1    3    3  502    0 -0.18873856703E+02 -0.87667546451E+02  0.51629422167E+03  0.52402437396E+03  0.25500000920E-02 0.  1.
       -2    1    3    3    0  502  0.18873856703E+02  0.87667546451E+02 -0.93552421071E+02  0.12959119053E+03  0.25500000920E-02 0. -1.
</event>
<event>
 5   0  0.3210875E-02  0.4991141E+03  0.7818609E-02  0.1014010E+00
        4   -1    0    0  501    0  0.00000000000E+00  0.00000000000E+00  0.26219449702E+03  0.26219757277E+03  0.12699999809E+01 0. -1.
       -4   -1    0    0    0  501  0.00000000000E+00  0.00000000000E+00 -0.23752259193E+03  0.23752598716E+03  0.12699999809E+01 0.  1.
    10030    2    1    2    0    0  0.00000000000E+00  0.00000000000E+00  0.24671905089E+02  0.49972355993E+03  0.49911414872E+03 0.  0.
        4    1    3    3  502    0 -0.57696336816E+02  0.21745556430E+03 -0.95783540409E+02  0.24452380097E+03  0.12699999809E+01 0. -1.
       -4    1    3    3    0  502  0.57696336816E+02 -0.21745556430E+03  0.12045544550E+03  0.25519975897E+03  0.12699999809E+01 0.  1.
</event>
<event>
 5   0  0.5038436E-02  0.4990990E+03  0.7818609E-02  0.1014014E+00
       -1   -1    0    0    0  501  0.00000000000E+00  0.00000000000E+00  0.45026607464E+02  0.45026607746E+02  0.50400001928E-02 0.  1.
        1   -1    0    0  501    0  0.00000000000E+00  0.00000000000E+00 -0.13830698864E+04  0.13830698864E+04  0.50400001928E-02 0. -1.
    10030    2    1    2    0    0  0.00000000000E+00  0.00000000000E+00 -0.13380432790E+04  0.14280964942E+04  0.49909896846E+03 0.  0.
        1    1    3    3  502    0 -0.16110434020E+03 -0.78425909236E+02 -0.17202154314E+03  0.24838808949E+03  0.50400001928E-02 0.  1.
       -1    1    3    3    0  502  0.16110434020E+03  0.78425909236E+02 -0.11660217358E+04  0.11797084047E+04  0.50400001928E-02 0. -1.
</event>
<event>
 5   0  0.7933103E-02  0.5029288E+03  0.7818609E-02  0.1013017E+00
        2   -1    0    0  501    0  0.00000000000E+00  0.00000000000E+00  0.71363604331E+03  0.71363604331E+03  0.25500000920E-02 0.  1.
       -2   -1    0    0    0  501  0.00000000000E+00  0.00000000000E+00 -0.88608680737E+02  0.88608680774E+02  0.25500000920E-02 0. -1.
    10030    2    1    2    0    0  0.00000000000E+00  0.00000000000E+00  0.62502736257E+03  0.80224472409E+03  0.50292881540E+03 0.  0.
        5    1    3    3  502    0 -0.37994820587E+02  0.76227003572E+02  0.68985278572E+03  0.69510655185E+03  0.46999998093E+01 0.  1.
       -5    1    3    3    0  502  0.37994820587E+02 -0.76227003572E+02 -0.64825423148E+02  0.10713817223E+03  0.46999998093E+01 0. -1.
</event>
<event>
 5   0  0.7881060E-02  0.4968699E+03  0.7818609E-02  0.1014599E+00
        2   -1    0    0  501    0  0.00000000000E+00  0.00000000000E+00  0.34136306653E+03  0.34136306654E+03  0.25500000920E-02 0.  1.
       -2   -1    0    0    0  501  0.00000000000E+00  0.00000000000E+00 -0.18080434495E+03  0.18080434497E+03  0.25500000920E-02 0. -1.
    10030    2    1    2    0    0  0.00000000000E+00  0.00000000000E+00  0.16055872158E+03  0.52216741150E+03  0.49686990507E+03 0.  0.
        1    1    3    3  502    0 -0.24137370457E+03 -0.41340900830E+02  0.12423709001E+03  0.27460005444E+03  0.50400001928E-02 0. -1.
       -1    1    3    3    0  502  0.24137370457E+03  0.41340900830E+02  0.36321631573E+02  0.24756735707E+03  0.50400001928E-02 0.  1.
</event>
<event>
 5   0  0.5191358E-02  0.5000627E+03  0.7818609E-02  0.1013763E+00
        1   -1    0    0  501    0  0.00000000000E+00  0.00000000000E+00  0.20773043573E+04  0.20773043573E+04  0.50400001928E-02 0.  1.
       -1   -1    0    0    0  501  0.00000000000E+00  0.00000000000E+00 -0.30094620437E+02  0.30094620859E+02  0.50400001928E-02 0. -1.
    10030    2    1    2    0    0  0.00000000000E+00  0.00000000000E+00  0.20472097369E+04  0.21073989782E+04  0.50006274253E+03 0.  0.
        4    1    3    3  502    0  0.18038147480E+03  0.17313750060E+03  0.10233681308E+04  0.10534695129E+04  0.12699999809E+01 0. -1.
       -4    1    3    3    0  502 -0.18038147480E+03 -0.17313750060E+03  0.10238416061E+04  0.10539294653E+04  0.12699999809E+01 0.  1.
</event>
<event>
 5   0  0.4884478E-02  0.4994069E+03  0.7818609E-02  0.1013934E+00
       -1   -1    0    0    0  501  0.00000000000E+00  0.00000000000E+00  0.13671388043E+03  0.13671388052E+03  0.50400001928E-02 0. -1.
        1   -1    0    0  501    0  0.00000000000E+00  0.00000000000E+00 -0.45607518187E+03  0.45607518190E+03  0.50400001928E-02 0.  1.
    10030    2    1    2    0    0  0.00000000000E+00  0.00000000000E+00 -0.31936130145E+03  0.59278906242E+03  0.49940687987E+03 0.  0.
        3    1    3    3  502    0 -0.98714217621E+02 -0.22882432722E+03 -0.17832533689E+03  0.30643923618E+03  0.10100000352E+00 0. -1.
       -3    1    3    3    0  502  0.98714217621E+02  0.22882432722E+03 -0.14103596456E+03  0.28634982624E+03  0.10100000352E+00 0.  1.
</event>
<event>
 5   0  0.7933103E-02  0.4964945E+03  0.7818609E-02  0.1014698E+00
        2   -1    0    0  501    0  0.00000000000E+00  0.00000000000E+00  0.71392133768E+03  0.71392133769E+03  0.25500000920E-02 0. -1.
       -2   -1    0    0    0  501  0.00000000000E+00  0.00000000000E+00 -0.86321417187E+02  0.86321417224E+02  0.25500000920E-02 0.  1.
    10030    2    1    2    0    0  0.00000000000E+00  0.00000000000E+00  0.62759992050E+03  0.80024275491E+03  0.49649451818E+03 0.  0.
        5    1    3    3  502    0 -0.11102144216E+02  0.17215154765E+03  0.60142671056E+03  0.62569608528E+03  0.46999998093E+01 0. -1.
       -5    1    3    3    0  502  0.11102144216E+02 -0.17215154765E+03  0.26173209941E+02  0.17454666963E+03  0.46999998093E+01 0.  1.
</event>
<event>
 5   0  0.7933103E-02  0.4989145E+03  0.7818609E-02  0.1014063E+00
        2   -1    0    0  501    0  0.00000000000E+00  0.00000000000E+00  0.64197525624E+03  0.64197525625E+03  0.25500000920E-02 0.  1.
       -2   -1    0    0    0  501  0.00000000000E+00  0.00000000000E+00 -0.96933529494E+02  0.96933529527E+02  0.25500000920E-02 0. -1.
    10030    2    1    2    0    0  0.00000000000E+00  0.00000000000E+00  0.54504172675E+03  0.73890878578E+03  0.49891453156E+03 0.  0.
        5    1    3    3  502    0 -0.97705719462E+02 -0.97632306677E+02  0.58009241363E+03  0.59632857828E+03  0.46999998093E+01 0.  1.
       -5    1    3    3    0  502  0.97705719462E+02  0.97632306677E+02 -0.35050686875E+02  0.14258020750E+03  0.46999998093E+01 0. -1.
</event>
<event>
 5   0  0.7698747E-02  0.5006069E+03  0.7818609E-02  0.1013621E+00
        2   -1    0    0  501    0  0.00000000000E+00  0.00000000000E+00  0.21603187575E+03  0.21603187576E+03  0.25500000920E-02 0.  1.
       -2   -1    0    0    0  501  0.00000000000E+00  0.00000000000E+00 -0.29001191448E+03  0.29001191449E+03  0.25500000920E-02 0. -1.
    10030    2    1    2    0    0  0.00000000000E+00  0.00000000000E+00 -0.73980038734E+02  0.50604379025E+03  0.50060690319E+03 0.  0.
        2    1    3    3  502    0  0.32433202897E+02  0.11848239516E+03 -0.25744531290E+03  0.28525090666E+03  0.25500000920E-02 0. -1.
       -2    1    3    3    0  502 -0.32433202897E+02 -0.11848239516E+03  0.18346527416E+03  0.22079288359E+03  0.25500000920E-02 0.  1.
</event>
<event>
 5   0  0.7776070E-02  0.4978170E+03  0.7818609E-02  0.1014350E+00
        2   -1    0    0  501    0  0.00000000000E+00  0.00000000000E+00  0.54371388141E+03  0.54371388142E+03  0.25500000920E-02 0.  1.
       -2   -1    0    0    0  501  0.00000000000E+00  0.00000000000E+00 -0.11394859121E+03  0.11394859124E+03  0.25500000920E-02 0. -1.
    10030    2    1    2    0    0  0.00000000000E+00  0.00000000000E+00  0.42976529020E+03  0.65766247265E+03  0.49781695760E+03 0.  0.
        4    1    3    3  502    0  0.16847226250E+03  0.16953232470E+03  0.30669343050E+03  0.38882719241E+03  0.12699999809E+01 0.  1.
       -4    1    3    3    0  502 -0.16847226250E+03 -0.16953232470E+03  0.12307185970E+03  0.26883528024E+03  0.12699999809E+01 0. -1.
</event>
<event>
 5   0  0.5038436E-02  0.5013598E+03  0.7818609E-02  0.1013425E+00
        1   -1    0    0  501    0  0.00000000000E+00  0.00000000000E+00  0.16347938942E+03  0.16347938950E+03  0.50400001928E-02 0.  1.
       -1   -1    0    0    0  501  0.00000000000E+00  0.00000000000E+00 -0.38439344178E+03  0.38439344181E+03  0.50400001928E-02 0. -1.
    10030    2    1    2    0    0  0.00000000000E+00  0.00000000000E+00 -0.22091405236E+03  0.54787283132E+03  0.50135977179E+03 0.  0.
        1    1    3    3  502    0  0.11689084320E+02 -0.21569463494E+03  0.28542750598E+02  0.21788873048E+03  0.50400001928E-02 0.  1.
       -1    1    3    3    0  502 -0.11689084320E+02  0.21569463494E+03 -0.24945680296E+03  0.32998410083E+03  0.50400001928E-02 0. -1.
</event>
<event>
 5   0  0.5038436E-02  0.4981292E+03  0.7818609E-02  0.1014268E+00
        1   -1    0    0  501    0  0.00000000000E+00  0.00000000000E+00  0.12173082861E+04  0.12173082862E+04  0.50400001928E-02 0. -1.
       -1   -1    0    0    0  501  0.00000000000E+00  0.00000000000E+00 -0.50959301844E+02  0.50959302094E+02  0.50400001928E-02 0.  1.
    10030    2    1    2    0    0  0.00000000000E+00  0.00000000000E+00  0.11663489843E+04  0.12682675882E+04  0.49812922242E+03 0.  0.
        1    1    3    3  502    0  0.73481984282E+02  0.15027202202E+03  0.11334580028E+03  0.20206076582E+03  0.50400001928E-02 0.  1.
       -1    1    3    3    0  502 -0.73481984282E+02 -0.15027202202E+03  0.10530031840E+04  0.10662068224E+04  0.50400001928E-02 0. -1.
</event>
<event>
 5   0  0.4884478E-02  0.4962240E+03  0.7818609E-02  0.1014769E+00
        1   -1    0    0  501    0  0.00000000000E+00  0.00000000000E+00  0.65163687178E+02  0.65163687373E+02  0.50400001928E-02 0. -1.
       -1   -1    0    0    0  501  0.00000000000E+00  0.00000000000E+00 -0.94469142000E+03  0.94469142002E+03  0.50400001928E-02 0.  1.
    10030    2    1    2    0    0  0.00000000000E+00  0.00000000000E+00 -0.87952773283E+03  0.10098551074E+04  0.49622404729E+03 0.  0.
        3    1    3    3  502    0 -0.16513483120E+03  0.60638367956E+02 -0.83694589298E+02  0.19481098179E+03  0.10100000352E+00 0. -1.
       -3    1    3    3    0  502  0.16513483120E+03 -0.60638367956E+02 -0.79583314353E+03  0.81504412561E+03  0.10100000352E+00 0.  1.
</event>
<event>
 5   0  0.7881060E-02  0.4996286E+03  0.7818609E-02  0.1013876E+00
        2   -1    0    0  501    0  0.00000000000E+00  0.00000000000E+00  0.54529300000E+03  0.54529300001E+03  0.25500000920E-02 0. -1.
       -2   -1    0    0    0  501  0.00000000000E+00  0.00000000000E+00 -0.11444708933E+03  0.11444708936E+03  0.25500000920E-02 0.  1.
    10030    2    1    2    0    0  0.00000000000E+00  0.00000000000E+00  0.43084591067E+03  0.65974008937E+03  0.49962864888E+03 0.  0.
        1    1    3    3  502    0 -0.12609114828E+03 -0.18640357903E+03  0.35863011782E+03  0.42339205635E+03  0.50400001928E-02 0. -1.
       -1    1    3    3    0  502  0.12609114828E+03  0.18640357903E+03  0.72215792843E+02  0.23634803302E+03  0.50400001928E-02 0.  1.
</event>
<event>
 5   0  0.3210875E-02  0.4959718E+03  0.7818609E-02  0.1014836E+00
        3   -1    0    0  501    0  0.00000000000E+00  0.00000000000E+00  0.75443292337E+02  0.75443359944E+02  0.10100000352E+00 0. -1.
       -3   -1    0    0    0  501  0.00000000000E+00  0.00000000000E+00 -0.81514161055E+03  0.81514161681E+03  0.10100000352E+00 0.  1.
    10030    2    1    2    0    0  0.00000000000E+00  0.00000000000E+00 -0.73969831822E+03  0.89058497675E+03  0.49597177223E+03 0.  0.
        2    1    3    3  502    0 -0.20598876307E+03 -0.47712023987E+02 -0.13718295614E+03  0.25204557367E+03  0.25500000920E-02 0. -1.
       -2    1    3    3    0  502  0.20598876307E+03  0.47712023987E+02 -0.60251536208E+03  0.63853940308E+03  0.25500000920E-02 0.  1.
</event>
<event>
 5   0  0.7698747E-02  0.5122357E+03  0.7818609E-02  0.1010634E+00
       -2   -1    0    0    0  501  0.00000000000E+00  0.00000000000E+00  0.12973660218E+03  0.12973660221E+03  0.25500000920E-02 0.  1.
        2   -1    0    0  501    0  0.00000000000E+00  0.00000000000E+00 -0.50561186138E+03  0.50561186139E+03  0.25500000920E-02 0. -1.
    10030    2    1    2    0    0  0.00000000000E+00  0.00000000000E+00 -0.37587525919E+03  0.63534846359E+03  0.51223574623E+03 0.  0.
        2    1    3    3  502    0 -0.10126606432E+03 -0.10673752692E+03  0.72087228924E+02  0.16384225345E+03  0.25500000920E-02 0.  1.
       -2    1    3    3    0  502  0.10126606432E+03  0.10673752692E+03 -0.44796248812E+03  0.47150621014E+03  0.25500000920E-02 0. -1.
</event>
<event>
 5   0  0.5191358E-02  0.5020752E+03  0.7818609E-02  0.1013239E+00
       -1   -1    0    0    0  501  0.00000000000E+00  0.00000000000E+00  0.40476031889E+02  0.40476032203E+02  0.50400001928E-02 0. -1.
        1   -1    0    0  501    0  0.00000000000E+00  0.00000000000E+00 -0.15569677231E+04  0.15569677231E+04  0.50400001928E-02 0.  1.
    10030    2    1    2    0    0  0.00000000000E+00  0.00000000000E+00 -0.15164916912E+04  0.15974437553E+04  0.50207519543E+03 0.  0.
        4    1    3    3  502    0  0.21641333890E+03  0.47453350486E+02 -0.11337882692E+04  0.11552333123E+04  0.12699999809E+01 0. -1.
       -4    1    3    3    0  502 -0.21641333890E+03 -0.47453350486E+02 -0.38270342199E+03  0.44221044293E+03  0.12699999809E+01 0.  1.
</event>
<event>
 5   0  0.4803890E-02  0.5005851E+03  0.7818609E-02  0.1013626E+00
       -1   -1    0    0    0  501  0.00000000000E+00  0.00000000000E+00  0.90618973603E+03  0.90618973604E+03  0.50400001928E-02 0.  1.
        1   -1    0    0  501    0  0.00000000000E+00  0.00000000000E+00 -0.69131602156E+02  0.69131602340E+02  0.50400001928E-02 0. -1.
    10030    2    1    2    0    0  0.00000000000E+00  0.00000000000E+00  0.83705813387E+03  0.97532133838E+03  0.50058505134E+03 0.  0.
        5    1    3    3  502    0 -0.12210670101E+02  0.20700258119E+03  0.14558373535E+03  0.25340853001E+03  0.46999998093E+01 0. -1.
       -5    1    3    3    0  502  0.12210670101E+02 -0.20700258119E+03  0.69147439852E+03  0.72191280837E+03  0.46999998093E+01 0.  1.
</event>
<event>
 5   0  0.7881060E-02  0.4588261E+03  0.7818609E-02  0.1025122E+00
       -2   -1    0    0    0  501  0.00000000000E+00  0.00000000000E+00  0.25273948397E+03  0.25273948398E+03  0.25500000920E-02 0. -1.
        2   -1    0    0  501    0  0.00000000000E+00  0.00000000000E+00 -0.20823953703E+03  0.20823953705E+03  0.25500000920E-02 0.  1.
    10030    2    1    2    0    0  0.00000000000E+00  0.00000000000E+00  0.44499946933E+02  0.46097902103E+03  0.45882612453E+03 0.  0.
        1    1    3    3  502    0 -0.20476906891E+03  0.50375383175E+02  0.11301935184E+03  0.23925180193E+03  0.50400001928E-02 0. -1.
       -1    1    3    3    0  502  0.20476906891E+03 -0.50375383175E+02 -0.68519404902E+02  0.22172721909E+03  0.50400001928E-02 0.  1.
</event>
<event>
 5   0  0.4884478E-02  0.5013049E+03  0.7818609E-02  0.1013439E+00
        1   -1    0    0  501    0  0.00000000000E+00  0.00000000000E+00  0.23175704373E+03  0.23175704379E+03  0.50400001928E-02 0.  1.
       -1   -1    0    0    0  501  0.00000000000E+00  0.00000000000E+00 -0.27108842522E+03  0.27108842527E+03  0.50400001928E-02 0. -1.
    10030    2    1    2    0    0  0.00000000000E+00  0.00000000000E+00 -0.39331381490E+02  0.50284546905E+03  0.50130490540E+03 0.  0.
        3    1    3    3  502    0 -0.19151416860E+03  0.16126430598E+03 -0.76795468690E+01  0.25048520674E+03  0.10100000352E+00 0. -1.
       -3    1    3    3    0  502  0.19151416860E+03 -0.16126430598E+03 -0.31651834621E+02  0.25236026231E+03  0.10100000352E+00 0.  1.
</event>
<event>
 5   0  0.7698747E-02  0.4995044E+03  0.7818609E-02  0.1013908E+00
        2   -1    0    0  501    0  0.00000000000E+00  0.00000000000E+00  0.12151670443E+03  0.12151670446E+03  0.25500000920E-02 0. -1.
       -2   -1    0    0    0  501  0.00000000000E+00  0.00000000000E+00 -0.51331342605E+03  0.51331342605E+03  0.25500000920E-02 0.  1.
    10030    2    1    2    0    0  0.00000000000E+00  0.00000000000E+00 -0.39179672161E+03  0.63483013051E+03  0.49950437790E+03 0.  0.
        2    1    3    3  502    0  0.24538048649E+02  0.55608569613E+02 -0.50376999410E+03  0.50742352706E+03  0.25500000920E-02 0.  1.
       -2    1    3    3    0  502 -0.24538048649E+02 -0.55608569613E+02  0.11197327249E+03  0.12740660346E+03  0.25500000920E-02 0. -1.
</event>
<event>
 5   0  0.7698747E-02  0.4983851E+03  0.7818609E-02  0.1014201E+00
       -2   -1    0    0    0  501  0.00000000000E+00  0.00000000000E+00  0.35193600623E+02  0.35193600715E+02  0.25500000920E-02 0.  1.
        2   -1    0    0  501    0  0.00000000000E+00  0.00000000000E+00 -0.17644377318E+04  0.17644377318E+04  0.25500000920E-02 0. -1.
    10030    2    1    2    0    0  0.00000000000E+00  0.00000000000E+00 -0.17292441312E+04  0.17996313325E+04  0.49838505974E+03 0.  0.
        2    1    3    3  502    0 -0.10307400243E+03  0.11496544988E+03 -0.15835962690E+03  0.22117657218E+03  0.25500000920E-02 0.  1.
       -2    1    3    3    0  502  0.10307400243E+03 -0.11496544988E+03 -0.15708845043E+04  0.15784547604E+04  0.25500000920E-02 0. -1.
</event>
<event>
 5   0  0.7776070E-02  0.5010892E+03  0.7818609E-02  0.1013495E+00
        2   -1    0    0  501    0  0.00000000000E+00  0.00000000000E+00  0.49692580668E+03  0.49692580669E+03  0.25500000920E-02 0.  1.
       -2   -1    0    0    0  501  0.00000000000E+00  0.00000000000E+00 -0.12632186895E+03  0.12632186897E+03  0.25500000920E-02 0. -1.
    10030    2    1    2    0    0  0.00000000000E+00  0.00000000000E+00  0.37060393773E+03  0.62324767566E+03  0.50108920020E+03 0.  0.
        4    1    3    3  502    0 -0.12093434558E+03  0.24057073125E+02  0.45657028811E+03  0.47292906402E+03  0.12699999809E+01 0.  1.
       -4    1    3    3    0  502  0.12093434558E+03 -0.24057073125E+02 -0.85966350380E+02  0.15031861164E+03  0.12699999809E+01 0. -1.
</event>
<event>
 5   0  0.8208720E-02  0.4979963E+03  0.7818609E-02  0.1014303E+00
       -2   -1    0    0    0  501  0.00000000000E+00  0.00000000000E+00  0.13686490204E+03  0.13686490206E+03  0.25500000920E-02 0. -1.
        2   -1    0    0  501    0  0.00000000000E+00  0.00000000000E+00 -0.45300194708E+03  0.45300194708E+03  0.25500000920E-02 0.  1.
    10030    2    1    2    0    0  0.00000000000E+00  0.00000000000E+00 -0.31613704504E+03  0.58986684914E+03  0.49799625347E+03 0.  0.
        3    1    3    3  502    0  0.15364294470E+03 -0.78731813320E+02  0.54463074006E+02  0.18102786944E+03  0.10100000352E+00 0. -1.
       -3    1    3    3    0  502 -0.15364294470E+03  0.78731813320E+02 -0.37060011905E+03  0.40883897970E+03  0.10100000352E+00 0.  1.
</event>
<event>
 5   0  0.7881060E-02  0.4964789E+03  0.7818609E-02  0.1014702E+00
       -2   -1    0    0    0  501  0.00000000000E+00  0.00000000000E+00  0.97945630402E+02  0.97945630435E+02  0.25500000920E-02 0. -1.
        2   -1    0    0  501    0  0.00000000000E+00  0.00000000000E+00 -0.62915337456E+03  0.62915337456E+03  0.25500000920E-02 0.  1.
    10030    2    1    2    0    0  0.00000000000E+00  0.00000000000E+00 -0.53120774415E+03  0.72709900500E+03  0.49647889745E+03 0.  0.
        1    1    3    3  502    0 -0.20946440266E+03  0.57902847906E+02 -0.44131318934E+03  0.49192012247E+03  0.50400001928E-02 0.  1.
       -1    1    3    3    0  502  0.20946440266E+03 -0.57902847906E+02 -0.89894554814E+02  0.23517888253E+03  0.50400001928E-02 0. -1.
</event>
<event>
 5   0  0.7933103E-02  0.5007934E+03  0.7818609E-02  0.1013572E+00
        2   -1    0    0  501    0  0.00000000000E+00  0.00000000000E+00  0.16497469207E+03  0.16497469209E+03  0.25500000920E-02 0.  1.
       -2   -1    0    0    0  501  0.00000000000E+00  0.00000000000E+00 -0.38004920463E+03  0.38004920463E+03  0.25500000920E-02 0. -1.
    10030    2    1    2    0    0  0.00000000000E+00  0.00000000000E+00 -0.21507451256E+03  0.54502389672E+03  0.50079337261E+03 0.  0.
        5    1    3    3  502    0 -0.69153601723E+02 -0.23955037136E+03 -0.13211041117E+03  0.28220887971E+03  0.46999998093E+01 0. -1.
       -5    1    3    3    0  502  0.69153601723E+02  0.23955037136E+03 -0.82964101390E+02  0.26281501701E+03  0.46999998093E+01 0.  1.
</event>
<event>
 5   0  0.4865501E-02  0.5013164E+03  0.7818609E-02  0.1013436E+00
        1   -1    0    0  501    0  0.00000000000E+00  0.00000000000E+00  0.70740513131E+03  0.70740513133E+03  0.50400001928E-02 0.  1.
       -1   -1    0    0    0  501  0.00000000000E+00  0.00000000000E+00 -0.88816906502E+02  0.88816906645E+02  0.50400001928E-02 0. -1.
    10030    2    1    2    0    0  0.00000000000E+00  0.00000000000E+00  0.61858822481E+03  0.79622203798E+03  0.50131640895E+03 0.  0.
        2    1    3    3  502    0 -0.16790866666E+03  0.64107681306E+02  0.58679234009E+03  0.61370055038E+03  0.25500000920E-02 0.  1.
       -2    1    3    3    0  502  0.16790866666E+03 -0.64107681306E+02  0.31795884717E+02  0.18252148759E+03  0.25500000920E-02 0. -1.
</event>
<event>
 5   0  0.4803890E-02  0.5035060E+03  0.7818609E-02  0.1012868E+00
       -1   -1    0    0    0  501  0.00000000000E+00  0.00000000000E+00  0.55658960709E+03  0.55658960711E+03  0.50400001928E-02 0. -1.
        1   -1    0    0  501    0  0.00000000000E+00  0.00000000000E+00 -0.11387126526E+03  0.11387126537E+03  0.50400001928E-02 0.  1.
    10030    2    1    2    0    0  0.00000000000E+00  0.00000000000E+00  0.44271834183E+03  0.67046087248E+03  0.50350595958E+03 0.  0.
        5    1    3    3  502    0 -0.22382618357E+03  0.50552876323E+02  0.35912330723E+03  0.42619877234E+03  0.46999998093E+01 0. -1.
       -5    1    3    3    0  502  0.22382618357E+03 -0.50552876323E+02  0.83595034604E+02  0.24426210014E+03  0.46999998093E+01 0.  1.
</event>
<event>
 5   0  0.7776070E-02  0.4983848E+03  0.7818609E-02  0.1014201E+00
        2   -1    0    0  501    0  0.00000000000E+00  0.00000000000E+00  0.10762538130E+04  0.10762538130E+04  0.25500000920E-02 0.  1.
       -2   -1    0    0    0  501  0.00000000000E+00  0.00000000000E+00 -0.57697219515E+02  0.57697219572E+02  0.25500000920E-02 0. -1.
    10030    2    1    2    0    0  0.00000000000E+00  0.00000000000E+00  0.10185565935E+04  0.11339510326E+04  0.49838480128E+03 0.  0.
        4    1    3    3  502    0  0.12900850448E+03  0.20668040119E+03  0.39028332951E+03  0.46008985281E+03  0.12699999809E+01 0. -1.
       -4    1    3    3    0  502 -0.12900850448E+03 -0.20668040119E+03  0.62827326398E+03  0.67386117976E+03  0.12699999809E+01 0.  1.
</event>
<event>
 5   0  0.7698747E-02  0.4962308E+03  0.7818609E-02  0.1014767E+00
       -2   -1    0    0    0  501  0.00000000000E+00  0.00000000000E+00  0.14902712458E+03  0.14902712460E+03  0.25500000920E-02 0.  1.
        2   -1    0    0  501    0  0.00000000000E+00  0.00000000000E+00 -0.41308753224E+03  0.41308753225E+03  0.25500000920E-02 0. -1.
    10030    2    1    2    0    0  0.00000000000E+00  0.00000000000E+00 -0.26406040766E+03  0.56211465685E+03  0.49623078154E+03 0.  0.
        2    1    3    3  502    0 -0.14831697826E+03 -0.59869349075E+02 -0.34689518786E+03  0.38199284858E+03  0.25500000920E-02 0. -1.
       -2    1    3    3    0  502  0.14831697826E+03  0.59869349075E+02  0.82834780196E+02  0.18012180827E+03  0.25500000920E-02 0.  1.
</event>
<event>
 5   0  0.4803890E-02  0.4939590E+03  0.7818609E-02  0.1015368E+00
        1   -1    0    0  501    0  0.00000000000E+00  0.00000000000E+00  0.28916675426E+03  0.28916675431E+03  0.50400001928E-02 0. -1.
       -1   -1    0    0    0  501  0.00000000000E+00  0.00000000000E+00 -0.21094701228E+03  0.21094701234E+03  0.50400001928E-02 0.  1.
    10030    2    1    2    0    0  0.00000000000E+00  0.00000000000E+00  0.78219741983E+02  0.50011376665E+03  0.49395895736E+03 0.  0.
        5    1    3    3  502    0  0.16517764063E+03 -0.10974702864E+03  0.18807820196E+03  0.27335611080E+03  0.46999998093E+01 0. -1.
       -5    1    3    3    0  502 -0.16517764063E+03  0.10974702864E+03 -0.10985845997E+03  0.22675765585E+03  0.46999998093E+01 0.  1.
</event>
<event>
 5   0  0.4865501E-02  0.4982251E+03  0.7818609E-02  0.1014243E+00
        1   -1    0    0  501    0  0.00000000000E+00  0.00000000000E+00  0.45390022107E+03  0.45390022110E+03  0.50400001928E-02 0. -1.
       -1   -1    0    0    0  501  0.00000000000E+00  0.00000000000E+00 -0.13671961543E+03  0.13671961553E+03  0.50400001928E-02 0.  1.
    10030    2    1    2    0    0  0.00000000000E+00  0.00000000000E+00  0.31718060564E+03  0.59061983663E+03  0.49822510457E+03 0.  0.
        2    1    3    3  502    0  0.16544239382E+03 -0.15969866537E+03  0.27218449685E+03  0.35631341502E+03  0.25500000920E-02 0. -1.
       -2    1    3    3    0  502 -0.16544239382E+03  0.15969866537E+03  0.44996108787E+02  0.23430642161E+03  0.25500000920E-02 0.  1.
</event>
<event>
 5   0  0.7933103E-02  0.5000875E+03  0.7818609E-02  0.1013756E+00
       -2   -1    0    0    0  501  0.00000000000E+00  0.00000000000E+00  0.56149295593E+02  0.56149295651E+02  0.25500000920E-02 0. -1.
        2   -1    0    0  501    0  0.00000000000E+00  0.00000000000E+00 -0.11134935677E+04  0.11134935677E+04  0.25500000920E-02 0.  1.
    10030    2    1    2    0    0  0.00000000000E+00  0.00000000000E+00 -0.10573442721E+04  0.11696428633E+04  0.50008751037E+03 0.  0.
        5    1    3    3  502    0 -0.48945492931E+02  0.22073808325E+03 -0.27918048833E+03  0.35928372874E+03  0.46999998093E+01 0. -1.
       -5    1    3    3    0  502  0.48945492931E+02 -0.22073808325E+03 -0.77816378374E+03  0.81035913458E+03  0.46999998093E+01 0.  1.
</event>
<event>
 5   0  0.3210875E-02  0.5005757E+03  0.7818609E-02  0.1013629E+00
        4   -1    0    0  501    0  0.00000000000E+00  0.00000000000E+00  0.70763515802E+02  0.70774911294E+02  0.12699999809E+01 0. -1.
       -4   -1    0    0    0  501  0.00000000000E+00  0.00000000000E+00 -0.88517542364E+03  0.88517633470E+03  0.12699999809E+01 0.  1.
    10030    2    1    2    0    0  0.00000000000E+00  0.00000000000E+00 -0.81441190784E+03  0.95595124599E+03  0.50057569766E+03 0.  0.
        5    1    3    3  502    0  0.21331490875E+03 -0.41837378788E+02 -0.17046199419E+03  0.27628427031E+03  0.46999998093E+01 0.  1.
       -5    1    3    3    0  502 -0.21331490875E+03  0.41837378788E+02 -0.64394991364E+03  0.67966697569E+03  0.46999998093E+01 0. -1.
</event>
<event>
 5   0  0.4884478E-02  0.4985865E+03  0.7818609E-02  0.1014149E+00
        1   -1    0    0  501    0  0.00000000000E+00  0.00000000000E+00  0.20636392560E+03  0.20636392566E+03  0.50400001928E-02 0.  1.
       -1   -1    0    0    0  501  0.00000000000E+00  0.00000000000E+00 -0.30115302890E+03  0.30115302894E+03  0.50400001928E-02 0. -1.
    10030    2    1    2    0    0  0.00000000000E+00  0.00000000000E+00 -0.94789103300E+02  0.50751695460E+03  0.49858648708E+03 0.  0.
        3    1    3    3  502    0  0.20354437916E+03  0.63721012169E+02  0.83976902003E+02  0.22922218905E+03  0.10100000352E+00 0.  1.
       -3    1    3    3    0  502 -0.20354437916E+03 -0.63721012169E+02 -0.17876600530E+03  0.27829476555E+03  0.10100000352E+00 0. -1.
</event>
<event>
 5   0  0.5038436E-02  0.5014090E+03  0.7818609E-02  0.1013412E+00
        1   -1    0    0  501    0  0.00000000000E+00  0.00000000000E+00  0.29514428900E+03  0.29514428904E+03  0.50400001928E-02 0.  1.
       -1   -1    0    0    0  501  0.00000000000E+00  0.00000000000E+00 -0.21295596001E+03  0.21295596007E+03  0.50400001928E-02 0. -1.
    10030    2    1    2    0    0  0.00000000000E+00  0.00000000000E+00  0.82188328990E+02  0.50810024911E+03  0.50140895656E+03 0.  0.
        1    1    3    3  502    0 -0.20709677155E+03  0.22862522110E+02  0.18238573737E+03  0.27690490232E+03  0.50400001928E-02 0.  1.
       -1    1    3    3    0  502  0.20709677155E+03 -0.22862522110E+02 -0.10019740838E+03  0.23119534679E+03  0.50400001928E-02 0. -1.
</event>
<event>
 5   0  0.7881060E-02  0.5038806E+03  0.7818609E-02  0.1012771E+00
        2   -1    0    0  501    0  0.00000000000E+00  0.00000000000E+00  0.13334980126E+04  0.13334980126E+04  0.25500000920E-02 0.  1.
       -2   -1    0    0    0  501  0.00000000000E+00  0.00000000000E+00 -0.47599563770E+02  0.47599563838E+02  0.25500000920E-02 0. -1.
    10030    2    1    2    0    0  0.00000000000E+00  0.00000000000E+00  0.12858984488E+04  0.13810975764E+04  0.50388063561E+03 0.  0.
        1    1    3    3  502    0 -0.23270392951E+03 -0.13901996004E+02  0.90484055878E+03  0.93438793932E+03  0.50400001928E-02 0.  1.
       -1    1    3    3    0  502  0.23270392951E+03  0.13901996004E+02  0.38105789003E+03  0.44670963710E+03  0.50400001928E-02 0. -1.
</event>
<event>
 5   0  0.3210875E-02  0.4978864E+03  0.7818609E-02  0.1014332E+00
        3   -1    0    0  501    0  0.00000000000E+00  0.00000000000E+00  0.16401849427E+04  0.16401849458E+04  0.10100000352E+00 0. -1.
       -3   -1    0    0    0  501  0.00000000000E+00  0.00000000000E+00 -0.37783903151E+02  0.37784038142E+02  0.10100000352E+00 0.  1.
    10030    2    1    2    0    0  0.00000000000E+00  0.00000000000E+00  0.16024010396E+04  0.16779689840E+04  0.49788635205E+03 0.  0.
        2    1    3    3  502    0  0.42680101672E+02 -0.21129142863E+02  0.16246896477E+04  0.16253874871E+04  0.25500000920E-02 0. -1.
       -2    1    3    3    0  502 -0.42680101672E+02  0.21129142863E+02 -0.22288608139E+02  0.52581496899E+02  0.25500000920E-02 0.  1.
</event>
<event>
 5   0  0.8208720E-02  0.5020958E+03  0.7818609E-02  0.1013233E+00
        2   -1    0    0  501    0  0.00000000000E+00  0.00000000000E+00  0.66477705915E+03  0.66477705915E+03  0.25500000920E-02 0. -1.
       -2   -1    0    0    0  501  0.00000000000E+00  0.00000000000E+00 -0.94806285609E+02  0.94806285643E+02  0.25500000920E-02 0.  1.
    10030    2    1    2    0    0  0.00000000000E+00  0.00000000000E+00  0.56997077354E+03  0.75958334480E+03  0.50209578270E+03 0.  0.
        3    1    3    3  502    0  0.60878112916E+02 -0.51788444731E+02 -0.75044363919E+02  0.10963509656E+03  0.10100000352E+00 0.  1.
       -3    1    3    3    0  502 -0.60878112916E+02  0.51788444731E+02  0.64501513746E+03  0.64994824824E+03  0.10100000352E+00 0. -1.
</event>
<event>
 5   0  0.7933103E-02  0.4960902E+03  0.7818609E-02  0.1014804E+00
       -2   -1    0    0    0  501  0.00000000000E+00  0.00000000000E+00  0.14495286823E+03  0.14495286826E+03  0.25500000920E-02 0.  1.
        2   -1    0    0  501    0  0.00000000000E+00  0.00000000000E+00 -0.42445778376E+03  0.42445778377E+03  0.25500000920E-02 0. -1.
    10030    2    1    2    0    0  0.00000000000E+00  0.00000000000E+00 -0.27950491552E+03  0.56941065202E+03  0.49609020635E+03 0.  0.
        5    1    3    3  502    0 -0.21807932374E+02 -0.17923346707E+03  0.55386675091E+02  0.18891795946E+03  0.46999998093E+01 0.  1.
       -5    1    3    3    0  502  0.21807932374E+02  0.17923346707E+03 -0.33489159061E+03  0.38049269256E+03  0.46999998093E+01 0. -1.
</event>
<event>
 5   0  0.7776070E-02  0.5002704E+03  0.7818609E-02  0.1013708E+00
       -2   -1    0    0    0  501  0.00000000000E+00  0.00000000000E+00  0.65308041364E+02  0.65308041414E+02  0.25500000920E-02 0.  1.
        2   -1    0    0  501    0  0.00000000000E+00  0.00000000000E+00 -0.95803837311E+03  0.95803837311E+03  0.25500000920E-02 0. -1.
    10030    2    1    2    0    0  0.00000000000E+00  0.00000000000E+00 -0.89273033174E+03  0.10233464145E+04  0.50027036581E+03 0.  0.
        4    1    3    3  502    0  0.96980101707E+02  0.18443339341E+03 -0.72940504014E+03  0.75858693781E+03  0.12699999809E+01 0.  1.
       -4    1    3    3    0  502 -0.96980101707E+02 -0.18443339341E+03 -0.16332529160E+03  0.26475947671E+03  0.12699999809E+01 0. -1.
</event>
<event>
 5   0  0.7881060E-02  0.4991427E+03  0.7818609E-02  0.1014003E+00
        2   -1    0    0  501    0  0.00000000000E+00  0.00000000000E+00  0.79064852684E+03  0.79064852684E+03  0.25500000920E-02 0.  1.
       -2   -1    0    0    0  501  0.00000000000E+00  0.00000000000E+00 -0.78778197272E+02  0.78778197313E+02  0.25500000920E-02 0. -1.
    10030    2    1    2    0    0  0.00000000000E+00  0.00000000000E+00  0.71187032957E+03  0.86942672416E+03  0.49914272764E+03 0.  0.
        1    1    3    3  502    0  0.46535453835E+02 -0.21128943565E+03  0.57263217174E+03  0.61214081568E+03  0.50400001928E-02 0. -1.
       -1    1    3    3    0  502 -0.46535453835E+02  0.21128943565E+03  0.13923815783E+03  0.25728590848E+03  0.50400001928E-02 0.  1.
</event>
<event>
 5   0  0.4865501E-02  0.4914473E+03  0.7818609E-02  0.1016036E+00
        1   -1    0    0  501    0  0.00000000000E+00  0.00000000000E+00  0.10176809976E+04  0.10176809976E+04  0.50400001928E-02 0. -1.
       -1   -1    0    0    0  501  0.00000000000E+00  0.00000000000E+00 -0.59331091420E+02  0.59331091634E+02  0.50400001928E-02 0.  1.
    10030    2    1    2    0    0  0.00000000000E+00  0.00000000000E+00  0.95834990613E+03  0.10770120892E+04  0.49144734987E+03 0.  0.
        2    1    3    3  502    0  0.14839218317E+03 -0.19564235156E+03  0.45909484680E+03  0.52063830835E+03  0.25500000920E-02 0. -1.
       -2    1    3    3    0  502 -0.14839218317E+03  0.19564235156E+03  0.49925505933E+03  0.55637378085E+03  0.25500000920E-02 0.  1.
</event>
<event>
 5   0  0.4884478E-02  0.4988434E+03  0.7818609E-02  0.1014081E+00
        1   -1    0    0  501    0  0.00000000000E+00  0.00000000000E+00  0.43704784786E+03  0.43704784789E+03  0.50400001928E-02 0.  1.
       -1   -1    0    0    0  501  0.00000000000E+00  0.00000000000E+00 -0.14234412342E+03  0.14234412351E+03  0.50400001928E-02 0. -1.
    10030    2    1    2    0    0  0.00000000000E+00  0.00000000000E+00  0.29470372444E+03  0.57939197140E+03  0.49884343368E+03 0.  0.
        3    1    3    3  502    0 -0.10026336260E+03  0.17848536810E+03  0.31284171064E+03  0.37387125407E+03  0.10100000352E+00 0.  1.
       -3    1    3    3    0  502  0.10026336260E+03 -0.17848536810E+03 -0.18137986203E+02  0.20552071733E+03  0.10100000352E+00 0. -1.
</event>
<event>
 5   0  0.3210875E-02  0.5038428E+03  0.7818609E-02  0.1012781E+00
        3   -1    0    0  501    0  0.00000000000E+00  0.00000000000E+00  0.88293062144E+02  0.88293119912E+02  0.10100000352E+00 0.  1.
       -3   -1    0    0    0  501  0.00000000000E+00  0.00000000000E+00 -0.71879226313E+03  0.71879227022E+03  0.10100000352E+00 0. -1.
    10030    2    1    2    0    0  0.00000000000E+00  0.00000000000E+00 -0.63049920098E+03  0.80708539014E+03  0.50384281728E+03 0.  0.
        4    1    3    3  502    0  0.25156312736E+03 -0.35429614068E+01 -0.33590201200E+03  0.41967646371E+03  0.12699999809E+01 0.  1.
       -4    1    3    3    0  502 -0.25156312736E+03  0.35429614068E+01 -0.29459718898E+03  0.38740892643E+03  0.12699999809E+01 0. -1.
</event>
<event>
 5   0  0.8208720E-02  0.4954469E+03  0.7818609E-02  0.1014974E+00
        2   -1    0    0  501    0  0.00000000000E+00  0.00000000000E+00  0.66191318222E+03  0.66191318222E+03  0.25500000920E-02 0. -1.
       -2   -1    0    0    0  501  0.00000000000E+00  0.00000000000E+00 -0.92711423540E+02  0.92711423575E+02  0.25500000920E-02 0.  1.
    10030    2    1    2    0    0  0.00000000000E+00  0.00000000000E+00  0.56920175868E+03  0.75462460580E+03  0.49544692308E+03 0.  0.
        3    1    3    3  502    0 -0.48475995225E+02 -0.21089791486E+03  0.10094626257E+03  0.23878444408E+03  0.10100000352E+00 0.  1.
       -3    1    3    3    0  502  0.48475995225E+02  0.21089791486E+03  0.46825549610E+03  0.51584016172E+03  0.10100000352E+00 0. -1.
</event>
<event>
 5   0  0.8208720E-02  0.5028330E+03  0.7818609E-02  0.1013042E+00
       -2   -1    0    0    0  501  0.00000000000E+00  0.00000000000E+00  0.21547592477E+03  0.21547592478E+03  0.25500000920E-02 0.  1.
        2   -1    0    0  501    0  0.00000000000E+00  0.00000000000E+00 -0.29335178794E+03  0.29335178795E+03  0.25500000920E-02 0. -1.
    10030    2    1    2    0    0  0.00000000000E+00  0.00000000000E+00 -0.77875863171E+02  0.50882771273E+03  0.50283296548E+03 0.  0.
        3    1    3    3  502    0  0.21480938774E+03  0.62150904717E+02 -0.15521841722E+03  0.27221053481E+03  0.10100000352E+00 0. -1.
       -3    1    3    3    0  502 -0.21480938774E+03 -0.62150904717E+02  0.77342554051E+02  0.23661717792E+03  0.10100000352E+00 0.  1.
</event>
<event>
 5   0  0.4865501E-02  0.5003280E+03  0.7818609E-02  0.1013693E+00
       -1   -1    0    0    0  501  0.00000000000E+00  0.00000000000E+00  0.43620238777E+02  0.43620239068E+02  0.50400001928E-02 0. -1.
        1   -1    0    0  501    0  0.00000000000E+00  0.00000000000E+00 -0.14347017996E+04  0.14347017996E+04  0.50400001928E-02 0.  1.
    10030    2    1    2    0    0  0.00000000000E+00  0.00000000000E+00 -0.13910815608E+04  0.14783220387E+04  0.50032803357E+03 0.  0.
        2    1    3    3  502    0 -0.10071974309E+03 -0.15576429035E+03 -0.19958084309E+03  0.27246925282E+03  0.25500000920E-02 0. -1.
       -2    1    3    3    0  502  0.10071974309E+03  0.15576429035E+03 -0.11915007177E+04  0.12058527859E+04  0.25500000920E-02 0.  1.
</event>
<event>
 5   0  0.5038436E-02  0.4956261E+03  0.7818609E-02  0.1014927E+00
        1   -1    0    0  501    0  0.00000000000E+00  0.00000000000E+00  0.69113828714E+03  0.69113828716E+03  0.50400001928E-02 0. -1.
       -1   -1    0    0    0  501  0.00000000000E+00  0.00000000000E+00 -0.88855298873E+02  0.88855299016E+02  0.50400001928E-02 0.  1.
    10030    2    1    2    0    0  0.00000000000E+00  0.00000000000E+00  0.60228298827E+03  0.77999358617E+03  0.49562606521E+03 0.  0.
        1    1    3    3  502    0  0.27075783224E+02  0.19193695302E+03  0.58158706708E+02  0.20237422554E+03  0.50400001928E-02 0.  1.
       -1    1    3    3    0  502 -0.27075783224E+02 -0.19193695302E+03  0.54412428156E+03  0.57761936063E+03  0.50400001928E-02 0. -1.
</event>
<event>
 5   0  0.7933103E-02  0.4993725E+03  0.7818609E-02  0.1013943E+00
       -2   -1    0    0    0  501  0.00000000000E+00  0.00000000000E+00  0.92963456867E+02  0.92963456902E+02  0.25500000920E-02 0.  1.
        2   -1    0    0  501    0  0.00000000000E+00  0.00000000000E+00 -0.67062081354E+03  0.67062081354E+03  0.25500000920E-02 0. -1.
    10030    2    1    2    0    0  0.00000000000E+00  0.00000000000E+00 -0.57765735667E+03  0.76358427044E+03  0.49937252263E+03 0.  0.
        5    1    3    3  502    0 -0.62232749559E+02 -0.46825337648E+00 -0.65850120538E+03  0.66145223702E+03  0.46999998093E+01 0. -1.
       -5    1    3    3    0  502  0.62232749559E+02  0.46825337648E+00  0.80843848708E+02  0.10213203342E+03  0.46999998093E+01 0.  1.
</event>
<event>
 5   0  0.3210875E-02  0.4957679E+03  0.7818609E-02  0.1014889E+00
       -3   -1    0    0    0  501  0.00000000000E+00  0.00000000000E+00  0.44876366875E+03  0.44876368011E+03  0.10100000352E+00 0. -1.
        3   -1    0    0  501    0  0.00000000000E+00  0.00000000000E+00 -0.13692384338E+03  0.13692388063E+03  0.10100000352E+00 0.  1.
    10030    2    1    2    0    0  0.00000000000E+00  0.00000000000E+00  0.31183982536E+03  0.58568756075E+03  0.49576793173E+03 0.  0.
        5    1    3    3  502    0  0.34902167972E+02 -0.23462118533E+03  0.71065407790E+02  0.24766437797E+03  0.46999998093E+01 0. -1.
       -5    1    3    3    0  502 -0.34902167972E+02  0.23462118533E+03  0.24077441757E+03  0.33802318277E+03  0.46999998093E+01 0.  1.
</event>
<event>
 5   0  0.5191358E-02  0.5032457E+03  0.7818609E-02  0.1012935E+00
       -1   -1    0    0    0  501  0.00000000000E+00  0.00000000000E+00  0.49938899217E+02  0.49938899471E+02  0.50400001928E-02 0.  1.
        1   -1    0    0  501    0  0.00000000000E+00  0.00000000000E+00 -0.12678305345E+04  0.12678305345E+04  0.50400001928E-02 0. -1.
    10030    2    1    2    0    0  0.00000000000E+00  0.00000000000E+00 -0.12178916353E+04  0.13177694340E+04  0.50324571121E+03 0.  0.
        4    1    3    3  502    0  0.18266781161E+03 -0.67635290484E+02 -0.19186243194E+03  0.27341336399E+03  0.12699999809E+01 0.  1.
       -4    1    3    3    0  502 -0.18266781161E+03  0.67635290484E+02 -0.10260292034E+04  0.10443560700E+04  0.12699999809E+01 0. -1.
</event>
<event>
 5   0  0.5191358E-02  0.5162680E+03  0.7818609E-02  0.1009618E+00
       -1   -1    0    0    0  501  0.00000000000E+00  0.00000000000E+00  0.10382217431E+03  0.10382217444E+03  0.50400001928E-02 0. -1.
        1   -1    0    0  501    0  0.00000000000E+00  0.00000000000E+00 -0.64180087046E+03  0.64180087048E+03  0.50400001928E-02 0.  1.
    10030    2    1    2    0    0  0.00000000000E+00  0.00000000000E+00 -0.53797869615E+03  0.74562304492E+03  0.51626799978E+03 0.  0.
        4    1    3    3  502    0 -0.16467856671E+03  0.61941887647E+02 -0.54178063608E+03  0.56963470602E+03  0.12699999809E+01 0.  1.
       -4    1    3    3    0  502  0.16467856671E+03 -0.61941887647E+02  0.38019399285E+01  0.17598833889E+03  0.12699999809E+01 0. -1.
</event>
<event>
 5   0  0.7776070E-02  0.5013918E+03  0.7818609E-02  0.1013416E+00
       -2   -1    0    0    0  501  0.00000000000E+00  0.00000000000E+00  0.38500680649E+02  0.38500680734E+02  0.25500000920E-02 0. -1.
        2   -1    0    0  501    0  0.00000000000E+00  0.00000000000E+00 -0.16323978094E+04  0.16323978094E+04  0.25500000920E-02 0.  1.
    10030    2    1    2    0    0  0.00000000000E+00  0.00000000000E+00 -0.15938971288E+04  0.16708984901E+04  0.50139177027E+03 0.  0.
        4    1    3    3  502    0  0.24014976583E+03 -0.71907269123E+02 -0.79007957411E+03  0.82889680402E+03  0.12699999809E+01 0.  1.
       -4    1    3    3    0  502 -0.24014976583E+03  0.71907269123E+02 -0.80381755464E+03  0.84200168612E+03  0.12699999809E+01 0. -1.
</event>
<event>
 5   0  0.5038436E-02  0.4971238E+03  0.7818609E-02  0.1014532E+00
       -1   -1    0    0    0  501  0.00000000000E+00  0.00000000000E+00  0.74847155075E+02  0.74847155245E+02  0.50400001928E-02 0.  1.
        1   -1    0    0  501    0  0.00000000000E+00  0.00000000000E+00 -0.82545571083E+03  0.82545571084E+03  0.50400001928E-02 0. -1.
    10030    2    1    2    0    0  0.00000000000E+00  0.00000000000E+00 -0.75060855575E+03  0.90030286609E+03  0.49712377404E+03 0.  0.
        1    1    3    3  502    0 -0.86873621366E+02  0.20243356405E+03 -0.16678760168E+03  0.27630504528E+03  0.50400001928E-02 0.  1.
       -1    1    3    3    0  502  0.86873621366E+02 -0.20243356405E+03 -0.58382095407E+03  0.62399782081E+03  0.50400001928E-02 0. -1.
</event>
<event>
 5   0  0.5038436E-02  0.5016245E+03  0.7818609E-02  0.1013356E+00
       -1   -1    0    0    0  501  0.00000000000E+00  0.00000000000E+00  0.18667906441E+03  0.18667906447E+03  0.50400001928E-02 0. -1.
        1   -1    0    0  501    0  0.00000000000E+00  0.00000000000E+00 -0.33697822570E+03  0.33697822574E+03  0.50400001928E-02 0.  1.
    10030    2    1    2    0    0  0.00000000000E+00  0.00000000000E+00 -0.15029916129E+03  0.52365729021E+03  0.50162448077E+03 0.  0.
        1    1    3    3  502    0  0.82333171140E+02  0.36577934244E+02  0.16920439658E+03  0.19169461179E+03  0.50400001928E-02 0. -1.
       -1    1    3    3    0  502 -0.82333171140E+02 -0.36577934244E+02 -0.31950355787E+03  0.33196267842E+03  0.50400001928E-02 0.  1.
</event>
<event>
 5   0  0.5038436E-02  0.5028623E+03  0.7818609E-02  0.1013035E+00
       -1   -1    0    0    0  501  0.00000000000E+00  0.00000000000E+00  0.28316741582E+03  0.28316741587E+03  0.50400001928E-02 0.  1.
        1   -1    0    0  501    0  0.00000000000E+00  0.00000000000E+00 -0.22325173596E+03  0.22325173601E+03  0.50400001928E-02 0. -1.
    10030    2    1    2    0    0  0.00000000000E+00  0.00000000000E+00  0.59915679864E+02  0.50641915188E+03  0.50286227607E+03 0.  0.
        1    1    3    3  502    0 -0.12821225151E+03 -0.20033502375E+03 -0.52136323524E+02  0.24349681607E+03  0.50400001928E-02 0. -1.
       -1    1    3    3    0  502  0.12821225151E+03  0.20033502375E+03  0.11205200339E+03  0.26292233581E+03  0.50400001928E-02 0.  1.
</event>
<event>
 5   0  0.4803890E-02  0.4941987E+03  0.7818609E-02  0.1015304E+00
       -1   -1    0    0    0  501  0.00000000000E+00  0.00000000000E+00  0.11644937396E+03  0.11644937406E+03  0.50400001928E-02 0. -1.
        1   -1    0    0  501    0  0.00000000000E+00  0.00000000000E+00 -0.52433160388E+03  0.52433160391E+03  0.50400001928E-02 0.  1.
    10030    2    1    2    0    0  0.00000000000E+00  0.00000000000E+00 -0.40788222993E+03  0.64078097797E+03  0.49419869308E+03 0.  0.
        5    1    3    3  502    0  0.63226113701E+01  0.47807955340E+02  0.11022953888E+03  0.12040854309E+03  0.46999998093E+01 0. -1.
       -5    1    3    3    0  502 -0.63226113701E+01 -0.47807955340E+02 -0.51811176881E+03  0.52037243488E+03  0.46999998093E+01 0.  1.
</event>
<event>
 5   0  0.4884478E-02  0.5003448E+03  0.7818609E-02  0.1013689E+00
        1   -1    0    0  501    0  0.00000000000E+00  0.00000000000E+00  0.16749209540E+03  0.16749209547E+03  0.50400001928E-02 0. -1.
       -1   -1    0    0    0  501  0.00000000000E+00  0.00000000000E+00 -0.37366680462E+03  0.37366680466E+03  0.50400001928E-02 0.  1.
    10030    2    1    2    0    0  0.00000000000E+00  0.00000000000E+00 -0.20617470923E+03  0.54115890013E+03  0.50034482556E+03 0.  0.
        3    1    3    3  502    0  0.58756956082E+02  0.23702455532E+03 -0.44311049886E+02  0.24818641997E+03  0.10100000352E+00 0. -1.
       -3    1    3    3    0  502 -0.58756956082E+02 -0.23702455532E+03 -0.16186365934E+03  0.29297248016E+03  0.10100000352E+00 0.  1.
</event>
<event>
 5   0  0.4865501E-02  0.5001997E+03  0.7818609E-02  0.1013727E+00
        1   -1    0    0  501    0  0.00000000000E+00  0.00000000000E+00  0.11555724909E+03  0.11555724920E+03  0.50400001928E-02 0. -1.
       -1   -1    0    0    0  501  0.00000000000E+00  0.00000000000E+00 -0.54128950671E+03  0.54128950673E+03  0.50400001928E-02 0.  1.
    10030    2    1    2    0    0  0.00000000000E+00  0.00000000000E+00 -0.42573225762E+03  0.65684675594E+03  0.50019966574E+03 0.  0.
        2    1    3    3  502    0  0.18685611266E+03 -0.26261625803E+02 -0.42842213648E+03  0.46813503059E+03  0.25500000920E-02 0.  1.
       -2    1    3    3    0  502 -0.18685611266E+03  0.26261625803E+02  0.26898788665E+01  0.18871172535E+03  0.25500000920E-02 0. -1.
</event>
<event>
 5   0  0.4865501E-02  0.4972395E+03  0.7818609E-02  0.1014502E+00
        1   -1    0    0  501    0  0.00000000000E+00  0.00000000000E+00  0.39578440447E+03  0.39578440450E+03  0.50400001928E-02 0.  1.
       -1   -1    0    0    0  501  0.00000000000E+00  0.00000000000E+00 -0.15617535434E+03  0.15617535442E+03  0.50400001928E-02 0. -1.
    10030    2    1    2    0    0  0.00000000000E+00  0.00000000000E+00  0.23960905013E+03  0.55195975893E+03  0.49723945798E+03 0.  0.
        2    1    3    3  502    0 -0.62549419637E+01 -0.39714950821E+02  0.39215200992E+03  0.39420756019E+03  0.25500000920E-02 0.  1.
       -2    1    3    3    0  502  0.62549419637E+01  0.39714950821E+02 -0.15254295979E+03  0.15775219874E+03  0.25500000920E-02 0. -1.
</event>
<event>
 5   0  0.3210875E-02  0.5054317E+03  0.7818609E-02  0.1012371E+00
       -4   -1    0    0    0  501  0.00000000000E+00  0.00000000000E+00  0.74702166726E+03  0.74702274682E+03  0.12699999809E+01 0.  1.
        4   -1    0    0  501    0  0.00000000000E+00  0.00000000000E+00 -0.85487362858E+02  0.85496795895E+02  0.12699999809E+01 0. -1.
    10030    2    1    2    0    0  0.00000000000E+00  0.00000000000E+00  0.66153430440E+03  0.83251954271E+03  0.50543165027E+03 0.  0.
        5    1    3    3  502    0 -0.27300291616E+02  0.23670873877E+03  0.46923387415E+03  0.52628780300E+03  0.46999998093E+01 0.  1.
       -5    1    3    3    0  502  0.27300291616E+02 -0.23670873877E+03  0.19230043025E+03  0.30623173971E+03  0.46999998093E+01 0. -1.
</event>
<event>
 5   0  0.7933103E-02  0.4983044E+03  0.7818609E-02  0.1014222E+00
        2   -1    0    0  501    0  0.00000000000E+00  0.00000000000E+00  0.13762069742E+04  0.13762069742E+04  0.25500000920E-02 0. -1.
       -2   -1    0    0    0  501  0.00000000000E+00  0.00000000000E+00 -0.45107185068E+02  0.45107185140E+02  0.25500000920E-02 0.  1.
    10030    2    1    2    0    0  0.00000000000E+00  0.00000000000E+00  0.13310997891E+04  0.14213141593E+04  0.49830441591E+03 0.  0.
        5    1    3    3  502    0 -0.50172651166E+01  0.12366240480E+02  0.13750601768E+04  0.13751329669E+04  0.46999998093E+01 0. -1.
       -5    1    3    3    0  502  0.50172651166E+01 -0.12366240480E+02 -0.43960387667E+02  0.46181192437E+02  0.46999998093E+01 0.  1.
</event>
<event>
 5   0  0.5038436E-02  0.4972337E+03  0.7818609E-02  0.1014503E+00
       -1   -1    0    0    0  501  0.00000000000E+00  0.00000000000E+00  0.78346950949E+03  0.78346950951E+03  0.50400001928E-02 0.  1.
        1   -1    0    0  501    0  0.00000000000E+00  0.00000000000E+00 -0.78893096449E+02  0.78893096610E+02  0.50400001928E-02 0. -1.
    10030    2    1    2    0    0  0.00000000000E+00  0.00000000000E+00  0.70457641304E+03  0.86236260612E+03  0.49723369014E+03 0.  0.
        1    1    3    3  502    0  0.40488542253E+02  0.20947056685E+03  0.13091188478E+03  0.25031013170E+03  0.50400001928E-02 0. -1.
       -1    1    3    3    0  502 -0.40488542253E+02 -0.20947056685E+03  0.57366452826E+03  0.61205247442E+03  0.50400001928E-02 0.  1.
</event>
<event>
 5   0  0.4803890E-02  0.5048218E+03  0.7818609E-02  0.1012528E+00
       -1   -1    0    0    0  501  0.00000000000E+00  0.00000000000E+00  0.26123428658E+03  0.26123428662E+03  0.50400001928E-02 0.  1.
        1   -1    0    0  501    0  0.00000000000E+00  0.00000000000E+00 -0.24388555455E+03  0.24388555460E+03  0.50400001928E-02 0. -1.
    10030    2    1    2    0    0  0.00000000000E+00  0.00000000000E+00  0.17348732024E+02  0.50511984123E+03  0.50482182550E+03 0.  0.
        5    1    3    3  502    0 -0.19358774251E+03  0.12518965447E+02  0.17018911274E+03  0.25810726964E+03  0.46999998093E+01 0.  1.
       -5    1    3    3    0  502  0.19358774251E+03 -0.12518965447E+02 -0.15284038072E+03  0.24701257159E+03  0.46999998093E+01 0. -1.
</event>
<event>
 5   0  0.8208720E-02  0.4983508E+03  0.7818609E-02  0.1014210E+00
        2   -1    0    0  501    0  0.00000000000E+00  0.00000000000E+00  0.11146782842E+03  0.11146782845E+03  0.25500000920E-02 0. -1.
       -2   -1    0    0    0  501  0.00000000000E+00  0.00000000000E+00 -0.55700724680E+03  0.55700724680E+03  0.25500000920E-02 0.  1.
    10030    2    1    2    0    0  0.00000000000E+00  0.00000000000E+00 -0.44553941837E+03  0.66847507526E+03  0.49835083316E+03 0.  0.
        3    1    3    3  502    0  0.92550399114E+02  0.17164195360E+03 -0.43084210137E+03  0.47291803003E+03  0.10100000352E+00 0.  1.
       -3    1    3    3    0  502 -0.92550399114E+02 -0.17164195360E+03 -0.14697317003E+02  0.19555704523E+03  0.10100000352E+00 0. -1.
</event>
<event>
 5   0  0.5191358E-02  0.4996864E+03  0.7818609E-02  0.1013861E+00
        1   -1    0    0  501    0  0.00000000000E+00  0.00000000000E+00  0.25572530389E+03  0.25572530394E+03  0.50400001928E-02 0. -1.
       -1   -1    0    0    0  501  0.00000000000E+00  0.00000000000E+00 -0.24409636201E+03  0.24409636207E+03  0.50400001928E-02 0.  1.
    10030    2    1    2    0    0  0.00000000000E+00  0.00000000000E+00  0.11628941871E+02  0.49982166600E+03  0.49968636715E+03 0.  0.
        4    1    3    3  502    0 -0.81759977402E+01 -0.23839790708E+03  0.80128560444E+02  0.25163983814E+03  0.12699999809E+01 0. -1.
       -4    1    3    3    0  502  0.81759977402E+01  0.23839790708E+03 -0.68499618573E+02  0.24818182787E+03  0.12699999809E+01 0.  1.
</event>
<event>
 5   0  0.7776070E-02  0.5045443E+03  0.7818609E-02  0.1012600E+00
       -2   -1    0    0    0  501  0.00000000000E+00  0.00000000000E+00  0.13100425272E+03  0.13100425274E+03  0.25500000920E-02 0.  1.
        2   -1    0    0  501    0  0.00000000000E+00  0.00000000000E+00 -0.48579514412E+03  0.48579514412E+03  0.25500000920E-02 0. -1.
    10030    2    1    2    0    0  0.00000000000E+00  0.00000000000E+00 -0.35479089140E+03  0.61679939686E+03  0.50454426897E+03 0.  0.
        4    1    3    3  502    0 -0.23258993059E+03 -0.38671936492E+02 -0.67738717693E+02  0.24532374785E+03  0.12699999809E+01 0.  1.
       -4    1    3    3    0  502  0.23258993059E+03  0.38671936492E+02 -0.28705217371E+03  0.37147564902E+03  0.12699999809E+01 0. -1.
</event>
<event>
 5   0  0.7881060E-02  0.4978788E+03  0.7818609E-02  0.1014334E+00
       -2   -1    0    0    0  501  0.00000000000E+00  0.00000000000E+00  0.26025319783E+02  0.26025319908E+02  0.25500000920E-02 0.  1.
        2   -1    0    0  501    0  0.00000000000E+00  0.00000000000E+00 -0.23811744261E+04  0.23811744261E+04  0.25500000920E-02 0. -1.
    10030    2    1    2    0    0  0.00000000000E+00  0.00000000000E+00 -0.23551491063E+04  0.24071997460E+04  0.49787880473E+03 0.  0.
        1    1    3    3  502    0  0.20933697822E+03  0.13373483071E+03 -0.10990387733E+04  0.11267622645E+04  0.50400001928E-02 0. -1.
       -1    1    3    3    0  502 -0.20933697822E+03 -0.13373483071E+03 -0.12561103330E+04  0.12804374816E+04  0.50400001928E-02 0.  1.
</event>
<event>
 5   0  0.4884478E-02  0.4773763E+03  0.7818609E-02  0.1019859E+00
       -1   -1    0    0    0  501  0.00000000000E+00  0.00000000000E+00  0.11982096157E+03  0.11982096168E+03  0.50400001928E-02 0.  1.
        1   -1    0    0  501    0  0.00000000000E+00  0.00000000000E+00 -0.47547631680E+03  0.47547631682E+03  0.50400001928E-02 0. -1.
    10030    2    1    2    0    0  0.00000000000E+00  0.00000000000E+00 -0.35565535523E+03  0.59529727850E+03  0.47737628563E+03 0.  0.
        3    1    3    3  502    0  0.10426012194E+03 -0.11243413672E+03  0.50279364477E+02  0.16136800432E+03  0.10100000352E+00 0.  1.
       -3    1    3    3    0  502 -0.10426012194E+03  0.11243413672E+03 -0.40593471970E+03  0.43392927418E+03  0.10100000352E+00 0. -1.
</event>
<event>
 5   0  0.8208720E-02  0.4903681E+03  0.7818609E-02  0.1016324E+00
       -2   -1    0    0    0  501  0.00000000000E+00  0.00000000000E+00  0.48869830306E+02  0.48869830373E+02  0.25500000920E-02 0. -1.
        2   -1    0    0  501    0  0.00000000000E+00  0.00000000000E+00 -0.12301088728E+04  0.12301088728E+04  0.25500000920E-02 0.  1.
    10030    2    1    2    0    0  0.00000000000E+00  0.00000000000E+00 -0.11812390425E+04  0.12789787031E+04  0.49036807365E+03 0.  0.
        3    1    3    3  502    0  0.32508502682E+02 -0.21325367443E+03 -0.28666311112E+03  0.35876131603E+03  0.10100000352E+00 0. -1.
       -3    1    3    3    0  502 -0.32508502682E+02  0.21325367443E+03 -0.89457593135E+03  0.92021738711E+03  0.10100000352E+00 0.  1.
</event>
<event>
 5   0  0.5191358E-02  0.5015053E+03  0.7818609E-02  0.1013387E+00
        1   -1    0    0  501    0  0.00000000000E+00  0.00000000000E+00  0.94756723282E+03  0.94756723283E+03  0.50400001928E-02 0.  1.
       -1   -1    0    0    0  501  0.00000000000E+00  0.00000000000E+00 -0.66356122496E+02  0.66356122687E+02  0.50400001928E-02 0. -1.
    10030    2    1    2    0    0  0.00000000000E+00  0.00000000000E+00  0.88121111032E+03  0.10139233555E+04  0.50150528403E+03 0.  0.
        4    1    3    3  502    0  0.91268826676E+02 -0.11807662809E+03  0.84799490264E+03  0.86102790700E+03  0.12699999809E+01 0.  1.
       -4    1    3    3    0  502 -0.91268826676E+02  0.11807662809E+03  0.33216207679E+02  0.15289544852E+03  0.12699999809E+01 0. -1.
</event>
<event>
 5   0  0.7698747E-02  0.5024104E+03  0.7818609E-02  0.1013152E+00
       -2   -1    0    0    0  501  0.00000000000E+00  0.00000000000E+00  0.33128954701E+02  0.33128954800E+02  0.25500000920E-02 0.  1.
        2   -1    0    0  501    0  0.00000000000E+00  0.00000000000E+00 -0.19048007676E+04  0.19048007676E+04  0.25500000920E-02 0. -1.
    10030    2    1    2    0    0  0.00000000000E+00  0.00000000000E+00 -0.18716718129E+04  0.19379297224E+04  0.50241042362E+03 0.  0.
        2    1    3    3  502    0 -0.10260313762E+02 -0.18621834953E+03 -0.15849747389E+04  0.15959096060E+04  0.25500000920E-02 0. -1.
       -2    1    3    3    0  502  0.10260313762E+02  0.18621834953E+03 -0.28669707399E+03  0.34202011634E+03  0.25500000920E-02 0.  1.
</event>
<event>
 5   0  0.5191358E-02  0.4961143E+03  0.7818609E-02  0.1014798E+00
       -1   -1    0    0    0  501  0.00000000000E+00  0.00000000000E+00  0.33875551067E+03  0.33875551071E+03  0.50400001928E-02 0. -1.
        1   -1    0    0  501    0  0.00000000000E+00  0.00000000000E+00 -0.18164232377E+03  0.18164232384E+03  0.50400001928E-02 0.  1.
    10030    2    1    2    0    0  0.00000000000E+00  0.00000000000E+00  0.15711318690E+03  0.52039783454E+03  0.49611425367E+03 0.  0.
        4    1    3    3  502    0 -0.15715428859E+02 -0.21189572671E+03 -0.55708495457E+02  0.21966297610E+03  0.12699999809E+01 0.  1.
       -4    1    3    3    0  502  0.15715428859E+02  0.21189572671E+03  0.21282168236E+03  0.30073485845E+03  0.12699999809E+01 0. -1.
</event>
<event>
 5   0  0.5191358E-02  0.4971305E+03  0.7818609E-02  0.1014531E+00
        1   -1    0    0  501    0  0.00000000000E+00  0.00000000000E+00  0.22827922692E+04  0.22827922692E+04  0.50400001928E-02 0.  1.
       -1   -1    0    0    0  501  0.00000000000E+00  0.00000000000E+00 -0.27065400374E+02  0.27065400844E+02  0.50400001928E-02 0. -1.
    10030    2    1    2    0    0  0.00000000000E+00  0.00000000000E+00  0.22557268688E+04  0.23098576701E+04  0.49713051520E+03 0.  0.
        4    1    3    3  502    0 -0.41329412493E+02  0.17473273874E+03  0.19264926842E+04  0.19348424550E+04  0.12699999809E+01 0.  1.
       -4    1    3    3    0  502  0.41329412493E+02 -0.17473273874E+03  0.32923418462E+03  0.37501521509E+03  0.12699999809E+01 0. -1.
</event>
<event>
 5   0  0.3210875E-02  0.5028035E+03  0.7818609E-02  0.1013050E+00
        4   -1    0    0  501    0  0.00000000000E+00  0.00000000000E+00  0.14254590557E+03  0.14255156293E+03  0.12699999809E+01 0.  1.
       -4   -1    0    0    0  501  0.00000000000E+00  0.00000000000E+00 -0.44337048151E+03  0.44337230041E+03  0.12699999809E+01 0. -1.
    10030    2    1    2    0    0  0.00000000000E+00  0.00000000000E+00 -0.30082457594E+03  0.58592386335E+03  0.50280348860E+03 0.  0.
        5    1    3    3  502    0  0.61984922165E+02  0.14954284792E+03  0.73666240331E+02  0.17791570729E+03  0.46999998093E+01 0.  1.
       -5    1    3    3    0  502 -0.61984922165E+02 -0.14954284792E+03 -0.37449081627E+03  0.40800815605E+03  0.46999998093E+01 0. -1.
</event>
<event>
 5   0  0.7698747E-02  0.4991622E+03  0.7818609E-02  0.1013998E+00
        2   -1    0    0  501    0  0.00000000000E+00  0.00000000000E+00  0.14359983303E+04  0.14359983303E+04  0.25500000920E-02 0.  1.
       -2   -1    0    0    0  501  0.00000000000E+00  0.00000000000E+00 -0.43377984750E+02  0.43377984825E+02  0.25500000920E-02 0. -1.
    10030    2    1    2    0    0  0.00000000000E+00  0.00000000000E+00  0.13926203456E+04  0.14793763151E+04  0.49916215294E+03 0.  0.
        2    1    3    3  502    0  0.17427365373E+03  0.15763905442E+03  0.44712263444E+03  0.50511387637E+03  0.25500000920E-02 0. -1.
       -2    1    3    3    0  502 -0.17427365373E+03 -0.15763905442E+03  0.94549771113E+03  0.97426243878E+03  0.25500000920E-02 0.  1.
</event>
<event>
 5   0  0.7881060E-02  0.5008848E+03  0.7818609E-02  0.1013548E+00
        2   -1    0    0  501    0  0.00000000000E+00  0.00000000000E+00  0.31008861917E+03  0.31008861918E+03  0.25500000920E-02 0. -1.
       -2   -1    0    0    0  501  0.00000000000E+00  0.00000000000E+00 -0.20226922430E+03  0.20226922432E+03  0.25500000920E-02 0.  1.
    10030    2    1    2    0    0  0.00000000000E+00  0.00000000000E+00  0.10781939487E+03  0.51235784351E+03  0.50088475510E+03 0.  0.
        1    1    3    3  502    0 -0.96271840748E+02 -0.61872264680E+02 -0.17395947371E+03  0.20822666250E+03  0.50400001928E-02 0.  1.
       -1    1    3    3    0  502  0.96271840748E+02  0.61872264680E+02  0.28177886858E+03  0.30413118101E+03  0.50400001928E-02 0. -1.
</event>
<event>
 5   0  0.7933103E-02  0.5033039E+03  0.7818609E-02  0.1012920E+00
       -2   -1    0    0    0  501  0.00000000000E+00  0.00000000000E+00  0.63830483401E+02  0.63830483451E+02  0.25500000920E-02 0. -1.
        2   -1    0    0  501    0  0.00000000000E+00  0.00000000000E+00 -0.99213868250E+03  0.99213868250E+03  0.25500000920E-02 0.  1.
    10030    2    1    2    0    0  0.00000000000E+00  0.00000000000E+00 -0.92830819910E+03  0.10559691660E+04  0.50330385150E+03 0.  0.
        5    1    3    3  502    0  0.10713564270E+03  0.73649376283E+02 -0.12193876855E+02  0.13066390931E+03  0.46999998093E+01 0. -1.
       -5    1    3    3    0  502 -0.10713564270E+03 -0.73649376283E+02 -0.91611432224E+03  0.92530525665E+03  0.46999998093E+01 0.  1.
</event>
<event>
 5   0  0.7881060E-02  0.4802758E+03  0.7818609E-02  0.1019059E+00
       -2   -1    0    0    0  501  0.00000000000E+00  0.00000000000E+00  0.11977712980E+03  0.11977712982E+03  0.25500000920E-02 0. -1.
        2   -1    0    0  501    0  0.00000000000E+00  0.00000000000E+00 -0.48144601940E+03  0.48144601941E+03  0.25500000920E-02 0.  1.
    10030    2    1    2    0    0  0.00000000000E+00  0.00000000000E+00 -0.36166888961E+03  0.60122314923E+03  0.48027584726E+03 0.  0.
        1    1    3    3  502    0 -0.23707371522E+03  0.38215076636E+02 -0.18255260428E+03  0.30164514232E+03  0.50400001928E-02 0.  1.
       -1    1    3    3    0  502  0.23707371522E+03 -0.38215076636E+02 -0.17911628532E+03  0.29957800691E+03  0.50400001928E-02 0. -1.
</event>
<event>
 5   0  0.5038436E-02  0.4933354E+03  0.7818609E-02  0.1015533E+00
       -1   -1    0    0    0  501  0.00000000000E+00  0.00000000000E+00  0.25935717104E+03  0.25935717109E+03  0.50400001928E-02 0.  1.
        1   -1    0    0  501    0  0.00000000000E+00  0.00000000000E+00 -0.23459910388E+03  0.23459910394E+03  0.50400001928E-02 0. -1.
    10030    2    1    2    0    0  0.00000000000E+00  0.00000000000E+00  0.24758067152E+02  0.49395627503E+03  0.49333542316E+03 0.  0.
        1    1    3    3  502    0 -0.14463368345E+03 -0.96367602765E+02  0.18764029305E+03  0.25576257907E+03  0.50400001928E-02 0.  1.
       -1    1    3    3    0  502  0.14463368345E+03  0.96367602765E+02 -0.16288222590E+03  0.23819369595E+03  0.50400001928E-02 0. -1.
</event>
<event>
 5   0  0.7933103E-02  0.5021427E+03  0.7818609E-02  0.1013221E+00
        2   -1    0    0  501    0  0.00000000000E+00  0.00000000000E+00  0.77367772254E+03  0.77367772255E+03  0.25500000920E-02 0.  1.
       -2   -1    0    0    0  501  0.00000000000E+00  0.00000000000E+00 -0.81476852497E+02  0.81476852536E+02  0.25500000920E-02 0. -1.
    10030    2    1    2    0    0  0.00000000000E+00  0.00000000000E+00  0.69220087005E+03  0.85515457508E+03  0.50214271158E+03 0.  0.
        5    1    3    3  502    0  0.43364344122E+02 -0.20702881378E+03  0.57631162148E+03  0.61392065540E+03  0.46999998093E+01 0.  1.
       -5    1    3    3    0  502 -0.43364344122E+02  0.20702881378E+03  0.11588924857E+03  0.24123391969E+03  0.46999998093E+01 0. -1.
</event>
<event>
 5   0  0.4803890E-02  0.5031155E+03  0.7818609E-02  0.1012969E+00
       -1   -1    0    0    0  501  0.00000000000E+00  0.00000000000E+00  0.94917153632E+02  0.94917153766E+02  0.50400001928E-02 0.  1.
        1   -1    0    0  501    0  0.00000000000E+00  0.00000000000E+00 -0.66670034230E+03  0.66670034232E+03  0.50400001928E-02 0. -1.
    10030    2    1    2    0    0  0.00000000000E+00  0.00000000000E+00 -0.57178318867E+03  0.76161749608E+03  0.50311548923E+03 0.  0.
        5    1    3    3  502    0 -0.18171933807E+03  0.94683199293E+02 -0.65102664621E+02  0.21505179143E+03  0.46999998093E+01 0.  1.
       -5    1    3    3    0  502  0.18171933807E+03 -0.94683199293E+02 -0.50668052404E+03  0.54656570465E+03  0.46999998093E+01 0. -1.
</event>
<event>
 5   0  0.7776070E-02  0.4948000E+03  0.7818609E-02  0.1015145E+00
        2   -1    0    0  501    0  0.00000000000E+00  0.00000000000E+00  0.45984838543E+02  0.45984838614E+02  0.25500000920E-02 0. -1.
       -2   -1    0    0    0  501  0.00000000000E+00  0.00000000000E+00 -0.13310206759E+04  0.13310206759E+04  0.25500000920E-02 0.  1.
    10030    2    1    2    0    0  0.00000000000E+00  0.00000000000E+00 -0.12850358373E+04  0.13770055145E+04  0.49480004417E+03 0.  0.
        4    1    3    3  502    0 -0.84020491811E+02 -0.14090285410E+03 -0.11578687665E+04  0.11694335170E+04  0.12699999809E+01 0.  1.
       -4    1    3    3    0  502  0.84020491811E+02  0.14090285410E+03 -0.12716707081E+03  0.20757199747E+03  0.12699999809E+01 0. -1.
</event>
<event>
 5   0  0.7776070E-02  0.5012809E+03  0.7818609E-02  0.1013445E+00
       -2   -1    0    0    0  501  0.00000000000E+00  0.00000000000E+00  0.15968084586E+03  0.15968084588E+03  0.25500000920E-02 0. -1.
        2   -1    0    0  501    0  0.00000000000E+00  0.00000000000E+00 -0.39341376130E+03  0.39341376131E+03  0.25500000920E-02 0.  1.
    10030    2    1    2    0    0  0.00000000000E+00  0.00000000000E+00 -0.23373291544E+03  0.55309460719E+03  0.50128092797E+03 0.  0.
        4    1    3    3  502    0 -0.94548372151E+01 -0.19703101218E+03 -0.28747219841E+03  0.34864378880E+03  0.12699999809E+01 0.  1.
       -4    1    3    3    0  502  0.94548372151E+01  0.19703101218E+03  0.53739282972E+02  0.20445081839E+03  0.12699999809E+01 0. -1.
</event>
<event>
 5   0  0.3210875E-02  0.4989540E+03  0.7818609E-02  0.1014052E+00
        4   -1    0    0  501    0  0.00000000000E+00  0.00000000000E+00  0.26103429355E+03  0.26103738297E+03  0.12699999809E+01 0. -1.
       -4   -1    0    0    0  501  0.00000000000E+00  0.00000000000E+00 -0.23842524071E+03  0.23842862309E+03  0.12699999809E+01 0.  1.
    10030    2    1    2    0    0  0.00000000000E+00  0.00000000000E+00  0.22609052837E+02  0.49946600606E+03  0.49895402788E+03 0.  0.
        1    1    3    3  502    0  0.18941256054E+03  0.53336741044E+02  0.16481394180E+03  0.25668182926E+03  0.50400001928E-02 0. -1.
       -1    1    3    3    0  502 -0.18941256054E+03 -0.53336741044E+02 -0.14220488897E+03  0.24278417680E+03  0.50400001928E-02 0.  1.
</event>
<event>
 5   0  0.3210875E-02  0.4988733E+03  0.7818609E-02  0.1014073E+00
       -3   -1    0    0    0  501  0.00000000000E+00  0.00000000000E+00  0.97275433705E+03  0.97275434229E+03  0.10100000352E+00 0. -1.
        3   -1    0    0  501    0  0.00000000000E+00  0.00000000000E+00 -0.63961269675E+02  0.63961349419E+02  0.10100000352E+00 0.  1.
    10030    2    1    2    0    0  0.00000000000E+00  0.00000000000E+00  0.90879306737E+03  0.10367156917E+04  0.49887331672E+03 0.  0.
        3    1    3    3  502    0 -0.24815178942E+03  0.22485565402E+02  0.43036531256E+03  0.49729188984E+03  0.10100000352E+00 0.  1.
       -3    1    3    3    0  502  0.24815178942E+03 -0.22485565402E+02  0.47842775481E+03  0.53942380187E+03  0.10100000352E+00 0. -1.
</event>
<event>
 5   0  0.5038436E-02  0.4977919E+03  0.7818609E-02  0.1014357E+00
        1   -1    0    0  501    0  0.00000000000E+00  0.00000000000E+00  0.21178625107E+03  0.21178625113E+03  0.50400001928E-02 0. -1.
       -1   -1    0    0    0  501  0.00000000000E+00  0.00000000000E+00 -0.29250809023E+03  0.29250809027E+03  0.50400001928E-02 0.  1.
    10030    2    1    2    0    0  0.00000000000E+00  0.00000000000E+00 -0.80721839151E+02  0.50429434140E+03  0.49779189171E+03 0.  0.
        1    1    3    3  502    0 -0.45012444550E+02  0.18694288316E+03  0.11973960864E+03  0.22652005569E+03  0.50400001928E-02 0. -1.
       -1    1    3    3    0  502  0.45012444550E+02 -0.18694288316E+03 -0.20046144779E+03  0.27777428571E+03  0.50400001928E-02 0.  1.
</event>
<event>
 5   0  0.4803890E-02  0.5008834E+03  0.7818609E-02  0.1013549E+00
        1   -1    0    0  501    0  0.00000000000E+00  0.00000000000E+00  0.16518188834E+03  0.16518188842E+03  0.50400001928E-02 0.  1.
       -1   -1    0    0    0  501  0.00000000000E+00  0.00000000000E+00 -0.37970899309E+03  0.37970899312E+03  0.50400001928E-02 0. -1.
    10030    2    1    2    0    0  0.00000000000E+00  0.00000000000E+00 -0.21452710475E+03  0.54489088154E+03  0.50088341370E+03 0.  0.
        5    1    3    3  502    0  0.14267976590E+03  0.11616702505E+02  0.11622873194E+03  0.18445506635E+03  0.46999998093E+01 0.  1.
       -5    1    3    3    0  502 -0.14267976590E+03 -0.11616702505E+02 -0.33075583669E+03  0.36043581520E+03  0.46999998093E+01 0. -1.
</event>
<event>
 5   0  0.7776070E-02  0.5003034E+03  0.7818609E-02  0.1013700E+00
       -2   -1    0    0    0  501  0.00000000000E+00  0.00000000000E+00  0.43267878151E+03  0.43267878152E+03  0.25500000920E-02 0.  1.
        2   -1    0    0  501    0  0.00000000000E+00  0.00000000000E+00 -0.14462432576E+03  0.14462432578E+03  0.25500000920E-02 0. -1.
    10030    2    1    2    0    0  0.00000000000E+00  0.00000000000E+00  0.28805445575E+03  0.57730310730E+03  0.50030341616E+03 0.  0.
        4    1    3    3  502    0  0.19612970423E+03 -0.51882260668E+02  0.31289077114E+03  0.37290867168E+03  0.12699999809E+01 0.  1.
       -4    1    3    3    0  502 -0.19612970423E+03  0.51882260668E+02 -0.24836315387E+02  0.20439443562E+03  0.12699999809E+01 0. -1.
</event>
<event>
 5   0  0.7933103E-02  0.4954852E+03  0.7818609E-02  0.1014964E+00
        2   -1    0    0  501    0  0.00000000000E+00  0.00000000000E+00  0.13108431661E+03  0.13108431663E+03  0.25500000920E-02 0. -1.
       -2   -1    0    0    0  501  0.00000000000E+00  0.00000000000E+00 -0.46822069902E+03  0.46822069903E+03  0.25500000920E-02 0.  1.
    10030    2    1    2    0    0  0.00000000000E+00  0.00000000000E+00 -0.33713638241E+03  0.59930501566E+03  0.49548517783E+03 0.  0.
        5    1    3    3  502    0  0.10658479183E+03 -0.21630243599E+03 -0.10006940329E+03  0.26111881805E+03  0.46999998093E+01 0. -1.
       -5    1    3    3    0  502 -0.10658479183E+03  0.21630243599E+03 -0.23706697912E+03  0.33818619761E+03  0.46999998093E+01 0.  1.
</event>
<event>
 5   0  0.7881060E-02  0.5162025E+03  0.7818609E-02  0.1009634E+00
       -2   -1    0    0    0  501  0.00000000000E+00  0.00000000000E+00  0.80897381029E+02  0.80897381069E+02  0.25500000920E-02 0.  1.
        2   -1    0    0  501    0  0.00000000000E+00  0.00000000000E+00 -0.82346619986E+03  0.82346619987E+03  0.25500000920E-02 0. -1.
    10030    2    1    2    0    0  0.00000000000E+00  0.00000000000E+00 -0.74256881883E+03  0.90436358094E+03  0.51620251435E+03 0.  0.
        1    1    3    3  502    0  0.91323924265E+02  0.16077854045E+02 -0.79327543230E+03  0.79867669808E+03  0.50400001928E-02 0. -1.
       -1    1    3    3    0  502 -0.91323924265E+02 -0.16077854045E+02  0.50706613467E+02  0.10568688286E+03  0.50400001928E-02 0.  1.
</event>
<event>
 5   0  0.7881060E-02  0.5014944E+03  0.7818609E-02  0.1013390E+00
        2   -1    0    0  501    0  0.00000000000E+00  0.00000000000E+00  0.27446536318E+03  0.27446536319E+03  0.25500000920E-02 0.  1.
       -2   -1    0    0    0  501  0.00000000000E+00  0.00000000000E+00 -0.22907866227E+03  0.22907866229E+03  0.25500000920E-02 0. -1.
    10030    2    1    2    0    0  0.00000000000E+00  0.00000000000E+00  0.45386700903E+02  0.50354402547E+03  0.50149439974E+03 0.  0.
        1    1    3    3  502    0 -0.16460594734E+03  0.18003179414E+03 -0.35574793682E+02  0.24652004132E+03  0.50400001928E-02 0.  1.
       -1    1    3    3    0  502  0.16460594734E+03 -0.18003179414E+03  0.80961494585E+02  0.25702398416E+03  0.50400001928E-02 0. -1.
</event>
<event>
 5   0  0.4803890E-02  0.4996387E+03  0.7818609E-02  0.1013873E+00
        1   -1    0    0  501    0  0.00000000000E+00  0.00000000000E+00  0.11844878662E+04  0.11844878662E+04  0.50400001928E-02 0. -1.
       -1   -1    0    0    0  501  0.00000000000E+00  0.00000000000E+00 -0.52689194163E+02  0.52689194404E+02  0.50400001928E-02 0.  1.
    10030    2    1    2    0    0  0.00000000000E+00  0.00000000000E+00  0.11317986720E+04  0.12371770606E+04  0.49963871476E+03 0.  0.
        5    1    3    3  502    0  0.20674376470E+03  0.50639044583E+02  0.88951075051E+03  0.91463586325E+03  0.46999998093E+01 0. -1.
       -5    1    3    3    0  502 -0.20674376470E+03 -0.50639044583E+02  0.24228792153E+03  0.32254119737E+03  0.46999998093E+01 0.  1.
</event>
<event>
 5   0  0.4803890E-02  0.5025396E+03  0.7818609E-02  0.1013118E+00
       -1   -1    0    0    0  501  0.00000000000E+00  0.00000000000E+00  0.82894195043E+03  0.82894195045E+03  0.50400001928E-02 0. -1.
        1   -1    0    0  501    0  0.00000000000E+00  0.00000000000E+00 -0.76165188622E+02  0.76165188789E+02  0.50400001928E-02 0.  1.
    10030    2    1    2    0    0  0.00000000000E+00  0.00000000000E+00  0.75277676181E+03  0.90510713924E+03  0.50253963065E+03 0.  0.
        5    1    3    3  502    0 -0.15820444676E+03 -0.93211681811E+02  0.67583696131E+02  0.19572100189E+03  0.46999998093E+01 0.  1.
       -5    1    3    3    0  502  0.15820444676E+03  0.93211681811E+02  0.68519306568E+03  0.70938613734E+03  0.46999998093E+01 0. -1.
</event>
<event>
 5   0  0.7776070E-02  0.5022903E+03  0.7818609E-02  0.1013183E+00
        2   -1    0    0  501    0  0.00000000000E+00  0.00000000000E+00  0.44574445795E+03  0.44574445796E+03  0.25500000920E-02 0.  1.
       -2   -1    0    0    0  501  0.00000000000E+00  0.00000000000E+00 -0.14150232152E+03  0.14150232154E+03  0.25500000920E-02 0. -1.
    10030    2    1    2    0    0  0.00000000000E+00  0.00000000000E+00  0.30424213643E+03  0.58724677950E+03  0.50229025717E+03 0.  0.
        4    1    3    3  502    0 -0.17521702054E+03  0.10334406281E+03 -0.20069084241E+02  0.20441472708E+03  0.12699999809E+01 0. -1.
       -4    1    3    3    0  502  0.17521702054E+03 -0.10334406281E+03  0.32431122068E+03  0.38283205242E+03  0.12699999809E+01 0.  1.
</event>
<event>
 5   0  0.5191358E-02  0.4885322E+03  0.7818609E-02  0.1016816E+00
        1   -1    0    0  501    0  0.00000000000E+00  0.00000000000E+00  0.74234481428E+03  0.74234481430E+03  0.50400001928E-02 0.  1.
       -1   -1    0    0    0  501  0.00000000000E+00  0.00000000000E+00 -0.80374950496E+02  0.80374950654E+02  0.50400001928E-02 0. -1.
    10030    2    1    2    0    0  0.00000000000E+00  0.00000000000E+00  0.66196986379E+03  0.82271976496E+03  0.48853220066E+03 0.  0.
        4    1    3    3  502    0 -0.69389300372E+02 -0.17718573772E+02 -0.62291892137E+02  0.94924789115E+02  0.12699999809E+01 0. -1.
       -4    1    3    3    0  502  0.69389300372E+02  0.17718573772E+02  0.72426175593E+03  0.72779497584E+03  0.12699999809E+01 0.  1.
</event>
<event>
 5   0  0.7776070E-02  0.4998091E+03  0.7818609E-02  0.1013829E+00
       -2   -1    0    0    0  501  0.00000000000E+00  0.00000000000E+00  0.52151295222E+03  0.52151295223E+03  0.25500000920E-02 0.  1.
        2   -1    0    0  501    0  0.00000000000E+00  0.00000000000E+00 -0.11975214237E+03  0.11975214239E+03  0.25500000920E-02 0. -1.
    10030    2    1    2    0    0  0.00000000000E+00  0.00000000000E+00  0.40176080985E+03  0.64126509462E+03  0.49980913682E+03 0.  0.
        4    1    3    3  502    0  0.63653876821E+02  0.10892866004E+03  0.47764839258E+03  0.49403124279E+03  0.12699999809E+01 0.  1.
       -4    1    3    3    0  502 -0.63653876821E+02 -0.10892866004E+03 -0.75887582730E+02  0.14723385183E+03  0.12699999809E+01 0. -1.
</event>
<event>
 5   0  0.4884478E-02  0.5041290E+03  0.7818609E-02  0.1012707E+00
        1   -1    0    0  501    0  0.00000000000E+00  0.00000000000E+00  0.15398444624E+04  0.15398444624E+04  0.50400001928E-02 0.  1.
       -1   -1    0    0    0  501  0.00000000000E+00  0.00000000000E+00 -0.41261637113E+02  0.41261637421E+02  0.50400001928E-02 0. -1.
    10030    2    1    2    0    0  0.00000000000E+00  0.00000000000E+00  0.14985828252E+04  0.15811060998E+04  0.50412896630E+03 0.  0.
        3    1    3    3  502    0 -0.21656480340E+03 -0.69567595727E+02  0.10899320702E+04  0.11134145195E+04  0.10100000352E+00 0.  1.
       -3    1    3    3    0  502  0.21656480340E+03  0.69567595727E+02  0.40865075508E+03  0.46769158029E+03  0.10100000352E+00 0. -1.
</event>
<event>
 5   0  0.5191358E-02  0.4963949E+03  0.7818609E-02  0.1014724E+00
       -1   -1    0    0    0  501  0.00000000000E+00  0.00000000000E+00  0.18599225312E+03  0.18599225319E+03  0.50400001928E-02 0.  1.
        1   -1    0    0  501    0  0.00000000000E+00  0.00000000000E+00 -0.33120714924E+03  0.33120714928E+03  0.50400001928E-02 0. -1.
    10030    2    1    2    0    0  0.00000000000E+00  0.00000000000E+00 -0.14521489612E+03  0.51719940246E+03  0.49639485881E+03 0.  0.
        4    1    3    3  502    0 -0.61266074327E+02  0.70007844981E+02 -0.31235057880E+03  0.32591276010E+03  0.12699999809E+01 0. -1.
       -4    1    3    3    0  502  0.61266074327E+02 -0.70007844981E+02  0.16713568268E+03  0.19128664236E+03  0.12699999809E+01 0.  1.
</event>
<event>
 5   0  0.4865501E-02  0.4636208E+03  0.7818609E-02  0.1023736E+00
       -1   -1    0    0    0  501  0.00000000000E+00  0.00000000000E+00  0.86441649917E+02  0.86441650064E+02  0.50400001928E-02 0. -1.
        1   -1    0    0  501    0  0.00000000000E+00  0.00000000000E+00 -0.62164536837E+03  0.62164536839E+03  0.50400001928E-02 0.  1.
    10030    2    1    2    0    0  0.00000000000E+00  0.00000000000E+00 -0.53520371846E+03  0.70808701846E+03  0.46362075607E+03 0.  0.
        2    1    3    3  502    0  0.25878227908E+02  0.54823146356E+02  0.74119886721E+02  0.95754987703E+02  0.25500000920E-02 0. -1.
       -2    1    3    3    0  502 -0.25878227908E+02 -0.54823146356E+02 -0.60932360518E+03  0.61233203076E+03  0.25500000920E-02 0.  1.
</event>
<event>
 5   0  0.7881060E-02  0.5077333E+03  0.7818609E-02  0.1011780E+00
        2   -1    0    0  501    0  0.00000000000E+00  0.00000000000E+00  0.46408079152E+03  0.46408079153E+03  0.25500000920E-02 0.  1.
       -2   -1    0    0    0  501  0.00000000000E+00  0.00000000000E+00 -0.13887296809E+03  0.13887296811E+03  0.25500000920E-02 0. -1.
    10030    2    1    2    0    0  0.00000000000E+00  0.00000000000E+00  0.32520782343E+03  0.60295375964E+03  0.50773330386E+03 0.  0.
        1    1    3    3  502    0  0.65041136074E+01 -0.20979632970E+03 -0.69753190338E+01  0.21001299615E+03  0.50400001928E-02 0. -1.
       -1    1    3    3    0  502 -0.65041136074E+01  0.20979632970E+03  0.33218314247E+03  0.39294076349E+03  0.50400001928E-02 0.  1.
</event>
<event>
 5   0  0.5038436E-02  0.4994304E+03  0.7818609E-02  0.1013928E+00
        1   -1    0    0  501    0  0.00000000000E+00  0.00000000000E+00  0.11058106456E+04  0.11058106456E+04  0.50400001928E-02 0. -1.
       -1   -1    0    0    0  501  0.00000000000E+00  0.00000000000E+00 -0.56390925700E+02  0.56390925925E+02  0.50400001928E-02 0.  1.
    10030    2    1    2    0    0  0.00000000000E+00  0.00000000000E+00  0.10494197199E+04  0.11622015716E+04  0.49943041995E+03 0.  0.
        1    1    3    3  502    0 -0.11778984575E+03 -0.18964436121E+03  0.26434740582E+03  0.34600430993E+03  0.50400001928E-02 0.  1.
       -1    1    3    3    0  502  0.11778984575E+03  0.18964436121E+03  0.78507231410E+03  0.81619726163E+03  0.50400001928E-02 0. -1.
</event>
<event>
 5   0  0.7881060E-02  0.4688444E+03  0.7818609E-02  0.1022247E+00
        2   -1    0    0  501    0  0.00000000000E+00  0.00000000000E+00  0.23034783716E+03  0.23034783718E+03  0.25500000920E-02 0.  1.
       -2   -1    0    0    0  501  0.00000000000E+00  0.00000000000E+00 -0.23856866125E+03  0.23856866126E+03  0.25500000920E-02 0. -1.
    10030    2    1    2    0    0  0.00000000000E+00  0.00000000000E+00 -0.82208240845E+01  0.46891649844E+03  0.46884443108E+03 0.  0.
        1    1    3    3  502    0 -0.86351193434E+02  0.55203479142E+02  0.20675326063E+03  0.23076148622E+03  0.50400001928E-02 0.  1.
       -1    1    3    3    0  502  0.86351193434E+02 -0.55203479142E+02 -0.21497408472E+03  0.23815501221E+03  0.50400001928E-02 0. -1.
</event>
<event>
 5   0  0.7698747E-02  0.4916820E+03  0.7818609E-02  0.1015973E+00
        2   -1    0    0  501    0  0.00000000000E+00  0.00000000000E+00  0.72261365320E+03  0.72261365320E+03  0.25500000920E-02 0. -1.
       -2   -1    0    0    0  501  0.00000000000E+00  0.00000000000E+00 -0.83637778787E+02  0.83637778826E+02  0.25500000920E-02 0.  1.
    10030    2    1    2    0    0  0.00000000000E+00  0.00000000000E+00  0.63897587441E+03  0.80625143203E+03  0.49168201469E+03 0.  0.
        2    1    3    3  502    0 -0.21364046189E+03 -0.11731013209E+03  0.37221367669E+03  0.44491227806E+03  0.25500000920E-02 0. -1.
       -2    1    3    3    0  502  0.21364046189E+03  0.11731013209E+03  0.26676219772E+03  0.36133915397E+03  0.25500000920E-02 0.  1.
</event>
<event>
 5   0  0.7776070E-02  0.5074325E+03  0.7818609E-02  0.1011857E+00
        2   -1    0    0  501    0  0.00000000000E+00  0.00000000000E+00  0.10050724390E+04  0.10050724391E+04  0.25500000920E-02 0.  1.
       -2   -1    0    0    0  501  0.00000000000E+00  0.00000000000E+00 -0.64047068217E+02  0.64047068268E+02  0.25500000920E-02 0. -1.
    10030    2    1    2    0    0  0.00000000000E+00  0.00000000000E+00  0.94102537083E+03  0.10691195073E+04  0.50743252988E+03 0.  0.
        4    1    3    3  502    0  0.11870979929E+03 -0.72161053745E+02  0.23214631521E+02  0.14085370475E+03  0.12699999809E+01 0. -1.
       -4    1    3    3    0  502 -0.11870979929E+03  0.72161053745E+02  0.91781073931E+03  0.92826580257E+03  0.12699999809E+01 0.  1.
</event>
<event>
 5   0  0.4865501E-02  0.5049557E+03  0.7818609E-02  0.1012493E+00
        1   -1    0    0  501    0  0.00000000000E+00  0.00000000000E+00  0.76946355911E+03  0.76946355912E+03  0.50400001928E-02 0. -1.
       -1   -1    0    0    0  501  0.00000000000E+00  0.00000000000E+00 -0.82843525544E+02  0.82843525697E+02  0.50400001928E-02 0.  1.
    10030    2    1    2    0    0  0.00000000000E+00  0.00000000000E+00  0.68662003356E+03  0.85230708482E+03  0.50495573702E+03 0.  0.
        2    1    3    3  502    0 -0.14504037918E+03  0.20338084844E+03  0.28141749095E+03  0.37629281859E+03  0.25500000920E-02 0. -1.
       -2    1    3    3    0  502  0.14504037918E+03 -0.20338084844E+03  0.40520254261E+03  0.47601426623E+03  0.25500000920E-02 0.  1.
</event>
<event>
 5   0  0.5038436E-02  0.4919006E+03  0.7818609E-02  0.1015915E+00
        1   -1    0    0  501    0  0.00000000000E+00  0.00000000000E+00  0.10124496750E+04  0.10124496750E+04  0.50400001928E-02 0.  1.
       -1   -1    0    0    0  501  0.00000000000E+00  0.00000000000E+00 -0.59747706786E+02  0.59747706999E+02  0.50400001928E-02 0. -1.
    10030    2    1    2    0    0  0.00000000000E+00  0.00000000000E+00  0.95270196821E+03  0.10721973820E+04  0.49190058523E+03 0.  0.
        1    1    3    3  502    0  0.55562004282E+02 -0.23852920348E+03  0.52549008446E+03  0.57976128374E+03  0.50400001928E-02 0.  1.
       -1    1    3    3    0  502 -0.55562004282E+02  0.23852920348E+03  0.42721188376E+03  0.49243609827E+03  0.50400001928E-02 0. -1.
</event>
<event>
 5   0  0.7776070E-02  0.5001283E+03  0.7818609E-02  0.1013745E+00
        2   -1    0    0  501    0  0.00000000000E+00  0.00000000000E+00  0.19415623620E+04  0.19415623620E+04  0.25500000920E-02 0. -1.
       -2   -1    0    0    0  501  0.00000000000E+00  0.00000000000E+00 -0.32207098079E+02  0.32207098180E+02  0.25500000920E-02 0.  1.
    10030    2    1    2    0    0  0.00000000000E+00  0.00000000000E+00  0.19093552639E+04  0.19737694601E+04  0.50012834160E+03 0.  0.
        4    1    3    3  502    0  0.20667151679E+03  0.48387345551E+02  0.14763962009E+04  0.14915769528E+04  0.12699999809E+01 0. -1.
       -4    1    3    3    0  502 -0.20667151679E+03 -0.48387345551E+02  0.43295906296E+03  0.48219250737E+03  0.12699999809E+01 0.  1.
</event>
<event>
 5   0  0.7933103E-02  0.5016908E+03  0.7818609E-02  0.1013339E+00
       -2   -1    0    0    0  501  0.00000000000E+00  0.00000000000E+00  0.25488487479E+03  0.25488487480E+03  0.25500000920E-02 0.  1.
        2   -1    0    0  501    0  0.00000000000E+00  0.00000000000E+00 -0.24686997326E+03  0.24686997327E+03  0.25500000920E-02 0. -1.
    10030    2    1    2    0    0  0.00000000000E+00  0.00000000000E+00  0.80149015246E+01  0.50175484807E+03  0.50169083001E+03 0.  0.
        5    1    3    3  502    0 -0.17962216114E+03  0.13421367770E+03 -0.10836301742E+03  0.24908244739E+03  0.46999998093E+01 0. -1.
       -5    1    3    3    0  502  0.17962216114E+03 -0.13421367770E+03  0.11637791895E+03  0.25267240069E+03  0.46999998093E+01 0.  1.
</event>
<event>
 5   0  0.3210875E-02  0.4995458E+03  0.7818609E-02  0.1013898E+00
       -4   -1    0    0    0  501  0.00000000000E+00  0.00000000000E+00  0.67664811914E+03  0.67664931097E+03  0.12699999809E+01 0. -1.
        4   -1    0    0  501    0  0.00000000000E+00  0.00000000000E+00 -0.92193692686E+02  0.92202439616E+02  0.12699999809E+01 0.  1.
    10030    2    1    2    0    0  0.00000000000E+00  0.00000000000E+00  0.58445442645E+03  0.76885175058E+03  0.49954583151E+03 0.  0.
        1    1    3    3  502    0 -0.86956896379E+02  0.11187115763E+03  0.60881052626E+03  0.62508152640E+03  0.50400001928E-02 0. -1.
       -1    1    3    3    0  502  0.86956896379E+02 -0.11187115763E+03 -0.24356099808E+02  0.14377022418E+03  0.50400001928E-02 0.  1.
</event>
<event>
 5   0  0.3210875E-02  0.5029392E+03  0.7818609E-02  0.1013015E+00
        3   -1    0    0  501    0  0.00000000000E+00  0.00000000000E+00  0.28447585177E+03  0.28447586970E+03  0.10100000352E+00 0. -1.
       -3   -1    0    0    0  501  0.00000000000E+00  0.00000000000E+00 -0.22229283534E+03  0.22229285829E+03  0.10100000352E+00 0.  1.
    10030    2    1    2    0    0  0.00000000000E+00  0.00000000000E+00  0.62183016431E+02  0.50676872799E+03  0.50293917737E+03 0.  0.
        2    1    3    3  502    0 -0.71869173105E+01 -0.74941796713E+02  0.27285392794E+03  0.28304980247E+03  0.25500000920E-02 0. -1.
       -2    1    3    3    0  502  0.71869173105E+01  0.74941796713E+02 -0.21067091151E+03  0.22371892553E+03  0.25500000920E-02 0.  1.
</event>
<event>
 5   0  0.4884478E-02  0.5005846E+03  0.7818609E-02  0.1013626E+00
        1   -1    0    0  501    0  0.00000000000E+00  0.00000000000E+00  0.72763632278E+03  0.72763632280E+03  0.50400001928E-02 0. -1.
       -1   -1    0    0    0  501  0.00000000000E+00  0.00000000000E+00 -0.86095515258E+02  0.86095515406E+02  0.50400001928E-02 0.  1.
    10030    2    1    2    0    0  0.00000000000E+00  0.00000000000E+00  0.64154080752E+03  0.81373183820E+03  0.50058455508E+03 0.  0.
        3    1    3    3  502    0 -0.26470951090E+02  0.16522524318E+03  0.18196703496E+02  0.16831881195E+03  0.10100000352E+00 0.  1.
       -3    1    3    3    0  502  0.26470951090E+02 -0.16522524318E+03  0.62334410403E+03  0.64541302626E+03  0.10100000352E+00 0. -1.
</event>
<event>
 5   0  0.7698747E-02  0.4832086E+03  0.7818609E-02  0.1018257E+00
        2   -1    0    0  501    0  0.00000000000E+00  0.00000000000E+00  0.64135563914E+03  0.64135563914E+03  0.25500000920E-02 0.  1.
       -2   -1    0    0    0  501  0.00000000000E+00  0.00000000000E+00 -0.91014463034E+02  0.91014463070E+02  0.25500000920E-02 0. -1.
    10030    2    1    2    0    0  0.00000000000E+00  0.00000000000E+00  0.55034117610E+03  0.73237010221E+03  0.48320860557E+03 0.  0.
        2    1    3    3  502    0 -0.16948431251E+03 -0.15359262790E+03  0.39312797647E+03  0.45482439845E+03  0.25500000920E-02 0. -1.
       -2    1    3    3    0  502  0.16948431251E+03  0.15359262790E+03  0.15721319963E+03  0.27754570376E+03  0.25500000920E-02 0.  1.
</event>
<event>
 5   0  0.7776070E-02  0.4998360E+03  0.7818609E-02  0.1013822E+00
       -2   -1    0    0    0  501  0.00000000000E+00  0.00000000000E+00  0.57105359815E+02  0.57105359872E+02  0.25500000920E-02 0.  1.
        2   -1    0    0  501    0  0.00000000000E+00  0.00000000000E+00 -0.10937502976E+04  0.10937502976E+04  0.25500000920E-02 0. -1.
    10030    2    1    2    0    0  0.00000000000E+00  0.00000000000E+00 -0.10366449378E+04  0.11508556575E+04  0.49983599041E+03 0.  0.
        4    1    3    3  502    0 -0.11032531976E+03 -0.17634264578E+03 -0.19937485908E+03  0.28813252547E+03  0.12699999809E+01 0.  1.
       -4    1    3    3    0  502  0.11032531976E+03  0.17634264578E+03 -0.83727007873E+03  0.86272313203E+03  0.12699999809E+01 0. -1.
</event>
<event>
 5   0  0.5038436E-02  0.4958752E+03  0.7818609E-02  0.1014861E+00
        1   -1    0    0  501    0  0.00000000000E+00  0.00000000000E+00  0.59279627001E+03  0.59279627003E+03  0.50400001928E-02 0. -1.
       -1   -1    0    0    0  501  0.00000000000E+00  0.00000000000E+00 -0.10370012414E+03  0.10370012426E+03  0.50400001928E-02 0.  1.
    10030    2    1    2    0    0  0.00000000000E+00  0.00000000000E+00  0.48909614587E+03  0.69649639429E+03  0.49587517316E+03 0.  0.
        1    1    3    3  502    0  0.45402080050E+02  0.22461230834E+03  0.11158686217E+03  0.25487970842E+03  0.50400001928E-02 0. -1.
       -1    1    3    3    0  502 -0.45402080050E+02 -0.22461230834E+03  0.37750928370E+03  0.44161668587E+03  0.50400001928E-02 0.  1.
</event>
<event>
 5   0  0.5038436E-02  0.5026311E+03  0.7818609E-02  0.1013094E+00
       -1   -1    0    0    0  501  0.00000000000E+00  0.00000000000E+00  0.71009498662E+02  0.71009498841E+02  0.50400001928E-02 0. -1.
        1   -1    0    0  501    0  0.00000000000E+00  0.00000000000E+00 -0.88945136160E+03  0.88945136161E+03  0.50400001928E-02 0.  1.
    10030    2    1    2    0    0  0.00000000000E+00  0.00000000000E+00 -0.81844186294E+03  0.96046086045E+03  0.50263105898E+03 0.  0.
        1    1    3    3  502    0  0.11212123902E+03 -0.15766991525E+03 -0.71572607047E+03  0.74141404249E+03  0.50400001928E-02 0.  1.
       -1    1    3    3    0  502 -0.11212123902E+03  0.15766991525E+03 -0.10271579246E+03  0.21904681797E+03  0.50400001928E-02 0. -1.
</event>
<event>
 5   0  0.8208720E-02  0.4999888E+03  0.7818609E-02  0.1013782E+00
       -2   -1    0    0    0  501  0.00000000000E+00  0.00000000000E+00  0.16718416510E+03  0.16718416512E+03  0.25500000920E-02 0.  1.
        2   -1    0    0  501    0  0.00000000000E+00  0.00000000000E+00 -0.37382246351E+03  0.37382246352E+03  0.25500000920E-02 0. -1.
    10030    2    1    2    0    0  0.00000000000E+00  0.00000000000E+00 -0.20663829841E+03  0.54100662863E+03  0.49998878573E+03 0.  0.
        3    1    3    3  502    0 -0.17918335948E+03 -0.15574150662E+03 -0.18807172383E+03  0.30287468812E+03  0.10100000352E+00 0. -1.
       -3    1    3    3    0  502  0.17918335948E+03  0.15574150662E+03 -0.18566574578E+02  0.23813194051E+03  0.10100000352E+00 0.  1.
</event>
<event>
 5   0  0.5191358E-02  0.5034923E+03  0.7818609E-02  0.1012871E+00
       -1   -1    0    0    0  501  0.00000000000E+00  0.00000000000E+00  0.13237245807E+03  0.13237245817E+03  0.50400001928E-02 0. -1.
        1   -1    0    0  501    0  0.00000000000E+00  0.00000000000E+00 -0.47877115043E+03  0.47877115046E+03  0.50400001928E-02 0.  1.
    10030    2    1    2    0    0  0.00000000000E+00  0.00000000000E+00 -0.34639869236E+03  0.61114360862E+03  0.50349226041E+03 0.  0.
        4    1    3    3  502    0 -0.19708272492E+03  0.56824092429E+02  0.39666087506E+01  0.20515341778E+03  0.12699999809E+01 0. -1.
       -4    1    3    3    0  502  0.19708272492E+03 -0.56824092429E+02 -0.35036530111E+03  0.40599019084E+03  0.12699999809E+01 0.  1.
</event>
<event>
 5   0  0.5038436E-02  0.5011725E+03  0.7818609E-02  0.1013473E+00
       -1   -1    0    0    0  501  0.00000000000E+00  0.00000000000E+00  0.12363549951E+04  0.12363549951E+04  0.50400001928E-02 0.  1.
        1   -1    0    0  501    0  0.00000000000E+00  0.00000000000E+00 -0.50789197484E+02  0.50789197734E+02  0.50400001928E-02 0. -1.
    10030    2    1    2    0    0  0.00000000000E+00  0.00000000000E+00  0.11855657976E+04  0.12871441928E+04  0.50117253785E+03 0.  0.
        1    1    3    3  502    0  0.52855484395E+02 -0.24268052553E+03  0.50737354931E+03  0.56490305209E+03  0.50400001928E-02 0.  1.
       -1    1    3    3    0  502 -0.52855484395E+02  0.24268052553E+03  0.67819224831E+03  0.72224114076E+03  0.50400001928E-02 0. -1.
</event>
<event>
 5   0  0.3210875E-02  0.4998247E+03  0.7818609E-02  0.1013825E+00
        3   -1    0    0  501    0  0.00000000000E+00  0.00000000000E+00  0.16070573899E+03  0.16070577073E+03  0.10100000352E+00 0. -1.
       -3   -1    0    0    0  501  0.00000000000E+00  0.00000000000E+00 -0.38863685204E+03  0.38863686516E+03  0.10100000352E+00 0.  1.
    10030    2    1    2    0    0  0.00000000000E+00  0.00000000000E+00 -0.22793111304E+03  0.54934263589E+03  0.49982470859E+03 0.  0.
        4    1    3    3  502    0 -0.96846342556E+02  0.11236906026E+03 -0.33500871420E+03  0.36638568648E+03  0.12699999809E+01 0.  1.
       -4    1    3    3    0  502  0.96846342556E+02 -0.11236906026E+03  0.10707760115E+03  0.18295694941E+03  0.12699999809E+01 0. -1.
</event>
<event>
 5   0  0.5038436E-02  0.5046326E+03  0.7818609E-02  0.1012577E+00
       -1   -1    0    0    0  501  0.00000000000E+00  0.00000000000E+00  0.37959496188E+02  0.37959496523E+02  0.50400001928E-02 0. -1.
        1   -1    0    0  501    0  0.00000000000E+00  0.00000000000E+00 -0.16771432069E+04  0.16771432069E+04  0.50400001928E-02 0.  1.
    10030    2    1    2    0    0  0.00000000000E+00  0.00000000000E+00 -0.16391837107E+04  0.17151027035E+04  0.50463258501E+03 0.  0.
        1    1    3    3  502    0  0.63116570522E+02  0.74471147492E+02 -0.28823408963E+02  0.10178625749E+03  0.50400001928E-02 0. -1.
       -1    1    3    3    0  502 -0.63116570522E+02 -0.74471147492E+02 -0.16103603018E+04  0.16133164460E+04  0.50400001928E-02 0.  1.
</event>
<event>
 5   0  0.4884478E-02  0.5076490E+03  0.7818609E-02  0.1011801E+00
        1   -1    0    0  501    0  0.00000000000E+00  0.00000000000E+00  0.53723838691E+03  0.53723838693E+03  0.50400001928E-02 0.  1.
       -1   -1    0    0    0  501  0.00000000000E+00  0.00000000000E+00 -0.11992233357E+03  0.11992233367E+03  0.50400001928E-02 0. -1.
    10030    2    1    2    0    0  0.00000000000E+00  0.00000000000E+00  0.41731605334E+03  0.65716072061E+03  0.50764901687E+03 0.  0.
        3    1    3    3  502    0  0.16074255815E+03  0.81513061086E+02  0.44002687429E+03  0.47550626644E+03  0.10100000352E+00 0.  1.
       -3    1    3    3    0  502 -0.16074255815E+03 -0.81513061086E+02 -0.22710820943E+02  0.18165445416E+03  0.10100000352E+00 0. -1.
</event>
<event>
 5   0  0.7933103E-02  0.4953243E+03  0.7818609E-02  0.1015007E+00
        2   -1    0    0  501    0  0.00000000000E+00  0.00000000000E+00  0.47377237892E+03  0.47377237893E+03  0.25500000920E-02 0.  1.
       -2   -1    0    0    0  501  0.00000000000E+00  0.00000000000E+00 -0.12946414951E+03  0.12946414953E+03  0.25500000920E-02 0. -1.
    10030    2    1    2    0    0  0.00000000000E+00  0.00000000000E+00  0.34430822942E+03  0.60323652846E+03  0.49532429016E+03 0.  0.
        5    1    3    3  502    0  0.22358551613E+03  0.10087627172E+03  0.13089136670E+03  0.27806679970E+03  0.46999998093E+01 0. -1.
       -5    1    3    3    0  502 -0.22358551613E+03 -0.10087627172E+03  0.21341686271E+03  0.32516972877E+03  0.46999998093E+01 0.  1.
</event>
<event>
 5   0  0.5191358E-02  0.4995179E+03  0.7818609E-02  0.1013905E+00
        1   -1    0    0  501    0  0.00000000000E+00  0.00000000000E+00  0.42647999083E+03  0.42647999086E+03  0.50400001928E-02 0. -1.
       -1   -1    0    0    0  501  0.00000000000E+00  0.00000000000E+00 -0.14626603028E+03  0.14626603036E+03  0.50400001928E-02 0.  1.
    10030    2    1    2    0    0  0.00000000000E+00  0.00000000000E+00  0.28021396055E+03  0.57274602122E+03  0.49951790872E+03 0.  0.
        4    1    3    3  502    0 -0.10856165103E+03  0.19679521071E+03  0.15217630808E+02  0.22527133910E+03  0.12699999809E+01 0.  1.
       -4    1    3    3    0  502  0.10856165103E+03 -0.19679521071E+03  0.26499632975E+03  0.34747468212E+03  0.12699999809E+01 0. -1.
</event>
<event>
 5   0  0.5038436E-02  0.4982595E+03  0.7818609E-02  0.1014234E+00
        1   -1    0    0  501    0  0.00000000000E+00  0.00000000000E+00  0.26180760571E+03  0.26180760576E+03  0.50400001928E-02 0.  1.
       -1   -1    0    0    0  501  0.00000000000E+00  0.00000000000E+00 -0.23706585824E+03  0.23706585829E+03  0.50400001928E-02 0. -1.
    10030    2    1    2    0    0  0.00000000000E+00  0.00000000000E+00  0.24741747478E+02  0.49887346405E+03  0.49825954990E+03 0.  0.
        1    1    3    3  502    0  0.15109314321E+02  0.10538205701E+03 -0.21314424308E+03  0.23825225645E+03  0.50400001928E-02 0. -1.
       -1    1    3    3    0  502 -0.15109314321E+02 -0.10538205701E+03  0.23788599056E+03  0.26062120760E+03  0.50400001928E-02 0.  1.
</event>
<event>
 5   0  0.5038436E-02  0.4945552E+03  0.7818609E-02  0.1015210E+00
        1   -1    0    0  501    0  0.00000000000E+00  0.00000000000E+00  0.14525425074E+03  0.14525425083E+03  0.50400001928E-02 0.  1.
       -1   -1    0    0    0  501  0.00000000000E+00  0.00000000000E+00 -0.42095995352E+03  0.42095995355E+03  0.50400001928E-02 0. -1.
    10030    2    1    2    0    0  0.00000000000E+00  0.00000000000E+00 -0.27570570278E+03  0.56621420438E+03  0.49455524534E+03 0.  0.
        1    1    3    3  502    0  0.16858056263E+03 -0.13458769970E+03 -0.27625255467E+03  0.35049783022E+03  0.50400001928E-02 0. -1.
       -1    1    3    3    0  502 -0.16858056263E+03  0.13458769970E+03  0.54685188165E+00  0.21571637416E+03  0.50400001928E-02 0.  1.
</event>
<event>
 5   0  0.7933103E-02  0.4994199E+03  0.7818609E-02  0.1013930E+00
       -2   -1    0    0    0  501  0.00000000000E+00  0.00000000000E+00  0.58091014927E+02  0.58091014983E+02  0.25500000920E-02 0. -1.
        2   -1    0    0  501    0  0.00000000000E+00  0.00000000000E+00 -0.10734030027E+04  0.10734030027E+04  0.25500000920E-02 0.  1.
    10030    2    1    2    0    0  0.00000000000E+00  0.00000000000E+00 -0.10153119877E+04  0.11314940176E+04  0.49941994307E+03 0.  0.
        5    1    3    3  502    0  0.15922430445E+02  0.11123171450E+02  0.56276506709E+02  0.59719209137E+02  0.46999998093E+01 0. -1.
       -5    1    3    3    0  502 -0.15922430445E+02 -0.11123171450E+02 -0.10715884944E+04  0.10717748085E+04  0.46999998093E+01 0.  1.
</event>
<event>
 5   0  0.3210875E-02  0.5019454E+03  0.7818609E-02  0.1013272E+00
        3   -1    0    0  501    0  0.00000000000E+00  0.00000000000E+00  0.83790306569E+03  0.83790307178E+03  0.10100000352E+00 0. -1.
       -3   -1    0    0    0  501  0.00000000000E+00  0.00000000000E+00 -0.75172496044E+02  0.75172563895E+02  0.10100000352E+00 0.  1.
    10030    2    1    2    0    0  0.00000000000E+00  0.00000000000E+00  0.76273056965E+03  0.91307563567E+03  0.50194540997E+03 0.  0.
        3    1    3    3  502    0  0.15646246658E+03  0.92800264676E+02  0.69588566334E+03  0.71926994877E+03  0.10100000352E+00 0. -1.
       -3    1    3    3    0  502 -0.15646246658E+03 -0.92800264676E+02  0.66844906312E+02  0.19380568690E+03  0.10100000352E+00 0.  1.
</event>
<event>
 5   0  0.7776070E-02  0.5000728E+03  0.7818609E-02  0.1013760E+00
        2   -1    0    0  501    0  0.00000000000E+00  0.00000000000E+00  0.82125897663E+03  0.82125897664E+03  0.25500000920E-02 0.  1.
       -2   -1    0    0    0  501  0.00000000000E+00  0.00000000000E+00 -0.76124826471E+02  0.76124826513E+02  0.25500000920E-02 0. -1.
    10030    2    1    2    0    0  0.00000000000E+00  0.00000000000E+00  0.74513415016E+03  0.89738380315E+03  0.50007278312E+03 0.  0.
        4    1    3    3  502    0  0.54133573889E+02  0.20114154950E+03  0.12437822981E+03  0.24261064219E+03  0.12699999809E+01 0. -1.
       -4    1    3    3    0  502 -0.54133573889E+02 -0.20114154950E+03  0.62075592035E+03  0.65477316096E+03  0.12699999809E+01 0.  1.
</event>
<event>
 5   0  0.4803890E-02  0.4984493E+03  0.7818609E-02  0.1014184E+00
        1   -1    0    0  501    0  0.00000000000E+00  0.00000000000E+00  0.55657019258E+03  0.55657019260E+03  0.50400001928E-02 0. -1.
       -1   -1    0    0    0  501  0.00000000000E+00  0.00000000000E+00 -0.11159944957E+03  0.11159944969E+03  0.50400001928E-02 0.  1.
    10030    2    1    2    0    0  0.00000000000E+00  0.00000000000E+00  0.44497074301E+03  0.66816964229E+03  0.49844930409E+03 0.  0.
        5    1    3    3  502    0  0.69530366455E+02  0.16756484469E+03  0.45146476180E+03  0.48657473236E+03  0.46999998093E+01 0. -1.
       -5    1    3    3    0  502 -0.69530366455E+02 -0.16756484469E+03 -0.64940187872E+01  0.18159490993E+03  0.46999998093E+01 0.  1.
</event>
<event>
 5   0  0.7776070E-02  0.4976298E+03  0.7818609E-02  0.1014399E+00
        2   -1    0    0  501    0  0.00000000000E+00  0.00000000000E+00  0.31350419244E+03  0.31350419245E+03  0.25500000920E-02 0.  1.
       -2   -1    0    0    0  501  0.00000000000E+00  0.00000000000E+00 -0.19747376895E+03  0.19747376897E+03  0.25500000920E-02 0. -1.
    10030    2    1    2    0    0  0.00000000000E+00  0.00000000000E+00  0.11603042348E+03  0.51097796142E+03  0.49762980004E+03 0.  0.
        4    1    3    3  502    0 -0.93105113498E+02 -0.17407584991E+03  0.21352483186E+03  0.29080135901E+03  0.12699999809E+01 0.  1.
       -4    1    3    3    0  502  0.93105113498E+02  0.17407584991E+03 -0.97494408379E+02  0.22017660241E+03  0.12699999809E+01 0. -1.
</event>
<event>
 5   0  0.4884478E-02  0.4995822E+03  0.7818609E-02  0.1013888E+00
       -1   -1    0    0    0  501  0.00000000000E+00  0.00000000000E+00  0.13035254214E+03  0.13035254224E+03  0.50400001928E-02 0.  1.
        1   -1    0    0  501    0  0.00000000000E+00  0.00000000000E+00 -0.47866803766E+03  0.47866803769E+03  0.50400001928E-02 0. -1.
    10030    2    1    2    0    0  0.00000000000E+00  0.00000000000E+00 -0.34831549552E+03  0.60902057993E+03  0.49958220781E+03 0.  0.
        3    1    3    3  502    0  0.12214485810E+03  0.19793680018E+03 -0.63114568312E+02  0.24100166423E+03  0.10100000352E+00 0. -1.
       -3    1    3    3    0  502 -0.12214485810E+03 -0.19793680018E+03 -0.28520092721E+03  0.36801891570E+03  0.10100000352E+00 0.  1.
</event>
<event>
 5   0  0.7698747E-02  0.4987127E+03  0.7818609E-02  0.1014115E+00
        2   -1    0    0  501    0  0.00000000000E+00  0.00000000000E+00  0.73224335648E+03  0.73224335649E+03  0.25500000920E-02 0. -1.
       -2   -1    0    0    0  501  0.00000000000E+00  0.00000000000E+00 -0.84915185689E+02  0.84915185728E+02  0.25500000920E-02 0.  1.
    10030    2    1    2    0    0  0.00000000000E+00  0.00000000000E+00  0.64732817079E+03  0.81715854222E+03  0.49871266518E+03 0.  0.
        2    1    3    3  502    0 -0.62446093767E+02 -0.23465097474E+03  0.23071438290E+03  0.33494734072E+03  0.25500000920E-02 0. -1.
       -2    1    3    3    0  502  0.62446093767E+02  0.23465097474E+03  0.41661378790E+03  0.48221120149E+03  0.25500000920E-02 0.  1.
</event>
<event>
 5   0  0.7881060E-02  0.4989721E+03  0.7818609E-02  0.1014048E+00
       -2   -1    0    0    0  501  0.00000000000E+00  0.00000000000E+00  0.88941828989E+02  0.88941829025E+02  0.25500000920E-02 0. -1.
        2   -1    0    0  501    0  0.00000000000E+00  0.00000000000E+00 -0.69982025083E+03  0.69982025083E+03  0.25500000920E-02 0.  1.
    10030    2    1    2    0    0  0.00000000000E+00  0.00000000000E+00 -0.61087842184E+03  0.78876207986E+03  0.49897211581E+03 0.  0.
        1    1    3    3  502    0 -0.26651500615E+02  0.46306279860E+02  0.79792230736E+02  0.96027986289E+02  0.50400001928E-02 0. -1.
       -1    1    3    3    0  502  0.26651500615E+02 -0.46306279860E+02 -0.69067065258E+03  0.69273409357E+03  0.50400001928E-02 0.  1.
</event>
<event>
 5   0  0.3210875E-02  0.5006601E+03  0.7818609E-02  0.1013607E+00
        3   -1    0    0  501    0  0.00000000000E+00  0.00000000000E+00  0.23398325645E+03  0.23398327825E+03  0.10100000352E+00 0.  1.
       -3   -1    0    0    0  501  0.00000000000E+00  0.00000000000E+00 -0.26781879571E+03  0.26781881476E+03  0.10100000352E+00 0. -1.
    10030    2    1    2    0    0  0.00000000000E+00  0.00000000000E+00 -0.33835539261E+02  0.50180209301E+03  0.50066006115E+03 0.  0.
        3    1    3    3  502    0  0.10296262706E+03  0.22634080025E+03 -0.45856690318E+02  0.25285234165E+03  0.10100000352E+00 0. -1.
       -3    1    3    3    0  502 -0.10296262706E+03 -0.22634080025E+03  0.12021151057E+02  0.24894975136E+03  0.10100000352E+00 0.  1.
</event>
<event>
 5   0  0.4865501E-02  0.4954911E+03  0.7818609E-02  0.1014963E+00
        1   -1    0    0  501    0  0.00000000000E+00  0.00000000000E+00  0.63289544642E+03  0.63289544644E+03  0.50400001928E-02 0. -1.
       -1   -1    0    0    0  501  0.00000000000E+00  0.00000000000E+00 -0.96979452873E+02  0.96979453004E+02  0.50400001928E-02 0.  1.
    10030    2    1    2    0    0  0.00000000000E+00  0.00000000000E+00  0.53591599355E+03  0.72987489945E+03  0.49549108640E+03 0.  0.
        2    1    3    3  502    0  0.69879284319E+02 -0.88469247920E+02 -0.57005087752E+02  0.12633092353E+03  0.25500000920E-02 0.  1.
       -2    1    3    3    0  502 -0.69879284319E+02  0.88469247920E+02  0.59292108130E+03  0.60354397592E+03  0.25500000920E-02 0. -1.
</event>
<event>
 5   0  0.7881060E-02  0.5003609E+03  0.7818609E-02  0.1013685E+00
        2   -1    0    0  501    0  0.00000000000E+00  0.00000000000E+00  0.38900612056E+03  0.38900612057E+03  0.25500000920E-02 0. -1.
       -2   -1    0    0    0  501  0.00000000000E+00  0.00000000000E+00 -0.16089784420E+03  0.16089784422E+03  0.25500000920E-02 0.  1.
    10030    2    1    2    0    0  0.00000000000E+00  0.00000000000E+00  0.22810827636E+03  0.54990396479E+03  0.50036085453E+03 0.  0.
        1    1    3    3  502    0  0.16158042042E+03 -0.48460814965E+02 -0.88991815579E+02  0.19072552560E+03  0.50400001928E-02 0.  1.
       -1    1    3    3    0  502 -0.16158042042E+03  0.48460814965E+02  0.31710009194E+03  0.35917843919E+03  0.50400001928E-02 0. -1.
</event>
<event>
 5   0  0.3210875E-02  0.5127255E+03  0.7818609E-02  0.1010510E+00
       -4   -1    0    0    0  501  0.00000000000E+00  0.00000000000E+00  0.12719542028E+03  0.12720176037E+03  0.12699999809E+01 0.  1.
        4   -1    0    0  501    0  0.00000000000E+00  0.00000000000E+00 -0.51667981530E+03  0.51668137613E+03  0.12699999809E+01 0. -1.
    10030    2    1    2    0    0  0.00000000000E+00  0.00000000000E+00 -0.38948439502E+03  0.64388313650E+03  0.51272546212E+03 0.  0.
        4    1    3    3  502    0  0.18639902950E+03 -0.13262857456E+03 -0.49452031426E+02  0.23405566282E+03  0.12699999809E+01 0.  1.
       -4    1    3    3    0  502 -0.18639902950E+03  0.13262857456E+03 -0.34003236359E+03  0.40982747367E+03  0.12699999809E+01 0. -1.
</event>
<event>
 5   0  0.7776070E-02  0.4935746E+03  0.7818609E-02  0.1015470E+00
       -2   -1    0    0    0  501  0.00000000000E+00  0.00000000000E+00  0.46212163052E+02  0.46212163122E+02  0.25500000920E-02 0.  1.
        2   -1    0    0  501    0  0.00000000000E+00  0.00000000000E+00 -0.13179205480E+04  0.13179205480E+04  0.25500000920E-02 0. -1.
    10030    2    1    2    0    0  0.00000000000E+00  0.00000000000E+00 -0.12717083850E+04  0.13641327111E+04  0.49357455082E+03 0.  0.
        4    1    3    3  502    0  0.26930649678E+02 -0.17872364617E+03 -0.11002596725E+04  0.11150068885E+04  0.12699999809E+01 0. -1.
       -4    1    3    3    0  502 -0.26930649678E+02  0.17872364617E+03 -0.17144871243E+03  0.24912582260E+03  0.12699999809E+01 0.  1.
</event>
<event>
 5   0  0.8208720E-02  0.4987617E+03  0.7818609E-02  0.1014103E+00
       -2   -1    0    0    0  501  0.00000000000E+00  0.00000000000E+00  0.11184779988E+03  0.11184779991E+03  0.25500000920E-02 0.  1.
        2   -1    0    0  501    0  0.00000000000E+00  0.00000000000E+00 -0.55603073383E+03  0.55603073384E+03  0.25500000920E-02 0. -1.
    10030    2    1    2    0    0  0.00000000000E+00  0.00000000000E+00 -0.44418293396E+03  0.66787853374E+03  0.49876172369E+03 0.  0.
        3    1    3    3  502    0  0.91505851701E+02  0.21999539789E+03 -0.32067044271E+03  0.39950073719E+03  0.10100000352E+00 0. -1.
       -3    1    3    3    0  502 -0.91505851701E+02 -0.21999539789E+03 -0.12351249125E+03  0.26837779656E+03  0.10100000352E+00 0.  1.
</event>
<event>
 5   0  0.4865501E-02  0.5050866E+03  0.7818609E-02  0.1012460E+00
        1   -1    0    0  501    0  0.00000000000E+00  0.00000000000E+00  0.61431654733E+02  0.61431654939E+02  0.50400001928E-02 0.  1.
       -1   -1    0    0    0  501  0.00000000000E+00  0.00000000000E+00 -0.10381963343E+04  0.10381963343E+04  0.50400001928E-02 0. -1.
    10030    2    1    2    0    0  0.00000000000E+00  0.00000000000E+00 -0.97676467954E+03  0.10996279892E+04  0.50508660197E+03 0.  0.
        2    1    3    3  502    0 -0.11729295561E+02  0.16169163519E+03 -0.66807699327E+02  0.17534260737E+03  0.25500000920E-02 0.  1.
       -2    1    3    3    0  502  0.11729295561E+02 -0.16169163519E+03 -0.90995698022E+03  0.92428538186E+03  0.25500000920E-02 0. -1.
</event>
<event>
 5   0  0.5191358E-02  0.4986878E+03  0.7818609E-02  0.1014122E+00
       -1   -1    0    0    0  501  0.00000000000E+00  0.00000000000E+00  0.18879312590E+03  0.18879312597E+03  0.50400001928E-02 0.  1.
        1   -1    0    0  501    0  0.00000000000E+00  0.00000000000E+00 -0.32931479167E+03  0.32931479171E+03  0.50400001928E-02 0. -1.
    10030    2    1    2    0    0  0.00000000000E+00  0.00000000000E+00 -0.14052166577E+03  0.51810791768E+03  0.49868775382E+03 0.  0.
        4    1    3    3  502    0  0.21272135612E+01 -0.23245428565E+03 -0.16394577903E+03  0.28446326883E+03  0.12699999809E+01 0. -1.
       -4    1    3    3    0  502 -0.21272135612E+01  0.23245428565E+03  0.23424113257E+02  0.23364464885E+03  0.12699999809E+01 0.  1.
</event>
<event>
 5   0  0.4884478E-02  0.4996128E+03  0.7818609E-02  0.1013880E+00
        1   -1    0    0  501    0  0.00000000000E+00  0.00000000000E+00  0.51176603584E+03  0.51176603587E+03  0.50400001928E-02 0. -1.
       -1   -1    0    0    0  501  0.00000000000E+00  0.00000000000E+00 -0.12193704895E+03  0.12193704905E+03  0.50400001928E-02 0.  1.
    10030    2    1    2    0    0  0.00000000000E+00  0.00000000000E+00  0.38982898689E+03  0.63370308492E+03  0.49961281090E+03 0.  0.
        3    1    3    3  502    0  0.11962199079E+03  0.64419581806E+02 -0.70975312306E+02  0.15328668682E+03  0.10100000352E+00 0.  1.
       -3    1    3    3    0  502 -0.11962199079E+03 -0.64419581806E+02  0.46080429920E+03  0.48041639810E+03  0.10100000352E+00 0. -1.
</event>
<event>
 5   0  0.4884478E-02  0.4965715E+03  0.7818609E-02  0.1014678E+00
        1   -1    0    0  501    0  0.00000000000E+00  0.00000000000E+00  0.80560170919E+03  0.80560170921E+03  0.50400001928E-02 0. -1.
       -1   -1    0    0    0  501  0.00000000000E+00  0.00000000000E+00 -0.76521465473E+02  0.76521465639E+02  0.50400001928E-02 0.  1.
    10030    2    1    2    0    0  0.00000000000E+00  0.00000000000E+00  0.72908024372E+03  0.88212317485E+03  0.49657153948E+03 0.  0.
        3    1    3    3  502    0 -0.24774295964E+03  0.30115677505E+00  0.39368373505E+03  0.46514896345E+03  0.10100000352E+00 0.  1.
       -3    1    3    3    0  502  0.24774295964E+03 -0.30115677505E+00  0.33539650867E+03  0.41697421140E+03  0.10100000352E+00 0. -1.
</event>
<event>
 5   0  0.7881060E-02  0.5023006E+03  0.7818609E-02  0.1013180E+00
       -2   -1    0    0    0  501  0.00000000000E+00  0.00000000000E+00  0.26501296750E+03  0.26501296751E+03  0.25500000920E-02 0.  1.
        2   -1    0    0  501    0  0.00000000000E+00  0.00000000000E+00 -0.23801281074E+03  0.23801281075E+03  0.25500000920E-02 0. -1.
    10030    2    1    2    0    0  0.00000000000E+00  0.00000000000E+00  0.27000156762E+02  0.50302577827E+03  0.50230063223E+03 0.  0.
        1    1    3    3  502    0 -0.89785794163E+02 -0.50558228926E+02  0.24286971815E+03  0.26382441768E+03  0.50400001928E-02 0.  1.
       -1    1    3    3    0  502  0.89785794163E+02  0.50558228926E+02 -0.21586956139E+03  0.23920136059E+03  0.50400001928E-02 0. -1.
</event>
<event>
 5   0  0.7933103E-02  0.5009259E+03  0.7818609E-02  0.1013538E+00
        2   -1    0    0  501    0  0.00000000000E+00  0.00000000000E+00  0.53801794745E+03  0.53801794746E+03  0.25500000920E-02 0. -1.
       -2   -1    0    0    0  501  0.00000000000E+00  0.00000000000E+00 -0.11659777897E+03  0.11659777900E+03  0.25500000920E-02 0.  1.
    10030    2    1    2    0    0  0.00000000000E+00  0.00000000000E+00  0.42142016849E+03  0.65461572646E+03  0.50092593356E+03 0.  0.
        5    1    3    3  502    0 -0.17085628389E+03  0.42840880445E+02  0.44331663097E+03  0.47705234102E+03  0.46999998093E+01 0. -1.
       -5    1    3    3    0  502  0.17085628389E+03 -0.42840880445E+02 -0.21896462481E+02  0.17756338544E+03  0.46999998093E+01 0.  1.
</event>
<event>
 5   0  0.7698747E-02  0.5015205E+03  0.7818609E-02  0.1013383E+00
        2   -1    0    0  501    0  0.00000000000E+00  0.00000000000E+00  0.53392125496E+03  0.53392125496E+03  0.25500000920E-02 0.  1.
       -2   -1    0    0    0  501  0.00000000000E+00  0.00000000000E+00 -0.11777149111E+03  0.11777149114E+03  0.25500000920E-02 0. -1.
    10030    2    1    2    0    0  0.00000000000E+00  0.00000000000E+00  0.41614976385E+03  0.65169274610E+03  0.50152049746E+03 0.  0.
        2    1    3    3  502    0 -0.13281103272E+03  0.76302719423E+02 -0.49920276473E+02  0.16109906708E+03  0.25500000920E-02 0. -1.
       -2    1    3    3    0  502  0.13281103272E+03 -0.76302719423E+02  0.46607004032E+03  0.49059367902E+03  0.25500000920E-02 0.  1.
</event>
<event>
 5   0  0.5038436E-02  0.5040214E+03  0.7818609E-02  0.1012735E+00
        1   -1    0    0  501    0  0.00000000000E+00  0.00000000000E+00  0.20913135552E+03  0.20913135558E+03  0.50400001928E-02 0.  1.
       -1   -1    0    0    0  501  0.00000000000E+00  0.00000000000E+00 -0.30368184937E+03  0.30368184941E+03  0.50400001928E-02 0. -1.
    10030    2    1    2    0    0  0.00000000000E+00  0.00000000000E+00 -0.94550493850E+02  0.51281320499E+03  0.50402141554E+03 0.  0.
        1    1    3    3  502    0 -0.20697188446E+03  0.14169566874E+03 -0.72080282790E+02  0.26098005803E+03  0.50400001928E-02 0.  1.
       -1    1    3    3    0  502  0.20697188446E+03 -0.14169566874E+03 -0.22470211060E+02  0.25183314696E+03  0.50400001928E-02 0. -1.
</event>
<event>
 5   0  0.7698747E-02  0.4893386E+03  0.7818609E-02  0.1016600E+00
        2   -1    0    0  501    0  0.00000000000E+00  0.00000000000E+00  0.20416432599E+03  0.20416432601E+03  0.25500000920E-02 0.  1.
       -2   -1    0    0    0  501  0.00000000000E+00  0.00000000000E+00 -0.29321019011E+03  0.29321019012E+03  0.25500000920E-02 0. -1.
    10030    2    1    2    0    0  0.00000000000E+00  0.00000000000E+00 -0.89045864114E+02  0.49737451613E+03  0.48933857745E+03 0.  0.
        2    1    3    3  502    0  0.18362669092E+03 -0.20341358175E+02 -0.20756453136E+03  0.27787689208E+03  0.25500000920E-02 0. -1.
       -2    1    3    3    0  502 -0.18362669092E+03  0.20341358175E+02  0.11851866724E+03  0.21949762405E+03  0.25500000920E-02 0.  1.
</event>
<event>
 5   0  0.5038436E-02  0.4994742E+03  0.7818609E-02  0.1013916E+00
        1   -1    0    0  501    0  0.00000000000E+00  0.00000000000E+00  0.64162377286E+03  0.64162377288E+03  0.50400001928E-02 0.  1.
       -1   -1    0    0    0  501  0.00000000000E+00  0.00000000000E+00 -0.97204363536E+02  0.97204363666E+02  0.50400001928E-02 0. -1.
    10030    2    1    2    0    0  0.00000000000E+00  0.00000000000E+00  0.54441940932E+03  0.73882813655E+03  0.49947424569E+03 0.  0.
        1    1    3    3  502    0 -0.18955117249E+03  0.16230502124E+03  0.28670775901E+03  0.38009723232E+03  0.50400001928E-02 0. -1.
       -1    1    3    3    0  502  0.18955117249E+03 -0.16230502124E+03  0.25771165031E+03  0.35873090423E+03  0.50400001928E-02 0.  1.
</event>
<event>
 5   0  0.4803890E-02  0.5106617E+03  0.7818609E-02  0.1011033E+00
       -1   -1    0    0    0  501  0.00000000000E+00  0.00000000000E+00  0.15262795372E+03  0.15262795380E+03  0.50400001928E-02 0. -1.
        1   -1    0    0  501    0  0.00000000000E+00  0.00000000000E+00 -0.42714222167E+03  0.42714222170E+03  0.50400001928E-02 0.  1.
    10030    2    1    2    0    0  0.00000000000E+00  0.00000000000E+00 -0.27451426795E+03  0.57977017550E+03  0.51066170121E+03 0.  0.
        5    1    3    3  502    0 -0.34709545013E+02  0.90233069915E+01 -0.42421888008E+03  0.42575805430E+03  0.46999998093E+01 0.  1.
       -5    1    3    3    0  502  0.34709545013E+02 -0.90233069915E+01  0.14970461213E+03  0.15401212120E+03  0.46999998093E+01 0. -1.
</event>
<event>
 5   0  0.7776070E-02  0.4984661E+03  0.7818609E-02  0.1014180E+00
       -2   -1    0    0    0  501  0.00000000000E+00  0.00000000000E+00  0.27214094929E+03  0.27214094930E+03  0.25500000920E-02 0.  1.
        2   -1    0    0  501    0  0.00000000000E+00  0.00000000000E+00 -0.22825348994E+03  0.22825348995E+03  0.25500000920E-02 0. -1.
    10030    2    1    2    0    0  0.00000000000E+00  0.00000000000E+00  0.43887459348E+02  0.50039443925E+03  0.49846613300E+03 0.  0.
        4    1    3    3  502    0 -0.14981208077E+03 -0.19775037791E+03  0.45839954356E+02  0.25229305544E+03  0.12699999809E+01 0.  1.
       -4    1    3    3    0  502  0.14981208077E+03  0.19775037791E+03 -0.19524950077E+01  0.24810138381E+03  0.12699999809E+01 0. -1.
</event>
<event>
 5   0  0.5038436E-02  0.4994318E+03  0.7818609E-02  0.1013927E+00
        1   -1    0    0  501    0  0.00000000000E+00  0.00000000000E+00  0.41754038751E+03  0.41754038754E+03  0.50400001928E-02 0.  1.
       -1   -1    0    0    0  501  0.00000000000E+00  0.00000000000E+00 -0.14934611693E+03  0.14934611701E+03  0.50400001928E-02 0. -1.
    10030    2    1    2    0    0  0.00000000000E+00  0.00000000000E+00  0.26819427058E+03  0.56688650455E+03  0.49943181944E+03 0.  0.
        1    1    3    3  502    0  0.86724976635E+02 -0.54949118339E+02  0.39247645703E+03  0.40568263030E+03  0.50400001928E-02 0.  1.
       -1    1    3    3    0  502 -0.86724976635E+02  0.54949118339E+02 -0.12428218645E+03  0.16120387425E+03  0.50400001928E-02 0. -1.
</event>
<event>
 5   0  0.4803890E-02  0.4974602E+03  0.7818609E-02  0.1014444E+00
        1   -1    0    0  501    0  0.00000000000E+00  0.00000000000E+00  0.41995334576E+03  0.41995334579E+03  0.50400001928E-02 0.  1.
       -1   -1    0    0    0  501  0.00000000000E+00  0.00000000000E+00 -0.14731793152E+03  0.14731793161E+03  0.50400001928E-02 0. -1.
    10030    2    1    2    0    0  0.00000000000E+00  0.00000000000E+00  0.27263541424E+03  0.56727127740E+03  0.49746018239E+03 0.  0.
        5    1    3    3  502    0  0.18493964903E+02  0.22142542126E+03  0.26367492918E+03  0.34484460587E+03  0.46999998093E+01 0. -1.
       -5    1    3    3    0  502 -0.18493964903E+02 -0.22142542126E+03  0.89604850535E+01  0.22242667153E+03  0.46999998093E+01 0.  1.
</event>
<event>
 5   0  0.5038436E-02  0.4989070E+03  0.7818609E-02  0.1014065E+00
       -1   -1    0    0    0  501  0.00000000000E+00  0.00000000000E+00  0.21379537562E+03  0.21379537568E+03  0.50400001928E-02 0. -1.
        1   -1    0    0  501    0  0.00000000000E+00  0.00000000000E+00 -0.29105888076E+03  0.29105888081E+03  0.50400001928E-02 0.  1.
    10030    2    1    2    0    0  0.00000000000E+00  0.00000000000E+00 -0.77263505142E+02  0.50485425649E+03  0.49890697637E+03 0.  0.
        1    1    3    3  502    0 -0.57359441076E+02 -0.16837017485E+03  0.13834856833E+03  0.22534184619E+03  0.50400001928E-02 0. -1.
       -1    1    3    3    0  502  0.57359441076E+02  0.16837017485E+03 -0.21561207347E+03  0.27951241030E+03  0.50400001928E-02 0.  1.
</event>
<event>
 5   0  0.4865501E-02  0.4986359E+03  0.7818609E-02  0.1014136E+00
        1   -1    0    0  501    0  0.00000000000E+00  0.00000000000E+00  0.37964070991E+03  0.37964070995E+03  0.50400001928E-02 0.  1.
       -1   -1    0    0    0  501  0.00000000000E+00  0.00000000000E+00 -0.16373230845E+03  0.16373230853E+03  0.50400001928E-02 0. -1.
    10030    2    1    2    0    0  0.00000000000E+00  0.00000000000E+00  0.21590840146E+03  0.54337301847E+03  0.49863593872E+03 0.  0.
        2    1    3    3  502    0 -0.15316590159E+03  0.17076950995E+03  0.21437590144E+03  0.31397300212E+03  0.25500000920E-02 0.  1.
       -2    1    3    3    0  502  0.15316590159E+03 -0.17076950995E+03  0.15325000246E+01  0.22940001635E+03  0.25500000920E-02 0. -1.
</event>
<event>
 5   0  0.4865501E-02  0.4968108E+03  0.7818609E-02  0.1014615E+00
       -1   -1    0    0    0  501  0.00000000000E+00  0.00000000000E+00  0.65417956831E+02  0.65417957026E+02  0.50400001928E-02 0. -1.
        1   -1    0    0  501    0  0.00000000000E+00  0.00000000000E+00 -0.94324634045E+03  0.94324634047E+03  0.50400001928E-02 0.  1.
    10030    2    1    2    0    0  0.00000000000E+00  0.00000000000E+00 -0.87782838362E+03  0.10086642975E+04  0.49681082309E+03 0.  0.
        2    1    3    3  502    0 -0.28238543426E+02 -0.70375368762E+01 -0.93977324824E+03  0.94022375016E+03  0.25500000920E-02 0.  1.
       -2    1    3    3    0  502  0.28238543426E+02  0.70375368762E+01  0.61944864616E+02  0.68440547330E+02  0.25500000920E-02 0. -1.
</event>
<event>
 5   0  0.3210875E-02  0.5197148E+03  0.7818609E-02  0.1008757E+00
       -3   -1    0    0    0  501  0.00000000000E+00  0.00000000000E+00  0.32792698794E+03  0.32792700349E+03  0.10100000352E+00 0. -1.
        3   -1    0    0  501    0  0.00000000000E+00  0.00000000000E+00 -0.20591736078E+03  0.20591738555E+03  0.10100000352E+00 0.  1.
    10030    2    1    2    0    0  0.00000000000E+00  0.00000000000E+00  0.12200962716E+03  0.53384438904E+03  0.51971480890E+03 0.  0.
        3    1    3    3  502    0 -0.90449821019E+02 -0.87682276574E+02 -0.17245498992E+03  0.21356517857E+03  0.10100000352E+00 0.  1.
       -3    1    3    3    0  502  0.90449821019E+02  0.87682276574E+02  0.29446461708E+03  0.32027921047E+03  0.10100000352E+00 0. -1.
</event>
<event>
 5   0  0.3210875E-02  0.5070820E+03  0.7818609E-02  0.1011947E+00
       -3   -1    0    0    0  501  0.00000000000E+00  0.00000000000E+00  0.56704637423E+02  0.56704727372E+02  0.10100000352E+00 0. -1.
        3   -1    0    0  501    0  0.00000000000E+00  0.00000000000E+00 -0.11336458982E+04  0.11336459027E+04  0.10100000352E+00 0.  1.
    10030    2    1    2    0    0  0.00000000000E+00  0.00000000000E+00 -0.10769412608E+04  0.11903506300E+04  0.50708198878E+03 0.  0.
        5    1    3    3  502    0  0.16841740731E+03 -0.17764338541E+03 -0.38383517412E+03  0.45527258468E+03  0.46999998093E+01 0. -1.
       -5    1    3    3    0  502 -0.16841740731E+03  0.17764338541E+03 -0.69310608663E+03  0.73507804537E+03  0.46999998093E+01 0.  1.
</event>
<event>
 5   0  0.4803890E-02  0.5059272E+03  0.7818609E-02  0.1012243E+00
       -1   -1    0    0    0  501  0.00000000000E+00  0.00000000000E+00  0.16763714457E+03  0.16763714465E+03  0.50400001928E-02 0.  1.
        1   -1    0    0  501    0  0.00000000000E+00  0.00000000000E+00 -0.38172076833E+03  0.38172076836E+03  0.50400001928E-02 0. -1.
    10030    2    1    2    0    0  0.00000000000E+00  0.00000000000E+00 -0.21408362375E+03  0.54935791301E+03  0.50592718708E+03 0.  0.
        5    1    3    3  502    0  0.12938022017E+03 -0.18662450193E+03 -0.22795891333E+03  0.32180009673E+03  0.46999998093E+01 0.  1.
       -5    1    3    3    0  502 -0.12938022017E+03  0.18662450193E+03  0.13875289576E+02  0.22755781628E+03  0.46999998093E+01 0. -1.
</event>
<event>
 5   0  0.7881060E-02  0.5000144E+03  0.7818609E-02  0.1013775E+00
       -2   -1    0    0    0  501  0.00000000000E+00  0.00000000000E+00  0.94423910334E+02  0.94423910368E+02  0.25500000920E-02 0.  1.
        2   -1    0    0  501    0  0.00000000000E+00  0.00000000000E+00 -0.66194687277E+03  0.66194687277E+03  0.25500000920E-02 0. -1.
    10030    2    1    2    0    0  0.00000000000E+00  0.00000000000E+00 -0.56752296244E+03  0.75637078314E+03  0.50001444849E+03 0.  0.
        1    1    3    3  502    0 -0.11692744915E+02  0.90842225049E+02 -0.63565344175E+03  0.64221828701E+03  0.50400001928E-02 0. -1.
       -1    1    3    3    0  502  0.11692744915E+02 -0.90842225049E+02  0.68130479317E+02  0.11415249613E+03  0.50400001928E-02 0.  1.
</event>
<event>
 5   0  0.4865501E-02  0.4967873E+03  0.7818609E-02  0.1014621E+00
       -1   -1    0    0    0  501  0.00000000000E+00  0.00000000000E+00  0.28253304758E+03  0.28253304762E+03  0.50400001928E-02 0. -1.
        1   -1    0    0  501    0  0.00000000000E+00  0.00000000000E+00 -0.21837940616E+03  0.21837940622E+03  0.50400001928E-02 0.  1.
    10030    2    1    2    0    0  0.00000000000E+00  0.00000000000E+00  0.64153641415E+02  0.50091245385E+03  0.49678727511E+03 0.  0.
        2    1    3    3  502    0  0.38247207948E+02  0.17076070564E+03  0.20982830159E+03  0.27322149195E+03  0.25500000920E-02 0. -1.
       -2    1    3    3    0  502 -0.38247207948E+02 -0.17076070564E+03 -0.14567466018E+03  0.22769096190E+03  0.25500000920E-02 0.  1.
</event>
<event>
 5   0  0.8208720E-02  0.5047956E+03  0.7818609E-02  0.1012535E+00
       -2   -1    0    0    0  501  0.00000000000E+00  0.00000000000E+00  0.62551026867E+02  0.62551026918E+02  0.25500000920E-02 0. -1.
        2   -1    0    0  501    0  0.00000000000E+00  0.00000000000E+00 -0.10184427880E+04  0.10184427880E+04  0.25500000920E-02 0.  1.
    10030    2    1    2    0    0  0.00000000000E+00  0.00000000000E+00 -0.95589176114E+03  0.10809938149E+04  0.50479557139E+03 0.  0.
        3    1    3    3  502    0 -0.21296254768E+03  0.10020242928E+03 -0.67317106506E+03  0.71312892704E+03  0.10100000352E+00 0.  1.
       -3    1    3    3    0  502  0.21296254768E+03 -0.10020242928E+03 -0.28272069608E+03  0.36786488789E+03  0.10100000352E+00 0. -1.
</event>
<event>
 5   0  0.5191358E-02  0.5014727E+03  0.7818609E-02  0.1013395E+00
        1   -1    0    0  501    0  0.00000000000E+00  0.00000000000E+00  0.21179153623E+03  0.21179153629E+03  0.50400001928E-02 0.  1.
       -1   -1    0    0    0  501  0.00000000000E+00  0.00000000000E+00 -0.29684244099E+03  0.29684244103E+03  0.50400001928E-02 0. -1.
    10030    2    1    2    0    0  0.00000000000E+00  0.00000000000E+00 -0.85050904764E+02  0.50863397732E+03  0.50147269765E+03 0.  0.
        4    1    3    3  502    0 -0.76689982124E+02 -0.15125517637E+03  0.14479439513E+03  0.22299442033E+03  0.12699999809E+01 0.  1.
       -4    1    3    3    0  502  0.76689982124E+02  0.15125517637E+03 -0.22984529989E+03  0.28563955699E+03  0.12699999809E+01 0. -1.
</event>
<event>
 5   0  0.7881060E-02  0.4881257E+03  0.7818609E-02  0.1016926E+00
        2   -1    0    0  501    0  0.00000000000E+00  0.00000000000E+00  0.95577886703E+02  0.95577886737E+02  0.25500000920E-02 0. -1.
       -2   -1    0    0    0  501  0.00000000000E+00  0.00000000000E+00 -0.62322654267E+03  0.62322654267E+03  0.25500000920E-02 0.  1.
    10030    2    1    2    0    0  0.00000000000E+00  0.00000000000E+00 -0.52764865596E+03  0.71880442941E+03  0.48812570471E+03 0.  0.
        1    1    3    3  502    0 -0.83341013662E+01  0.19543915831E+03 -0.47874419102E+03  0.51716720923E+03  0.50400001928E-02 0.  1.
       -1    1    3    3    0  502  0.83341013662E+01 -0.19543915831E+03 -0.48904464947E+02  0.20163722018E+03  0.50400001928E-02 0. -1.
</event>
<event>
 5   0  0.5038436E-02  0.5006833E+03  0.7818609E-02  0.1013601E+00
        1   -1    0    0  501    0  0.00000000000E+00  0.00000000000E+00  0.69135848899E+02  0.69135849082E+02  0.50400001928E-02 0. -1.
       -1   -1    0    0    0  501  0.00000000000E+00  0.00000000000E+00 -0.90648980262E+03  0.90648980263E+03  0.50400001928E-02 0.  1.
    10030    2    1    2    0    0  0.00000000000E+00  0.00000000000E+00 -0.83735395372E+03  0.97562565172E+03  0.50068330157E+03 0.  0.
        1    1    3    3  502    0 -0.16475186550E+03 -0.16202870211E+03 -0.60633387225E+03  0.64887382607E+03  0.50400001928E-02 0. -1.
       -1    1    3    3    0  502  0.16475186550E+03  0.16202870211E+03 -0.23102008147E+03  0.32675182565E+03  0.50400001928E-02 0.  1.
</event>
<event>
 5   0  0.7776070E-02  0.4934930E+03  0.7818609E-02  0.1015491E+00
        2   -1    0    0  501    0  0.00000000000E+00  0.00000000000E+00  0.15813174964E+04  0.15813174964E+04  0.25500000920E-02 0. -1.
       -2   -1    0    0    0  501  0.00000000000E+00  0.00000000000E+00 -0.38501974184E+02  0.38501974268E+02  0.25500000920E-02 0.  1.
    10030    2    1    2    0    0  0.00000000000E+00  0.00000000000E+00  0.15428155222E+04  0.16198194707E+04  0.49349304146E+03 0.  0.
        4    1    3    3  502    0  0.84984345548E+02  0.85186194258E+02  0.14784731434E+04  0.14833622199E+04  0.12699999809E+01 0. -1.
       -4    1    3    3    0  502 -0.84984345548E+02 -0.85186194258E+02  0.64342378789E+02  0.13645725077E+03  0.12699999809E+01 0.  1.
</event>
<event>
 5   0  0.3210875E-02  0.5105478E+03  0.7818609E-02  0.1011062E+00
       -3   -1    0    0    0  501  0.00000000000E+00  0.00000000000E+00  0.16962573615E+03  0.16962576622E+03  0.10100000352E+00 0.  1.
        3   -1    0    0  501    0  0.00000000000E+00  0.00000000000E+00 -0.38416783895E+03  0.38416785223E+03  0.10100000352E+00 0. -1.
    10030    2    1    2    0    0  0.00000000000E+00  0.00000000000E+00 -0.21454210280E+03  0.55379361845E+03  0.51054780184E+03 0.  0.
        2    1    3    3  502    0  0.90139270420E+02 -0.20986007992E+03  0.16396816582E+02  0.22898732894E+03  0.25500000920E-02 0.  1.
       -2    1    3    3    0  502 -0.90139270420E+02  0.20986007992E+03 -0.23093891938E+03  0.32480628951E+03  0.25500000920E-02 0. -1.
</event>
<event>
 5   0  0.7698747E-02  0.4747871E+03  0.7818609E-02  0.1020578E+00
       -2   -1    0    0    0  501  0.00000000000E+00  0.00000000000E+00  0.59539523067E+02  0.59539523122E+02  0.25500000920E-02 0. -1.
        2   -1    0    0  501    0  0.00000000000E+00  0.00000000000E+00 -0.94652596868E+03  0.94652596868E+03  0.25500000920E-02 0.  1.
    10030    2    1    2    0    0  0.00000000000E+00  0.00000000000E+00 -0.88698644561E+03  0.10060654918E+04  0.47478713030E+03 0.  0.
        2    1    3    3  502    0 -0.22019100402E+01 -0.46645050291E+02  0.49711421940E+02  0.68204359115E+02  0.25500000920E-02 0. -1.
       -2    1    3    3    0  502  0.22019100402E+01  0.46645050291E+02 -0.93669786755E+03  0.93786113269E+03  0.25500000920E-02 0.  1.
</event>
<event>
 5   0  0.7933103E-02  0.4966733E+03  0.7818609E-02  0.1014651E+00
       -2   -1    0    0    0  501  0.00000000000E+00  0.00000000000E+00  0.54265971919E+02  0.54265971979E+02  0.25500000920E-02 0. -1.
        2   -1    0    0  501    0  0.00000000000E+00  0.00000000000E+00 -0.11364598490E+04  0.11364598490E+04  0.25500000920E-02 0.  1.
    10030    2    1    2    0    0  0.00000000000E+00  0.00000000000E+00 -0.10821938771E+04  0.11907258210E+04  0.49667332641E+03 0.  0.
        5    1    3    3  502    0  0.22022524278E+03 -0.11245149640E+03 -0.59494580343E+03  0.64430357411E+03  0.46999998093E+01 0.  1.
       -5    1    3    3    0  502 -0.22022524278E+03  0.11245149640E+03 -0.48724807368E+03  0.54642224689E+03  0.46999998093E+01 0. -1.
</event>
<event>
 5   0  0.7698747E-02  0.5026111E+03  0.7818609E-02  0.1013100E+00
       -2   -1    0    0    0  501  0.00000000000E+00  0.00000000000E+00  0.11711740977E+03  0.11711740980E+03  0.25500000920E-02 0. -1.
        2   -1    0    0  501    0  0.00000000000E+00  0.00000000000E+00 -0.53924081306E+03  0.53924081307E+03  0.25500000920E-02 0.  1.
    10030    2    1    2    0    0  0.00000000000E+00  0.00000000000E+00 -0.42212340329E+03  0.65635822287E+03  0.50261113112E+03 0.  0.
        2    1    3    3  502    0 -0.10611764734E+02 -0.13382614990E+03 -0.48849158001E+03  0.50660247896E+03  0.25500000920E-02 0.  1.
       -2    1    3    3    0  502  0.10611764734E+02  0.13382614990E+03  0.66368176717E+02  0.14975574391E+03  0.25500000920E-02 0. -1.
</event>
<event>
 5   0  0.8208720E-02  0.5049342E+03  0.7818609E-02  0.1012499E+00
       -2   -1    0    0    0  501  0.00000000000E+00  0.00000000000E+00  0.92704968665E+02  0.92704968700E+02  0.25500000920E-02 0. -1.
        2   -1    0    0  501    0  0.00000000000E+00  0.00000000000E+00 -0.68755349371E+03  0.68755349372E+03  0.25500000920E-02 0.  1.
    10030    2    1    2    0    0  0.00000000000E+00  0.00000000000E+00 -0.59484852505E+03  0.78025846242E+03  0.50493415454E+03 0.  0.
        3    1    3    3  502    0 -0.36669987611E+02 -0.23761218554E+03 -0.17837468326E+03  0.29936896389E+03  0.10100000352E+00 0. -1.
       -3    1    3    3    0  502  0.36669987611E+02  0.23761218554E+03 -0.41647384179E+03  0.48088949853E+03  0.10100000352E+00 0.  1.
</event>
<event>
 5   0  0.8208720E-02  0.5064725E+03  0.7818609E-02  0.1012103E+00
       -2   -1    0    0    0  501  0.00000000000E+00  0.00000000000E+00  0.11736151641E+03  0.11736151644E+03  0.25500000920E-02 0. -1.
        2   -1    0    0  501    0  0.00000000000E+00  0.00000000000E+00 -0.54641936711E+03  0.54641936711E+03  0.25500000920E-02 0.  1.
    10030    2    1    2    0    0  0.00000000000E+00  0.00000000000E+00 -0.42905785069E+03  0.66378088355E+03  0.50647252850E+03 0.  0.
        3    1    3    3  502    0  0.10793577066E+03 -0.15171446569E+03 -0.43948304833E+03  0.47729735979E+03  0.10100000352E+00 0.  1.
       -3    1    3    3    0  502 -0.10793577066E+03  0.15171446569E+03  0.10425197638E+02  0.18648352376E+03  0.10100000352E+00 0. -1.
</event>
<event>
 5   0  0.7698747E-02  0.5077715E+03  0.7818609E-02  0.1011770E+00
       -2   -1    0    0    0  501  0.00000000000E+00  0.00000000000E+00  0.19666956695E+03  0.19666956697E+03  0.25500000920E-02 0. -1.
        2   -1    0    0  501    0  0.00000000000E+00  0.00000000000E+00 -0.32774763290E+03  0.32774763291E+03  0.25500000920E-02 0.  1.
    10030    2    1    2    0    0  0.00000000000E+00  0.00000000000E+00 -0.13107806595E+03  0.52441719988E+03  0.50777154327E+03 0.  0.
        2    1    3    3  502    0 -0.73363489491E+02 -0.16691946579E+02  0.18489119704E+03  0.19961357023E+03  0.25500000920E-02 0. -1.
       -2    1    3    3    0  502  0.73363489491E+02  0.16691946579E+02 -0.31596926299E+03  0.32480362965E+03  0.25500000920E-02 0.  1.
</event>
<event>
 5   0  0.4803890E-02  0.5009749E+03  0.7818609E-02  0.1013525E+00
       -1   -1    0    0    0  501  0.00000000000E+00  0.00000000000E+00  0.23004255145E+03  0.23004255150E+03  0.50400001928E-02 0. -1.
        1   -1    0    0  501    0  0.00000000000E+00  0.00000000000E+00 -0.27274933567E+03  0.27274933572E+03  0.50400001928E-02 0.  1.
    10030    2    1    2    0    0  0.00000000000E+00  0.00000000000E+00 -0.42706784227E+02  0.50279188722E+03  0.50097486208E+03 0.  0.
        5    1    3    3  502    0  0.14103942960E+03  0.89045994995E+02 -0.20884787050E+03  0.26732159085E+03  0.46999998093E+01 0.  1.
       -5    1    3    3    0  502 -0.14103942960E+03 -0.89045994995E+02  0.16614108628E+03  0.23547029637E+03  0.46999998093E+01 0. -1.
</event>
<event>
 5   0  0.7933103E-02  0.4804597E+03  0.7818609E-02  0.1019009E+00
        2   -1    0    0  501    0  0.00000000000E+00  0.00000000000E+00  0.78329982773E+03  0.78329982774E+03  0.25500000920E-02 0. -1.
       -2   -1    0    0    0  501  0.00000000000E+00  0.00000000000E+00 -0.73675980954E+02  0.73675980998E+02  0.25500000920E-02 0.  1.
    10030    2    1    2    0    0  0.00000000000E+00  0.00000000000E+00  0.70962384678E+03  0.85697580873E+03  0.48045970990E+03 0.  0.
        5    1    3    3  502    0 -0.17271925132E+01  0.56282884861E+02  0.77127810465E+03  0.77334516940E+03  0.46999998093E+01 0. -1.
       -5    1    3    3    0  502  0.17271925132E+01 -0.56282884861E+02 -0.61654257876E+02  0.83630639330E+02  0.46999998093E+01 0.  1.
</event>
<event>
 5   0  0.8208720E-02  0.5019371E+03  0.7818609E-02  0.1013275E+00
        2   -1    0    0  501    0  0.00000000000E+00  0.00000000000E+00  0.14934117354E+03  0.14934117356E+03  0.25500000920E-02 0. -1.
       -2   -1    0    0    0  501  0.00000000000E+00  0.00000000000E+00 -0.42175389832E+03  0.42175389833E+03  0.25500000920E-02 0.  1.
    10030    2    1    2    0    0  0.00000000000E+00  0.00000000000E+00 -0.27241272478E+03  0.57109507189E+03  0.50193713602E+03 0.  0.
        3    1    3    3  502    0 -0.22204654741E+03  0.11198647586E+03 -0.97797631586E+02  0.26722654610E+03  0.10100000352E+00 0. -1.
       -3    1    3    3    0  502  0.22204654741E+03 -0.11198647586E+03 -0.17461509319E+03  0.30386852579E+03  0.10100000352E+00 0.  1.
</event>
<event>
 5   0  0.5191358E-02  0.5114093E+03  0.7818609E-02  0.1010843E+00
       -1   -1    0    0    0  501  0.00000000000E+00  0.00000000000E+00  0.11831981083E+04  0.11831981083E+04  0.50400001928E-02 0.  1.
        1   -1    0    0  501    0  0.00000000000E+00  0.00000000000E+00 -0.55261143412E+02  0.55261143642E+02  0.50400001928E-02 0. -1.
    10030    2    1    2    0    0  0.00000000000E+00  0.00000000000E+00  0.11279369649E+04  0.12384592519E+04  0.51140934875E+03 0.  0.
        4    1    3    3  502    0 -0.39167864548E+02  0.19151723915E+03  0.16479634393E+03  0.25568031285E+03  0.12699999809E+01 0. -1.
       -4    1    3    3    0  502  0.39167864548E+02 -0.19151723915E+03  0.96314062095E+03  0.98277893910E+03  0.12699999809E+01 0.  1.
</event>
<event>
 5   0  0.7881060E-02  0.5080331E+03  0.7818609E-02  0.1011703E+00
        2   -1    0    0  501    0  0.00000000000E+00  0.00000000000E+00  0.59414402227E+03  0.59414402228E+03  0.25500000920E-02 0. -1.
       -2   -1    0    0    0  501  0.00000000000E+00  0.00000000000E+00 -0.10860061368E+03  0.10860061371E+03  0.25500000920E-02 0.  1.
    10030    2    1    2    0    0  0.00000000000E+00  0.00000000000E+00  0.48554340859E+03  0.70274463599E+03  0.50803309123E+03 0.  0.
        1    1    3    3  502    0  0.70866474042E+00  0.14104551659E+03  0.53499800468E+03  0.55327859618E+03  0.50400001928E-02 0. -1.
       -1    1    3    3    0  502 -0.70866474042E+00 -0.14104551659E+03 -0.49454596090E+02  0.14946603981E+03  0.50400001928E-02 0.  1.
</event>
<event>
 5   0  0.7698747E-02  0.4978349E+03  0.7818609E-02  0.1014346E+00
        2   -1    0    0  501    0  0.00000000000E+00  0.00000000000E+00  0.11776175951E+04  0.11776175951E+04  0.25500000920E-02 0. -1.
       -2   -1    0    0    0  501  0.00000000000E+00  0.00000000000E+00 -0.52614605957E+02  0.52614606018E+02  0.25500000920E-02 0.  1.
    10030    2    1    2    0    0  0.00000000000E+00  0.00000000000E+00  0.11250029892E+04  0.12302322012E+04  0.49783485525E+03 0.  0.
        2    1    3    3  502    0  0.10044876778E+03 -0.11350906087E+03  0.10504275779E+04  0.10613069105E+04  0.25500000920E-02 0. -1.
       -2    1    3    3    0  502 -0.10044876778E+03  0.11350906087E+03  0.74575411263E+02  0.16892529064E+03  0.25500000920E-02 0.  1.
</event>
<event>
 5   0  0.4865501E-02  0.4996782E+03  0.7818609E-02  0.1013863E+00
       -1   -1    0    0    0  501  0.00000000000E+00  0.00000000000E+00  0.12903719799E+03  0.12903719809E+03  0.50400001928E-02 0. -1.
        1   -1    0    0  501    0  0.00000000000E+00  0.00000000000E+00 -0.48373322059E+03  0.48373322062E+03  0.50400001928E-02 0.  1.
    10030    2    1    2    0    0  0.00000000000E+00  0.00000000000E+00 -0.35469602260E+03  0.61277041871E+03  0.49967821405E+03 0.  0.
        2    1    3    3  502    0 -0.11271081056E+03  0.10749968589E+03 -0.41690546203E+03  0.44505064157E+03  0.25500000920E-02 0.  1.
       -2    1    3    3    0  502  0.11271081056E+03 -0.10749968589E+03  0.62209439423E+02  0.16771977714E+03  0.25500000920E-02 0. -1.
</event>
<event>
 5   0  0.7933103E-02  0.4989738E+03  0.7818609E-02  0.1014047E+00
       -2   -1    0    0    0  501  0.00000000000E+00  0.00000000000E+00  0.64213536012E+02  0.64213536063E+02  0.25500000920E-02 0. -1.
        2   -1    0    0  501    0  0.00000000000E+00  0.00000000000E+00 -0.96932389911E+03  0.96932389911E+03  0.25500000920E-02 0.  1.
    10030    2    1    2    0    0  0.00000000000E+00  0.00000000000E+00 -0.90511036309E+03  0.10335374352E+04  0.49897380745E+03 0.  0.
        5    1    3    3  502    0  0.46506066749E+01  0.20806170578E+02  0.62231223731E+02  0.65949526775E+02  0.46999998093E+01 0. -1.
       -5    1    3    3    0  502 -0.46506066749E+01 -0.20806170578E+02 -0.96734158683E+03  0.96758790840E+03  0.46999998093E+01 0.  1.
</event>
<event>
 5   0  0.4884478E-02  0.5012885E+03  0.7818609E-02  0.1013443E+00
        1   -1    0    0  501    0  0.00000000000E+00  0.00000000000E+00  0.26146572423E+03  0.26146572428E+03  0.50400001928E-02 0. -1.
       -1   -1    0    0    0  501  0.00000000000E+00  0.00000000000E+00 -0.24027065687E+03  0.24027065693E+03  0.50400001928E-02 0.  1.
    10030    2    1    2    0    0  0.00000000000E+00  0.00000000000E+00  0.21195067357E+02  0.50173638120E+03  0.50128850510E+03 0.  0.
        3    1    3    3  502    0 -0.14620613976E+03 -0.12300298528E+03 -0.15177120562E+03  0.24400917759E+03  0.10100000352E+00 0.  1.
       -3    1    3    3    0  502  0.14620613976E+03  0.12300298528E+03  0.17296627298E+03  0.25772720361E+03  0.10100000352E+00 0. -1.
</event>
<event>
 5   0  0.4884478E-02  0.5002100E+03  0.7818609E-02  0.1013724E+00
       -1   -1    0    0    0  501  0.00000000000E+00  0.00000000000E+00  0.45658817427E+03  0.45658817430E+03  0.50400001928E-02 0. -1.
        1   -1    0    0  501    0  0.00000000000E+00  0.00000000000E+00 -0.13699983790E+03  0.13699983799E+03  0.50400001928E-02 0.  1.
    10030    2    1    2    0    0  0.00000000000E+00  0.00000000000E+00  0.31958833637E+03  0.59358801229E+03  0.50020997950E+03 0.  0.
        3    1    3    3  502    0 -0.43110673875E+02  0.10153863616E+03 -0.10657167591E+03  0.15338238863E+03  0.10100000352E+00 0.  1.
       -3    1    3    3    0  502  0.43110673875E+02 -0.10153863616E+03  0.42616001228E+03  0.44020562366E+03  0.10100000352E+00 0. -1.
</event>
<event>
 5   0  0.4865501E-02  0.4966133E+03  0.7818609E-02  0.1014667E+00
        1   -1    0    0  501    0  0.00000000000E+00  0.00000000000E+00  0.51052055556E+03  0.51052055559E+03  0.50400001928E-02 0.  1.
       -1   -1    0    0    0  501  0.00000000000E+00  0.00000000000E+00 -0.12077122991E+03  0.12077123002E+03  0.50400001928E-02 0. -1.
    10030    2    1    2    0    0  0.00000000000E+00  0.00000000000E+00  0.38974932565E+03  0.63129178560E+03  0.49661331207E+03 0.  0.
        2    1    3    3  502    0  0.17247778340E+03 -0.16437822975E+03  0.28374381674E+03  0.37051226933E+03  0.25500000920E-02 0.  1.
       -2    1    3    3    0  502 -0.17247778340E+03  0.16437822975E+03  0.10600550891E+03  0.26077951627E+03  0.25500000920E-02 0. -1.
</event>
<event>
 5   0  0.7776070E-02  0.4995447E+03  0.7818609E-02  0.1013898E+00
        2   -1    0    0  501    0  0.00000000000E+00  0.00000000000E+00  0.21562354175E+03  0.21562354176E+03  0.25500000920E-02 0. -1.
       -2   -1    0    0    0  501  0.00000000000E+00  0.00000000000E+00 -0.28932942939E+03  0.28932942940E+03  0.25500000920E-02 0.  1.
    10030    2    1    2    0    0  0.00000000000E+00  0.00000000000E+00 -0.73705887645E+02  0.50495297116E+03  0.49954473795E+03 0.  0.
        4    1    3    3  502    0 -0.91035290702E+02  0.34697930418E+01  0.19822701279E+03  0.21816284083E+03  0.12699999809E+01 0. -1.
       -4    1    3    3    0  502  0.91035290702E+02 -0.34697930418E+01 -0.27193290044E+03  0.28679013034E+03  0.12699999809E+01 0.  1.
</event>
<event>
 5   0  0.7698747E-02  0.5008052E+03  0.7818609E-02  0.1013569E+00
        2   -1    0    0  501    0  0.00000000000E+00  0.00000000000E+00  0.52073575676E+03  0.52073575677E+03  0.25500000920E-02 0.  1.
       -2   -1    0    0    0  501  0.00000000000E+00  0.00000000000E+00 -0.12040935462E+03  0.12040935465E+03  0.25500000920E-02 0. -1.
    10030    2    1    2    0    0  0.00000000000E+00  0.00000000000E+00  0.40032640214E+03  0.64114511142E+03  0.50080517733E+03 0.  0.
        2    1    3    3  502    0  0.21305963461E+03  0.56173951138E+02  0.35245948662E+03  0.41566526244E+03  0.25500000920E-02 0.  1.
       -2    1    3    3    0  502 -0.21305963461E+03 -0.56173951138E+02  0.47866915519E+02  0.22547984897E+03  0.25500000920E-02 0. -1.
</event>
<event>
 5   0  0.7776070E-02  0.5021559E+03  0.7818609E-02  0.1013218E+00
        2   -1    0    0  501    0  0.00000000000E+00  0.00000000000E+00  0.41436192269E+03  0.41436192269E+03  0.25500000920E-02 0. -1.
       -2   -1    0    0    0  501  0.00000000000E+00  0.00000000000E+00 -0.15213785411E+03  0.15213785414E+03  0.25500000920E-02 0.  1.
    10030    2    1    2    0    0  0.00000000000E+00  0.00000000000E+00  0.26222406857E+03  0.56649977683E+03  0.50215588716E+03 0.  0.
        4    1    3    3  502    0  0.19845674801E+03 -0.15195844385E+03  0.15785791574E+03  0.29563014723E+03  0.12699999809E+01 0.  1.
       -4    1    3    3    0  502 -0.19845674801E+03  0.15195844385E+03  0.10436615283E+03  0.27086962960E+03  0.12699999809E+01 0. -1.
</event>
<event>
 5   0  0.7881060E-02  0.4991136E+03  0.7818609E-02  0.1014011E+00
        2   -1    0    0  501    0  0.00000000000E+00  0.00000000000E+00  0.85434856521E+03  0.85434856521E+03  0.25500000920E-02 0. -1.
       -2   -1    0    0    0  501  0.00000000000E+00  0.00000000000E+00 -0.72896008829E+02  0.72896008873E+02  0.25500000920E-02 0.  1.
    10030    2    1    2    0    0  0.00000000000E+00  0.00000000000E+00  0.78145255638E+03  0.92724457409E+03  0.49911361662E+03 0.  0.
        1    1    3    3  502    0  0.97224788555E+02 -0.70156830529E+02  0.79733865242E+03  0.80630240422E+03  0.50400001928E-02 0. -1.
       -1    1    3    3    0  502 -0.97224788555E+02  0.70156830529E+02 -0.15886096041E+02  0.12094216987E+03  0.50400001928E-02 0.  1.
</event>
<event>
 5   0  0.8208720E-02  0.4962241E+03  0.7818609E-02  0.1014769E+00
       -2   -1    0    0    0  501  0.00000000000E+00  0.00000000000E+00  0.52412925420E+03  0.52412925421E+03  0.25500000920E-02 0. -1.
        2   -1    0    0  501    0  0.00000000000E+00  0.00000000000E+00 -0.11745117233E+03  0.11745117236E+03  0.25500000920E-02 0.  1.
    10030    2    1    2    0    0  0.00000000000E+00  0.00000000000E+00  0.40667808187E+03  0.64158042657E+03  0.49622412424E+03 0.  0.
        3    1    3    3  502    0  0.21782131695E+03 -0.61799256858E+02  0.72157758503E+02  0.23763843666E+03  0.10100000352E+00 0.  1.
       -3    1    3    3    0  502 -0.21782131695E+03  0.61799256858E+02  0.33452032337E+03  0.40394198991E+03  0.10100000352E+00 0. -1.
</event>
<event>
 5   0  0.5038436E-02  0.5000528E+03  0.7818609E-02  0.1013765E+00
        1   -1    0    0  501    0  0.00000000000E+00  0.00000000000E+00  0.93785053671E+03  0.93785053672E+03  0.50400001928E-02 0.  1.
       -1   -1    0    0    0  501  0.00000000000E+00  0.00000000000E+00 -0.66655813483E+02  0.66655813674E+02  0.50400001928E-02 0. -1.
    10030    2    1    2    0    0  0.00000000000E+00  0.00000000000E+00  0.87119472323E+03  0.10045063504E+04  0.50005275943E+03 0.  0.
        1    1    3    3  502    0  0.18044476734E+02  0.17459319530E+03  0.79328126121E+03  0.81246756636E+03  0.50400001928E-02 0.  1.
       -1    1    3    3    0  502 -0.18044476734E+02 -0.17459319530E+03  0.77913462022E+02  0.19203878404E+03  0.50400001928E-02 0. -1.
</event>
<event>
 5   0  0.7698747E-02  0.5007639E+03  0.7818609E-02  0.1013580E+00
       -2   -1    0    0    0  501  0.00000000000E+00  0.00000000000E+00  0.80597790840E+02  0.80597790880E+02  0.25500000920E-02 0. -1.
        2   -1    0    0  501    0  0.00000000000E+00  0.00000000000E+00 -0.77782688289E+03  0.77782688290E+03  0.25500000920E-02 0.  1.
    10030    2    1    2    0    0  0.00000000000E+00  0.00000000000E+00 -0.69722909205E+03  0.85842467378E+03  0.50076393015E+03 0.  0.
        2    1    3    3  502    0 -0.14010775166E+03 -0.19168578590E+03 -0.21236283061E+03  0.31854606327E+03  0.25500000920E-02 0. -1.
       -2    1    3    3    0  502  0.14010775166E+03  0.19168578590E+03 -0.48486626144E+03  0.53987861051E+03  0.25500000920E-02 0.  1.
</event>
<event>
 5   0  0.4865501E-02  0.5039280E+03  0.7818609E-02  0.1012759E+00
       -1   -1    0    0    0  501  0.00000000000E+00  0.00000000000E+00  0.27187344286E+03  0.27187344290E+03  0.50400001928E-02 0.  1.
        1   -1    0    0  501    0  0.00000000000E+00  0.00000000000E+00 -0.23351249238E+03  0.23351249244E+03  0.50400001928E-02 0. -1.
    10030    2    1    2    0    0  0.00000000000E+00  0.00000000000E+00  0.38360950474E+02  0.50538593534E+03  0.50392795231E+03 0.  0.
        2    1    3    3  502    0 -0.93126910319E+02  0.12128629710E+03  0.22001684602E+03  0.26793730578E+03  0.25500000920E-02 0.  1.
       -2    1    3    3    0  502  0.93126910319E+02 -0.12128629710E+03 -0.18165589554E+03  0.23744862956E+03  0.25500000920E-02 0. -1.
</event>
<event>
 5   0  0.7698747E-02  0.5063429E+03  0.7818609E-02  0.1012136E+00
       -2   -1    0    0    0  501  0.00000000000E+00  0.00000000000E+00  0.11364100668E+04  0.11364100668E+04  0.25500000920E-02 0. -1.
        2   -1    0    0  501    0  0.00000000000E+00  0.00000000000E+00 -0.56401979811E+02  0.56401979869E+02  0.25500000920E-02 0.  1.
    10030    2    1    2    0    0  0.00000000000E+00  0.00000000000E+00  0.10800080870E+04  0.11928120466E+04  0.50634287861E+03 0.  0.
        2    1    3    3  502    0 -0.13837747692E+02  0.25084159629E+03  0.61385518783E+03  0.66327308202E+03  0.25500000920E-02 0.  1.
       -2    1    3    3    0  502  0.13837747692E+02 -0.25084159629E+03  0.46615289912E+03  0.52953896462E+03  0.25500000920E-02 0. -1.
</event>
<event>
 5   0  0.7776070E-02  0.4590779E+03  0.7818609E-02  0.1025049E+00
        2   -1    0    0  501    0  0.00000000000E+00  0.00000000000E+00  0.38228328946E+03  0.38228328947E+03  0.25500000920E-02 0.  1.
       -2   -1    0    0    0  501  0.00000000000E+00  0.00000000000E+00 -0.13782482210E+03  0.13782482213E+03  0.25500000920E-02 0. -1.
    10030    2    1    2    0    0  0.00000000000E+00  0.00000000000E+00  0.24445846736E+03  0.52010811160E+03  0.45907788608E+03 0.  0.
        4    1    3    3  502    0  0.13819789332E+03  0.39476093556E+02 -0.80530770434E+02  0.16475386966E+03  0.12699999809E+01 0. -1.
       -4    1    3    3    0  502 -0.13819789332E+03 -0.39476093556E+02  0.32498923780E+03  0.35535424194E+03  0.12699999809E+01 0.  1.
</event>
<event>
 5   0  0.5191358E-02  0.5167096E+03  0.7818609E-02  0.1009507E+00
        1   -1    0    0  501    0  0.00000000000E+00  0.00000000000E+00  0.23115846156E+03  0.23115846161E+03  0.50400001928E-02 0.  1.
       -1   -1    0    0    0  501  0.00000000000E+00  0.00000000000E+00 -0.28875085061E+03  0.28875085065E+03  0.50400001928E-02 0. -1.
    10030    2    1    2    0    0  0.00000000000E+00  0.00000000000E+00 -0.57592389052E+02  0.51990931227E+03  0.51670959901E+03 0.  0.
        4    1    3    3  502    0  0.22581880417E+03  0.64883954942E+02  0.79300584038E+02  0.24798035296E+03  0.12699999809E+01 0. -1.
       -4    1    3    3    0  502 -0.22581880417E+03 -0.64883954942E+02 -0.13689297309E+03  0.27192895930E+03  0.12699999809E+01 0.  1.
</event>
<event>
 5   0  0.4884478E-02  0.4705650E+03  0.7818609E-02  0.1021761E+00
        1   -1    0    0  501    0  0.00000000000E+00  0.00000000000E+00  0.11707602218E+04  0.11707602218E+04  0.50400001928E-02 0. -1.
       -1   -1    0    0    0  501  0.00000000000E+00  0.00000000000E+00 -0.47283683435E+02  0.47283683704E+02  0.50400001928E-02 0.  1.
    10030    2    1    2    0    0  0.00000000000E+00  0.00000000000E+00  0.11234765383E+04  0.12180439055E+04  0.47056500454E+03 0.  0.
        3    1    3    3  502    0  0.15179552218E+03  0.17685992323E+03  0.47840185386E+03  0.53215566987E+03  0.10100000352E+00 0. -1.
       -3    1    3    3    0  502 -0.15179552218E+03 -0.17685992323E+03  0.64507468449E+03  0.68588823563E+03  0.10100000352E+00 0.  1.
</event>
<event>
 5   0  0.8208720E-02  0.5113792E+03  0.7818609E-02  0.1010851E+00
        2   -1    0    0  501    0  0.00000000000E+00  0.00000000000E+00  0.75998292586E+03  0.75998292587E+03  0.25500000920E-02 0. -1.
       -2   -1    0    0    0  501  0.00000000000E+00  0.00000000000E+00 -0.86024526563E+02  0.86024526600E+02  0.25500000920E-02 0.  1.
    10030    2    1    2    0    0  0.00000000000E+00  0.00000000000E+00  0.67395839930E+03  0.84600745247E+03  0.51137919946E+03 0.  0.
        3    1    3    3  502    0  0.40022069941E+01 -0.21142462287E+03  0.57477512379E+03  0.61244007213E+03  0.10100000352E+00 0. -1.
       -3    1    3    3    0  502 -0.40022069941E+01  0.21142462287E+03  0.99183275507E+02  0.23356738034E+03  0.10100000352E+00 0.  1.
</event>
<event>
 5   0  0.4803890E-02  0.5002461E+03  0.7818609E-02  0.1013715E+00
       -1   -1    0    0    0  501  0.00000000000E+00  0.00000000000E+00  0.14073478388E+03  0.14073478397E+03  0.50400001928E-02 0.  1.
        1   -1    0    0  501    0  0.00000000000E+00  0.00000000000E+00 -0.44453498538E+03  0.44453498541E+03  0.50400001928E-02 0. -1.
    10030    2    1    2    0    0  0.00000000000E+00  0.00000000000E+00 -0.30380020149E+03  0.58526976938E+03  0.50024607997E+03 0.  0.
        5    1    3    3  502    0 -0.44054580530E+02 -0.20524674430E+03  0.71134785484E+01  0.21009455892E+03  0.46999998093E+01 0.  1.
       -5    1    3    3    0  502  0.44054580530E+02  0.20524674430E+03 -0.31091368004E+03  0.37517521046E+03  0.46999998093E+01 0. -1.
</event>
<event>
 5   0  0.5191358E-02  0.5034204E+03  0.7818609E-02  0.1012890E+00
        1   -1    0    0  501    0  0.00000000000E+00  0.00000000000E+00  0.48129639878E+03  0.48129639881E+03  0.50400001928E-02 0. -1.
       -1   -1    0    0    0  501  0.00000000000E+00  0.00000000000E+00 -0.13164034096E+03  0.13164034105E+03  0.50400001928E-02 0.  1.
    10030    2    1    2    0    0  0.00000000000E+00  0.00000000000E+00  0.34965605783E+03  0.61293673986E+03  0.50342038923E+03 0.  0.
        4    1    3    3  502    0  0.10599348915E+03  0.31833241486E+01 -0.10311276239E+03  0.14791419121E+03  0.12699999809E+01 0.  1.
       -4    1    3    3    0  502 -0.10599348915E+03 -0.31833241486E+01  0.45276882021E+03  0.46502254865E+03  0.12699999809E+01 0. -1.
</event>
<event>
 5   0  0.7776070E-02  0.4925749E+03  0.7818609E-02  0.1015735E+00
       -2   -1    0    0    0  501  0.00000000000E+00  0.00000000000E+00  0.18831560853E+03  0.18831560855E+03  0.25500000920E-02 0. -1.
        2   -1    0    0  501    0  0.00000000000E+00  0.00000000000E+00 -0.32210553096E+03  0.32210553097E+03  0.25500000920E-02 0.  1.
    10030    2    1    2    0    0  0.00000000000E+00  0.00000000000E+00 -0.13378992243E+03  0.51042113951E+03  0.49257486367E+03 0.  0.
        4    1    3    3  502    0  0.11296928620E+03  0.18032732022E+03 -0.19538706975E+03  0.28889050168E+03  0.12699999809E+01 0.  1.
       -4    1    3    3    0  502 -0.11296928620E+03 -0.18032732022E+03  0.61597147316E+02  0.22153063783E+03  0.12699999809E+01 0. -1.
</event>
<event>
 5   0  0.7881060E-02  0.4985940E+03  0.7818609E-02  0.1014147E+00
       -2   -1    0    0    0  501  0.00000000000E+00  0.00000000000E+00  0.14794012060E+03  0.14794012063E+03  0.25500000920E-02 0.  1.
        2   -1    0    0  501    0  0.00000000000E+00  0.00000000000E+00 -0.42009560776E+03  0.42009560777E+03  0.25500000920E-02 0. -1.
    10030    2    1    2    0    0  0.00000000000E+00  0.00000000000E+00 -0.27215548715E+03  0.56803572839E+03  0.49859400271E+03 0.  0.
        1    1    3    3  502    0 -0.24693599322E+03 -0.32327274289E+02 -0.14889433264E+03  0.29015850794E+03  0.50400001928E-02 0. -1.
       -1    1    3    3    0  502  0.24693599322E+03  0.32327274289E+02 -0.12326115451E+03  0.27787722046E+03  0.50400001928E-02 0.  1.
</event>
<event>
 5   0  0.4865501E-02  0.4980218E+03  0.7818609E-02  0.1014297E+00
        1   -1    0    0  501    0  0.00000000000E+00  0.00000000000E+00  0.44009476954E+03  0.44009476957E+03  0.50400001928E-02 0. -1.
       -1   -1    0    0    0  501  0.00000000000E+00  0.00000000000E+00 -0.14089337108E+03  0.14089337117E+03  0.50400001928E-02 0.  1.
    10030    2    1    2    0    0  0.00000000000E+00  0.00000000000E+00  0.29920139846E+03  0.58098814074E+03  0.49802182968E+03 0.  0.
        2    1    3    3  502    0  0.12655057360E+03  0.18532791000E+03  0.27548969611E+03  0.35532527995E+03  0.25500000920E-02 0. -1.
       -2    1    3    3    0  502 -0.12655057360E+03 -0.18532791000E+03  0.23711702349E+02  0.22566286079E+03  0.25500000920E-02 0.  1.
</event>
<event>
 5   0  0.7698747E-02  0.4804460E+03  0.7818609E-02  0.1019013E+00
        2   -1    0    0  501    0  0.00000000000E+00  0.00000000000E+00  0.25772777600E+04  0.25772777600E+04  0.25500000920E-02 0. -1.
       -2   -1    0    0    0  501  0.00000000000E+00  0.00000000000E+00 -0.22390715199E+02  0.22390715344E+02  0.25500000920E-02 0.  1.
    10030    2    1    2    0    0  0.00000000000E+00  0.00000000000E+00  0.25548870448E+04  0.25996684754E+04  0.48044601155E+03 0.  0.
        2    1    3    3  502    0  0.14264441503E+03  0.74030724242E+02  0.31133368332E+03  0.35036643625E+03  0.25500000920E-02 0.  1.
       -2    1    3    3    0  502 -0.14264441503E+03 -0.74030724242E+02  0.22435533615E+04  0.22493020391E+04  0.25500000920E-02 0. -1.
</event>
<event>
 5   0  0.3210875E-02  0.5102574E+03  0.7818609E-02  0.1011136E+00
        3   -1    0    0  501    0  0.00000000000E+00  0.00000000000E+00  0.27588379148E+03  0.27588380997E+03  0.10100000352E+00 0. -1.
       -3   -1    0    0    0  501  0.00000000000E+00  0.00000000000E+00 -0.23593500201E+03  0.23593502363E+03  0.10100000352E+00 0.  1.
    10030    2    1    2    0    0  0.00000000000E+00  0.00000000000E+00  0.39948789467E+02  0.51181883360E+03  0.51025739843E+03 0.  0.
        4    1    3    3  502    0  0.20152327858E+03  0.13565563207E+03  0.98154921099E+02  0.26201160997E+03  0.12699999809E+01 0.  1.
       -4    1    3    3    0  502 -0.20152327858E+03 -0.13565563207E+03 -0.58206131632E+02  0.24980722364E+03  0.12699999809E+01 0. -1.
</event>
<event>
 5   0  0.7881060E-02  0.4986752E+03  0.7818609E-02  0.1014125E+00
       -2   -1    0    0    0  501  0.00000000000E+00  0.00000000000E+00  0.93282514313E+02  0.93282514348E+02  0.25500000920E-02 0. -1.
        2   -1    0    0  501    0  0.00000000000E+00  0.00000000000E+00 -0.66646199005E+03  0.66646199006E+03  0.25500000920E-02 0.  1.
    10030    2    1    2    0    0  0.00000000000E+00  0.00000000000E+00 -0.57317947574E+03  0.75974450441E+03  0.49867524559E+03 0.  0.
        1    1    3    3  502    0  0.33415046721E+02 -0.19276786768E+03 -0.52208773880E+03  0.55754069196E+03  0.50400001928E-02 0.  1.
       -1    1    3    3    0  502 -0.33415046721E+02  0.19276786768E+03 -0.51091736939E+02  0.20220381245E+03  0.50400001928E-02 0. -1.
</event>
<event>
 5   0  0.8208720E-02  0.5002090E+03  0.7818609E-02  0.1013724E+00
        2   -1    0    0  501    0  0.00000000000E+00  0.00000000000E+00  0.12966667716E+04  0.12966667716E+04  0.25500000920E-02 0.  1.
       -2   -1    0    0    0  501  0.00000000000E+00  0.00000000000E+00 -0.48240808937E+02  0.48240809004E+02  0.25500000920E-02 0. -1.
    10030    2    1    2    0    0  0.00000000000E+00  0.00000000000E+00  0.12484259626E+04  0.13449075806E+04  0.50020897245E+03 0.  0.
        3    1    3    3  502    0  0.13264366395E+03  0.20865606393E+03  0.72555022970E+03  0.76652125908E+03  0.10100000352E+00 0.  1.
       -3    1    3    3    0  502 -0.13264366395E+03 -0.20865606393E+03  0.52287573295E+03  0.57838632151E+03  0.10100000352E+00 0. -1.
</event>
<event>
 5   0  0.7698747E-02  0.5000377E+03  0.7818609E-02  0.1013769E+00
       -2   -1    0    0    0  501  0.00000000000E+00  0.00000000000E+00  0.45060554878E+02  0.45060554950E+02  0.25500000920E-02 0. -1.
        2   -1    0    0  501    0  0.00000000000E+00  0.00000000000E+00 -0.13872318490E+04  0.13872318490E+04  0.25500000920E-02 0.  1.
    10030    2    1    2    0    0  0.00000000000E+00  0.00000000000E+00 -0.13421712941E+04  0.14322924039E+04  0.50003774622E+03 0.  0.
        2    1    3    3  502    0 -0.62631705892E+02  0.46941804274E+01  0.22095517812E+02  0.66580611492E+02  0.25500000920E-02 0. -1.
       -2    1    3    3    0  502  0.62631705892E+02 -0.46941804274E+01 -0.13642668119E+04  0.13657117924E+04  0.25500000920E-02 0.  1.
</event>
<event>
 5   0  0.4803890E-02  0.5004429E+03  0.7818609E-02  0.1013663E+00
       -1   -1    0    0    0  501  0.00000000000E+00  0.00000000000E+00  0.21919240203E+03  0.21919240209E+03  0.50400001928E-02 0. -1.
        1   -1    0    0  501    0  0.00000000000E+00  0.00000000000E+00 -0.28564299429E+03  0.28564299433E+03  0.50400001928E-02 0.  1.
    10030    2    1    2    0    0  0.00000000000E+00  0.00000000000E+00 -0.66450592259E+02  0.50483539642E+03  0.50044290010E+03 0.  0.
        5    1    3    3  502    0  0.24891307906E+03 -0.15837749022E+02 -0.52893317916E+02  0.25500656520E+03  0.46999998093E+01 0.  1.
       -5    1    3    3    0  502 -0.24891307906E+03  0.15837749022E+02 -0.13557274342E+02  0.24982883121E+03  0.46999998093E+01 0. -1.
</event>
<event>
 5   0  0.7776070E-02  0.5009297E+03  0.7818609E-02  0.1013537E+00
        2   -1    0    0  501    0  0.00000000000E+00  0.00000000000E+00  0.11249823973E+03  0.11249823976E+03  0.25500000920E-02 0. -1.
       -2   -1    0    0    0  501  0.00000000000E+00  0.00000000000E+00 -0.55763225807E+03  0.55763225808E+03  0.25500000920E-02 0.  1.
    10030    2    1    2    0    0  0.00000000000E+00  0.00000000000E+00 -0.44513401834E+03  0.67013049783E+03  0.50092972545E+03 0.  0.
        4    1    3    3  502    0  0.17919000669E+03 -0.14285838197E+03 -0.35776461453E+03  0.42487022502E+03  0.12699999809E+01 0. -1.
       -4    1    3    3    0  502 -0.17919000669E+03  0.14285838197E+03 -0.87369403812E+02  0.24526027281E+03  0.12699999809E+01 0.  1.
</event>
<event>
 5   0  0.4884478E-02  0.4964212E+03  0.7818609E-02  0.1014717E+00
       -1   -1    0    0    0  501  0.00000000000E+00  0.00000000000E+00  0.37210464519E+02  0.37210464861E+02  0.50400001928E-02 0. -1.
        1   -1    0    0  501    0  0.00000000000E+00  0.00000000000E+00 -0.16556770257E+04  0.16556770257E+04  0.50400001928E-02 0.  1.
    10030    2    1    2    0    0  0.00000000000E+00  0.00000000000E+00 -0.16184665612E+04  0.16928874906E+04  0.49642123853E+03 0.  0.
        3    1    3    3  502    0 -0.10017138483E+03  0.17082631203E+02 -0.15814902257E+04  0.15847515474E+04  0.10100000352E+00 0.  1.
       -3    1    3    3    0  502  0.10017138483E+03 -0.17082631203E+02 -0.36976335461E+02  0.10813594320E+03  0.10100000352E+00 0. -1.
</event>
<event>
 5   0  0.5038436E-02  0.4986114E+03  0.7818609E-02  0.1014142E+00
       -1   -1    0    0    0  501  0.00000000000E+00  0.00000000000E+00  0.39087974827E+03  0.39087974830E+03  0.50400001928E-02 0. -1.
        1   -1    0    0  501    0  0.00000000000E+00  0.00000000000E+00 -0.15900883714E+03  0.15900883722E+03  0.50400001928E-02 0.  1.
    10030    2    1    2    0    0  0.00000000000E+00  0.00000000000E+00  0.23187091113E+03  0.54988858552E+03  0.49861140887E+03 0.  0.
        1    1    3    3  502    0 -0.31023360567E+02 -0.24340317268E+03  0.67288075355E+02  0.25443120580E+03  0.50400001928E-02 0.  1.
       -1    1    3    3    0  502  0.31023360567E+02  0.24340317268E+03  0.16458283577E+03  0.29545737972E+03  0.50400001928E-02 0. -1.
</event>
<event>
 5   0  0.8208720E-02  0.5004791E+03  0.7818609E-02  0.1013654E+00
        2   -1    0    0  501    0  0.00000000000E+00  0.00000000000E+00  0.94195309330E+02  0.94195309364E+02  0.25500000920E-02 0.  1.
       -2   -1    0    0    0  501  0.00000000000E+00  0.00000000000E+00 -0.66478704385E+03  0.66478704385E+03  0.25500000920E-02 0. -1.
    10030    2    1    2    0    0  0.00000000000E+00  0.00000000000E+00 -0.57059173452E+03  0.75898235321E+03  0.50047905550E+03 0.  0.
        3    1    3    3  502    0  0.95295125203E+02  0.86365950293E+02  0.40240859951E+02  0.13475746832E+03  0.10100000352E+00 0.  1.
       -3    1    3    3    0  502 -0.95295125203E+02 -0.86365950293E+02 -0.61083259447E+03  0.62422488489E+03  0.10100000352E+00 0. -1.
</event>
<event>
 5   0  0.4803890E-02  0.4998462E+03  0.7818609E-02  0.1013819E+00
       -1   -1    0    0    0  501  0.00000000000E+00  0.00000000000E+00  0.67556989374E+02  0.67556989562E+02  0.50400001928E-02 0.  1.
        1   -1    0    0  501    0  0.00000000000E+00  0.00000000000E+00 -0.92457573929E+03  0.92457573930E+03  0.50400001928E-02 0. -1.
    10030    2    1    2    0    0  0.00000000000E+00  0.00000000000E+00 -0.85701874991E+03  0.99213272886E+03  0.49984619032E+03 0.  0.
        5    1    3    3  502    0 -0.10560168369E+03 -0.20019305504E+03 -0.63866724640E+03  0.67760380496E+03  0.46999998093E+01 0. -1.
       -5    1    3    3    0  502  0.10560168369E+03  0.20019305504E+03 -0.21835150352E+03  0.31452892390E+03  0.46999998093E+01 0.  1.
</event>
<event>
 5   0  0.4884478E-02  0.4979341E+03  0.7818609E-02  0.1014320E+00
       -1   -1    0    0    0  501  0.00000000000E+00  0.00000000000E+00  0.68526514679E+02  0.68526514864E+02  0.50400001928E-02 0. -1.
        1   -1    0    0  501    0  0.00000000000E+00  0.00000000000E+00 -0.90453432185E+03  0.90453432186E+03  0.50400001928E-02 0.  1.
    10030    2    1    2    0    0  0.00000000000E+00  0.00000000000E+00 -0.83600780717E+03  0.97306083673E+03  0.49793407026E+03 0.  0.
        3    1    3    3  502    0  0.24293050127E+03  0.39275314175E+02 -0.34418815375E+03  0.42311142047E+03  0.10100000352E+00 0. -1.
       -3    1    3    3    0  502 -0.24293050127E+03 -0.39275314175E+02 -0.49181965342E+03  0.54994941626E+03  0.10100000352E+00 0.  1.
</event>
<event>
 5   0  0.5191358E-02  0.5000259E+03  0.7818609E-02  0.1013772E+00
        1   -1    0    0  501    0  0.00000000000E+00  0.00000000000E+00  0.42417428255E+03  0.42417428258E+03  0.50400001928E-02 0.  1.
       -1   -1    0    0    0  501  0.00000000000E+00  0.00000000000E+00 -0.14736034052E+03  0.14736034061E+03  0.50400001928E-02 0. -1.
    10030    2    1    2    0    0  0.00000000000E+00  0.00000000000E+00  0.27681394203E+03  0.57153462319E+03  0.50002586633E+03 0.  0.
        4    1    3    3  502    0 -0.53619335904E+00  0.20178860317E+03 -0.30301964688E+02  0.20405575178E+03  0.12699999809E+01 0. -1.
       -4    1    3    3    0  502  0.53619335904E+00 -0.20178860317E+03  0.30711590672E+03  0.36747887141E+03  0.12699999809E+01 0.  1.
</event>
<event>
 5   0  0.4803890E-02  0.4975200E+03  0.7818609E-02  0.1014428E+00
       -1   -1    0    0    0  501  0.00000000000E+00  0.00000000000E+00  0.11770592175E+03  0.11770592185E+03  0.50400001928E-02 0.  1.
        1   -1    0    0  501    0  0.00000000000E+00  0.00000000000E+00 -0.52573010866E+03  0.52573010868E+03  0.50400001928E-02 0. -1.
    10030    2    1    2    0    0  0.00000000000E+00  0.00000000000E+00 -0.40802418691E+03  0.64343603054E+03  0.49752003808E+03 0.  0.
        5    1    3    3  502    0 -0.16215541222E+02 -0.22546722831E+03 -0.33817175927E+03  0.40679312136E+03  0.46999998093E+01 0. -1.
       -5    1    3    3    0  502  0.16215541222E+02  0.22546722831E+03 -0.69852427645E+02  0.23664290918E+03  0.46999998093E+01 0.  1.
</event>
<event>
 5   0  0.5191358E-02  0.4985807E+03  0.7818609E-02  0.1014150E+00
       -1   -1    0    0    0  501  0.00000000000E+00  0.00000000000E+00  0.10158836474E+03  0.10158836487E+03  0.50400001928E-02 0.  1.
        1   -1    0    0  501    0  0.00000000000E+00  0.00000000000E+00 -0.61174007337E+03  0.61174007339E+03  0.50400001928E-02 0. -1.
    10030    2    1    2    0    0  0.00000000000E+00  0.00000000000E+00 -0.51015170863E+03  0.71332843825E+03  0.49858068054E+03 0.  0.
        4    1    3    3  502    0 -0.68775337362E+02 -0.23954487461E+03 -0.26320289636E+03  0.36247644273E+03  0.12699999809E+01 0.  1.
       -4    1    3    3    0  502  0.68775337362E+02  0.23954487461E+03 -0.24694881227E+03  0.35085199552E+03  0.12699999809E+01 0. -1.
</event>
<event>
 5   0  0.7881060E-02  0.5028178E+03  0.7818609E-02  0.1013046E+00
        2   -1    0    0  501    0  0.00000000000E+00  0.00000000000E+00  0.48119813918E+03  0.48119813919E+03  0.25500000920E-02 0.  1.
       -2   -1    0    0    0  501  0.00000000000E+00  0.00000000000E+00 -0.13135221214E+03  0.13135221216E+03  0.25500000920E-02 0. -1.
    10030    2    1    2    0    0  0.00000000000E+00  0.00000000000E+00  0.34984592704E+03  0.61255035135E+03  0.50281782016E+03 0.  0.
        1    1    3    3  502    0 -0.12084038382E+02 -0.19811742308E+02 -0.13004466393E+03  0.13209899227E+03  0.50400001928E-02 0. -1.
       -1    1    3    3    0  502  0.12084038382E+02  0.19811742308E+02  0.47989059097E+03  0.48045135908E+03  0.50400001928E-02 0.  1.
</event>
<event>
 5   0  0.5191358E-02  0.5019737E+03  0.7818609E-02  0.1013265E+00
       -1   -1    0    0    0  501  0.00000000000E+00  0.00000000000E+00  0.38870961656E+02  0.38870961983E+02  0.50400001928E-02 0. -1.
        1   -1    0    0  501    0  0.00000000000E+00  0.00000000000E+00 -0.16206033500E+04  0.16206033500E+04  0.50400001928E-02 0.  1.
    10030    2    1    2    0    0  0.00000000000E+00  0.00000000000E+00 -0.15817323883E+04  0.16594743120E+04  0.50197374813E+03 0.  0.
        4    1    3    3  502    0  0.16271906936E+02  0.16948663332E+03 -0.18126795602E+03  0.24869696140E+03  0.12699999809E+01 0. -1.
       -4    1    3    3    0  502 -0.16271906936E+02 -0.16948663332E+03 -0.14004644323E+04  0.14107773506E+04  0.12699999809E+01 0.  1.
</event>
<event>
 5   0  0.8208720E-02  0.5006688E+03  0.7818609E-02  0.1013604E+00
       -2   -1    0    0    0  501  0.00000000000E+00  0.00000000000E+00  0.37319872577E+02  0.37319872664E+02  0.25500000920E-02 0.  1.
        2   -1    0    0  501    0  0.00000000000E+00  0.00000000000E+00 -0.16791941294E+04  0.16791941294E+04  0.25500000920E-02 0. -1.
    10030    2    1    2    0    0  0.00000000000E+00  0.00000000000E+00 -0.16418742568E+04  0.17165140021E+04  0.50066879678E+03 0.  0.
        3    1    3    3  502    0  0.21826161183E+03 -0.10816017365E+03 -0.10187955647E+04  0.10475118936E+04  0.10100000352E+00 0.  1.
       -3    1    3    3    0  502 -0.21826161183E+03  0.10816017365E+03 -0.62307869217E+03  0.66900210852E+03  0.10100000352E+00 0. -1.
</event>
<event>
 5   0  0.7776070E-02  0.5024571E+03  0.7818609E-02  0.1013140E+00
        2   -1    0    0  501    0  0.00000000000E+00  0.00000000000E+00  0.64328109461E+03  0.64328109461E+03  0.25500000920E-02 0. -1.
       -2   -1    0    0    0  501  0.00000000000E+00  0.00000000000E+00 -0.98115397719E+02  0.98115397752E+02  0.25500000920E-02 0.  1.
    10030    2    1    2    0    0  0.00000000000E+00  0.00000000000E+00  0.54516569689E+03  0.74139649236E+03  0.50245708456E+03 0.  0.
        4    1    3    3  502    0 -0.98005620931E+01 -0.14491871156E+03  0.57503901119E+03  0.59310113915E+03  0.12699999809E+01 0. -1.
       -4    1    3    3    0  502  0.98005620931E+01  0.14491871156E+03 -0.29873314299E+02  0.14829535321E+03  0.12699999809E+01 0.  1.
</event>
<event>
 5   0  0.5191358E-02  0.4985192E+03  0.7818609E-02  0.1014166E+00
       -1   -1    0    0    0  501  0.00000000000E+00  0.00000000000E+00  0.21144033008E+03  0.21144033014E+03  0.50400001928E-02 0. -1.
        1   -1    0    0  501    0  0.00000000000E+00  0.00000000000E+00 -0.29384337263E+03  0.29384337267E+03  0.50400001928E-02 0.  1.
    10030    2    1    2    0    0  0.00000000000E+00  0.00000000000E+00 -0.82403042549E+02  0.50528370281E+03  0.49851916604E+03 0.  0.
        4    1    3    3  502    0  0.83762986838E+02 -0.31806590400E+02  0.19455048307E+03  0.21419477239E+03  0.12699999809E+01 0. -1.
       -4    1    3    3    0  502 -0.83762986838E+02  0.31806590400E+02 -0.27695352562E+03  0.29108893042E+03  0.12699999809E+01 0.  1.
</event>
<event>
 5   0  0.5038436E-02  0.4988099E+03  0.7818609E-02  0.1014090E+00
        1   -1    0    0  501    0  0.00000000000E+00  0.00000000000E+00  0.52830109077E+03  0.52830109080E+03  0.50400001928E-02 0. -1.
       -1   -1    0    0    0  501  0.00000000000E+00  0.00000000000E+00 -0.11774123914E+03  0.11774123925E+03  0.50400001928E-02 0.  1.
    10030    2    1    2    0    0  0.00000000000E+00  0.00000000000E+00  0.41055985163E+03  0.64604233004E+03  0.49880988406E+03 0.  0.
        1    1    3    3  502    0  0.96099535081E+02 -0.43088037839E+02  0.49808840319E+03  0.50910093013E+03  0.50400001928E-02 0. -1.
       -1    1    3    3    0  502 -0.96099535081E+02  0.43088037839E+02 -0.87528551554E+02  0.13694139991E+03  0.50400001928E-02 0.  1.
</event>
<event>
 5   0  0.7698747E-02  0.4974683E+03  0.7818609E-02  0.1014442E+00
       -2   -1    0    0    0  501  0.00000000000E+00  0.00000000000E+00  0.52561784171E+02  0.52561784233E+02  0.25500000920E-02 0. -1.
        2   -1    0    0  501    0  0.00000000000E+00  0.00000000000E+00 -0.11770659542E+04  0.11770659542E+04  0.25500000920E-02 0.  1.
    10030    2    1    2    0    0  0.00000000000E+00  0.00000000000E+00 -0.11245041700E+04  0.12296277384E+04  0.49746833739E+03 0.  0.
        2    1    3    3  502    0  0.15606599385E+03  0.11369467502E+03 -0.94982081415E+03  0.96924849887E+03  0.25500000920E-02 0.  1.
       -2    1    3    3    0  502 -0.15606599385E+03 -0.11369467502E+03 -0.17468335585E+03  0.26037923954E+03  0.25500000920E-02 0. -1.
</event>
<event>
 5   0  0.8208720E-02  0.4968289E+03  0.7818609E-02  0.1014610E+00
        2   -1    0    0  501    0  0.00000000000E+00  0.00000000000E+00  0.21937655632E+03  0.21937655634E+03  0.25500000920E-02 0. -1.
       -2   -1    0    0    0  501  0.00000000000E+00  0.00000000000E+00 -0.28129600123E+03  0.28129600124E+03  0.25500000920E-02 0.  1.
    10030    2    1    2    0    0  0.00000000000E+00  0.00000000000E+00 -0.61919444909E+02  0.50067255758E+03  0.49682893661E+03 0.  0.
        3    1    3    3  502    0  0.19196823142E+03  0.27041238835E+01 -0.18982008601E+03  0.26998294282E+03  0.10100000352E+00 0.  1.
       -3    1    3    3    0  502 -0.19196823142E+03 -0.27041238835E+01  0.12790064110E+03  0.23068961476E+03  0.10100000352E+00 0. -1.
</event>
<event>
 5   0  0.5191358E-02  0.5080133E+03  0.7818609E-02  0.1011708E+00
       -1   -1    0    0    0  501  0.00000000000E+00  0.00000000000E+00  0.13747698699E+03  0.13747698708E+03  0.50400001928E-02 0.  1.
        1   -1    0    0  501    0  0.00000000000E+00  0.00000000000E+00 -0.46931037079E+03  0.46931037082E+03  0.50400001928E-02 0. -1.
    10030    2    1    2    0    0  0.00000000000E+00  0.00000000000E+00 -0.33183338380E+03  0.60678735790E+03  0.50801329028E+03 0.  0.
        4    1    3    3  502    0  0.23540384247E+03 -0.95405397207E+02 -0.16684498124E+03  0.30390133190E+03  0.12699999809E+01 0.  1.
       -4    1    3    3    0  502 -0.23540384247E+03  0.95405397207E+02 -0.16498840255E+03  0.30288602600E+03  0.12699999809E+01 0. -1.
</event>
<event>
 5   0  0.4865501E-02  0.4812958E+03  0.7818609E-02  0.1018780E+00
        1   -1    0    0  501    0  0.00000000000E+00  0.00000000000E+00  0.70148710161E+03  0.70148710163E+03  0.50400001928E-02 0. -1.
       -1   -1    0    0    0  501  0.00000000000E+00  0.00000000000E+00 -0.82555189082E+02  0.82555189236E+02  0.50400001928E-02 0.  1.
    10030    2    1    2    0    0  0.00000000000E+00  0.00000000000E+00  0.61893191253E+03  0.78404229086E+03  0.48129575265E+03 0.  0.
        2    1    3    3  502    0 -0.19750546713E+03  0.10781748290E+03  0.44844357269E+03  0.50173165842E+03  0.25500000920E-02 0. -1.
       -2    1    3    3    0  502  0.19750546713E+03 -0.10781748290E+03  0.17048833983E+03  0.28231063244E+03  0.25500000920E-02 0.  1.
</event>
<event>
 5   0  0.5038436E-02  0.4966005E+03  0.7818609E-02  0.1014670E+00
       -1   -1    0    0    0  501  0.00000000000E+00  0.00000000000E+00  0.15664182848E+03  0.15664182856E+03  0.50400001928E-02 0.  1.
        1   -1    0    0  501    0  0.00000000000E+00  0.00000000000E+00 -0.39359232159E+03  0.39359232162E+03  0.50400001928E-02 0. -1.
    10030    2    1    2    0    0  0.00000000000E+00  0.00000000000E+00 -0.23695049311E+03  0.55023415019E+03  0.49660052743E+03 0.  0.
        1    1    3    3  502    0  0.34521316882E+02  0.67720496601E+01 -0.39081706469E+03  0.39239719680E+03  0.50400001928E-02 0. -1.
       -1    1    3    3    0  502 -0.34521316882E+02 -0.67720496601E+01  0.15386657159E+03  0.15783695338E+03  0.50400001928E-02 0.  1.
</event>
<event>
 5   0  0.7698747E-02  0.5010894E+03  0.7818609E-02  0.1013495E+00
        2   -1    0    0  501    0  0.00000000000E+00  0.00000000000E+00  0.35298903288E+03  0.35298903289E+03  0.25500000920E-02 0.  1.
       -2   -1    0    0    0  501  0.00000000000E+00  0.00000000000E+00 -0.17783169419E+03  0.17783169421E+03  0.25500000920E-02 0. -1.
    10030    2    1    2    0    0  0.00000000000E+00  0.00000000000E+00  0.17515733869E+03  0.53082072710E+03  0.50108936431E+03 0.  0.
        2    1    3    3  502    0 -0.16820479856E+03  0.16118075487E+02 -0.10838367843E+03  0.20074777303E+03  0.25500000920E-02 0. -1.
       -2    1    3    3    0  502  0.16820479856E+03 -0.16118075487E+02  0.28354101712E+03  0.33007295408E+03  0.25500000920E-02 0.  1.
</event>
<event>
 5   0  0.3210875E-02  0.5075620E+03  0.7818609E-02  0.1011824E+00
       -3   -1    0    0    0  501  0.00000000000E+00  0.00000000000E+00  0.17345565075E+03  0.17345568016E+03  0.10100000352E+00 0.  1.
        3   -1    0    0  501    0  0.00000000000E+00  0.00000000000E+00 -0.37130400341E+03  0.37130401714E+03  0.10100000352E+00 0. -1.
    10030    2    1    2    0    0  0.00000000000E+00  0.00000000000E+00 -0.19784835265E+03  0.54475969730E+03  0.50756197371E+03 0.  0.
        1    1    3    3  502    0 -0.11467853138E+03  0.14299675482E+03 -0.28730226611E+03  0.34079587672E+03  0.50400001928E-02 0. -1.
       -1    1    3    3    0  502  0.11467853138E+03 -0.14299675482E+03  0.89453913458E+02  0.20396382058E+03  0.50400001928E-02 0.  1.
</event>
<event>
 5   0  0.4884478E-02  0.4973337E+03  0.7818609E-02  0.1014477E+00
        1   -1    0    0  501    0  0.00000000000E+00  0.00000000000E+00  0.39477554468E+03  0.39477554471E+03  0.50400001928E-02 0.  1.
       -1   -1    0    0    0  501  0.00000000000E+00  0.00000000000E+00 -0.15663383561E+03  0.15663383569E+03  0.50400001928E-02 0. -1.
    10030    2    1    2    0    0  0.00000000000E+00  0.00000000000E+00  0.23814170907E+03  0.55140938040E+03  0.49733372215E+03 0.  0.
        3    1    3    3  502    0 -0.23490564910E+03  0.79669467675E+02  0.13850718442E+03  0.28409881801E+03  0.10100000352E+00 0. -1.
       -3    1    3    3    0  502  0.23490564910E+03 -0.79669467675E+02  0.99634524647E+02  0.26731056238E+03  0.10100000352E+00 0.  1.
</event>
<event>
 5   0  0.4884478E-02  0.5007969E+03  0.7818609E-02  0.1013571E+00
       -1   -1    0    0    0  501  0.00000000000E+00  0.00000000000E+00  0.50656965455E+02  0.50656965706E+02  0.50400001928E-02 0. -1.
        1   -1    0    0  501    0  0.00000000000E+00  0.00000000000E+00 -0.12377248471E+04  0.12377248471E+04  0.50400001928E-02 0.  1.
    10030    2    1    2    0    0  0.00000000000E+00  0.00000000000E+00 -0.11870678817E+04  0.12883818128E+04  0.50079690491E+03 0.  0.
        3    1    3    3  502    0 -0.98400261801E+02  0.22880041266E+03 -0.65998312120E+03  0.70541475093E+03  0.10100000352E+00 0. -1.
       -3    1    3    3    0  502  0.98400261801E+02 -0.22880041266E+03 -0.52708476046E+03  0.58296706190E+03  0.10100000352E+00 0.  1.
</event>
<event>
 5   0  0.8208720E-02  0.4982456E+03  0.7818609E-02  0.1014238E+00
        2   -1    0    0  501    0  0.00000000000E+00  0.00000000000E+00  0.36466693948E+03  0.36466693949E+03  0.25500000920E-02 0.  1.
       -2   -1    0    0    0  501  0.00000000000E+00  0.00000000000E+00 -0.17018865359E+03  0.17018865361E+03  0.25500000920E-02 0. -1.
    10030    2    1    2    0    0  0.00000000000E+00  0.00000000000E+00  0.19447828589E+03  0.53485559310E+03  0.49824562395E+03 0.  0.
        3    1    3    3  502    0 -0.20112863941E+03 -0.77941547578E+02 -0.36556631806E+02  0.21877845405E+03  0.10100000352E+00 0.  1.
       -3    1    3    3    0  502  0.20112863941E+03  0.77941547578E+02  0.23103491770E+03  0.31607713904E+03  0.10100000352E+00 0. -1.
</event>
<event>
 5   0  0.8208720E-02  0.5014649E+03  0.7818609E-02  0.1013397E+00
        2   -1    0    0  501    0  0.00000000000E+00  0.00000000000E+00  0.15222695849E+04  0.15222695849E+04  0.25500000920E-02 0.  1.
       -2   -1    0    0    0  501  0.00000000000E+00  0.00000000000E+00 -0.41298046392E+02  0.41298046471E+02  0.25500000920E-02 0. -1.
    10030    2    1    2    0    0  0.00000000000E+00  0.00000000000E+00  0.14809715385E+04  0.15635676314E+04  0.50146489409E+03 0.  0.
        3    1    3    3  502    0  0.16255434483E+03 -0.11751532138E+03  0.27140563078E+03  0.33748302535E+03  0.10100000352E+00 0. -1.
       -3    1    3    3    0  502 -0.16255434483E+03  0.11751532138E+03  0.12095659077E+04  0.12260846060E+04  0.10100000352E+00 0.  1.
</event>
<event>
 5   0  0.5038436E-02  0.5042200E+03  0.7818609E-02  0.1012683E+00
        1   -1    0    0  501    0  0.00000000000E+00  0.00000000000E+00  0.41892505545E+03  0.41892505548E+03  0.50400001928E-02 0. -1.
       -1   -1    0    0    0  501  0.00000000000E+00  0.00000000000E+00 -0.15172034463E+03  0.15172034471E+03  0.50400001928E-02 0.  1.
    10030    2    1    2    0    0  0.00000000000E+00  0.00000000000E+00  0.26720471083E+03  0.57064540019E+03  0.50422000682E+03 0.  0.
        1    1    3    3  502    0  0.78044147156E+02  0.23515642038E+03  0.18632271937E+03  0.31000901072E+03  0.50400001928E-02 0. -1.
       -1    1    3    3    0  502 -0.78044147156E+02 -0.23515642038E+03  0.80881991453E+02  0.26063638947E+03  0.50400001928E-02 0.  1.
</event>
<event>
 5   0  0.3210875E-02  0.4881824E+03  0.7818609E-02  0.1016910E+00
        3   -1    0    0  501    0  0.00000000000E+00  0.00000000000E+00  0.11465314858E+04  0.11465314902E+04  0.10100000352E+00 0.  1.
       -3   -1    0    0    0  501  0.00000000000E+00  0.00000000000E+00 -0.51965818177E+02  0.51965916328E+02  0.10100000352E+00 0. -1.
    10030    2    1    2    0    0  0.00000000000E+00  0.00000000000E+00  0.10945656676E+04  0.11984974065E+04  0.48818237660E+03 0.  0.
        3    1    3    3  502    0 -0.20531390779E+03  0.10037295949E+03  0.75778508964E+03  0.79149654706E+03  0.10100000352E+00 0.  1.
       -3    1    3    3    0  502  0.20531390779E+03 -0.10037295949E+03  0.33678057794E+03  0.40700085947E+03  0.10100000352E+00 0. -1.
</event>
<event>
 5   0  0.7881060E-02  0.4978010E+03  0.7818609E-02  0.1014354E+00
        2   -1    0    0  501    0  0.00000000000E+00  0.00000000000E+00  0.12378843388E+03  0.12378843391E+03  0.25500000920E-02 0.  1.
       -2   -1    0    0    0  501  0.00000000000E+00  0.00000000000E+00 -0.50046239741E+03  0.50046239742E+03  0.25500000920E-02 0. -1.
    10030    2    1    2    0    0  0.00000000000E+00  0.00000000000E+00 -0.37667396353E+03  0.62425083133E+03  0.49780098997E+03 0.  0.
        1    1    3    3  502    0  0.19531318861E+03  0.15427558645E+03 -0.18607343555E+03  0.31075958821E+03  0.50400001928E-02 0. -1.
       -1    1    3    3    0  502 -0.19531318861E+03 -0.15427558645E+03 -0.19060052798E+03  0.31349124312E+03  0.50400001928E-02 0.  1.
</event>
<event>
 5   0  0.4865501E-02  0.5011702E+03  0.7818609E-02  0.1013474E+00
       -1   -1    0    0    0  501  0.00000000000E+00  0.00000000000E+00  0.21885324979E+03  0.21885324985E+03  0.50400001928E-02 0.  1.
        1   -1    0    0  501    0  0.00000000000E+00  0.00000000000E+00 -0.28691783579E+03  0.28691783583E+03  0.50400001928E-02 0. -1.
    10030    2    1    2    0    0  0.00000000000E+00  0.00000000000E+00 -0.68064585998E+02  0.50577108568E+03  0.50117023380E+03 0.  0.
        2    1    3    3  502    0 -0.66716169934E+02 -0.23713628897E+03 -0.80369315918E+02  0.25912138821E+03  0.25500000920E-02 0.  1.
       -2    1    3    3    0  502  0.66716169934E+02  0.23713628897E+03  0.12304729920E+02  0.24664969747E+03  0.25500000920E-02 0. -1.
</event>
<event>
 5   0  0.5038436E-02  0.5012363E+03  0.7818609E-02  0.1013457E+00
        1   -1    0    0  501    0  0.00000000000E+00  0.00000000000E+00  0.18703526327E+03  0.18703526333E+03  0.50400001928E-02 0. -1.
       -1   -1    0    0    0  501  0.00000000000E+00  0.00000000000E+00 -0.33581606273E+03  0.33581606277E+03  0.50400001928E-02 0.  1.
    10030    2    1    2    0    0  0.00000000000E+00  0.00000000000E+00 -0.14878079947E+03  0.52285132610E+03  0.50123625459E+03 0.  0.
        1    1    3    3  502    0 -0.19182485587E+03  0.16028464028E+03 -0.93094173599E+02  0.26674794549E+03  0.50400001928E-02 0. -1.
       -1    1    3    3    0  502  0.19182485587E+03 -0.16028464028E+03 -0.55686625866E+02  0.25610338062E+03  0.50400001928E-02 0.  1.
</event>
<event>
 5   0  0.3210875E-02  0.5013007E+03  0.7818609E-02  0.1013440E+00
        4   -1    0    0  501    0  0.00000000000E+00  0.00000000000E+00  0.51854036488E+03  0.51854192011E+03  0.12699999809E+01 0. -1.
       -4   -1    0    0    0  501  0.00000000000E+00  0.00000000000E+00 -0.12115350014E+03  0.12116015638E+03  0.12699999809E+01 0.  1.
    10030    2    1    2    0    0  0.00000000000E+00  0.00000000000E+00  0.39738686474E+03  0.63970207649E+03  0.50130073449E+03 0.  0.
        2    1    3    3  502    0  0.17843464998E+03  0.33123102232E+01  0.42328324900E+03  0.45936761380E+03  0.25500000920E-02 0. -1.
       -2    1    3    3    0  502 -0.17843464998E+03 -0.33123102232E+01 -0.25896384258E+02  0.18033446270E+03  0.25500000920E-02 0.  1.
</event>
<event>
 5   0  0.7881060E-02  0.4861225E+03  0.7818609E-02  0.1017466E+00
        2   -1    0    0  501    0  0.00000000000E+00  0.00000000000E+00  0.28779673731E+03  0.28779673732E+03  0.25500000920E-02 0.  1.
       -2   -1    0    0    0  501  0.00000000000E+00  0.00000000000E+00 -0.20527947474E+03  0.20527947475E+03  0.25500000920E-02 0. -1.
    10030    2    1    2    0    0  0.00000000000E+00  0.00000000000E+00  0.82517262568E+02  0.49307621207E+03  0.48612246635E+03 0.  0.
        1    1    3    3  502    0  0.19839580103E+03  0.57918764263E+02 -0.88490248793E+02  0.22482437874E+03  0.50400001928E-02 0. -1.
       -1    1    3    3    0  502 -0.19839580103E+03 -0.57918764263E+02  0.17100751136E+03  0.26825183333E+03  0.50400001928E-02 0.  1.
</event>
<event>
 5   0  0.4865501E-02  0.5048569E+03  0.7818609E-02  0.1012519E+00
       -1   -1    0    0    0  501  0.00000000000E+00  0.00000000000E+00  0.47065825700E+03  0.47065825703E+03  0.50400001928E-02 0. -1.
        1   -1    0    0  501    0  0.00000000000E+00  0.00000000000E+00 -0.13538510380E+03  0.13538510390E+03  0.50400001928E-02 0.  1.
    10030    2    1    2    0    0  0.00000000000E+00  0.00000000000E+00  0.33527315320E+03  0.60604336093E+03  0.50485687880E+03 0.  0.
        2    1    3    3  502    0  0.89931591675E+02 -0.12184205144E+03  0.41007194796E+03  0.43714091457E+03  0.25500000920E-02 0. -1.
       -2    1    3    3    0  502 -0.89931591675E+02  0.12184205144E+03 -0.74798794765E+02  0.16890244636E+03  0.25500000920E-02 0.  1.
</event>
<event>
 5   0  0.4865501E-02  0.4984299E+03  0.7818609E-02  0.1014190E+00
        1   -1    0    0  501    0  0.00000000000E+00  0.00000000000E+00  0.57127431473E+03  0.57127431476E+03  0.50400001928E-02 0. -1.
       -1   -1    0    0    0  501  0.00000000000E+00  0.00000000000E+00 -0.10871852049E+03  0.10871852061E+03  0.50400001928E-02 0.  1.
    10030    2    1    2    0    0  0.00000000000E+00  0.00000000000E+00  0.46255579424E+03  0.67999283536E+03  0.49842992824E+03 0.  0.
        2    1    3    3  502    0  0.11311263636E+02  0.20799941457E+03  0.44635049605E+02  0.21303518209E+03  0.25500000920E-02 0.  1.
       -2    1    3    3    0  502 -0.11311263636E+02 -0.20799941457E+03  0.41792074464E+03  0.46695765327E+03  0.25500000920E-02 0. -1.
</event>
<event>
 5   0  0.7698747E-02  0.5009603E+03  0.7818609E-02  0.1013529E+00
       -2   -1    0    0    0  501  0.00000000000E+00  0.00000000000E+00  0.32955407412E+02  0.32955407511E+02  0.25500000920E-02 0. -1.
        2   -1    0    0  501    0  0.00000000000E+00  0.00000000000E+00 -0.19037936049E+04  0.19037936049E+04  0.25500000920E-02 0.  1.
    10030    2    1    2    0    0  0.00000000000E+00  0.00000000000E+00 -0.18708381975E+04  0.19367490124E+04  0.50096025381E+03 0.  0.
        2    1    3    3  502    0 -0.20447502946E+03  0.13376166808E+03 -0.11485120753E+04  0.11742155716E+04  0.25500000920E-02 0. -1.
       -2    1    3    3    0  502  0.20447502946E+03 -0.13376166808E+03 -0.72232612218E+03  0.76253344078E+03  0.25500000920E-02 0.  1.
</event>
<event>
 5   0  0.3210875E-02  0.4768364E+03  0.7818609E-02  0.1020008E+00
        3   -1    0    0  501    0  0.00000000000E+00  0.00000000000E+00  0.35198967292E+03  0.35198968741E+03  0.10100000352E+00 0. -1.
       -3   -1    0    0    0  501  0.00000000000E+00  0.00000000000E+00 -0.16149117367E+03  0.16149120525E+03  0.10100000352E+00 0.  1.
    10030    2    1    2    0    0  0.00000000000E+00  0.00000000000E+00  0.19049849925E+03  0.51348089267E+03  0.47683639638E+03 0.  0.
        2    1    3    3  502    0 -0.10408707642E+03  0.43189247036E+01  0.32618373400E+03  0.34241583042E+03  0.25500000920E-02 0. -1.
       -2    1    3    3    0  502  0.10408707642E+03 -0.43189247036E+01 -0.13568523475E+03  0.17106506225E+03  0.25500000920E-02 0.  1.
</event>
<event>
 5   0  0.4884478E-02  0.4994464E+03  0.7818609E-02  0.1013924E+00
        1   -1    0    0  501    0  0.00000000000E+00  0.00000000000E+00  0.29079374957E+03  0.29079374961E+03  0.50400001928E-02 0.  1.
       -1   -1    0    0    0  501  0.00000000000E+00  0.00000000000E+00 -0.21445325369E+03  0.21445325375E+03  0.50400001928E-02 0. -1.
    10030    2    1    2    0    0  0.00000000000E+00  0.00000000000E+00  0.76340495880E+02  0.50524700336E+03  0.49944635658E+03 0.  0.
        3    1    3    3  502    0 -0.13561986324E+03  0.20563818762E+03 -0.33163440376E+01  0.24635506865E+03  0.10100000352E+00 0.  1.
       -3    1    3    3    0  502  0.13561986324E+03 -0.20563818762E+03  0.79656839918E+02  0.25889193471E+03  0.10100000352E+00 0. -1.
</event>
<event>
 5   0  0.7933103E-02  0.4997899E+03  0.7818609E-02  0.1013834E+00
       -2   -1    0    0    0  501  0.00000000000E+00  0.00000000000E+00  0.36789669039E+02  0.36789669128E+02  0.25500000920E-02 0.  1.
        2   -1    0    0  501    0  0.00000000000E+00  0.00000000000E+00 -0.16974191470E+04  0.16974191470E+04  0.25500000920E-02 0. -1.
    10030    2    1    2    0    0  0.00000000000E+00  0.00000000000E+00 -0.16606294779E+04  0.17342088161E+04  0.49978991073E+03 0.  0.
        5    1    3    3  502    0  0.75496834759E+02  0.18830966951E+03 -0.32431817369E+03  0.38257636032E+03  0.46999998093E+01 0.  1.
       -5    1    3    3    0  502 -0.75496834759E+02 -0.18830966951E+03 -0.13363113042E+04  0.13516324558E+04  0.46999998093E+01 0. -1.
</event>
<event>
 5   0  0.4884478E-02  0.5028414E+03  0.7818609E-02  0.1013040E+00
       -1   -1    0    0    0  501  0.00000000000E+00  0.00000000000E+00  0.38304446084E+03  0.38304446087E+03  0.50400001928E-02 0. -1.
        1   -1    0    0  501    0  0.00000000000E+00  0.00000000000E+00 -0.16502620627E+03  0.16502620634E+03  0.50400001928E-02 0.  1.
    10030    2    1    2    0    0  0.00000000000E+00  0.00000000000E+00  0.21801825457E+03  0.54807066721E+03  0.50284142325E+03 0.  0.
        3    1    3    3  502    0 -0.18629215020E+03  0.15160704070E+03  0.28008336265E+02  0.24181384807E+03  0.10100000352E+00 0.  1.
       -3    1    3    3    0  502  0.18629215020E+03 -0.15160704070E+03  0.19000991831E+03  0.30625681914E+03  0.10100000352E+00 0. -1.
</event>
<event>
 5   0  0.7698747E-02  0.4954234E+03  0.7818609E-02  0.1014980E+00
        2   -1    0    0  501    0  0.00000000000E+00  0.00000000000E+00  0.41207596046E+03  0.41207596047E+03  0.25500000920E-02 0. -1.
       -2   -1    0    0    0  501  0.00000000000E+00  0.00000000000E+00 -0.14890723723E+03  0.14890723725E+03  0.25500000920E-02 0.  1.
    10030    2    1    2    0    0  0.00000000000E+00  0.00000000000E+00  0.26316872323E+03  0.56098319771E+03  0.49542342620E+03 0.  0.
        2    1    3    3  502    0  0.24325905894E+03  0.29906365191E+01  0.78749521496E+02  0.25570569177E+03  0.25500000920E-02 0. -1.
       -2    1    3    3    0  502 -0.24325905894E+03 -0.29906365191E+01  0.18441920174E+03  0.30527750595E+03  0.25500000920E-02 0.  1.
</event>
<event>
 5   0  0.7698747E-02  0.5036084E+03  0.7818609E-02  0.1012841E+00
        2   -1    0    0  501    0  0.00000000000E+00  0.00000000000E+00  0.20454996183E+04  0.20454996183E+04  0.25500000920E-02 0. -1.
       -2   -1    0    0    0  501  0.00000000000E+00  0.00000000000E+00 -0.30997495695E+02  0.30997495800E+02  0.25500000920E-02 0.  1.
    10030    2    1    2    0    0  0.00000000000E+00  0.00000000000E+00  0.20145021226E+04  0.20764971141E+04  0.50360844204E+03 0.  0.
        2    1    3    3  502    0  0.51158229612E+02 -0.12087386351E+03  0.18932935087E+04  0.18978377079E+04  0.25500000920E-02 0. -1.
       -2    1    3    3    0  502 -0.51158229612E+02  0.12087386351E+03  0.12120861387E+03  0.17865940619E+03  0.25500000920E-02 0.  1.
</event>
<event>
 5   0  0.5038436E-02  0.4980486E+03  0.7818609E-02  0.1014290E+00
        1   -1    0    0  501    0  0.00000000000E+00  0.00000000000E+00  0.15963472382E+03  0.15963472390E+03  0.50400001928E-02 0.  1.
       -1   -1    0    0    0  501  0.00000000000E+00  0.00000000000E+00 -0.38846882854E+03  0.38846882857E+03  0.50400001928E-02 0. -1.
    10030    2    1    2    0    0  0.00000000000E+00  0.00000000000E+00 -0.22883410471E+03  0.54810355247E+03  0.49804864898E+03 0.  0.
        1    1    3    3  502    0  0.33483601692E+02  0.10763838914E+03  0.12994877377E+03  0.17202865525E+03  0.50400001928E-02 0.  1.
       -1    1    3    3    0  502 -0.33483601692E+02 -0.10763838914E+03 -0.35878287848E+03  0.37607489722E+03  0.50400001928E-02 0. -1.
</event>
<event>
 5   0  0.8208720E-02  0.4995424E+03  0.7818609E-02  0.1013898E+00
       -2   -1    0    0    0  501  0.00000000000E+00  0.00000000000E+00  0.78250551683E+02  0.78250551725E+02  0.25500000920E-02 0. -1.
        2   -1    0    0  501    0  0.00000000000E+00  0.00000000000E+00 -0.79725507972E+03  0.79725507972E+03  0.25500000920E-02 0.  1.
    10030    2    1    2    0    0  0.00000000000E+00  0.00000000000E+00 -0.71900452803E+03  0.87550563145E+03  0.49954238995E+03 0.  0.
        3    1    3    3  502    0 -0.22460973131E+02 -0.22930549595E+03 -0.52851957821E+03  0.57655742172E+03  0.10100000352E+00 0. -1.
       -3    1    3    3    0  502  0.22460973131E+02  0.22930549595E+03 -0.19048494983E+03  0.29894820973E+03  0.10100000352E+00 0.  1.
</event>
<event>
 5   0  0.7698747E-02  0.4992592E+03  0.7818609E-02  0.1013972E+00
        2   -1    0    0  501    0  0.00000000000E+00  0.00000000000E+00  0.15572491034E+04  0.15572491035E+04  0.25500000920E-02 0.  1.
       -2   -1    0    0    0  501  0.00000000000E+00  0.00000000000E+00 -0.40016034419E+02  0.40016034501E+02  0.25500000920E-02 0. -1.
    10030    2    1    2    0    0  0.00000000000E+00  0.00000000000E+00  0.15172330690E+04  0.15972651380E+04  0.49925918635E+03 0.  0.
        2    1    3    3  502    0 -0.19410501020E+03  0.11086507906E+03  0.40312140065E+03  0.46094976343E+03  0.25500000920E-02 0. -1.
       -2    1    3    3    0  502  0.19410501020E+03 -0.11086507906E+03  0.11141116684E+04  0.11363153745E+04  0.25500000920E-02 0.  1.
</event>
<event>
 5   0  0.4884478E-02  0.5008028E+03  0.7818609E-02  0.1013570E+00
       -1   -1    0    0    0  501  0.00000000000E+00  0.00000000000E+00  0.83477547067E+02  0.83477547219E+02  0.50400001928E-02 0.  1.
        1   -1    0    0  501    0  0.00000000000E+00  0.00000000000E+00 -0.75111054196E+03  0.75111054198E+03  0.50400001928E-02 0. -1.
    10030    2    1    2    0    0  0.00000000000E+00  0.00000000000E+00 -0.66763299489E+03  0.83458808920E+03  0.50080281824E+03 0.  0.
        3    1    3    3  502    0  0.11463730151E+03  0.15327019399E+03 -0.60287964078E+03  0.63253247721E+03  0.10100000352E+00 0. -1.
       -3    1    3    3    0  502 -0.11463730151E+03 -0.15327019399E+03 -0.64753354115E+02  0.20205561198E+03  0.10100000352E+00 0.  1.
</event>
<event>
 5   0  0.4884478E-02  0.5027147E+03  0.7818609E-02  0.1013073E+00
        1   -1    0    0  501    0  0.00000000000E+00  0.00000000000E+00  0.23500833600E+03  0.23500833606E+03  0.50400001928E-02 0.  1.
       -1   -1    0    0    0  501  0.00000000000E+00  0.00000000000E+00 -0.26884378177E+03  0.26884378182E+03  0.50400001928E-02 0. -1.
    10030    2    1    2    0    0  0.00000000000E+00  0.00000000000E+00 -0.33835445767E+02  0.50385211788E+03  0.50271474943E+03 0.  0.
        3    1    3    3  502    0 -0.88839740233E+02 -0.12297944337E+03 -0.21778091249E+03  0.26541473015E+03  0.10100000352E+00 0. -1.
       -3    1    3    3    0  502  0.88839740233E+02  0.12297944337E+03  0.18394546672E+03  0.23843738772E+03  0.10100000352E+00 0.  1.
</event>
<event>
 5   0  0.5191358E-02  0.4993700E+03  0.7818609E-02  0.1013943E+00
        1   -1    0    0  501    0  0.00000000000E+00  0.00000000000E+00  0.28336891459E+03  0.28336891463E+03  0.50400001928E-02 0. -1.
       -1   -1    0    0    0  501  0.00000000000E+00  0.00000000000E+00 -0.22000505395E+03  0.22000505401E+03  0.50400001928E-02 0.  1.
    10030    2    1    2    0    0  0.00000000000E+00  0.00000000000E+00  0.63363860636E+02  0.50337396865E+03  0.49936997655E+03 0.  0.
        4    1    3    3  502    0 -0.19789844839E+03  0.11224565461E+03  0.13535646865E+03  0.26473735921E+03  0.12699999809E+01 0. -1.
       -4    1    3    3    0  502  0.19789844839E+03 -0.11224565461E+03 -0.71992608015E+02  0.23863660944E+03  0.12699999809E+01 0.  1.
</event>
<event>
 5   0  0.8208720E-02  0.5019926E+03  0.7818609E-02  0.1013260E+00
       -2   -1    0    0    0  501  0.00000000000E+00  0.00000000000E+00  0.60408593452E+03  0.60408593453E+03  0.25500000920E-02 0. -1.
        2   -1    0    0  501    0  0.00000000000E+00  0.00000000000E+00 -0.10428836783E+03  0.10428836786E+03  0.25500000920E-02 0.  1.
    10030    2    1    2    0    0  0.00000000000E+00  0.00000000000E+00  0.49979756669E+03  0.70837430239E+03  0.50199257426E+03 0.  0.
        3    1    3    3  502    0 -0.20558296544E+03  0.14238054773E+03  0.21954975426E+03  0.33277421902E+03  0.10100000352E+00 0.  1.
       -3    1    3    3    0  502  0.20558296544E+03 -0.14238054773E+03  0.28024781243E+03  0.37560008336E+03  0.10100000352E+00 0. -1.
</event>
<event>
 5   0  0.7698747E-02  0.5008636E+03  0.7818609E-02  0.1013554E+00
       -2   -1    0    0    0  501  0.00000000000E+00  0.00000000000E+00  0.80066684758E+03  0.80066684759E+03  0.25500000920E-02 0.  1.
        2   -1    0    0  501    0  0.00000000000E+00  0.00000000000E+00 -0.78329824636E+02  0.78329824677E+02  0.25500000920E-02 0. -1.
    10030    2    1    2    0    0  0.00000000000E+00  0.00000000000E+00  0.72233702295E+03  0.87899667226E+03  0.50086362928E+03 0.  0.
        2    1    3    3  502    0  0.58779263557E+02 -0.11071940779E+02  0.78794737460E+03  0.79021430944E+03  0.25500000920E-02 0.  1.
       -2    1    3    3    0  502 -0.58779263557E+02  0.11071940779E+02 -0.65610351657E+02  0.88782362820E+02  0.25500000920E-02 0. -1.
</event>
<event>
 5   0  0.7776070E-02  0.5064616E+03  0.7818609E-02  0.1012106E+00
        2   -1    0    0  501    0  0.00000000000E+00  0.00000000000E+00  0.13956082138E+04  0.13956082138E+04  0.25500000920E-02 0.  1.
       -2   -1    0    0    0  501  0.00000000000E+00  0.00000000000E+00 -0.45948306846E+02  0.45948306917E+02  0.25500000920E-02 0. -1.
    10030    2    1    2    0    0  0.00000000000E+00  0.00000000000E+00  0.13496599070E+04  0.14415565207E+04  0.50646158590E+03 0.  0.
        4    1    3    3  502    0  0.11976942109E+03  0.83152893721E+02  0.85529054813E+02  0.16904422522E+03  0.12699999809E+01 0. -1.
       -4    1    3    3    0  502 -0.11976942109E+03 -0.83152893721E+02  0.12641308522E+04  0.12725122955E+04  0.12699999809E+01 0.  1.
</event>
<event>
 5   0  0.4865501E-02  0.4994300E+03  0.7818609E-02  0.1013928E+00
       -1   -1    0    0    0  501  0.00000000000E+00  0.00000000000E+00  0.85461442522E+02  0.85461442670E+02  0.50400001928E-02 0.  1.
        1   -1    0    0  501    0  0.00000000000E+00  0.00000000000E+00 -0.72965734786E+03  0.72965734788E+03  0.50400001928E-02 0. -1.
    10030    2    1    2    0    0  0.00000000000E+00  0.00000000000E+00 -0.64419590534E+03  0.81511879055E+03  0.49942995330E+03 0.  0.
        2    1    3    3  502    0 -0.15064909940E+03 -0.17909692034E+03 -0.46425654188E+03  0.51990864073E+03  0.25500000920E-02 0.  1.
       -2    1    3    3    0  502  0.15064909940E+03  0.17909692034E+03 -0.17993936346E+03  0.29521014982E+03  0.25500000920E-02 0. -1.
</event>
<event>
 5   0  0.4803890E-02  0.5239383E+03  0.7818609E-02  0.1007713E+00
       -1   -1    0    0    0  501  0.00000000000E+00  0.00000000000E+00  0.39364863001E+02  0.39364863324E+02  0.50400001928E-02 0. -1.
        1   -1    0    0  501    0  0.00000000000E+00  0.00000000000E+00 -0.17433780442E+04  0.17433780442E+04  0.50400001928E-02 0.  1.
    10030    2    1    2    0    0  0.00000000000E+00  0.00000000000E+00 -0.17040131812E+04  0.17827429076E+04  0.52393830997E+03 0.  0.
        5    1    3    3  502    0 -0.10741221842E+03  0.10499388945E+03 -0.15821331299E+04  0.15892540490E+04  0.46999998093E+01 0.  1.
       -5    1    3    3    0  502  0.10741221842E+03 -0.10499388945E+03 -0.12188005136E+03  0.19348885861E+03  0.46999998093E+01 0. -1.
</event>
<event>
 5   0  0.7881060E-02  0.5003553E+03  0.7818609E-02  0.1013686E+00
        2   -1    0    0  501    0  0.00000000000E+00  0.00000000000E+00  0.22276502082E+04  0.22276502082E+04  0.25500000920E-02 0. -1.
       -2   -1    0    0    0  501  0.00000000000E+00  0.00000000000E+00 -0.28096352709E+02  0.28096352825E+02  0.25500000920E-02 0.  1.
    10030    2    1    2    0    0  0.00000000000E+00  0.00000000000E+00  0.21995538555E+04  0.22557465610E+04  0.50035525817E+03 0.  0.
        1    1    3    3  502    0  0.70601226246E+01 -0.24746022223E+03  0.12624780531E+04  0.12865213724E+04  0.50400001928E-02 0. -1.
       -1    1    3    3    0  502 -0.70601226246E+01  0.24746022223E+03  0.93707580234E+03  0.96922518863E+03  0.50400001928E-02 0.  1.
</event>
<event>
 5   0  0.7698747E-02  0.5067186E+03  0.7818609E-02  0.1012040E+00
        2   -1    0    0  501    0  0.00000000000E+00  0.00000000000E+00  0.48508071567E+03  0.48508071568E+03  0.25500000920E-02 0.  1.
       -2   -1    0    0    0  501  0.00000000000E+00  0.00000000000E+00 -0.13233043276E+03  0.13233043279E+03  0.25500000920E-02 0. -1.
    10030    2    1    2    0    0  0.00000000000E+00  0.00000000000E+00  0.35275028291E+03  0.61741114847E+03  0.50671862425E+03 0.  0.
        2    1    3    3  502    0  0.12028788000E+03 -0.20522023964E+03  0.28264197915E+03  0.36941982786E+03  0.25500000920E-02 0.  1.
       -2    1    3    3    0  502 -0.12028788000E+03  0.20522023964E+03  0.70108303758E+02  0.24799132060E+03  0.25500000920E-02 0. -1.
</event>
<event>
 5   0  0.5038436E-02  0.4970177E+03  0.7818609E-02  0.1014560E+00
        1   -1    0    0  501    0  0.00000000000E+00  0.00000000000E+00  0.75286666709E+03  0.75286666711E+03  0.50400001928E-02 0.  1.
       -1   -1    0    0    0  501  0.00000000000E+00  0.00000000000E+00 -0.82028659924E+02  0.82028660078E+02  0.50400001928E-02 0. -1.
    10030    2    1    2    0    0  0.00000000000E+00  0.00000000000E+00  0.67083800717E+03  0.83489532719E+03  0.49701768127E+03 0.  0.
        1    1    3    3  502    0  0.42261921901E+02  0.89075093382E+02 -0.47769953602E+02  0.10955551468E+03  0.50400001928E-02 0. -1.
       -1    1    3    3    0  502 -0.42261921901E+02 -0.89075093382E+02  0.71860796077E+03  0.72533981251E+03  0.50400001928E-02 0.  1.
</event>
<event>
 5   0  0.4884478E-02  0.4860861E+03  0.7818609E-02  0.1017476E+00
       -1   -1    0    0    0  501  0.00000000000E+00  0.00000000000E+00  0.58918603024E+02  0.58918603239E+02  0.50400001928E-02 0. -1.
        1   -1    0    0  501    0  0.00000000000E+00  0.00000000000E+00 -0.10025684630E+04  0.10025684630E+04  0.50400001928E-02 0.  1.
    10030    2    1    2    0    0  0.00000000000E+00  0.00000000000E+00 -0.94364985993E+03  0.10614870662E+04  0.48608613802E+03 0.  0.
        3    1    3    3  502    0  0.19635582694E+03 -0.11095656083E+03 -0.66960685946E+03  0.70656940608E+03  0.10100000352E+00 0.  1.
       -3    1    3    3    0  502 -0.19635582694E+03  0.11095656083E+03 -0.27404300047E+03  0.35491766013E+03  0.10100000352E+00 0. -1.
</event>
<event>
 5   0  0.5191358E-02  0.4850530E+03  0.7818609E-02  0.1017756E+00
        1   -1    0    0  501    0  0.00000000000E+00  0.00000000000E+00  0.17741262442E+03  0.17741262449E+03  0.50400001928E-02 0.  1.
       -1   -1    0    0    0  501  0.00000000000E+00  0.00000000000E+00 -0.33153838960E+03  0.33153838964E+03  0.50400001928E-02 0. -1.
    10030    2    1    2    0    0  0.00000000000E+00  0.00000000000E+00 -0.15412576518E+03  0.50895101413E+03  0.48505296957E+03 0.  0.
        4    1    3    3  502    0 -0.11164846199E+03  0.15222726536E+03 -0.23681029144E+03  0.30285185556E+03  0.12699999809E+01 0. -1.
       -4    1    3    3    0  502  0.11164846199E+03 -0.15222726536E+03  0.82684526260E+02  0.20609915857E+03  0.12699999809E+01 0.  1.
</event>
<event>
 5   0  0.3210875E-02  0.5068995E+03  0.7818609E-02  0.1011994E+00
       -3   -1    0    0    0  501  0.00000000000E+00  0.00000000000E+00  0.21330434567E+03  0.21330436958E+03  0.10100000352E+00 0.  1.
        3   -1    0    0  501    0  0.00000000000E+00  0.00000000000E+00 -0.30115073599E+03  0.30115075293E+03  0.10100000352E+00 0. -1.
    10030    2    1    2    0    0  0.00000000000E+00  0.00000000000E+00 -0.87846390326E+02  0.51445512251E+03  0.50689948193E+03 0.  0.
        2    1    3    3  502    0  0.22312815695E+03  0.11523098600E+03 -0.78674141360E+02  0.26316150000E+03  0.25500000920E-02 0. -1.
       -2    1    3    3    0  502 -0.22312815695E+03 -0.11523098600E+03 -0.91722489661E+01  0.25129362251E+03  0.25500000920E-02 0.  1.
</event>
<event>
 5   0  0.5038436E-02  0.4982541E+03  0.7818609E-02  0.1014236E+00
       -1   -1    0    0    0  501  0.00000000000E+00  0.00000000000E+00  0.12608239980E+03  0.12608239990E+03  0.50400001928E-02 0. -1.
        1   -1    0    0  501    0  0.00000000000E+00  0.00000000000E+00 -0.49225172397E+03  0.49225172399E+03  0.50400001928E-02 0.  1.
    10030    2    1    2    0    0  0.00000000000E+00  0.00000000000E+00 -0.36616932417E+03  0.61833412389E+03  0.49825406653E+03 0.  0.
        1    1    3    3  502    0  0.42230972838E+02 -0.10815792205E+03 -0.45661980459E+03  0.47115097064E+03  0.50400001928E-02 0.  1.
       -1    1    3    3    0  502 -0.42230972838E+02  0.10815792205E+03  0.90450480420E+02  0.14718315325E+03  0.50400001928E-02 0. -1.
</event>
<event>
 5   0  0.8208720E-02  0.4828413E+03  0.7818609E-02  0.1018357E+00
        2   -1    0    0  501    0  0.00000000000E+00  0.00000000000E+00  0.41981041040E+03  0.41981041040E+03  0.25500000920E-02 0. -1.
       -2   -1    0    0    0  501  0.00000000000E+00  0.00000000000E+00 -0.13883394907E+03  0.13883394909E+03  0.25500000920E-02 0.  1.
    10030    2    1    2    0    0  0.00000000000E+00  0.00000000000E+00  0.28097646133E+03  0.55864435950E+03  0.48284132857E+03 0.  0.
        3    1    3    3  502    0  0.41650434982E+02  0.23779204383E+02  0.41424309779E+03  0.41701026794E+03  0.10100000352E+00 0. -1.
       -3    1    3    3    0  502 -0.41650434982E+02 -0.23779204383E+02 -0.13326663647E+03  0.14163409156E+03  0.10100000352E+00 0.  1.
</event>
<event>
 5   0  0.4865501E-02  0.5000090E+03  0.7818609E-02  0.1013777E+00
        1   -1    0    0  501    0  0.00000000000E+00  0.00000000000E+00  0.25934424018E+03  0.25934424023E+03  0.50400001928E-02 0. -1.
       -1   -1    0    0    0  501  0.00000000000E+00  0.00000000000E+00 -0.24100107773E+03  0.24100107778E+03  0.50400001928E-02 0.  1.
    10030    2    1    2    0    0  0.00000000000E+00  0.00000000000E+00  0.18343162453E+02  0.50034531801E+03  0.50000896557E+03 0.  0.
        2    1    3    3  502    0 -0.18151236385E+03 -0.16932823844E+03  0.38914476610E+02  0.25126306346E+03  0.25500000920E-02 0.  1.
       -2    1    3    3    0  502  0.18151236385E+03  0.16932823844E+03 -0.20571314157E+02  0.24908225455E+03  0.25500000920E-02 0. -1.
</event>
<event>
 5   0  0.3210875E-02  0.4995657E+03  0.7818609E-02  0.1013892E+00
       -3   -1    0    0    0  501  0.00000000000E+00  0.00000000000E+00  0.81434962363E+02  0.81435024996E+02  0.10100000352E+00 0.  1.
        3   -1    0    0  501    0  0.00000000000E+00  0.00000000000E+00 -0.76615056579E+03  0.76615057244E+03  0.10100000352E+00 0. -1.
    10030    2    1    2    0    0  0.00000000000E+00  0.00000000000E+00 -0.68471560342E+03  0.84758559744E+03  0.49956569880E+03 0.  0.
        5    1    3    3  502    0 -0.17053941363E+03 -0.12062753928E+03 -0.57458558589E+03  0.61139625477E+03  0.46999998093E+01 0. -1.
       -5    1    3    3    0  502  0.17053941363E+03  0.12062753928E+03 -0.11013001754E+03  0.23618934267E+03  0.46999998093E+01 0.  1.
</event>
<event>
 5   0  0.7881060E-02  0.5025773E+03  0.7818609E-02  0.1013108E+00
        2   -1    0    0  501    0  0.00000000000E+00  0.00000000000E+00  0.23227897369E+03  0.23227897370E+03  0.25500000920E-02 0.  1.
       -2   -1    0    0    0  501  0.00000000000E+00  0.00000000000E+00 -0.27185403043E+03  0.27185403045E+03  0.25500000920E-02 0. -1.
    10030    2    1    2    0    0  0.00000000000E+00  0.00000000000E+00 -0.39575056745E+02  0.50413300415E+03  0.50257725850E+03 0.  0.
        1    1    3    3  502    0  0.11215008616E+03  0.19186353374E+03 -0.13743963584E+03  0.26130233625E+03  0.50400001928E-02 0. -1.
       -1    1    3    3    0  502 -0.11215008616E+03 -0.19186353374E+03  0.97864579093E+02  0.24283066790E+03  0.50400001928E-02 0.  1.
</event>
<event>
 5   0  0.4865501E-02  0.4994941E+03  0.7818609E-02  0.1013911E+00
        1   -1    0    0  501    0  0.00000000000E+00  0.00000000000E+00  0.37196708960E+03  0.37196708963E+03  0.50400001928E-02 0. -1.
       -1   -1    0    0    0  501  0.00000000000E+00  0.00000000000E+00 -0.16768574838E+03  0.16768574846E+03  0.50400001928E-02 0.  1.
    10030    2    1    2    0    0  0.00000000000E+00  0.00000000000E+00  0.20428134122E+03  0.53965283809E+03  0.49949406332E+03 0.  0.
        2    1    3    3  502    0  0.21689988592E+03  0.11485583459E+03  0.52206174187E+02  0.25092410781E+03  0.25500000920E-02 0.  1.
       -2    1    3    3    0  502 -0.21689988592E+03 -0.11485583459E+03  0.15207516703E+03  0.28872873028E+03  0.25500000920E-02 0. -1.
</event>
<event>
 5   0  0.4884478E-02  0.4994299E+03  0.7818609E-02  0.1013928E+00
       -1   -1    0    0    0  501  0.00000000000E+00  0.00000000000E+00  0.30857606292E+03  0.30857606296E+03  0.50400001928E-02 0. -1.
        1   -1    0    0  501    0  0.00000000000E+00  0.00000000000E+00 -0.20208163124E+03  0.20208163130E+03  0.50400001928E-02 0.  1.
    10030    2    1    2    0    0  0.00000000000E+00  0.00000000000E+00  0.10649443168E+03  0.51065769426E+03  0.49942989171E+03 0.  0.
        3    1    3    3  502    0 -0.70542848629E+02  0.99267166405E+01 -0.19147146835E+03  0.20429431365E+03  0.10100000352E+00 0.  1.
       -3    1    3    3    0  502  0.70542848629E+02 -0.99267166405E+01  0.29796590003E+03  0.30636338061E+03  0.10100000352E+00 0. -1.
</event>
<event>
 5   0  0.7776070E-02  0.4994005E+03  0.7818609E-02  0.1013936E+00
       -2   -1    0    0    0  501  0.00000000000E+00  0.00000000000E+00  0.43690320227E+02  0.43690320302E+02  0.25500000920E-02 0.  1.
        2   -1    0    0  501    0  0.00000000000E+00  0.00000000000E+00 -0.14270944804E+04  0.14270944804E+04  0.25500000920E-02 0. -1.
    10030    2    1    2    0    0  0.00000000000E+00  0.00000000000E+00 -0.13834041602E+04  0.14707848007E+04  0.49940050020E+03 0.  0.
        4    1    3    3  502    0 -0.23433282431E+03 -0.65951430671E+02 -0.85533783295E+03  0.88930640677E+03  0.12699999809E+01 0. -1.
       -4    1    3    3    0  502  0.23433282431E+03  0.65951430671E+02 -0.52806632722E+03  0.58147839392E+03  0.12699999809E+01 0.  1.
</event>
<event>
 5   0  0.5191358E-02  0.4986771E+03  0.7818609E-02  0.1014125E+00
        1   -1    0    0  501    0  0.00000000000E+00  0.00000000000E+00  0.18856321000E+03  0.18856321006E+03  0.50400001928E-02 0.  1.
       -1   -1    0    0    0  501  0.00000000000E+00  0.00000000000E+00 -0.32970229507E+03  0.32970229511E+03  0.50400001928E-02 0. -1.
    10030    2    1    2    0    0  0.00000000000E+00  0.00000000000E+00 -0.14113908508E+03  0.51826550518E+03  0.49867714257E+03 0.  0.
        4    1    3    3  502    0 -0.36722348428E+02  0.22709579236E+03 -0.17050857937E+03  0.28634911965E+03  0.12699999809E+01 0. -1.
       -4    1    3    3    0  502  0.36722348428E+02 -0.22709579236E+03  0.29369494293E+02  0.23191638553E+03  0.12699999809E+01 0.  1.
</event>
<event>
 5   0  0.7698747E-02  0.4996241E+03  0.7818609E-02  0.1013877E+00
       -2   -1    0    0    0  501  0.00000000000E+00  0.00000000000E+00  0.69818576236E+03  0.69818576236E+03  0.25500000920E-02 0. -1.
        2   -1    0    0  501    0  0.00000000000E+00  0.00000000000E+00 -0.89383167481E+02  0.89383167517E+02  0.25500000920E-02 0.  1.
    10030    2    1    2    0    0  0.00000000000E+00  0.00000000000E+00  0.60880259488E+03  0.78756892988E+03  0.49962407847E+03 0.  0.
        2    1    3    3  502    0 -0.16890762527E+03 -0.79912353572E+02  0.56575871727E+03  0.59581767035E+03  0.25500000920E-02 0. -1.
       -2    1    3    3    0  502  0.16890762527E+03  0.79912353572E+02  0.43043877610E+02  0.19175125953E+03  0.25500000920E-02 0.  1.
</event>
<event>
 5   0  0.4884478E-02  0.4996806E+03  0.7818609E-02  0.1013862E+00
       -1   -1    0    0    0  501  0.00000000000E+00  0.00000000000E+00  0.78160196425E+02  0.78160196588E+02  0.50400001928E-02 0. -1.
        1   -1    0    0  501    0  0.00000000000E+00  0.00000000000E+00 -0.79861845091E+03  0.79861845093E+03  0.50400001928E-02 0.  1.
    10030    2    1    2    0    0  0.00000000000E+00  0.00000000000E+00 -0.72045825449E+03  0.87677864752E+03  0.49968059826E+03 0.  0.
        3    1    3    3  502    0  0.24509974489E+03 -0.37636733243E+02 -0.30672564764E+03  0.39442495073E+03  0.10100000352E+00 0.  1.
       -3    1    3    3    0  502 -0.24509974489E+03  0.37636733243E+02 -0.41373260684E+03  0.48235369678E+03  0.10100000352E+00 0. -1.
</event>
<event>
 5   0  0.8208720E-02  0.4997313E+03  0.7818609E-02  0.1013849E+00
       -2   -1    0    0    0  501  0.00000000000E+00  0.00000000000E+00  0.42547101468E+03  0.42547101468E+03  0.25500000920E-02 0. -1.
        2   -1    0    0  501    0  0.00000000000E+00  0.00000000000E+00 -0.14673818736E+03  0.14673818738E+03  0.25500000920E-02 0.  1.
    10030    2    1    2    0    0  0.00000000000E+00  0.00000000000E+00  0.27873282732E+03  0.57220920206E+03  0.49973130971E+03 0.  0.
        3    1    3    3  502    0  0.17662109613E+03  0.17452021880E+03  0.17135605975E+03  0.30168730132E+03  0.10100000352E+00 0. -1.
       -3    1    3    3    0  502 -0.17662109613E+03 -0.17452021880E+03  0.10737676757E+03  0.27052190074E+03  0.10100000352E+00 0.  1.
</event>
<event>
 5   0  0.4865501E-02  0.5006931E+03  0.7818609E-02  0.1013598E+00
        1   -1    0    0  501    0  0.00000000000E+00  0.00000000000E+00  0.42945869807E+03  0.42945869810E+03  0.50400001928E-02 0.  1.
       -1   -1    0    0    0  501  0.00000000000E+00  0.00000000000E+00 -0.14593581819E+03  0.14593581827E+03  0.50400001928E-02 0. -1.
    10030    2    1    2    0    0  0.00000000000E+00  0.00000000000E+00  0.28352287988E+03  0.57539451637E+03  0.50069314560E+03 0.  0.
        2    1    3    3  502    0 -0.51926008587E+02  0.24450765773E+03  0.15773077518E+03  0.29556607130E+03  0.25500000920E-02 0. -1.
       -2    1    3    3    0  502  0.51926008587E+02 -0.24450765773E+03  0.12579210471E+03  0.27982844507E+03  0.25500000920E-02 0.  1.
</event>
<event>
 5   0  0.7698747E-02  0.4990691E+03  0.7818609E-02  0.1014022E+00
       -2   -1    0    0    0  501  0.00000000000E+00  0.00000000000E+00  0.85379248151E+02  0.85379248189E+02  0.25500000920E-02 0. -1.
        2   -1    0    0  501    0  0.00000000000E+00  0.00000000000E+00 -0.72930465228E+03  0.72930465229E+03  0.25500000920E-02 0.  1.
    10030    2    1    2    0    0  0.00000000000E+00  0.00000000000E+00 -0.64392540413E+03  0.81468390048E+03  0.49906906497E+03 0.  0.
        2    1    3    3  502    0 -0.24144941917E+03  0.62553770233E+02 -0.33425318917E+03  0.41705633992E+03  0.25500000920E-02 0.  1.
       -2    1    3    3    0  502  0.24144941917E+03 -0.62553770233E+02 -0.30967221496E+03  0.39762756056E+03  0.25500000920E-02 0. -1.
</event>
<event>
 5   0  0.7881060E-02  0.4961165E+03  0.7818609E-02  0.1014798E+00
       -2   -1    0    0    0  501  0.00000000000E+00  0.00000000000E+00  0.70352977909E+02  0.70352977955E+02  0.25500000920E-02 0.  1.
        2   -1    0    0  501    0  0.00000000000E+00  0.00000000000E+00 -0.87463117392E+03  0.87463117392E+03  0.25500000920E-02 0. -1.
    10030    2    1    2    0    0  0.00000000000E+00  0.00000000000E+00 -0.80427819601E+03  0.94498415188E+03  0.49611654953E+03 0.  0.
        1    1    3    3  502    0 -0.21139751071E+03 -0.11559979085E+03 -0.28976314485E+03  0.37684864245E+03  0.50400001928E-02 0.  1.
       -1    1    3    3    0  502  0.21139751071E+03  0.11559979085E+03 -0.51451505116E+03  0.56813550943E+03  0.50400001928E-02 0. -1.
</event>
<event>
 5   0  0.5038436E-02  0.5136673E+03  0.7818609E-02  0.1010272E+00
       -1   -1    0    0    0  501  0.00000000000E+00  0.00000000000E+00  0.16928370636E+03  0.16928370644E+03  0.50400001928E-02 0.  1.
        1   -1    0    0  501    0  0.00000000000E+00  0.00000000000E+00 -0.38966263189E+03  0.38966263192E+03  0.50400001928E-02 0. -1.
    10030    2    1    2    0    0  0.00000000000E+00  0.00000000000E+00 -0.22037892553E+03  0.55894633836E+03  0.51366734211E+03 0.  0.
        1    1    3    3  502    0  0.12311654065E+03  0.19323820139E+03  0.16077261055E+02  0.22968927578E+03  0.50400001928E-02 0.  1.
       -1    1    3    3    0  502 -0.12311654065E+03 -0.19323820139E+03 -0.23645618658E+03  0.32925706258E+03  0.50400001928E-02 0. -1.
</event>
<event>
 5   0  0.4865501E-02  0.4886045E+03  0.7818609E-02  0.1016797E+00
       -1   -1    0    0    0  501  0.00000000000E+00  0.00000000000E+00  0.44120158567E+03  0.44120158570E+03  0.50400001928E-02 0.  1.
        1   -1    0    0  501    0  0.00000000000E+00  0.00000000000E+00 -0.13527511937E+03  0.13527511946E+03  0.50400001928E-02 0. -1.
    10030    2    1    2    0    0  0.00000000000E+00  0.00000000000E+00  0.30592646630E+03  0.57647670516E+03  0.48860453212E+03 0.  0.
        2    1    3    3  502    0  0.19890156059E+02 -0.22085952206E+03  0.32013195186E+02  0.22405220701E+03  0.25500000920E-02 0. -1.
       -2    1    3    3    0  502 -0.19890156059E+02  0.22085952206E+03  0.27391327112E+03  0.35242449815E+03  0.25500000920E-02 0.  1.
</event>
<event>
 5   0  0.7698747E-02  0.5020291E+03  0.7818609E-02  0.1013251E+00
        2   -1    0    0  501    0  0.00000000000E+00  0.00000000000E+00  0.70020035596E+03  0.70020035596E+03  0.25500000920E-02 0.  1.
       -2   -1    0    0    0  501  0.00000000000E+00  0.00000000000E+00 -0.89986122176E+02  0.89986122212E+02  0.25500000920E-02 0. -1.
    10030    2    1    2    0    0  0.00000000000E+00  0.00000000000E+00  0.61021423378E+03  0.79018647817E+03  0.50202914176E+03 0.  0.
        2    1    3    3  502    0  0.21086714200E+03 -0.12451152831E+03  0.21832009594E+03  0.32807276107E+03  0.25500000920E-02 0. -1.
       -2    1    3    3    0  502 -0.21086714200E+03  0.12451152831E+03  0.39189413784E+03  0.46211371711E+03  0.25500000920E-02 0.  1.
</event>
<event>
 5   0  0.7776070E-02  0.5049799E+03  0.7818609E-02  0.1012487E+00
       -2   -1    0    0    0  501  0.00000000000E+00  0.00000000000E+00  0.33643873270E+03  0.33643873271E+03  0.25500000920E-02 0. -1.
        2   -1    0    0  501    0  0.00000000000E+00  0.00000000000E+00 -0.18948820471E+03  0.18948820473E+03  0.25500000920E-02 0.  1.
    10030    2    1    2    0    0  0.00000000000E+00  0.00000000000E+00  0.14695052799E+03  0.52592693744E+03  0.50497988658E+03 0.  0.
        4    1    3    3  502    0  0.67148296458E+02 -0.17499603132E+03  0.24965818075E+03  0.31219116709E+03  0.12699999809E+01 0. -1.
       -4    1    3    3    0  502 -0.67148296458E+02  0.17499603132E+03 -0.10270765275E+03  0.21373577035E+03  0.12699999809E+01 0.  1.
</event>
<event>
 5   0  0.8208720E-02  0.5009465E+03  0.7818609E-02  0.1013532E+00
        2   -1    0    0  501    0  0.00000000000E+00  0.00000000000E+00  0.51306541310E+03  0.51306541310E+03  0.25500000920E-02 0. -1.
       -2   -1    0    0    0  501  0.00000000000E+00  0.00000000000E+00 -0.12227845597E+03  0.12227845600E+03  0.25500000920E-02 0.  1.
    10030    2    1    2    0    0  0.00000000000E+00  0.00000000000E+00  0.39078695713E+03  0.63534386910E+03  0.50094649030E+03 0.  0.
        3    1    3    3  502    0  0.23096832429E+03  0.76733925896E+02  0.12033517006E+03  0.27150511149E+03  0.10100000352E+00 0.  1.
       -3    1    3    3    0  502 -0.23096832429E+03 -0.76733925896E+02  0.27045178707E+03  0.36383875761E+03  0.10100000352E+00 0. -1.
</event>
<event>
 5   0  0.7933103E-02  0.4997674E+03  0.7818609E-02  0.1013840E+00
        2   -1    0    0  501    0  0.00000000000E+00  0.00000000000E+00  0.46286084191E+03  0.46286084192E+03  0.25500000920E-02 0. -1.
       -2   -1    0    0    0  501  0.00000000000E+00  0.00000000000E+00 -0.13490420582E+03  0.13490420585E+03  0.25500000920E-02 0.  1.
    10030    2    1    2    0    0  0.00000000000E+00  0.00000000000E+00  0.32795663609E+03  0.59776504777E+03  0.49976744309E+03 0.  0.
        5    1    3    3  502    0 -0.72461993714E+02 -0.65984224060E+02 -0.11090077958E+03  0.14807339825E+03  0.46999998093E+01 0.  1.
       -5    1    3    3    0  502  0.72461993714E+02  0.65984224060E+02  0.43885741567E+03  0.44969164952E+03  0.46999998093E+01 0. -1.
</event>
<event>
 5   0  0.5191358E-02  0.4991913E+03  0.7818609E-02  0.1013990E+00
        1   -1    0    0  501    0  0.00000000000E+00  0.00000000000E+00  0.25834597845E+03  0.25834597849E+03  0.50400001928E-02 0.  1.
       -1   -1    0    0    0  501  0.00000000000E+00  0.00000000000E+00 -0.24114166238E+03  0.24114166243E+03  0.50400001928E-02 0. -1.
    10030    2    1    2    0    0  0.00000000000E+00  0.00000000000E+00  0.17204316066E+02  0.49948764093E+03  0.49919126089E+03 0.  0.
        4    1    3    3  502    0  0.22045975289E+03 -0.35737356804E+02 -0.10289426793E+03  0.24590344566E+03  0.12699999809E+01 0. -1.
       -4    1    3    3    0  502 -0.22045975289E+03  0.35737356804E+02  0.12009858399E+03  0.25358419527E+03  0.12699999809E+01 0.  1.
</event>
<event>
 5   0  0.4884478E-02  0.5009505E+03  0.7818609E-02  0.1013531E+00
       -1   -1    0    0    0  501  0.00000000000E+00  0.00000000000E+00  0.56285330683E+02  0.56285330909E+02  0.50400001928E-02 0.  1.
        1   -1    0    0  501    0  0.00000000000E+00  0.00000000000E+00 -0.11146394476E+04  0.11146394476E+04  0.50400001928E-02 0. -1.
    10030    2    1    2    0    0  0.00000000000E+00  0.00000000000E+00 -0.10583541169E+04  0.11709247785E+04  0.50095049672E+03 0.  0.
        3    1    3    3  502    0  0.58736037711E+02 -0.19609758661E+03 -0.19179894070E+03  0.28051921406E+03  0.10100000352E+00 0.  1.
       -3    1    3    3    0  502 -0.58736037711E+02  0.19609758661E+03 -0.86655517622E+03  0.89040556447E+03  0.10100000352E+00 0. -1.
</event>
<event>
 5   0  0.5191358E-02  0.5018065E+03  0.7818609E-02  0.1013308E+00
        1   -1    0    0  501    0  0.00000000000E+00  0.00000000000E+00  0.25978943838E+03  0.25978943842E+03  0.50400001928E-02 0. -1.
       -1   -1    0    0    0  501  0.00000000000E+00  0.00000000000E+00 -0.24232099992E+03  0.24232099998E+03  0.50400001928E-02 0.  1.
    10030    2    1    2    0    0  0.00000000000E+00  0.00000000000E+00  0.17468438453E+02  0.50211043840E+03  0.50180648263E+03 0.  0.
        4    1    3    3  502    0  0.63426558560E+01 -0.11819744016E+03 -0.21262355801E+03  0.24335417494E+03  0.12699999809E+01 0.  1.
       -4    1    3    3    0  502 -0.63426558560E+01  0.11819744016E+03  0.23009199646E+03  0.25875626346E+03  0.12699999809E+01 0. -1.
</event>
<event>
 5   0  0.7776070E-02  0.5013294E+03  0.7818609E-02  0.1013433E+00
       -2   -1    0    0    0  501  0.00000000000E+00  0.00000000000E+00  0.67963055913E+02  0.67963055961E+02  0.25500000920E-02 0. -1.
        2   -1    0    0  501    0  0.00000000000E+00  0.00000000000E+00 -0.92451391418E+03  0.92451391419E+03  0.25500000920E-02 0.  1.
    10030    2    1    2    0    0  0.00000000000E+00  0.00000000000E+00 -0.85655085827E+03  0.99247697015E+03  0.50132939617E+03 0.  0.
        4    1    3    3  502    0 -0.50392868709E+02  0.20870944724E+03 -0.68435358691E+03  0.71724509019E+03  0.12699999809E+01 0.  1.
       -4    1    3    3    0  502  0.50392868709E+02 -0.20870944724E+03 -0.17219727136E+03  0.27523187996E+03  0.12699999809E+01 0. -1.
</event>
<event>
 5   0  0.7776070E-02  0.5448476E+03  0.7818609E-02  0.1002694E+00
        2   -1    0    0  501    0  0.00000000000E+00  0.00000000000E+00  0.41640206135E+03  0.41640206136E+03  0.25500000920E-02 0. -1.
       -2   -1    0    0    0  501  0.00000000000E+00  0.00000000000E+00 -0.17822850417E+03  0.17822850418E+03  0.25500000920E-02 0.  1.
    10030    2    1    2    0    0  0.00000000000E+00  0.00000000000E+00  0.23817355718E+03  0.59463056554E+03  0.54484756229E+03 0.  0.
        4    1    3    3  502    0 -0.16445229729E+03 -0.13244691177E+03  0.30693685376E+03  0.37255682468E+03  0.12699999809E+01 0. -1.
       -4    1    3    3    0  502  0.16445229729E+03  0.13244691177E+03 -0.68763296576E+02  0.22207374086E+03  0.12699999809E+01 0.  1.
</event>
<event>
 5   0  0.4803890E-02  0.4877214E+03  0.7818609E-02  0.1017034E+00
       -1   -1    0    0    0  501  0.00000000000E+00  0.00000000000E+00  0.10502177048E+04  0.10502177048E+04  0.50400001928E-02 0.  1.
        1   -1    0    0  501    0  0.00000000000E+00  0.00000000000E+00 -0.56624495682E+02  0.56624495906E+02  0.50400001928E-02 0. -1.
    10030    2    1    2    0    0  0.00000000000E+00  0.00000000000E+00  0.99359320907E+03  0.11068422007E+04  0.48772142876E+03 0.  0.
        5    1    3    3  502    0 -0.19650896811E+02  0.23958329380E+03  0.58924972032E+03  0.63641467245E+03  0.46999998093E+01 0. -1.
       -5    1    3    3    0  502  0.19650896811E+02 -0.23958329380E+03  0.40434348875E+03  0.47042752822E+03  0.46999998093E+01 0.  1.
</event>
<event>
 5   0  0.7698747E-02  0.4979411E+03  0.7818609E-02  0.1014318E+00
       -2   -1    0    0    0  501  0.00000000000E+00  0.00000000000E+00  0.30118484302E+03  0.30118484303E+03  0.25500000920E-02 0.  1.
        2   -1    0    0  501    0  0.00000000000E+00  0.00000000000E+00 -0.20580829710E+03  0.20580829711E+03  0.25500000920E-02 0. -1.
    10030    2    1    2    0    0  0.00000000000E+00  0.00000000000E+00  0.95376545926E+02  0.50699314015E+03  0.49794111966E+03 0.  0.
        2    1    3    3  502    0 -0.70026572829E+02  0.21834308013E+03  0.14645119623E+03  0.27207604530E+03  0.25500000920E-02 0.  1.
       -2    1    3    3    0  502  0.70026572829E+02 -0.21834308013E+03 -0.51074650303E+02  0.23491709485E+03  0.25500000920E-02 0. -1.
</event>
<event>
 5   0  0.4865501E-02  0.4990725E+03  0.7818609E-02  0.1014021E+00
       -1   -1    0    0    0  501  0.00000000000E+00  0.00000000000E+00  0.57843699616E+02  0.57843699836E+02  0.50400001928E-02 0.  1.
        1   -1    0    0  501    0  0.00000000000E+00  0.00000000000E+00 -0.10764929546E+04  0.10764929546E+04  0.50400001928E-02 0. -1.
    10030    2    1    2    0    0  0.00000000000E+00  0.00000000000E+00 -0.10186492550E+04  0.11343366544E+04  0.49907248065E+03 0.  0.
        2    1    3    3  502    0 -0.27406869235E+02 -0.11637159535E+03 -0.10071593201E+04  0.10142304377E+04  0.25500000920E-02 0. -1.
       -2    1    3    3    0  502  0.27406869235E+02  0.11637159535E+03 -0.11489934859E+02  0.12010621672E+03  0.25500000920E-02 0.  1.
</event>
<event>
 5   0  0.4884478E-02  0.5012576E+03  0.7818609E-02  0.1013451E+00
        1   -1    0    0  501    0  0.00000000000E+00  0.00000000000E+00  0.21297115212E+03  0.21297115218E+03  0.50400001928E-02 0.  1.
       -1   -1    0    0    0  501  0.00000000000E+00  0.00000000000E+00 -0.29494504695E+03  0.29494504700E+03  0.50400001928E-02 0. -1.
    10030    2    1    2    0    0  0.00000000000E+00  0.00000000000E+00 -0.81973894833E+02  0.50791619918E+03  0.50125756448E+03 0.  0.
        3    1    3    3  502    0 -0.19924497530E+03  0.10823432352E+03  0.67209505086E+02  0.23649599731E+03  0.10100000352E+00 0.  1.
       -3    1    3    3    0  502  0.19924497530E+03 -0.10823432352E+03 -0.14918339992E+03  0.27142020187E+03  0.10100000352E+00 0. -1.
</event>
<event>
 5   0  0.7933103E-02  0.4967593E+03  0.7818609E-02  0.1014628E+00
        2   -1    0    0  501    0  0.00000000000E+00  0.00000000000E+00  0.77379267154E+03  0.77379267154E+03  0.25500000920E-02 0.  1.
       -2   -1    0    0    0  501  0.00000000000E+00  0.00000000000E+00 -0.79727377197E+02  0.79727377238E+02  0.25500000920E-02 0. -1.
    10030    2    1    2    0    0  0.00000000000E+00  0.00000000000E+00  0.69406529434E+03  0.85352004878E+03  0.49675933898E+03 0.  0.
        5    1    3    3  502    0  0.35887864801E+02  0.11852014711E+03 -0.22816118222E+02  0.12600646555E+03  0.46999998093E+01 0. -1.
       -5    1    3    3    0  502 -0.35887864801E+02 -0.11852014711E+03  0.71688141257E+03  0.72751358323E+03  0.46999998093E+01 0.  1.
</event>
<event>
 5   0  0.7881060E-02  0.4965332E+03  0.7818609E-02  0.1014688E+00
        2   -1    0    0  501    0  0.00000000000E+00  0.00000000000E+00  0.63258534757E+03  0.63258534757E+03  0.25500000920E-02 0.  1.
       -2   -1    0    0    0  501  0.00000000000E+00  0.00000000000E+00 -0.97435559155E+02  0.97435559188E+02  0.25500000920E-02 0. -1.
    10030    2    1    2    0    0  0.00000000000E+00  0.00000000000E+00  0.53514978841E+03  0.73002090676E+03  0.49653320964E+03 0.  0.
        1    1    3    3  502    0  0.23885527238E+03 -0.23232374728E+02  0.36107914860E+03  0.43355476696E+03  0.50400001928E-02 0.  1.
       -1    1    3    3    0  502 -0.23885527238E+03  0.23232374728E+02  0.17407063982E+03  0.29646613980E+03  0.50400001928E-02 0. -1.
</event>
<event>
 5   0  0.5191358E-02  0.5014145E+03  0.7818609E-02  0.1013410E+00
       -1   -1    0    0    0  501  0.00000000000E+00  0.00000000000E+00  0.31654560769E+03  0.31654560773E+03  0.50400001928E-02 0.  1.
        1   -1    0    0  501    0  0.00000000000E+00  0.00000000000E+00 -0.19856259593E+03  0.19856259600E+03  0.50400001928E-02 0. -1.
    10030    2    1    2    0    0  0.00000000000E+00  0.00000000000E+00  0.11798301176E+03  0.51510820372E+03  0.50141446976E+03 0.  0.
        4    1    3    3  502    0 -0.18230343703E+03 -0.15341879610E+03  0.13909953669E+03  0.27590245406E+03  0.12699999809E+01 0.  1.
       -4    1    3    3    0  502  0.18230343703E+03  0.15341879610E+03 -0.21116524935E+02  0.23920574967E+03  0.12699999809E+01 0. -1.
</event>
<event>
 5   0  0.4865501E-02  0.5040477E+03  0.7818609E-02  0.1012728E+00
        1   -1    0    0  501    0  0.00000000000E+00  0.00000000000E+00  0.58012982593E+03  0.58012982596E+03  0.50400001928E-02 0.  1.
       -1   -1    0    0    0  501  0.00000000000E+00  0.00000000000E+00 -0.10948587829E+03  0.10948587840E+03  0.50400001928E-02 0. -1.
    10030    2    1    2    0    0  0.00000000000E+00  0.00000000000E+00  0.47064394765E+03  0.68961570436E+03  0.50404771028E+03 0.  0.
        2    1    3    3  502    0 -0.13186482703E+03  0.20127769270E+03  0.33784222379E+03  0.41477513229E+03  0.25500000920E-02 0.  1.
       -2    1    3    3    0  502  0.13186482703E+03 -0.20127769270E+03  0.13280172386E+03  0.27484057207E+03  0.25500000920E-02 0. -1.
</event>
<event>
 5   0  0.4884478E-02  0.4915123E+03  0.7818609E-02  0.1016018E+00
        1   -1    0    0  501    0  0.00000000000E+00  0.00000000000E+00  0.33221461069E+03  0.33221461073E+03  0.50400001928E-02 0. -1.
       -1   -1    0    0    0  501  0.00000000000E+00  0.00000000000E+00 -0.18179840523E+03  0.18179840530E+03  0.50400001928E-02 0.  1.
    10030    2    1    2    0    0  0.00000000000E+00  0.00000000000E+00  0.15041620546E+03  0.51401301603E+03  0.49151230481E+03 0.  0.
        3    1    3    3  502    0  0.36377591362E+02 -0.36816435391E+02  0.32645037614E+03  0.33052781631E+03  0.10100000352E+00 0. -1.
       -3    1    3    3    0  502 -0.36377591362E+02  0.36816435391E+02 -0.17603417068E+03  0.18348519972E+03  0.10100000352E+00 0.  1.
</event>
<event>
 5   0  0.7776070E-02  0.4988097E+03  0.7818609E-02  0.1014090E+00
       -2   -1    0    0    0  501  0.00000000000E+00  0.00000000000E+00  0.10095152288E+03  0.10095152291E+03  0.25500000920E-02 0.  1.
        2   -1    0    0  501    0  0.00000000000E+00  0.00000000000E+00 -0.61616473153E+03  0.61616473153E+03  0.25500000920E-02 0. -1.
    10030    2    1    2    0    0  0.00000000000E+00  0.00000000000E+00 -0.51521320865E+03  0.71711625444E+03  0.49880965510E+03 0.  0.
        4    1    3    3  502    0 -0.12707118794E+03  0.15440187321E+03 -0.43332657893E+02  0.20461270096E+03  0.12699999809E+01 0.  1.
       -4    1    3    3    0  502  0.12707118794E+03 -0.15440187321E+03 -0.47188055076E+03  0.51250355349E+03  0.12699999809E+01 0. -1.
</event>
<event>
 5   0  0.4803890E-02  0.5000472E+03  0.7818609E-02  0.1013767E+00
       -1   -1    0    0    0  501  0.00000000000E+00  0.00000000000E+00  0.29034676948E+03  0.29034676952E+03  0.50400001928E-02 0. -1.
        1   -1    0    0  501    0  0.00000000000E+00  0.00000000000E+00 -0.21530047358E+03  0.21530047364E+03  0.50400001928E-02 0.  1.
    10030    2    1    2    0    0  0.00000000000E+00  0.00000000000E+00  0.75046295897E+02  0.50564724317E+03  0.50004718577E+03 0.  0.
        5    1    3    3  502    0  0.11484258398E+03 -0.90176443576E+02  0.24269714853E+03  0.28327478881E+03  0.46999998093E+01 0. -1.
       -5    1    3    3    0  502 -0.11484258398E+03  0.90176443576E+02 -0.16765085264E+03  0.22237245436E+03  0.46999998093E+01 0.  1.
</event>
<event>
 5   0  0.8208720E-02  0.4978642E+03  0.7818609E-02  0.1014338E+00
       -2   -1    0    0    0  501  0.00000000000E+00  0.00000000000E+00  0.41571508639E+02  0.41571508717E+02  0.25500000920E-02 0.  1.
        2   -1    0    0  501    0  0.00000000000E+00  0.00000000000E+00 -0.14906166991E+04  0.14906166991E+04  0.25500000920E-02 0. -1.
    10030    2    1    2    0    0  0.00000000000E+00  0.00000000000E+00 -0.14490451905E+04  0.15321882078E+04  0.49786417845E+03 0.  0.
        3    1    3    3  502    0  0.22611773001E+03  0.56661696097E+02 -0.99329796917E+03  0.10202845884E+04  0.10100000352E+00 0. -1.
       -3    1    3    3    0  502 -0.22611773001E+03 -0.56661696097E+02 -0.45574722132E+03  0.51190361942E+03  0.10100000352E+00 0.  1.
</event>
<event>
 5   0  0.8208720E-02  0.5003305E+03  0.7818609E-02  0.1013693E+00
       -2   -1    0    0    0  501  0.00000000000E+00  0.00000000000E+00  0.89429996877E+02  0.89429996913E+02  0.25500000920E-02 0.  1.
        2   -1    0    0  501    0  0.00000000000E+00  0.00000000000E+00 -0.69979473013E+03  0.69979473014E+03  0.25500000920E-02 0. -1.
    10030    2    1    2    0    0  0.00000000000E+00  0.00000000000E+00 -0.61036473325E+03  0.78922472705E+03  0.50033045299E+03 0.  0.
        3    1    3    3  502    0  0.55296041118E+02  0.23481802006E+03 -0.40964286600E+03  0.47539924545E+03  0.10100000352E+00 0. -1.
       -3    1    3    3    0  502 -0.55296041118E+02 -0.23481802006E+03 -0.20072186726E+03  0.31382548160E+03  0.10100000352E+00 0.  1.
</event>
<event>
 5   0  0.4803890E-02  0.5004275E+03  0.7818609E-02  0.1013667E+00
       -1   -1    0    0    0  501  0.00000000000E+00  0.00000000000E+00  0.44973261146E+02  0.44973261428E+02  0.50400001928E-02 0.  1.
        1   -1    0    0  501    0  0.00000000000E+00  0.00000000000E+00 -0.13920919157E+04  0.13920919158E+04  0.50400001928E-02 0. -1.
    10030    2    1    2    0    0  0.00000000000E+00  0.00000000000E+00 -0.13471186546E+04  0.14370651772E+04  0.50042747117E+03 0.  0.
        5    1    3    3  502    0 -0.23941406912E+03  0.36763254513E+02 -0.49389730637E+03  0.55011569021E+03  0.46999998093E+01 0. -1.
       -5    1    3    3    0  502  0.23941406912E+03 -0.36763254513E+02 -0.85322134823E+03  0.88694948697E+03  0.46999998093E+01 0.  1.
</event>
<event>
 5   0  0.3210875E-02  0.5052864E+03  0.7818609E-02  0.1012408E+00
        3   -1    0    0  501    0  0.00000000000E+00  0.00000000000E+00  0.66574948447E+02  0.66575025059E+02  0.10100000352E+00 0. -1.
       -3   -1    0    0    0  501  0.00000000000E+00  0.00000000000E+00 -0.95874726210E+03  0.95874726742E+03  0.10100000352E+00 0.  1.
    10030    2    1    2    0    0  0.00000000000E+00  0.00000000000E+00 -0.89217231366E+03  0.10253222925E+04  0.50528641997E+03 0.  0.
        3    1    3    3  502    0 -0.67538859239E+02 -0.24133865099E+03 -0.51098026418E+03  0.56912800191E+03  0.10100000352E+00 0.  1.
       -3    1    3    3    0  502  0.67538859239E+02  0.24133865099E+03 -0.38119204947E+03  0.45619429058E+03  0.10100000352E+00 0. -1.
</event>
<event>
 5   0  0.3210875E-02  0.4941684E+03  0.7818609E-02  0.1015312E+00
        3   -1    0    0  501    0  0.00000000000E+00  0.00000000000E+00  0.12130223372E+03  0.12130227576E+03  0.10100000352E+00 0.  1.
       -3   -1    0    0    0  501  0.00000000000E+00  0.00000000000E+00 -0.50329316453E+03  0.50329317466E+03  0.10100000352E+00 0. -1.
    10030    2    1    2    0    0  0.00000000000E+00  0.00000000000E+00 -0.38199093081E+03  0.62459545043E+03  0.49416839789E+03 0.  0.
        1    1    3    3  502    0 -0.15196423886E+03 -0.96611068113E+02  0.22843717854E+02  0.18151766814E+03  0.50400001928E-02 0.  1.
       -1    1    3    3    0  502  0.15196423886E+03  0.96611068113E+02 -0.40483464866E+03  0.44307778229E+03  0.50400001928E-02 0. -1.
</event>
<event>
 5   0  0.4803890E-02  0.4985387E+03  0.7818609E-02  0.1014161E+00
        1   -1    0    0  501    0  0.00000000000E+00  0.00000000000E+00  0.27734953606E+03  0.27734953610E+03  0.50400001928E-02 0. -1.
       -1   -1    0    0    0  501  0.00000000000E+00  0.00000000000E+00 -0.22403209817E+03  0.22403209823E+03  0.50400001928E-02 0.  1.
    10030    2    1    2    0    0  0.00000000000E+00  0.00000000000E+00  0.53317437889E+02  0.50138163433E+03  0.49853865854E+03 0.  0.
        5    1    3    3  502    0 -0.24230242355E+03 -0.35118353378E+02  0.73500556654E+02  0.25567202629E+03  0.46999998093E+01 0. -1.
       -5    1    3    3    0  502  0.24230242355E+03  0.35118353378E+02 -0.20183118765E+02  0.24570960804E+03  0.46999998093E+01 0.  1.
</event>
<event>
 5   0  0.8208720E-02  0.4758761E+03  0.7818609E-02  0.1020275E+00
       -2   -1    0    0    0  501  0.00000000000E+00  0.00000000000E+00  0.38056725813E+02  0.38056725899E+02  0.25500000920E-02 0.  1.
        2   -1    0    0  501    0  0.00000000000E+00  0.00000000000E+00 -0.14876351331E+04  0.14876351331E+04  0.25500000920E-02 0. -1.
    10030    2    1    2    0    0  0.00000000000E+00  0.00000000000E+00 -0.14495784073E+04  0.15256918590E+04  0.47587612858E+03 0.  0.
        3    1    3    3  502    0  0.13464801234E+03  0.19359953186E+03 -0.62321971933E+03  0.66634352606E+03  0.10100000352E+00 0.  1.
       -3    1    3    3    0  502 -0.13464801234E+03 -0.19359953186E+03 -0.82635868796E+03  0.85934833294E+03  0.10100000352E+00 0. -1.
</event>
<event>
 5   0  0.4803890E-02  0.4995396E+03  0.7818609E-02  0.1013899E+00
       -1   -1    0    0    0  501  0.00000000000E+00  0.00000000000E+00  0.33239515286E+03  0.33239515290E+03  0.50400001928E-02 0. -1.
        1   -1    0    0  501    0  0.00000000000E+00  0.00000000000E+00 -0.18768307199E+03  0.18768307205E+03  0.50400001928E-02 0.  1.
    10030    2    1    2    0    0  0.00000000000E+00  0.00000000000E+00  0.14471208088E+03  0.52007822495E+03  0.49953956171E+03 0.  0.
        5    1    3    3  502    0  0.14157501419E+03 -0.14298076368E+03  0.22634211545E+03  0.30288583105E+03  0.46999998093E+01 0. -1.
       -5    1    3    3    0  502 -0.14157501419E+03  0.14298076368E+03 -0.81630034578E+02  0.21719239390E+03  0.46999998093E+01 0.  1.
</event>
<event>
 5   0  0.7698747E-02  0.5125919E+03  0.7818609E-02  0.1010544E+00
       -2   -1    0    0    0  501  0.00000000000E+00  0.00000000000E+00  0.31745066095E+02  0.31745066198E+02  0.25500000920E-02 0. -1.
        2   -1    0    0  501    0  0.00000000000E+00  0.00000000000E+00 -0.20692229206E+04  0.20692229206E+04  0.25500000920E-02 0.  1.
    10030    2    1    2    0    0  0.00000000000E+00  0.00000000000E+00 -0.20374778545E+04  0.21009679868E+04  0.51259191757E+03 0.  0.
        2    1    3    3  502    0  0.30291322254E+02 -0.14482861201E+03 -0.16099313804E+03  0.21865882457E+03  0.25500000920E-02 0. -1.
       -2    1    3    3    0  502 -0.30291322254E+02  0.14482861201E+03 -0.18764847165E+04  0.18823091622E+04  0.25500000920E-02 0.  1.
</event>
<event>
 5   0  0.7881060E-02  0.5015112E+03  0.7818609E-02  0.1013385E+00
       -2   -1    0    0    0  501  0.00000000000E+00  0.00000000000E+00  0.15754411408E+03  0.15754411410E+03  0.25500000920E-02 0.  1.
        2   -1    0    0  501    0  0.00000000000E+00  0.00000000000E+00 -0.39911594870E+03  0.39911594871E+03  0.25500000920E-02 0. -1.
    10030    2    1    2    0    0  0.00000000000E+00  0.00000000000E+00 -0.24157183462E+03  0.55666006281E+03  0.50151119055E+03 0.  0.
        1    1    3    3  502    0  0.98278177054E+02  0.15059120525E+03 -0.31476664326E+03  0.36251117351E+03  0.50400001928E-02 0. -1.
       -1    1    3    3    0  502 -0.98278177054E+02 -0.15059120525E+03  0.73194808636E+02  0.19414888931E+03  0.50400001928E-02 0.  1.
</event>
<event>
 5   0  0.5038436E-02  0.5009700E+03  0.7818609E-02  0.1013526E+00
        1   -1    0    0  501    0  0.00000000000E+00  0.00000000000E+00  0.54633355950E+03  0.54633355952E+03  0.50400001928E-02 0. -1.
       -1   -1    0    0    0  501  0.00000000000E+00  0.00000000000E+00 -0.11484325288E+03  0.11484325299E+03  0.50400001928E-02 0.  1.
    10030    2    1    2    0    0  0.00000000000E+00  0.00000000000E+00  0.43149030662E+03  0.66117681251E+03  0.50096995188E+03 0.  0.
        1    1    3    3  502    0 -0.37055869164E+02  0.83348967924E+02 -0.92144660792E+02  0.12965657111E+03  0.50400001928E-02 0.  1.
       -1    1    3    3    0  502  0.37055869164E+02 -0.83348967924E+02  0.52363496741E+03  0.53152024140E+03  0.50400001928E-02 0. -1.
</event>
<event>
 5   0  0.7776070E-02  0.5270038E+03  0.7818609E-02  0.1006961E+00
       -2   -1    0    0    0  501  0.00000000000E+00  0.00000000000E+00  0.45990007629E+02  0.45990007700E+02  0.25500000920E-02 0. -1.
        2   -1    0    0  501    0  0.00000000000E+00  0.00000000000E+00 -0.15097463694E+04  0.15097463694E+04  0.25500000920E-02 0.  1.
    10030    2    1    2    0    0  0.00000000000E+00  0.00000000000E+00 -0.14637563617E+04  0.15557363771E+04  0.52700378405E+03 0.  0.
        4    1    3    3  502    0  0.13221173310E+03 -0.22788388293E+03 -0.74528568766E+03  0.79048300146E+03  0.12699999809E+01 0.  1.
       -4    1    3    3    0  502 -0.13221173310E+03  0.22788388293E+03 -0.71847067407E+03  0.76525337560E+03  0.12699999809E+01 0. -1.
</event>
<event>
 5   0  0.7776070E-02  0.5067330E+03  0.7818609E-02  0.1012036E+00
        2   -1    0    0  501    0  0.00000000000E+00  0.00000000000E+00  0.62983344470E+03  0.62983344471E+03  0.25500000920E-02 0. -1.
       -2   -1    0    0    0  501  0.00000000000E+00  0.00000000000E+00 -0.10192310246E+03  0.10192310249E+03  0.25500000920E-02 0.  1.
    10030    2    1    2    0    0  0.00000000000E+00  0.00000000000E+00  0.52791034225E+03  0.73175654719E+03  0.50673298187E+03 0.  0.
        4    1    3    3  502    0  0.15301763923E+03  0.15277171846E+03  0.45465611383E+03  0.50345545048E+03  0.12699999809E+01 0. -1.
       -4    1    3    3    0  502 -0.15301763923E+03 -0.15277171846E+03  0.73254228415E+02  0.22830109671E+03  0.12699999809E+01 0.  1.
</event>
<event>
 5   0  0.7933103E-02  0.4991367E+03  0.7818609E-02  0.1014004E+00
        2   -1    0    0  501    0  0.00000000000E+00  0.00000000000E+00  0.79147797628E+03  0.79147797629E+03  0.25500000920E-02 0.  1.
       -2   -1    0    0    0  501  0.00000000000E+00  0.00000000000E+00 -0.78693737062E+02  0.78693737103E+02  0.25500000920E-02 0. -1.
    10030    2    1    2    0    0  0.00000000000E+00  0.00000000000E+00  0.71278423922E+03  0.87017171339E+03  0.49913669381E+03 0.  0.
        5    1    3    3  502    0 -0.22652504494E+03 -0.33591903925E+02  0.18363064287E+03  0.29357165223E+03  0.46999998093E+01 0. -1.
       -5    1    3    3    0  502  0.22652504494E+03  0.33591903925E+02  0.52915359635E+03  0.57660006116E+03  0.46999998093E+01 0.  1.
</event>
<event>
 5   0  0.3210875E-02  0.5035618E+03  0.7818609E-02  0.1012853E+00
       -3   -1    0    0    0  501  0.00000000000E+00  0.00000000000E+00  0.14013816823E+03  0.14013820463E+03  0.10100000352E+00 0.  1.
        3   -1    0    0  501    0  0.00000000000E+00  0.00000000000E+00 -0.45236494941E+03  0.45236496068E+03  0.10100000352E+00 0. -1.
    10030    2    1    2    0    0  0.00000000000E+00  0.00000000000E+00 -0.31222678118E+03  0.59250316531E+03  0.50356175195E+03 0.  0.
        3    1    3    3  502    0  0.14581351766E+03  0.57778514872E+00 -0.39762740996E+03  0.42352034558E+03  0.10100000352E+00 0. -1.
       -3    1    3    3    0  502 -0.14581351766E+03 -0.57778514872E+00  0.85400628785E+02  0.16898281973E+03  0.10100000352E+00 0.  1.
</event>
<event>
 5   0  0.5191358E-02  0.4935882E+03  0.7818609E-02  0.1015466E+00
       -1   -1    0    0    0  501  0.00000000000E+00  0.00000000000E+00  0.10354954891E+03  0.10354954903E+03  0.50400001928E-02 0.  1.
        1   -1    0    0  501    0  0.00000000000E+00  0.00000000000E+00 -0.58819492875E+03  0.58819492877E+03  0.50400001928E-02 0. -1.
    10030    2    1    2    0    0  0.00000000000E+00  0.00000000000E+00 -0.48464537984E+03  0.69174447780E+03  0.49358816676E+03 0.  0.
        4    1    3    3  502    0  0.16551569383E+03 -0.78561819108E+02 -0.47404440418E+03  0.50821955331E+03  0.12699999809E+01 0. -1.
       -4    1    3    3    0  502 -0.16551569383E+03  0.78561819108E+02 -0.10600975663E+02  0.18352492450E+03  0.12699999809E+01 0.  1.
</event>
<event>
 5   0  0.4865501E-02  0.5007047E+03  0.7818609E-02  0.1013595E+00
        1   -1    0    0  501    0  0.00000000000E+00  0.00000000000E+00  0.80751179171E+02  0.80751179328E+02  0.50400001928E-02 0. -1.
       -1   -1    0    0    0  501  0.00000000000E+00  0.00000000000E+00 -0.77616583873E+03  0.77616583875E+03  0.50400001928E-02 0.  1.
    10030    2    1    2    0    0  0.00000000000E+00  0.00000000000E+00 -0.69541465956E+03  0.85691701808E+03  0.50070473049E+03 0.  0.
        2    1    3    3  502    0 -0.14563885495E+02  0.20829883773E+03 -0.11133404648E+03  0.23663428000E+03  0.25500000920E-02 0.  1.
       -2    1    3    3    0  502  0.14563885495E+02 -0.20829883773E+03 -0.58408061309E+03  0.62028273808E+03  0.25500000920E-02 0. -1.
</event>
<event>
 5   0  0.8208720E-02  0.5003257E+03  0.7818609E-02  0.1013694E+00
       -2   -1    0    0    0  501  0.00000000000E+00  0.00000000000E+00  0.52929357424E+02  0.52929357486E+02  0.25500000920E-02 0.  1.
        2   -1    0    0  501    0  0.00000000000E+00  0.00000000000E+00 -0.11823579244E+04  0.11823579244E+04  0.25500000920E-02 0. -1.
    10030    2    1    2    0    0  0.00000000000E+00  0.00000000000E+00 -0.11294285670E+04  0.12352872819E+04  0.50032567484E+03 0.  0.
        3    1    3    3  502    0  0.21519357102E+03 -0.80112756777E+02 -0.31961283433E+03  0.39354631351E+03  0.10100000352E+00 0. -1.
       -3    1    3    3    0  502 -0.21519357102E+03  0.80112756777E+02 -0.80981573269E+03  0.84174096842E+03  0.10100000352E+00 0.  1.
</event>
<event>
 5   0  0.7776070E-02  0.5014335E+03  0.7818609E-02  0.1013405E+00
        2   -1    0    0  501    0  0.00000000000E+00  0.00000000000E+00  0.52623265856E+03  0.52623265856E+03  0.25500000920E-02 0.  1.
       -2   -1    0    0    0  501  0.00000000000E+00  0.00000000000E+00 -0.11945074124E+03  0.11945074127E+03  0.25500000920E-02 0. -1.
    10030    2    1    2    0    0  0.00000000000E+00  0.00000000000E+00  0.40678191731E+03  0.64568339983E+03  0.50143346973E+03 0.  0.
        4    1    3    3  502    0 -0.15111815122E+02 -0.21137477408E+03  0.30873217046E+02  0.21415515521E+03  0.12699999809E+01 0. -1.
       -4    1    3    3    0  502  0.15111815122E+02  0.21137477408E+03  0.37590870027E+03  0.43152824462E+03  0.12699999809E+01 0.  1.
</event>
<event>
 5   0  0.7776070E-02  0.4985120E+03  0.7818609E-02  0.1014168E+00
        2   -1    0    0  501    0  0.00000000000E+00  0.00000000000E+00  0.13193847137E+04  0.13193847137E+04  0.25500000920E-02 0. -1.
       -2   -1    0    0    0  501  0.00000000000E+00  0.00000000000E+00 -0.47089036160E+02  0.47089036229E+02  0.25500000920E-02 0.  1.
    10030    2    1    2    0    0  0.00000000000E+00  0.00000000000E+00  0.12722956776E+04  0.13664737499E+04  0.49851200404E+03 0.  0.
        4    1    3    3  502    0 -0.45726494655E+02  0.30976733082E+02 -0.30095601739E+02  0.62911274426E+02  0.12699999809E+01 0.  1.
       -4    1    3    3    0  502  0.45726494655E+02 -0.30976733082E+02  0.13023912793E+04  0.13035624755E+04  0.12699999809E+01 0. -1.
</event>
<event>
 5   0  0.4884478E-02  0.5003555E+03  0.7818609E-02  0.1013686E+00
        1   -1    0    0  501    0  0.00000000000E+00  0.00000000000E+00  0.91824023278E+02  0.91824023416E+02  0.50400001928E-02 0. -1.
       -1   -1    0    0    0  501  0.00000000000E+00  0.00000000000E+00 -0.68161805940E+03  0.68161805941E+03  0.50400001928E-02 0.  1.
    10030    2    1    2    0    0  0.00000000000E+00  0.00000000000E+00 -0.58979403612E+03  0.77344208283E+03  0.50035552406E+03 0.  0.
        3    1    3    3  502    0  0.24073085338E+03  0.15090139764E+02 -0.39754746085E+03  0.46499790313E+03  0.10100000352E+00 0.  1.
       -3    1    3    3    0  502 -0.24073085338E+03 -0.15090139764E+02 -0.19224657527E+03  0.30844417970E+03  0.10100000352E+00 0. -1.
</event>
<event>
 5   0  0.5038436E-02  0.5591004E+03  0.7818609E-02  0.9994092E-01
       -1   -1    0    0    0  501  0.00000000000E+00  0.00000000000E+00  0.20934322946E+03  0.20934322952E+03  0.50400001928E-02 0.  1.
        1   -1    0    0  501    0  0.00000000000E+00  0.00000000000E+00 -0.37330235231E+03  0.37330235234E+03  0.50400001928E-02 0. -1.
    10030    2    1    2    0    0  0.00000000000E+00  0.00000000000E+00 -0.16395912284E+03  0.58264558186E+03  0.55910042041E+03 0.  0.
        1    1    3    3  502    0 -0.38901048022E+02 -0.14826723158E+03  0.16164277194E+03  0.22276635572E+03  0.50400001928E-02 0.  1.
       -1    1    3    3    0  502  0.38901048022E+02  0.14826723158E+03 -0.32560189478E+03  0.35987922614E+03  0.50400001928E-02 0. -1.
</event>
<event>
 5   0  0.4865501E-02  0.5016548E+03  0.7818609E-02  0.1013348E+00
       -1   -1    0    0    0  501  0.00000000000E+00  0.00000000000E+00  0.66437477364E+02  0.66437477556E+02  0.50400001928E-02 0. -1.
        1   -1    0    0  501    0  0.00000000000E+00  0.00000000000E+00 -0.94697129737E+03  0.94697129739E+03  0.50400001928E-02 0.  1.
    10030    2    1    2    0    0  0.00000000000E+00  0.00000000000E+00 -0.88053382001E+03  0.10134087749E+04  0.50165479859E+03 0.  0.
        2    1    3    3  502    0 -0.15399987309E+03  0.36704630921E+02 -0.47242542067E+02  0.16521213221E+03  0.25500000920E-02 0. -1.
       -2    1    3    3    0  502  0.15399987309E+03 -0.36704630921E+02 -0.83329127794E+03  0.84819664273E+03  0.25500000920E-02 0.  1.
</event>
<event>
 5   0  0.7881060E-02  0.5094128E+03  0.7818609E-02  0.1011351E+00
        2   -1    0    0  501    0  0.00000000000E+00  0.00000000000E+00  0.11702874897E+04  0.11702874897E+04  0.25500000920E-02 0. -1.
       -2   -1    0    0    0  501  0.00000000000E+00  0.00000000000E+00 -0.55435385575E+02  0.55435385633E+02  0.25500000920E-02 0.  1.
    10030    2    1    2    0    0  0.00000000000E+00  0.00000000000E+00  0.11148521041E+04  0.12257228754E+04  0.50941275313E+03 0.  0.
        1    1    3    3  502    0 -0.20382037859E+03  0.10089794844E+03  0.28148163866E+03  0.36187712784E+03  0.50400001928E-02 0.  1.
       -1    1    3    3    0  502  0.20382037859E+03 -0.10089794844E+03  0.83337046549E+03  0.86384574752E+03  0.50400001928E-02 0. -1.
</event>
<event>
 5   0  0.7776070E-02  0.4876294E+03  0.7818609E-02  0.1017059E+00
       -2   -1    0    0    0  501  0.00000000000E+00  0.00000000000E+00  0.62012804870E+03  0.62012804871E+03  0.25500000920E-02 0.  1.
        2   -1    0    0  501    0  0.00000000000E+00  0.00000000000E+00 -0.95860234398E+02  0.95860234432E+02  0.25500000920E-02 0. -1.
    10030    2    1    2    0    0  0.00000000000E+00  0.00000000000E+00  0.52426781430E+03  0.71598828314E+03  0.48762944997E+03 0.  0.
        4    1    3    3  502    0 -0.35096938071E+02  0.45818743933E+02 -0.85680182713E+02  0.10331436961E+03  0.12699999809E+01 0. -1.
       -4    1    3    3    0  502  0.35096938071E+02 -0.45818743933E+02  0.60994799701E+03  0.61267391353E+03  0.12699999809E+01 0.  1.
</event>
<event>
 5   0  0.4803890E-02  0.5193225E+03  0.7818609E-02  0.1008855E+00
       -1   -1    0    0    0  501  0.00000000000E+00  0.00000000000E+00  0.28213649361E+03  0.28213649366E+03  0.50400001928E-02 0.  1.
        1   -1    0    0  501    0  0.00000000000E+00  0.00000000000E+00 -0.23897635934E+03  0.23897635939E+03  0.50400001928E-02 0. -1.
    10030    2    1    2    0    0  0.00000000000E+00  0.00000000000E+00  0.43160134272E+02  0.52111285305E+03  0.51932245130E+03 0.  0.
        5    1    3    3  502    0  0.57310885749E+02  0.78759040721E+02 -0.21990358467E+03  0.24055602397E+03  0.46999998093E+01 0. -1.
       -5    1    3    3    0  502 -0.57310885749E+02 -0.78759040721E+02  0.26306371894E+03  0.28055682908E+03  0.46999998093E+01 0.  1.
</event>
<event>
 5   0  0.7881060E-02  0.4886113E+03  0.7818609E-02  0.1016795E+00
        2   -1    0    0  501    0  0.00000000000E+00  0.00000000000E+00  0.10235369229E+04  0.10235369230E+04  0.25500000920E-02 0.  1.
       -2   -1    0    0    0  501  0.00000000000E+00  0.00000000000E+00 -0.58312739036E+02  0.58312739092E+02  0.25500000920E-02 0. -1.
    10030    2    1    2    0    0  0.00000000000E+00  0.00000000000E+00  0.96522418391E+03  0.10818496620E+04  0.48861126272E+03 0.  0.
        1    1    3    3  502    0  0.22232001171E+03  0.83623820826E+02  0.35607470109E+03  0.42802841471E+03  0.50400001928E-02 0. -1.
       -1    1    3    3    0  502 -0.22232001171E+03 -0.83623820826E+02  0.60914948282E+03  0.65382124734E+03  0.50400001928E-02 0.  1.
</event>
<event>
 5   0  0.5038436E-02  0.4999933E+03  0.7818609E-02  0.1013781E+00
        1   -1    0    0  501    0  0.00000000000E+00  0.00000000000E+00  0.28082916971E+03  0.28082916975E+03  0.50400001928E-02 0. -1.
       -1   -1    0    0    0  501  0.00000000000E+00  0.00000000000E+00 -0.22254925440E+03  0.22254925446E+03  0.50400001928E-02 0.  1.
    10030    2    1    2    0    0  0.00000000000E+00  0.00000000000E+00  0.58279915306E+02  0.50337842421E+03  0.49999328939E+03 0.  0.
        1    1    3    3  502    0 -0.17012836981E+03  0.10966257690E+03 -0.11858032319E+03  0.23458652148E+03  0.50400001928E-02 0.  1.
       -1    1    3    3    0  502  0.17012836981E+03 -0.10966257690E+03  0.17686023849E+03  0.26879190273E+03  0.50400001928E-02 0. -1.
</event>
<event>
 5   0  0.4803890E-02  0.5037886E+03  0.7818609E-02  0.1012795E+00
        1   -1    0    0  501    0  0.00000000000E+00  0.00000000000E+00  0.28919636898E+03  0.28919636902E+03  0.50400001928E-02 0. -1.
       -1   -1    0    0    0  501  0.00000000000E+00  0.00000000000E+00 -0.21940362688E+03  0.21940362694E+03  0.50400001928E-02 0.  1.
    10030    2    1    2    0    0  0.00000000000E+00  0.00000000000E+00  0.69792742098E+02  0.50859999595E+03  0.50378857573E+03 0.  0.
        5    1    3    3  502    0 -0.16209868323E+03  0.12368375785E+03 -0.11434984045E+03  0.23381965501E+03  0.46999998093E+01 0.  1.
       -5    1    3    3    0  502  0.16209868323E+03 -0.12368375785E+03  0.18414258255E+03  0.27478034094E+03  0.46999998093E+01 0. -1.
</event>
<event>
 5   0  0.4803890E-02  0.5012270E+03  0.7818609E-02  0.1013459E+00
       -1   -1    0    0    0  501  0.00000000000E+00  0.00000000000E+00  0.18151311502E+03  0.18151311509E+03  0.50400001928E-02 0.  1.
        1   -1    0    0  501    0  0.00000000000E+00  0.00000000000E+00 -0.34601971205E+03  0.34601971209E+03  0.50400001928E-02 0. -1.
    10030    2    1    2    0    0  0.00000000000E+00  0.00000000000E+00 -0.16450659703E+03  0.52753282717E+03  0.50122695785E+03 0.  0.
        5    1    3    3  502    0 -0.38976142905E+02  0.17586164478E+03 -0.26557446332E+03  0.32093354979E+03  0.46999998093E+01 0. -1.
       -5    1    3    3    0  502  0.38976142905E+02 -0.17586164478E+03  0.10106786629E+03  0.20659927738E+03  0.46999998093E+01 0.  1.
</event>
<event>
 5   0  0.7933103E-02  0.5019571E+03  0.7818609E-02  0.1013269E+00
        2   -1    0    0  501    0  0.00000000000E+00  0.00000000000E+00  0.31007299050E+03  0.31007299051E+03  0.25500000920E-02 0. -1.
       -2   -1    0    0    0  501  0.00000000000E+00  0.00000000000E+00 -0.20314648192E+03  0.20314648194E+03  0.25500000920E-02 0.  1.
    10030    2    1    2    0    0  0.00000000000E+00  0.00000000000E+00  0.10692650858E+03  0.51321947245E+03  0.50195711835E+03 0.  0.
        5    1    3    3  502    0  0.15874012197E+03  0.39491647635E+02 -0.14109584819E+03  0.21607439675E+03  0.46999998093E+01 0.  1.
       -5    1    3    3    0  502 -0.15874012197E+03 -0.39491647635E+02  0.24802235677E+03  0.29714507570E+03  0.46999998093E+01 0. -1.
</event>
<event>
 5   0  0.7933103E-02  0.4948913E+03  0.7818609E-02  0.1015121E+00
        2   -1    0    0  501    0  0.00000000000E+00  0.00000000000E+00  0.18487812613E+04  0.18487812613E+04  0.25500000920E-02 0. -1.
       -2   -1    0    0    0  501  0.00000000000E+00  0.00000000000E+00 -0.33118759411E+02  0.33118759509E+02  0.25500000920E-02 0.  1.
    10030    2    1    2    0    0  0.00000000000E+00  0.00000000000E+00  0.18156625019E+04  0.18819000208E+04  0.49489126842E+03 0.  0.
        5    1    3    3  502    0  0.18434678523E+03 -0.12285062895E+03  0.48899977655E+03  0.53686021060E+03  0.46999998093E+01 0.  1.
       -5    1    3    3    0  502 -0.18434678523E+03  0.12285062895E+03  0.13266627253E+04  0.13450398102E+04  0.46999998093E+01 0. -1.
</event>
<event>
 5   0  0.7698747E-02  0.4902936E+03  0.7818609E-02  0.1016344E+00
       -2   -1    0    0    0  501  0.00000000000E+00  0.00000000000E+00  0.82878033147E+02  0.82878033186E+02  0.25500000920E-02 0. -1.
        2   -1    0    0  501    0  0.00000000000E+00  0.00000000000E+00 -0.72512536237E+03  0.72512536238E+03  0.25500000920E-02 0.  1.
    10030    2    1    2    0    0  0.00000000000E+00  0.00000000000E+00 -0.64224732923E+03  0.80800339556E+03  0.49029364196E+03 0.  0.
        2    1    3    3  502    0 -0.99932340474E+02 -0.22361370229E+03 -0.33820279465E+03  0.41757716753E+03  0.25500000920E-02 0. -1.
       -2    1    3    3    0  502  0.99932340474E+02  0.22361370229E+03 -0.30404453458E+03  0.39042622804E+03  0.25500000920E-02 0.  1.
</event>
<event>
 5   0  0.5038436E-02  0.5053167E+03  0.7818609E-02  0.1012400E+00
        1   -1    0    0  501    0  0.00000000000E+00  0.00000000000E+00  0.96832494721E+02  0.96832494852E+02  0.50400001928E-02 0. -1.
       -1   -1    0    0    0  501  0.00000000000E+00  0.00000000000E+00 -0.65924395493E+03  0.65924395494E+03  0.50400001928E-02 0.  1.
    10030    2    1    2    0    0  0.00000000000E+00  0.00000000000E+00 -0.56241146020E+03  0.75607644980E+03  0.50531668028E+03 0.  0.
        1    1    3    3  502    0  0.14300330920E+03 -0.11785745236E+03 -0.24235397971E+02  0.18688948622E+03  0.50400001928E-02 0. -1.
       -1    1    3    3    0  502 -0.14300330920E+03  0.11785745236E+03 -0.53817606223E+03  0.56918696358E+03  0.50400001928E-02 0.  1.
</event>
<event>
 5   0  0.7933103E-02  0.5114972E+03  0.7818609E-02  0.1010821E+00
       -2   -1    0    0    0  501  0.00000000000E+00  0.00000000000E+00  0.31077037832E+03  0.31077037833E+03  0.25500000920E-02 0. -1.
        2   -1    0    0  501    0  0.00000000000E+00  0.00000000000E+00 -0.21046839098E+03  0.21046839099E+03  0.25500000920E-02 0.  1.
    10030    2    1    2    0    0  0.00000000000E+00  0.00000000000E+00  0.10030198735E+03  0.52123876933E+03  0.51149718082E+03 0.  0.
        5    1    3    3  502    0  0.74688758985E+02  0.87106951626E+02  0.28301837293E+03  0.30543005935E+03  0.46999998093E+01 0. -1.
       -5    1    3    3    0  502 -0.74688758985E+02 -0.87106951626E+02 -0.18271638559E+03  0.21580870997E+03  0.46999998093E+01 0.  1.
</event>
<event>
 5   0  0.4884478E-02  0.4963347E+03  0.7818609E-02  0.1014740E+00
        1   -1    0    0  501    0  0.00000000000E+00  0.00000000000E+00  0.43291358268E+03  0.43291358271E+03  0.50400001928E-02 0.  1.
       -1   -1    0    0    0  501  0.00000000000E+00  0.00000000000E+00 -0.14226169937E+03  0.14226169946E+03  0.50400001928E-02 0. -1.
    10030    2    1    2    0    0  0.00000000000E+00  0.00000000000E+00  0.29065188330E+03  0.57517528217E+03  0.49633465319E+03 0.  0.
        3    1    3    3  502    0 -0.13236637818E+03 -0.17844903754E+03  0.17211396572E+02  0.22284783922E+03  0.10100000352E+00 0.  1.
       -3    1    3    3    0  502  0.13236637818E+03  0.17844903754E+03  0.27344048673E+03  0.35232744295E+03  0.10100000352E+00 0. -1.
</event>
<event>
 5   0  0.8208720E-02  0.5022014E+03  0.7818609E-02  0.1013206E+00
        2   -1    0    0  501    0  0.00000000000E+00  0.00000000000E+00  0.40832749808E+03  0.40832749809E+03  0.25500000920E-02 0. -1.
       -2   -1    0    0    0  501  0.00000000000E+00  0.00000000000E+00 -0.15441417571E+03  0.15441417573E+03  0.25500000920E-02 0.  1.
    10030    2    1    2    0    0  0.00000000000E+00  0.00000000000E+00  0.25391332237E+03  0.56274167383E+03  0.50220137015E+03 0.  0.
        3    1    3    3  502    0  0.19476163720E+03 -0.69314543666E+02  0.28666918924E+03  0.35343434404E+03  0.10100000352E+00 0. -1.
       -3    1    3    3    0  502 -0.19476163720E+03  0.69314543666E+02 -0.32755866869E+02  0.20930732979E+03  0.10100000352E+00 0.  1.
</event>
<event>
 5   0  0.7933103E-02  0.4977474E+03  0.7818609E-02  0.1014369E+00
        2   -1    0    0  501    0  0.00000000000E+00  0.00000000000E+00  0.51894667536E+03  0.51894667537E+03  0.25500000920E-02 0. -1.
       -2   -1    0    0    0  501  0.00000000000E+00  0.00000000000E+00 -0.11935354783E+03  0.11935354785E+03  0.25500000920E-02 0.  1.
    10030    2    1    2    0    0  0.00000000000E+00  0.00000000000E+00  0.39959312753E+03  0.63830022322E+03  0.49774743334E+03 0.  0.
        5    1    3    3  502    0  0.49989194220E+02 -0.44287166141E+02 -0.10758850646E+03  0.12671878055E+03  0.46999998093E+01 0.  1.
       -5    1    3    3    0  502 -0.49989194220E+02  0.44287166141E+02  0.50718163400E+03  0.51158144267E+03  0.46999998093E+01 0. -1.
</event>
<event>
 5   0  0.5191358E-02  0.5002843E+03  0.7818609E-02  0.1013705E+00
        1   -1    0    0  501    0  0.00000000000E+00  0.00000000000E+00  0.20008851045E+03  0.20008851052E+03  0.50400001928E-02 0.  1.
       -1   -1    0    0    0  501  0.00000000000E+00  0.00000000000E+00 -0.31271706057E+03  0.31271706061E+03  0.50400001928E-02 0. -1.
    10030    2    1    2    0    0  0.00000000000E+00  0.00000000000E+00 -0.11262855012E+03  0.51280557112E+03  0.50028428266E+03 0.  0.
        4    1    3    3  502    0  0.10183078787E+03 -0.66770342533E+02 -0.28028165519E+03  0.30559320532E+03  0.12699999809E+01 0. -1.
       -4    1    3    3    0  502 -0.10183078787E+03  0.66770342533E+02  0.16765310508E+03  0.20721236580E+03  0.12699999809E+01 0.  1.
</event>
<event>
 5   0  0.8208720E-02  0.5052001E+03  0.7818609E-02  0.1012430E+00
       -2   -1    0    0    0  501  0.00000000000E+00  0.00000000000E+00  0.55825215057E+02  0.55825215116E+02  0.25500000920E-02 0. -1.
        2   -1    0    0  501    0  0.00000000000E+00  0.00000000000E+00 -0.11429742299E+04  0.11429742299E+04  0.25500000920E-02 0.  1.
    10030    2    1    2    0    0  0.00000000000E+00  0.00000000000E+00 -0.10871490148E+04  0.11987994450E+04  0.50520008799E+03 0.  0.
        3    1    3    3  502    0 -0.10336033248E+03 -0.22875456514E+03 -0.61047076656E+03  0.66006558495E+03  0.10100000352E+00 0.  1.
       -3    1    3    3    0  502  0.10336033248E+03  0.22875456514E+03 -0.47667824827E+03  0.53873386006E+03  0.10100000352E+00 0. -1.
</event>
<event>
 5   0  0.7698747E-02  0.5429372E+03  0.7818609E-02  0.1003142E+00
        2   -1    0    0  501    0  0.00000000000E+00  0.00000000000E+00  0.95949484044E+03  0.95949484044E+03  0.25500000920E-02 0.  1.
       -2   -1    0    0    0  501  0.00000000000E+00  0.00000000000E+00 -0.76806252029E+02  0.76806252071E+02  0.25500000920E-02 0. -1.
    10030    2    1    2    0    0  0.00000000000E+00  0.00000000000E+00  0.88268858841E+03  0.10363010925E+04  0.54293720653E+03 0.  0.
        2    1    3    3  502    0  0.21345344164E+03 -0.51553552212E+02  0.13669934851E+03  0.25866358921E+03  0.25500000920E-02 0. -1.
       -2    1    3    3    0  502 -0.21345344164E+03  0.51553552212E+02  0.74598923990E+03  0.77763750331E+03  0.25500000920E-02 0.  1.
</event>
<event>
 5   0  0.7776070E-02  0.4993033E+03  0.7818609E-02  0.1013961E+00
        2   -1    0    0  501    0  0.00000000000E+00  0.00000000000E+00  0.61009966794E+03  0.61009966794E+03  0.25500000920E-02 0. -1.
       -2   -1    0    0    0  501  0.00000000000E+00  0.00000000000E+00 -0.10215699915E+03  0.10215699919E+03  0.25500000920E-02 0.  1.
    10030    2    1    2    0    0  0.00000000000E+00  0.00000000000E+00  0.50794266878E+03  0.71225666713E+03  0.49930331974E+03 0.  0.
        4    1    3    3  502    0  0.19311662306E+03 -0.12743684057E+03  0.38771414888E+03  0.45150642584E+03  0.12699999809E+01 0. -1.
       -4    1    3    3    0  502 -0.19311662306E+03  0.12743684057E+03  0.12022851991E+03  0.26075024129E+03  0.12699999809E+01 0.  1.
</event>
<event>
 5   0  0.8208720E-02  0.4943257E+03  0.7818609E-02  0.1015271E+00
       -2   -1    0    0    0  501  0.00000000000E+00  0.00000000000E+00  0.33129790471E+02  0.33129790569E+02  0.25500000920E-02 0.  1.
        2   -1    0    0  501    0  0.00000000000E+00  0.00000000000E+00 -0.18439436121E+04  0.18439436121E+04  0.25500000920E-02 0. -1.
    10030    2    1    2    0    0  0.00000000000E+00  0.00000000000E+00 -0.18108138216E+04  0.18770734027E+04  0.49432566432E+03 0.  0.
        3    1    3    3  502    0  0.19318894957E+03  0.14561078148E+03 -0.71309306495E+03  0.75301142049E+03  0.10100000352E+00 0. -1.
       -3    1    3    3    0  502 -0.19318894957E+03 -0.14561078148E+03 -0.10977207567E+04  0.11240619822E+04  0.10100000352E+00 0.  1.
</event>
<event>
 5   0  0.7881060E-02  0.4992804E+03  0.7818609E-02  0.1013967E+00
        2   -1    0    0  501    0  0.00000000000E+00  0.00000000000E+00  0.27248885832E+03  0.27248885833E+03  0.25500000920E-02 0.  1.
       -2   -1    0    0    0  501  0.00000000000E+00  0.00000000000E+00 -0.22870741365E+03  0.22870741366E+03  0.25500000920E-02 0. -1.
    10030    2    1    2    0    0  0.00000000000E+00  0.00000000000E+00  0.43781444670E+02  0.50119627199E+03  0.49928037030E+03 0.  0.
        1    1    3    3  502    0  0.24923277671E+03 -0.31576811497E+01  0.35846374797E+02  0.25181721655E+03  0.50400001928E-02 0.  1.
       -1    1    3    3    0  502 -0.24923277671E+03  0.31576811497E+01  0.79350698732E+01  0.24937905545E+03  0.50400001928E-02 0. -1.
</event>
<event>
 5   0  0.7881060E-02  0.5176409E+03  0.7818609E-02  0.1009274E+00
        2   -1    0    0  501    0  0.00000000000E+00  0.00000000000E+00  0.69451148632E+03  0.69451148632E+03  0.25500000920E-02 0. -1.
       -2   -1    0    0    0  501  0.00000000000E+00  0.00000000000E+00 -0.96453462714E+02  0.96453462747E+02  0.25500000920E-02 0.  1.
    10030    2    1    2    0    0  0.00000000000E+00  0.00000000000E+00  0.59805802360E+03  0.79096494907E+03  0.51764094801E+03 0.  0.
        1    1    3    3  502    0 -0.14668545605E+03 -0.20142444685E+03  0.40598601717E+03  0.47635394086E+03  0.50400001928E-02 0. -1.
       -1    1    3    3    0  502  0.14668545605E+03  0.20142444685E+03  0.19207200643E+03  0.31461100821E+03  0.50400001928E-02 0.  1.
</event>
<event>
 5   0  0.5038436E-02  0.5384713E+03  0.7818609E-02  0.1004198E+00
       -1   -1    0    0    0  501  0.00000000000E+00  0.00000000000E+00  0.42296846424E+03  0.42296846427E+03  0.50400001928E-02 0.  1.
        1   -1    0    0  501    0  0.00000000000E+00  0.00000000000E+00 -0.17137883477E+03  0.17137883484E+03  0.50400001928E-02 0. -1.
    10030    2    1    2    0    0  0.00000000000E+00  0.00000000000E+00  0.25158962947E+03  0.59434729911E+03  0.53847132728E+03 0.  0.
        1    1    3    3  502    0  0.10920208570E+03  0.20044451585E+03 -0.31795793580E+02  0.23046490399E+03  0.50400001928E-02 0. -1.
       -1    1    3    3    0  502 -0.10920208570E+03 -0.20044451585E+03  0.28338542305E+03  0.36388239512E+03  0.50400001928E-02 0.  1.
</event>
<event>
 5   0  0.4865501E-02  0.4986871E+03  0.7818609E-02  0.1014122E+00
        1   -1    0    0  501    0  0.00000000000E+00  0.00000000000E+00  0.10486568407E+04  0.10486568407E+04  0.50400001928E-02 0.  1.
       -1   -1    0    0    0  501  0.00000000000E+00  0.00000000000E+00 -0.59287461773E+02  0.59287461987E+02  0.50400001928E-02 0. -1.
    10030    2    1    2    0    0  0.00000000000E+00  0.00000000000E+00  0.98936937890E+03  0.11079443027E+04  0.49868708617E+03 0.  0.
        2    1    3    3  502    0  0.22191821817E+03  0.11364338123E+03  0.48776916392E+03  0.54779674236E+03  0.25500000920E-02 0.  1.
       -2    1    3    3    0  502 -0.22191821817E+03 -0.11364338123E+03  0.50160021497E+03  0.56014756031E+03  0.25500000920E-02 0. -1.
</event>
<event>
 5   0  0.7881060E-02  0.4989575E+03  0.7818609E-02  0.1014051E+00
       -2   -1    0    0    0  501  0.00000000000E+00  0.00000000000E+00  0.43299787369E+02  0.43299787444E+02  0.25500000920E-02 0.  1.
        2   -1    0    0  501    0  0.00000000000E+00  0.00000000000E+00 -0.14374120634E+04  0.14374120634E+04  0.25500000920E-02 0. -1.
    10030    2    1    2    0    0  0.00000000000E+00  0.00000000000E+00 -0.13941122760E+04  0.14807118508E+04  0.49895746016E+03 0.  0.
        1    1    3    3  502    0 -0.15691435786E+03  0.19283930812E+03 -0.63548107767E+03  0.68238208840E+03  0.50400001928E-02 0.  1.
       -1    1    3    3    0  502  0.15691435786E+03 -0.19283930812E+03 -0.75863119834E+03  0.79832976243E+03  0.50400001928E-02 0. -1.
</event>
<event>
 5   0  0.4884478E-02  0.5032074E+03  0.7818609E-02  0.1012945E+00
       -1   -1    0    0    0  501  0.00000000000E+00  0.00000000000E+00  0.89881147595E+02  0.89881147736E+02  0.50400001928E-02 0.  1.
        1   -1    0    0  501    0  0.00000000000E+00  0.00000000000E+00 -0.70431248846E+03  0.70431248848E+03  0.50400001928E-02 0. -1.
    10030    2    1    2    0    0  0.00000000000E+00  0.00000000000E+00 -0.61443134086E+03  0.79419363621E+03  0.50320737193E+03 0.  0.
        3    1    3    3  502    0 -0.11508324427E+03  0.11147516035E+03 -0.61338870921E+03  0.63396891349E+03  0.10100000352E+00 0. -1.
       -3    1    3    3    0  502  0.11508324427E+03 -0.11147516035E+03 -0.10426316535E+01  0.16022472272E+03  0.10100000352E+00 0.  1.
</event>
<event>
 5   0  0.7933103E-02  0.5026305E+03  0.7818609E-02  0.1013095E+00
       -2   -1    0    0    0  501  0.00000000000E+00  0.00000000000E+00  0.77818600207E+02  0.77818600249E+02  0.25500000920E-02 0.  1.
        2   -1    0    0  501    0  0.00000000000E+00  0.00000000000E+00 -0.81162299646E+03  0.81162299646E+03  0.25500000920E-02 0. -1.
    10030    2    1    2    0    0  0.00000000000E+00  0.00000000000E+00 -0.73380439625E+03  0.88944159671E+03  0.50263054225E+03 0.  0.
        5    1    3    3  502    0  0.13159024132E+03 -0.91369866214E+02 -0.24349954618E+02  0.16210939007E+03  0.46999998093E+01 0.  1.
       -5    1    3    3    0  502 -0.13159024132E+03  0.91369866214E+02 -0.70945444163E+03  0.72733220664E+03  0.46999998093E+01 0. -1.
</event>
<event>
 5   0  0.4884478E-02  0.4995471E+03  0.7818609E-02  0.1013897E+00
       -1   -1    0    0    0  501  0.00000000000E+00  0.00000000000E+00  0.50905245683E+02  0.50905245932E+02  0.50400001928E-02 0. -1.
        1   -1    0    0  501    0  0.00000000000E+00  0.00000000000E+00 -0.12255481182E+04  0.12255481182E+04  0.50400001928E-02 0.  1.
    10030    2    1    2    0    0  0.00000000000E+00  0.00000000000E+00 -0.11746428725E+04  0.12764533641E+04  0.49954710776E+03 0.  0.
        3    1    3    3  502    0 -0.18121161022E+02 -0.17177102798E+03 -0.12629582782E+03  0.21397268250E+03  0.10100000352E+00 0. -1.
       -3    1    3    3    0  502  0.18121161022E+02  0.17177102798E+03 -0.10483470447E+04  0.10624806816E+04  0.10100000352E+00 0.  1.
</event>
<event>
 5   0  0.7698747E-02  0.4877725E+03  0.7818609E-02  0.1017021E+00
        2   -1    0    0  501    0  0.00000000000E+00  0.00000000000E+00  0.11671711879E+04  0.11671711879E+04  0.25500000920E-02 0. -1.
       -2   -1    0    0    0  501  0.00000000000E+00  0.00000000000E+00 -0.50961241729E+02  0.50961241793E+02  0.25500000920E-02 0.  1.
    10030    2    1    2    0    0  0.00000000000E+00  0.00000000000E+00  0.11162099461E+04  0.12181324297E+04  0.48777245960E+03 0.  0.
        2    1    3    3  502    0  0.11941514533E+02 -0.13907252034E+03  0.58657915792E+02  0.15140844354E+03  0.25500000920E-02 0.  1.
       -2    1    3    3    0  502 -0.11941514533E+02  0.13907252034E+03  0.10575520303E+04  0.10667239861E+04  0.25500000920E-02 0. -1.
</event>
<event>
 5   0  0.5191358E-02  0.4986657E+03  0.7818609E-02  0.1014128E+00
       -1   -1    0    0    0  501  0.00000000000E+00  0.00000000000E+00  0.56551697764E+02  0.56551697988E+02  0.50400001928E-02 0.  1.
        1   -1    0    0  501    0  0.00000000000E+00  0.00000000000E+00 -0.10992927603E+04  0.10992927604E+04  0.50400001928E-02 0. -1.
    10030    2    1    2    0    0  0.00000000000E+00  0.00000000000E+00 -0.10427410626E+04  0.11558444583E+04  0.49866570796E+03 0.  0.
        4    1    3    3  502    0 -0.16624103348E+03  0.15654301540E+03 -0.75342972112E+03  0.78727362108E+03  0.12699999809E+01 0.  1.
       -4    1    3    3    0  502  0.16624103348E+03 -0.15654301540E+03 -0.28931134146E+03  0.36857083726E+03  0.12699999809E+01 0. -1.
</event>
<event>
 5   0  0.4803890E-02  0.5078031E+03  0.7818609E-02  0.1011762E+00
        1   -1    0    0  501    0  0.00000000000E+00  0.00000000000E+00  0.95477864805E+02  0.95477864938E+02  0.50400001928E-02 0.  1.
       -1   -1    0    0    0  501  0.00000000000E+00  0.00000000000E+00 -0.67519306257E+03  0.67519306259E+03  0.50400001928E-02 0. -1.
    10030    2    1    2    0    0  0.00000000000E+00  0.00000000000E+00 -0.57971519777E+03  0.77067092753E+03  0.50780307996E+03 0.  0.
        5    1    3    3  502    0  0.21745093333E+03 -0.75581698595E+02 -0.12748673062E+03  0.26319661482E+03  0.46999998093E+01 0.  1.
       -5    1    3    3    0  502 -0.21745093333E+03  0.75581698595E+02 -0.45222846715E+03  0.50747431271E+03  0.46999998093E+01 0. -1.
</event>
<event>
 5   0  0.5038436E-02  0.4977391E+03  0.7818609E-02  0.1014371E+00
       -1   -1    0    0    0  501  0.00000000000E+00  0.00000000000E+00  0.49457724273E+03  0.49457724276E+03  0.50400001928E-02 0. -1.
        1   -1    0    0  501    0  0.00000000000E+00  0.00000000000E+00 -0.12523031486E+03  0.12523031496E+03  0.50400001928E-02 0.  1.
    10030    2    1    2    0    0  0.00000000000E+00  0.00000000000E+00  0.36934692787E+03  0.61980755772E+03  0.49773914401E+03 0.  0.
        1    1    3    3  502    0  0.88277854808E+02 -0.98441349283E+02 -0.77870842326E+02  0.15345210004E+03  0.50400001928E-02 0.  1.
       -1    1    3    3    0  502 -0.88277854808E+02  0.98441349283E+02  0.44721777020E+03  0.46635545767E+03  0.50400001928E-02 0. -1.
</event>
<event>
 5   0  0.4865501E-02  0.4992938E+03  0.7818609E-02  0.1013963E+00
       -1   -1    0    0    0  501  0.00000000000E+00  0.00000000000E+00  0.75984445319E+02  0.75984445486E+02  0.50400001928E-02 0. -1.
        1   -1    0    0  501    0  0.00000000000E+00  0.00000000000E+00 -0.82021505071E+03  0.82021505073E+03  0.50400001928E-02 0.  1.
    10030    2    1    2    0    0  0.00000000000E+00  0.00000000000E+00 -0.74423060539E+03  0.89619949622E+03  0.49929384436E+03 0.  0.
        2    1    3    3  502    0  0.18352134180E+03  0.98227096251E+02 -0.12473367007E+03  0.24266671339E+03  0.25500000920E-02 0. -1.
       -2    1    3    3    0  502 -0.18352134180E+03 -0.98227096251E+02 -0.61949693533E+03  0.65353278282E+03  0.25500000920E-02 0.  1.
</event>
<event>
 5   0  0.8208720E-02  0.4937455E+03  0.7818609E-02  0.1015424E+00
        2   -1    0    0  501    0  0.00000000000E+00  0.00000000000E+00  0.15295174186E+04  0.15295174186E+04  0.25500000920E-02 0.  1.
       -2   -1    0    0    0  501  0.00000000000E+00  0.00000000000E+00 -0.39846649355E+02  0.39846649437E+02  0.25500000920E-02 0. -1.
    10030    2    1    2    0    0  0.00000000000E+00  0.00000000000E+00  0.14896707692E+04  0.15693640680E+04  0.49374545801E+03 0.  0.
        3    1    3    3  502    0  0.40471367430E+02  0.70681942102E+02  0.40889820069E+01  0.81551201683E+02  0.10100000352E+00 0. -1.
       -3    1    3    3    0  502 -0.40471367430E+02 -0.70681942102E+02  0.14855817872E+04  0.14878128663E+04  0.10100000352E+00 0.  1.
</event>
<event>
 5   0  0.7881060E-02  0.5085151E+03  0.7818609E-02  0.1011580E+00
       -2   -1    0    0    0  501  0.00000000000E+00  0.00000000000E+00  0.12094328156E+03  0.12094328159E+03  0.25500000920E-02 0. -1.
        2   -1    0    0  501    0  0.00000000000E+00  0.00000000000E+00 -0.53452246472E+03  0.53452246472E+03  0.25500000920E-02 0.  1.
    10030    2    1    2    0    0  0.00000000000E+00  0.00000000000E+00 -0.41357918316E+03  0.65546574631E+03  0.50851509697E+03 0.  0.
        1    1    3    3  502    0  0.40109389216E+01  0.17844084375E+03 -0.44019705015E+03  0.47500596348E+03  0.50400001928E-02 0.  1.
       -1    1    3    3    0  502 -0.40109389216E+01 -0.17844084375E+03  0.26617866997E+02  0.18045978283E+03  0.50400001928E-02 0. -1.
</event>
<event>
 5   0  0.3210875E-02  0.4995691E+03  0.7818609E-02  0.1013891E+00
        4   -1    0    0  501    0  0.00000000000E+00  0.00000000000E+00  0.12430814527E+03  0.12431463261E+03  0.12699999809E+01 0.  1.
       -4   -1    0    0    0  501  0.00000000000E+00  0.00000000000E+00 -0.50189629864E+03  0.50189790545E+03  0.12699999809E+01 0. -1.
    10030    2    1    2    0    0  0.00000000000E+00  0.00000000000E+00 -0.37758815337E+03  0.62621253805E+03  0.49956914361E+03 0.  0.
        3    1    3    3  502    0  0.13711860610E+03 -0.16894180727E+02  0.72059720633E+02  0.15581893023E+03  0.10100000352E+00 0.  1.
       -3    1    3    3    0  502 -0.13711860610E+03  0.16894180727E+02 -0.44964787400E+03  0.47039360782E+03  0.10100000352E+00 0. -1.
</event>
<event>
 5   0  0.4865501E-02  0.4973767E+03  0.7818609E-02  0.1014466E+00
        1   -1    0    0  501    0  0.00000000000E+00  0.00000000000E+00  0.21074523590E+04  0.21074523591E+04  0.50400001928E-02 0.  1.
       -1   -1    0    0    0  501  0.00000000000E+00  0.00000000000E+00 -0.29346280634E+02  0.29346281066E+02  0.50400001928E-02 0. -1.
    10030    2    1    2    0    0  0.00000000000E+00  0.00000000000E+00  0.20781060784E+04  0.21367986401E+04  0.49737667343E+03 0.  0.
        2    1    3    3  502    0  0.61788770525E+02 -0.14443943120E+03  0.18672753642E+04  0.18738724308E+04  0.25500000920E-02 0.  1.
       -2    1    3    3    0  502 -0.61788770525E+02  0.14443943120E+03  0.21083071425E+03  0.26292620928E+03  0.25500000920E-02 0. -1.
</event>
<event>
 5   0  0.4884478E-02  0.4814231E+03  0.7818609E-02  0.1018745E+00
        1   -1    0    0  501    0  0.00000000000E+00  0.00000000000E+00  0.77971411012E+03  0.77971411013E+03  0.50400001928E-02 0.  1.
       -1   -1    0    0    0  501  0.00000000000E+00  0.00000000000E+00 -0.74311913522E+02  0.74311913693E+02  0.50400001928E-02 0. -1.
    10030    2    1    2    0    0  0.00000000000E+00  0.00000000000E+00  0.70540219659E+03  0.85402602383E+03  0.48142308878E+03 0.  0.
        3    1    3    3  502    0 -0.14760424459E+03 -0.42544328710E+02  0.68145883232E+03  0.69855793122E+03  0.10100000352E+00 0.  1.
       -3    1    3    3    0  502  0.14760424459E+03  0.42544328710E+02  0.23943364277E+02  0.15546809261E+03  0.10100000352E+00 0. -1.
</event>
<event>
 5   0  0.5191358E-02  0.5006949E+03  0.7818609E-02  0.1013598E+00
        1   -1    0    0  501    0  0.00000000000E+00  0.00000000000E+00  0.15230675026E+04  0.15230675026E+04  0.50400001928E-02 0. -1.
       -1   -1    0    0    0  501  0.00000000000E+00  0.00000000000E+00 -0.41149743958E+02  0.41149744266E+02  0.50400001928E-02 0.  1.
    10030    2    1    2    0    0  0.00000000000E+00  0.00000000000E+00  0.14819177587E+04  0.15642172469E+04  0.50069486920E+03 0.  0.
        4    1    3    3  502    0  0.18438080501E+03 -0.15571590550E+03  0.53305993482E+03  0.58514804237E+03  0.12699999809E+01 0.  1.
       -4    1    3    3    0  502 -0.18438080501E+03  0.15571590550E+03  0.94885782387E+03  0.97906920455E+03  0.12699999809E+01 0. -1.
</event>
<event>
 5   0  0.7698747E-02  0.4989769E+03  0.7818609E-02  0.1014046E+00
        2   -1    0    0  501    0  0.00000000000E+00  0.00000000000E+00  0.31353501707E+03  0.31353501708E+03  0.25500000920E-02 0. -1.
       -2   -1    0    0    0  501  0.00000000000E+00  0.00000000000E+00 -0.19852485517E+03  0.19852485518E+03  0.25500000920E-02 0.  1.
    10030    2    1    2    0    0  0.00000000000E+00  0.00000000000E+00  0.11501016191E+03  0.51205987227E+03  0.49897692877E+03 0.  0.
        2    1    3    3  502    0 -0.23985635438E+02 -0.90600106154E+02  0.29478338006E+03  0.30932334395E+03  0.25500000920E-02 0. -1.
       -2    1    3    3    0  502  0.23985635438E+02  0.90600106154E+02 -0.17977321816E+03  0.20273652832E+03  0.25500000920E-02 0.  1.
</event>
<event>
 5   0  0.7881060E-02  0.4989554E+03  0.7818609E-02  0.1014052E+00
        2   -1    0    0  501    0  0.00000000000E+00  0.00000000000E+00  0.59285480705E+03  0.59285480706E+03  0.25500000920E-02 0.  1.
       -2   -1    0    0    0  501  0.00000000000E+00  0.00000000000E+00 -0.10498206421E+03  0.10498206424E+03  0.25500000920E-02 0. -1.
    10030    2    1    2    0    0  0.00000000000E+00  0.00000000000E+00  0.48787274285E+03  0.69783687130E+03  0.49895539453E+03 0.  0.
        1    1    3    3  502    0 -0.46032144113E+02  0.22199150076E+03  0.38955118654E+03  0.45072087999E+03  0.50400001928E-02 0.  1.
       -1    1    3    3    0  502  0.46032144113E+02 -0.22199150076E+03  0.98321556303E+02  0.24711599130E+03  0.50400001928E-02 0. -1.
</event>
<event>
 5   0  0.3210875E-02  0.4967860E+03  0.7818609E-02  0.1014621E+00
        3   -1    0    0  501    0  0.00000000000E+00  0.00000000000E+00  0.22559349871E+03  0.22559352132E+03  0.10100000352E+00 0.  1.
       -3   -1    0    0    0  501  0.00000000000E+00  0.00000000000E+00 -0.27349671627E+03  0.27349673492E+03  0.10100000352E+00 0. -1.
    10030    2    1    2    0    0  0.00000000000E+00  0.00000000000E+00 -0.47903217559E+02  0.49909025624E+03  0.49678603606E+03 0.  0.
        4    1    3    3  502    0 -0.21810471693E+03 -0.96716987176E+02  0.45460355031E+02  0.24288289346E+03  0.12699999809E+01 0.  1.
       -4    1    3    3    0  502  0.21810471693E+03  0.96716987176E+02 -0.93363572590E+02  0.25620736278E+03  0.12699999809E+01 0. -1.
</event>
<event>
 5   0  0.5038436E-02  0.4994132E+03  0.7818609E-02  0.1013932E+00
       -1   -1    0    0    0  501  0.00000000000E+00  0.00000000000E+00  0.58814488970E+02  0.58814489186E+02  0.50400001928E-02 0.  1.
        1   -1    0    0  501    0  0.00000000000E+00  0.00000000000E+00 -0.10601706405E+04  0.10601706405E+04  0.50400001928E-02 0. -1.
    10030    2    1    2    0    0  0.00000000000E+00  0.00000000000E+00 -0.10013561515E+04  0.11189851297E+04  0.49941323398E+03 0.  0.
        1    1    3    3  502    0  0.33676784948E+02 -0.23733121083E+03 -0.65741062656E+03  0.69974921323E+03  0.50400001928E-02 0. -1.
       -1    1    3    3    0  502 -0.33676784948E+02  0.23733121083E+03 -0.34394552495E+03  0.41923591645E+03  0.50400001928E-02 0.  1.
</event>
<event>
 5   0  0.7698747E-02  0.5003907E+03  0.7818609E-02  0.1013677E+00
       -2   -1    0    0    0  501  0.00000000000E+00  0.00000000000E+00  0.51577540626E+03  0.51577540626E+03  0.25500000920E-02 0. -1.
        2   -1    0    0  501    0  0.00000000000E+00  0.00000000000E+00 -0.12136623803E+03  0.12136623806E+03  0.25500000920E-02 0.  1.
    10030    2    1    2    0    0  0.00000000000E+00  0.00000000000E+00  0.39440916823E+03  0.63714164432E+03  0.50039073027E+03 0.  0.
        2    1    3    3  502    0  0.91402844956E+01  0.57011736937E+02  0.50717598221E+03  0.51045211321E+03  0.25500000920E-02 0. -1.
       -2    1    3    3    0  502 -0.91402844956E+01 -0.57011736937E+02 -0.11276681398E+03  0.12668953110E+03  0.25500000920E-02 0.  1.
</event>
<event>
 5   0  0.5038436E-02  0.4997369E+03  0.7818609E-02  0.1013848E+00
        1   -1    0    0  501    0  0.00000000000E+00  0.00000000000E+00  0.71718497106E+03  0.71718497107E+03  0.50400001928E-02 0. -1.
       -1   -1    0    0    0  501  0.00000000000E+00  0.00000000000E+00 -0.87054604604E+02  0.87054604750E+02  0.50400001928E-02 0.  1.
    10030    2    1    2    0    0  0.00000000000E+00  0.00000000000E+00  0.63013036645E+03  0.80423957582E+03  0.49973694740E+03 0.  0.
        1    1    3    3  502    0  0.17499335830E+03 -0.79044185754E+02  0.57237416622E+03  0.60372414639E+03  0.50400001928E-02 0. -1.
       -1    1    3    3    0  502 -0.17499335830E+03  0.79044185754E+02  0.57756200235E+02  0.20051542944E+03  0.50400001928E-02 0.  1.
</event>
<event>
 5   0  0.7881060E-02  0.4991558E+03  0.7818609E-02  0.1014000E+00
       -2   -1    0    0    0  501  0.00000000000E+00  0.00000000000E+00  0.16197539604E+03  0.16197539606E+03  0.25500000920E-02 0.  1.
        2   -1    0    0  501    0  0.00000000000E+00  0.00000000000E+00 -0.38455912413E+03  0.38455912414E+03  0.25500000920E-02 0. -1.
    10030    2    1    2    0    0  0.00000000000E+00  0.00000000000E+00 -0.22258372809E+03  0.54653452020E+03  0.49915575301E+03 0.  0.
        1    1    3    3  502    0  0.41622083961E+02  0.18154882954E+03 -0.29318253133E+03  0.34734474529E+03  0.50400001928E-02 0. -1.
       -1    1    3    3    0  502 -0.41622083961E+02 -0.18154882954E+03  0.70598803240E+02  0.19918977490E+03  0.50400001928E-02 0.  1.
</event>
<event>
 5   0  0.4884478E-02  0.5007182E+03  0.7818609E-02  0.1013592E+00
        1   -1    0    0  501    0  0.00000000000E+00  0.00000000000E+00  0.76328369769E+03  0.76328369770E+03  0.50400001928E-02 0. -1.
       -1   -1    0    0    0  501  0.00000000000E+00  0.00000000000E+00 -0.82118440589E+02  0.82118440743E+02  0.50400001928E-02 0.  1.
    10030    2    1    2    0    0  0.00000000000E+00  0.00000000000E+00  0.68116525710E+03  0.84540213845E+03  0.50071815247E+03 0.  0.
        3    1    3    3  502    0  0.15475575806E+03  0.19656355106E+03  0.35687199689E+03  0.43582589027E+03  0.10100000352E+00 0.  1.
       -3    1    3    3    0  502 -0.15475575806E+03 -0.19656355106E+03  0.32429326021E+03  0.40957624818E+03  0.10100000352E+00 0. -1.
</event>
<event>
 5   0  0.7933103E-02  0.5015991E+03  0.7818609E-02  0.1013362E+00
        2   -1    0    0  501    0  0.00000000000E+00  0.00000000000E+00  0.60678674178E+03  0.60678674178E+03  0.25500000920E-02 0. -1.
       -2   -1    0    0    0  501  0.00000000000E+00  0.00000000000E+00 -0.10366149851E+03  0.10366149855E+03  0.25500000920E-02 0.  1.
    10030    2    1    2    0    0  0.00000000000E+00  0.00000000000E+00  0.50312524326E+03  0.71044824033E+03  0.50159913454E+03 0.  0.
        5    1    3    3  502    0 -0.20906462743E+03  0.10726403807E+03  0.37556339573E+03  0.44303898983E+03  0.46999998093E+01 0.  1.
       -5    1    3    3    0  502  0.20906462743E+03 -0.10726403807E+03  0.12756184753E+03  0.26740925049E+03  0.46999998093E+01 0. -1.
</event>
<event>
 5   0  0.7881060E-02  0.5021941E+03  0.7818609E-02  0.1013208E+00
       -2   -1    0    0    0  501  0.00000000000E+00  0.00000000000E+00  0.71809704680E+02  0.71809704725E+02  0.25500000920E-02 0. -1.
        2   -1    0    0  501    0  0.00000000000E+00  0.00000000000E+00 -0.87801131227E+03  0.87801131227E+03  0.25500000920E-02 0.  1.
    10030    2    1    2    0    0  0.00000000000E+00  0.00000000000E+00 -0.80620160759E+03  0.94982101700E+03  0.50219411810E+03 0.  0.
        1    1    3    3  502    0  0.12631040010E+03 -0.11235445063E+03 -0.75425892898E+03  0.77297113253E+03  0.50400001928E-02 0.  1.
       -1    1    3    3    0  502 -0.12631040010E+03  0.11235445063E+03 -0.51942678610E+02  0.17684988447E+03  0.50400001928E-02 0. -1.
</event>
<event>
 5   0  0.4865501E-02  0.4984423E+03  0.7818609E-02  0.1014186E+00
        1   -1    0    0  501    0  0.00000000000E+00  0.00000000000E+00  0.23396569198E+03  0.23396569203E+03  0.50400001928E-02 0.  1.
       -1   -1    0    0    0  501  0.00000000000E+00  0.00000000000E+00 -0.26547137168E+03  0.26547137173E+03  0.50400001928E-02 0. -1.
    10030    2    1    2    0    0  0.00000000000E+00  0.00000000000E+00 -0.31505679702E+02  0.49943706376E+03  0.49844234652E+03 0.  0.
        2    1    3    3  502    0  0.16270252410E+03 -0.18675503644E+03  0.11900029269E+02  0.24797412302E+03  0.25500000920E-02 0.  1.
       -2    1    3    3    0  502 -0.16270252410E+03  0.18675503644E+03 -0.43405708971E+02  0.25146294073E+03  0.25500000920E-02 0. -1.
</event>
<event>
 5   0  0.7698747E-02  0.5220817E+03  0.7818609E-02  0.1008171E+00
        2   -1    0    0  501    0  0.00000000000E+00  0.00000000000E+00  0.82270155140E+03  0.82270155140E+03  0.25500000920E-02 0.  1.
       -2   -1    0    0    0  501  0.00000000000E+00  0.00000000000E+00 -0.82827518098E+02  0.82827518138E+02  0.25500000920E-02 0. -1.
    10030    2    1    2    0    0  0.00000000000E+00  0.00000000000E+00  0.73987403330E+03  0.90552906954E+03  0.52208170877E+03 0.  0.
        2    1    3    3  502    0  0.10940262423E+03 -0.65874297965E+02  0.76482248917E+03  0.77541072811E+03  0.25500000920E-02 0.  1.
       -2    1    3    3    0  502 -0.10940262423E+03  0.65874297965E+02 -0.24948455868E+02  0.13011834143E+03  0.25500000920E-02 0. -1.
</event>
<event>
 5   0  0.7881060E-02  0.4986813E+03  0.7818609E-02  0.1014124E+00
        2   -1    0    0  501    0  0.00000000000E+00  0.00000000000E+00  0.12312726235E+04  0.12312726235E+04  0.25500000920E-02 0.  1.
       -2   -1    0    0    0  501  0.00000000000E+00  0.00000000000E+00 -0.50493099659E+02  0.50493099724E+02  0.25500000920E-02 0. -1.
    10030    2    1    2    0    0  0.00000000000E+00  0.00000000000E+00  0.11807795238E+04  0.12817657232E+04  0.49868134647E+03 0.  0.
        1    1    3    3  502    0 -0.91460792524E+02  0.23080061149E+03  0.53083991542E+03  0.58602475602E+03  0.50400001928E-02 0. -1.
       -1    1    3    3    0  502  0.91460792524E+02 -0.23080061149E+03  0.64993960840E+03  0.69574096719E+03  0.50400001928E-02 0.  1.
</event>
<event>
 5   0  0.4865501E-02  0.4935733E+03  0.7818609E-02  0.1015470E+00
        1   -1    0    0  501    0  0.00000000000E+00  0.00000000000E+00  0.63608681138E+03  0.63608681140E+03  0.50400001928E-02 0. -1.
       -1   -1    0    0    0  501  0.00000000000E+00  0.00000000000E+00 -0.95747368494E+02  0.95747368627E+02  0.50400001928E-02 0.  1.
    10030    2    1    2    0    0  0.00000000000E+00  0.00000000000E+00  0.54033944289E+03  0.73183418003E+03  0.49357325041E+03 0.  0.
        2    1    3    3  502    0 -0.23874432261E+03  0.57769359485E+02  0.30549124086E+03  0.39199623559E+03  0.25500000920E-02 0.  1.
       -2    1    3    3    0  502  0.23874432261E+03 -0.57769359485E+02  0.23484820203E+03  0.33983794443E+03  0.25500000920E-02 0. -1.
</event>
<event>
 5   0  0.5191358E-02  0.4990931E+03  0.7818609E-02  0.1014016E+00
        1   -1    0    0  501    0  0.00000000000E+00  0.00000000000E+00  0.31585822283E+03  0.31585822288E+03  0.50400001928E-02 0. -1.
       -1   -1    0    0    0  501  0.00000000000E+00  0.00000000000E+00 -0.19715645273E+03  0.19715645280E+03  0.50400001928E-02 0.  1.
    10030    2    1    2    0    0  0.00000000000E+00  0.00000000000E+00  0.11870177010E+03  0.51301467567E+03  0.49909312481E+03 0.  0.
        4    1    3    3  502    0  0.34684496249E+02  0.12032360694E+03 -0.16251965149E+03  0.20517074520E+03  0.12699999809E+01 0.  1.
       -4    1    3    3    0  502 -0.34684496249E+02 -0.12032360694E+03  0.28122142159E+03  0.30784393047E+03  0.12699999809E+01 0. -1.
</event>
<event>
 5   0  0.7933103E-02  0.4629530E+03  0.7818609E-02  0.1023928E+00
        2   -1    0    0  501    0  0.00000000000E+00  0.00000000000E+00  0.59657339071E+03  0.59657339072E+03  0.25500000920E-02 0.  1.
       -2   -1    0    0    0  501  0.00000000000E+00  0.00000000000E+00 -0.89815230835E+02  0.89815230871E+02  0.25500000920E-02 0. -1.
    10030    2    1    2    0    0  0.00000000000E+00  0.00000000000E+00  0.50675815988E+03  0.68638862159E+03  0.46295302920E+03 0.  0.
        5    1    3    3  502    0  0.92478428678E+02  0.20751650839E+03  0.31874825225E+03  0.39145612696E+03  0.46999998093E+01 0.  1.
       -5    1    3    3    0  502 -0.92478428678E+02 -0.20751650839E+03  0.18800990762E+03  0.29493249463E+03  0.46999998093E+01 0. -1.
</event>
<event>
 5   0  0.4884478E-02  0.4656795E+03  0.7818609E-02  0.1023147E+00
        1   -1    0    0  501    0  0.00000000000E+00  0.00000000000E+00  0.14046044334E+04  0.14046044334E+04  0.50400001928E-02 0.  1.
       -1   -1    0    0    0  501  0.00000000000E+00  0.00000000000E+00 -0.38597592229E+02  0.38597592558E+02  0.50400001928E-02 0. -1.
    10030    2    1    2    0    0  0.00000000000E+00  0.00000000000E+00  0.13660068412E+04  0.14432020260E+04  0.46567950098E+03 0.  0.
        3    1    3    3  502    0  0.11127016803E+03  0.63811915417E+01  0.13165660385E+04  0.13212751091E+04  0.10100000352E+00 0.  1.
       -3    1    3    3    0  502 -0.11127016803E+03 -0.63811915417E+01  0.49440802702E+02  0.12192691693E+03  0.10100000352E+00 0. -1.
</event>
<event>
 5   0  0.5038436E-02  0.5006616E+03  0.7818609E-02  0.1013606E+00
       -1   -1    0    0    0  501  0.00000000000E+00  0.00000000000E+00  0.19393968683E+03  0.19393968689E+03  0.50400001928E-02 0. -1.
        1   -1    0    0  501    0  0.00000000000E+00  0.00000000000E+00 -0.32311854411E+03  0.32311854415E+03  0.50400001928E-02 0.  1.
    10030    2    1    2    0    0  0.00000000000E+00  0.00000000000E+00 -0.12917885728E+03  0.51705823105E+03  0.50066159941E+03 0.  0.
        1    1    3    3  502    0  0.96808810312E+02 -0.20447796469E+03 -0.17525438061E+03  0.28617701121E+03  0.50400001928E-02 0.  1.
       -1    1    3    3    0  502 -0.96808810312E+02  0.20447796469E+03  0.46075523328E+02  0.23088121984E+03  0.50400001928E-02 0. -1.
</event>
<event>
 5   0  0.8208720E-02  0.5003076E+03  0.7818609E-02  0.1013699E+00
        2   -1    0    0  501    0  0.00000000000E+00  0.00000000000E+00  0.32057662297E+03  0.32057662298E+03  0.25500000920E-02 0. -1.
       -2   -1    0    0    0  501  0.00000000000E+00  0.00000000000E+00 -0.19520110559E+03  0.19520110561E+03  0.25500000920E-02 0.  1.
    10030    2    1    2    0    0  0.00000000000E+00  0.00000000000E+00  0.12537551737E+03  0.51577772858E+03  0.50030755036E+03 0.  0.
        3    1    3    3  502    0 -0.12332199345E+03 -0.18025645917E+03  0.18842718442E+03  0.28845366902E+03  0.10100000352E+00 0. -1.
       -3    1    3    3    0  502  0.12332199345E+03  0.18025645917E+03 -0.63051667043E+02  0.22732405957E+03  0.10100000352E+00 0.  1.
</event>
<event>
 5   0  0.7933103E-02  0.4973732E+03  0.7818609E-02  0.1014467E+00
        2   -1    0    0  501    0  0.00000000000E+00  0.00000000000E+00  0.25657733624E+03  0.25657733625E+03  0.25500000920E-02 0.  1.
       -2   -1    0    0    0  501  0.00000000000E+00  0.00000000000E+00 -0.24103853694E+03  0.24103853695E+03  0.25500000920E-02 0. -1.
    10030    2    1    2    0    0  0.00000000000E+00  0.00000000000E+00  0.15538799303E+02  0.49761587320E+03  0.49737320292E+03 0.  0.
        5    1    3    3  502    0  0.14722274355E+03 -0.19470151174E+03  0.55118179226E+02  0.25028647300E+03  0.46999998093E+01 0.  1.
       -5    1    3    3    0  502 -0.14722274355E+03  0.19470151174E+03 -0.39579379923E+02  0.24732940020E+03  0.46999998093E+01 0. -1.
</event>
<event>
 5   0  0.4803890E-02  0.5018928E+03  0.7818609E-02  0.1013286E+00
       -1   -1    0    0    0  501  0.00000000000E+00  0.00000000000E+00  0.48643377388E+03  0.48643377391E+03  0.50400001928E-02 0.  1.
        1   -1    0    0  501    0  0.00000000000E+00  0.00000000000E+00 -0.12946079737E+03  0.12946079746E+03  0.50400001928E-02 0. -1.
    10030    2    1    2    0    0  0.00000000000E+00  0.00000000000E+00  0.35697297652E+03  0.61589457137E+03  0.50189283426E+03 0.  0.
        5    1    3    3  502    0  0.19896142682E+03 -0.15206961886E+03  0.19754462183E+03  0.31899339485E+03  0.46999998093E+01 0.  1.
       -5    1    3    3    0  502 -0.19896142682E+03  0.15206961886E+03  0.15942835469E+03  0.29690117652E+03  0.46999998093E+01 0. -1.
</event>
<event>
 5   0  0.4865501E-02  0.5002536E+03  0.7818609E-02  0.1013713E+00
       -1   -1    0    0    0  501  0.00000000000E+00  0.00000000000E+00  0.57539527533E+02  0.57539527754E+02  0.50400001928E-02 0. -1.
        1   -1    0    0  501    0  0.00000000000E+00  0.00000000000E+00 -0.10873121482E+04  0.10873121482E+04  0.50400001928E-02 0.  1.
    10030    2    1    2    0    0  0.00000000000E+00  0.00000000000E+00 -0.10297726207E+04  0.11448516760E+04  0.50025364535E+03 0.  0.
        2    1    3    3  502    0 -0.54563146142E+02 -0.79821100144E+02  0.13042685673E+02  0.97563602850E+02  0.25500000920E-02 0. -1.
       -2    1    3    3    0  502  0.54563146142E+02  0.79821100144E+02 -0.10428153063E+04  0.10472880731E+04  0.25500000920E-02 0.  1.
</event>
<event>
 5   0  0.7776070E-02  0.5032211E+03  0.7818609E-02  0.1012942E+00
       -2   -1    0    0    0  501  0.00000000000E+00  0.00000000000E+00  0.13152593775E+03  0.13152593778E+03  0.25500000920E-02 0. -1.
        2   -1    0    0  501    0  0.00000000000E+00  0.00000000000E+00 -0.48133370736E+03  0.48133370737E+03  0.25500000920E-02 0.  1.
    10030    2    1    2    0    0  0.00000000000E+00  0.00000000000E+00 -0.34980776961E+03  0.61285964514E+03  0.50322109352E+03 0.  0.
        4    1    3    3  502    0 -0.33999613013E+02 -0.16402335127E+03 -0.40354847586E+03  0.43693548576E+03  0.12699999809E+01 0.  1.
       -4    1    3    3    0  502  0.33999613013E+02  0.16402335127E+03  0.53740706251E+02  0.17592415938E+03  0.12699999809E+01 0. -1.
</event>
<event>
 5   0  0.7933103E-02  0.4987919E+03  0.7818609E-02  0.1014095E+00
       -2   -1    0    0    0  501  0.00000000000E+00  0.00000000000E+00  0.15476515897E+03  0.15476515899E+03  0.25500000920E-02 0.  1.
        2   -1    0    0  501    0  0.00000000000E+00  0.00000000000E+00 -0.40188858103E+03  0.40188858104E+03  0.25500000920E-02 0. -1.
    10030    2    1    2    0    0  0.00000000000E+00  0.00000000000E+00 -0.24712342206E+03  0.55665374003E+03  0.49879194115E+03 0.  0.
        5    1    3    3  502    0 -0.11562490271E+03 -0.13271176418E+03  0.73547226236E+02  0.19082142166E+03  0.46999998093E+01 0.  1.
       -5    1    3    3    0  502  0.11562490271E+03  0.13271176418E+03 -0.32067064830E+03  0.36583231836E+03  0.46999998093E+01 0. -1.
</event>
<event>
 5   0  0.5191358E-02  0.4935426E+03  0.7818609E-02  0.1015478E+00
        1   -1    0    0  501    0  0.00000000000E+00  0.00000000000E+00  0.14853883229E+03  0.14853883237E+03  0.50400001928E-02 0. -1.
       -1   -1    0    0    0  501  0.00000000000E+00  0.00000000000E+00 -0.40996729115E+03  0.40996729118E+03  0.50400001928E-02 0.  1.
    10030    2    1    2    0    0  0.00000000000E+00  0.00000000000E+00 -0.26142845886E+03  0.55850612355E+03  0.49354255231E+03 0.  0.
        4    1    3    3  502    0 -0.19005183201E+03  0.69125749827E+02  0.29307531608E+02  0.20434924137E+03  0.12699999809E+01 0. -1.
       -4    1    3    3    0  502  0.19005183201E+03 -0.69125749827E+02 -0.29073599047E+03  0.35415688218E+03  0.12699999809E+01 0.  1.
</event>
<event>
 5   0  0.7698747E-02  0.5181243E+03  0.7818609E-02  0.1009154E+00
       -2   -1    0    0    0  501  0.00000000000E+00  0.00000000000E+00  0.65907434287E+02  0.65907434336E+02  0.25500000920E-02 0.  1.
        2   -1    0    0  501    0  0.00000000000E+00  0.00000000000E+00 -0.10182946121E+04  0.10182946121E+04  0.25500000920E-02 0. -1.
    10030    2    1    2    0    0  0.00000000000E+00  0.00000000000E+00 -0.95238717777E+03  0.10842020464E+04  0.51812425250E+03 0.  0.
        2    1    3    3  502    0  0.93763076444E+02 -0.32407538851E+02  0.24584461653E+02  0.10220645205E+03  0.25500000920E-02 0.  1.
       -2    1    3    3    0  502 -0.93763076444E+02  0.32407538851E+02 -0.97697163942E+03  0.98199559435E+03  0.25500000920E-02 0. -1.
</event>
<event>
 5   0  0.3210875E-02  0.4479806E+03  0.7818609E-02  0.1028326E+00
       -3   -1    0    0    0  501  0.00000000000E+00  0.00000000000E+00  0.15105955101E+04  0.15105955135E+04  0.10100000352E+00 0. -1.
        3   -1    0    0  501    0  0.00000000000E+00  0.00000000000E+00 -0.33213079765E+02  0.33213233333E+02  0.10100000352E+00 0.  1.
    10030    2    1    2    0    0  0.00000000000E+00  0.00000000000E+00  0.14773824303E+04  0.15438087468E+04  0.44798058134E+03 0.  0.
        1    1    3    3  502    0  0.13727081394E+03 -0.12906526191E+03  0.11560958251E+04  0.11713490833E+04  0.50400001928E-02 0. -1.
       -1    1    3    3    0  502 -0.13727081394E+03  0.12906526191E+03  0.32128660527E+03  0.37245966351E+03  0.50400001928E-02 0.  1.
</event>
<event>
 5   0  0.4865501E-02  0.5515623E+03  0.7818609E-02  0.1001133E+00
       -1   -1    0    0    0  501  0.00000000000E+00  0.00000000000E+00  0.57066131602E+03  0.57066131605E+03  0.50400001928E-02 0.  1.
        1   -1    0    0  501    0  0.00000000000E+00  0.00000000000E+00 -0.13327562244E+03  0.13327562254E+03  0.50400001928E-02 0. -1.
    10030    2    1    2    0    0  0.00000000000E+00  0.00000000000E+00  0.43738569358E+03  0.70393693858E+03  0.55156229798E+03 0.  0.
        2    1    3    3  502    0  0.16668705129E+03  0.19158629045E+03  0.35594488588E+03  0.43724894688E+03  0.25500000920E-02 0.  1.
       -2    1    3    3    0  502 -0.16668705129E+03 -0.19158629045E+03  0.81440807704E+02  0.26668799171E+03  0.25500000920E-02 0. -1.
</event>
<event>
 5   0  0.7881060E-02  0.5026982E+03  0.7818609E-02  0.1013077E+00
       -2   -1    0    0    0  501  0.00000000000E+00  0.00000000000E+00  0.13919451791E+03  0.13919451793E+03  0.25500000920E-02 0.  1.
        2   -1    0    0  501    0  0.00000000000E+00  0.00000000000E+00 -0.45387104629E+03  0.45387104629E+03  0.25500000920E-02 0. -1.
    10030    2    1    2    0    0  0.00000000000E+00  0.00000000000E+00 -0.31467652838E+03  0.59306556422E+03  0.50269816585E+03 0.  0.
        1    1    3    3  502    0  0.18573607585E+03 -0.32352033585E+02 -0.35344844191E+03  0.40058749988E+03  0.50400001928E-02 0. -1.
       -1    1    3    3    0  502 -0.18573607585E+03  0.32352033585E+02  0.38771913525E+02  0.19247806434E+03  0.50400001928E-02 0.  1.
</event>
<event>
 5   0  0.5038436E-02  0.5024386E+03  0.7818609E-02  0.1013144E+00
       -1   -1    0    0    0  501  0.00000000000E+00  0.00000000000E+00  0.47010234139E+03  0.47010234141E+03  0.50400001928E-02 0. -1.
        1   -1    0    0  501    0  0.00000000000E+00  0.00000000000E+00 -0.13424979547E+03  0.13424979557E+03  0.50400001928E-02 0.  1.
    10030    2    1    2    0    0  0.00000000000E+00  0.00000000000E+00  0.33585254592E+03  0.60435213698E+03  0.50243862598E+03 0.  0.
        1    1    3    3  502    0 -0.30594216339E+02 -0.12055448803E+03  0.43046955334E+03  0.44807747883E+03  0.50400001928E-02 0. -1.
       -1    1    3    3    0  502  0.30594216339E+02  0.12055448803E+03 -0.94617007428E+02  0.15627465814E+03  0.50400001928E-02 0.  1.
</event>
<event>
 5   0  0.4884478E-02  0.4636943E+03  0.7818609E-02  0.1023715E+00
       -1   -1    0    0    0  501  0.00000000000E+00  0.00000000000E+00  0.27994926460E+03  0.27994926464E+03  0.50400001928E-02 0. -1.
        1   -1    0    0  501    0  0.00000000000E+00  0.00000000000E+00 -0.19201014378E+03  0.19201014385E+03  0.50400001928E-02 0.  1.
    10030    2    1    2    0    0  0.00000000000E+00  0.00000000000E+00  0.87939120815E+02  0.47195940849E+03  0.46369428970E+03 0.  0.
        3    1    3    3  502    0 -0.98863290476E+02  0.14824453426E+03 -0.10700746063E+03  0.20784850005E+03  0.10100000352E+00 0.  1.
       -3    1    3    3    0  502  0.98863290476E+02 -0.14824453426E+03  0.19494658144E+03  0.26411090844E+03  0.10100000352E+00 0. -1.
</event>
<event>
 5   0  0.7776070E-02  0.4994495E+03  0.7818609E-02  0.1013923E+00
       -2   -1    0    0    0  501  0.00000000000E+00  0.00000000000E+00  0.73097581651E+02  0.73097581696E+02  0.25500000920E-02 0.  1.
        2   -1    0    0  501    0  0.00000000000E+00  0.00000000000E+00 -0.85313987337E+03  0.85313987338E+03  0.25500000920E-02 0. -1.
    10030    2    1    2    0    0  0.00000000000E+00  0.00000000000E+00 -0.78004229172E+03  0.92623745507E+03  0.49944954330E+03 0.  0.
        4    1    3    3  502    0 -0.96338183534E+02 -0.97084790248E+02 -0.77749683969E+03  0.78943616001E+03  0.12699999809E+01 0. -1.
       -4    1    3    3    0  502  0.96338183534E+02  0.97084790248E+02 -0.25454520300E+01  0.13680129506E+03  0.12699999809E+01 0.  1.
</event>
<event>
 5   0  0.7881060E-02  0.5078137E+03  0.7818609E-02  0.1011759E+00
       -2   -1    0    0    0  501  0.00000000000E+00  0.00000000000E+00  0.68915210131E+03  0.68915210132E+03  0.25500000920E-02 0. -1.
        2   -1    0    0  501    0  0.00000000000E+00  0.00000000000E+00 -0.93547821870E+02  0.93547821905E+02  0.25500000920E-02 0.  1.
    10030    2    1    2    0    0  0.00000000000E+00  0.00000000000E+00  0.59560427944E+03  0.78269992322E+03  0.50781365886E+03 0.  0.
        1    1    3    3  502    0  0.25868549071E+02  0.23155929448E+01  0.68709934590E+03  0.68759003408E+03  0.50400001928E-02 0. -1.
       -1    1    3    3    0  502 -0.25868549071E+02 -0.23155929448E+01 -0.91495066457E+02  0.95109889144E+02  0.50400001928E-02 0.  1.
</event>
<event>
 5   0  0.3210875E-02  0.5010779E+03  0.7818609E-02  0.1013498E+00
       -4   -1    0    0    0  501  0.00000000000E+00  0.00000000000E+00  0.21674289113E+03  0.21674661187E+03  0.12699999809E+01 0. -1.
        4   -1    0    0  501    0  0.00000000000E+00  0.00000000000E+00 -0.28959711377E+03  0.28959989849E+03  0.12699999809E+01 0.  1.
    10030    2    1    2    0    0  0.00000000000E+00  0.00000000000E+00 -0.72854222638E+02  0.50634651036E+03  0.50107788895E+03 0.  0.
        2    1    3    3  502    0  0.35853752670E+02  0.14197490062E+03 -0.24185604754E+03  0.28273081142E+03  0.25500000920E-02 0.  1.
       -2    1    3    3    0  502 -0.35853752670E+02 -0.14197490062E+03  0.16900182490E+03  0.22361569894E+03  0.25500000920E-02 0. -1.
</event>
<event>
 5   0  0.5191358E-02  0.5360502E+03  0.7818609E-02  0.1004775E+00
       -1   -1    0    0    0  501  0.00000000000E+00  0.00000000000E+00  0.17886488034E+03  0.17886488042E+03  0.50400001928E-02 0. -1.
        1   -1    0    0  501    0  0.00000000000E+00  0.00000000000E+00 -0.40162978026E+03  0.40162978029E+03  0.50400001928E-02 0.  1.
    10030    2    1    2    0    0  0.00000000000E+00  0.00000000000E+00 -0.22276489991E+03  0.58049466071E+03  0.53605023130E+03 0.  0.
        4    1    3    3  502    0 -0.10278521152E+02 -0.18609955799E+03 -0.31995783373E+03  0.37028816042E+03  0.12699999809E+01 0.  1.
       -4    1    3    3    0  502  0.10278521152E+02  0.18609955799E+03  0.97192933812E+02  0.21020650029E+03  0.12699999809E+01 0. -1.
</event>
<event>
 5   0  0.4803890E-02  0.5018666E+03  0.7818609E-02  0.1013293E+00
       -1   -1    0    0    0  501  0.00000000000E+00  0.00000000000E+00  0.45902061193E+03  0.45902061196E+03  0.50400001928E-02 0. -1.
        1   -1    0    0  501    0  0.00000000000E+00  0.00000000000E+00 -0.13717796726E+03  0.13717796735E+03  0.50400001928E-02 0.  1.
    10030    2    1    2    0    0  0.00000000000E+00  0.00000000000E+00  0.32184264467E+03  0.59619857931E+03  0.50186657394E+03 0.  0.
        5    1    3    3  502    0  0.11273438750E+03 -0.99149067482E+02 -0.77873420499E+02  0.16919201910E+03  0.46999998093E+01 0.  1.
       -5    1    3    3    0  502 -0.11273438750E+03  0.99149067482E+02  0.39971606517E+03  0.42700656021E+03  0.46999998093E+01 0. -1.
</event>
<event>
 5   0  0.7698747E-02  0.4985944E+03  0.7818609E-02  0.1014146E+00
        2   -1    0    0  501    0  0.00000000000E+00  0.00000000000E+00  0.63851750571E+03  0.63851750572E+03  0.25500000920E-02 0.  1.
       -2   -1    0    0    0  501  0.00000000000E+00  0.00000000000E+00 -0.97333434629E+02  0.97333434662E+02  0.25500000920E-02 0. -1.
    10030    2    1    2    0    0  0.00000000000E+00  0.00000000000E+00  0.54118407108E+03  0.73585094038E+03  0.49859443204E+03 0.  0.
        2    1    3    3  502    0  0.11681494926E+03  0.66060624347E+02 -0.39474900532E+02  0.13988568990E+03  0.25500000920E-02 0. -1.
       -2    1    3    3    0  502 -0.11681494926E+03 -0.66060624347E+02  0.58065897161E+03  0.59596525048E+03  0.25500000920E-02 0.  1.
</event>
<event>
 5   0  0.5191358E-02  0.4969828E+03  0.7818609E-02  0.1014569E+00
        1   -1    0    0  501    0  0.00000000000E+00  0.00000000000E+00  0.17664688591E+03  0.17664688598E+03  0.50400001928E-02 0. -1.
       -1   -1    0    0    0  501  0.00000000000E+00  0.00000000000E+00 -0.34955596435E+03  0.34955596439E+03  0.50400001928E-02 0.  1.
    10030    2    1    2    0    0  0.00000000000E+00  0.00000000000E+00 -0.17290907844E+03  0.52620285037E+03  0.49698278675E+03 0.  0.
        4    1    3    3  502    0  0.18921280941E+03  0.15774861941E+03 -0.12093039620E+03  0.27443011460E+03  0.12699999809E+01 0.  1.
       -4    1    3    3    0  502 -0.18921280941E+03 -0.15774861941E+03 -0.51978682242E+02  0.25177273577E+03  0.12699999809E+01 0. -1.
</event>
<event>
 5   0  0.7933103E-02  0.5018241E+03  0.7818609E-02  0.1013304E+00
        2   -1    0    0  501    0  0.00000000000E+00  0.00000000000E+00  0.53862801537E+03  0.53862801538E+03  0.25500000920E-02 0.  1.
       -2   -1    0    0    0  501  0.00000000000E+00  0.00000000000E+00 -0.11688373114E+03  0.11688373116E+03  0.25500000920E-02 0. -1.
    10030    2    1    2    0    0  0.00000000000E+00  0.00000000000E+00  0.42174428423E+03  0.65551174654E+03  0.50182408130E+03 0.  0.
        5    1    3    3  502    0 -0.51356935344E+02 -0.81556406965E+02  0.51342186654E+03  0.52241083963E+03  0.46999998093E+01 0.  1.
       -5    1    3    3    0  502  0.51356935344E+02  0.81556406965E+02 -0.91677582305E+02  0.13310090691E+03  0.46999998093E+01 0. -1.
</event>
<event>
 5   0  0.4803890E-02  0.5006469E+03  0.7818609E-02  0.1013610E+00
       -1   -1    0    0    0  501  0.00000000000E+00  0.00000000000E+00  0.93871523779E+02  0.93871523914E+02  0.50400001928E-02 0.  1.
        1   -1    0    0  501    0  0.00000000000E+00  0.00000000000E+00 -0.66752747438E+03  0.66752747440E+03  0.50400001928E-02 0. -1.
    10030    2    1    2    0    0  0.00000000000E+00  0.00000000000E+00 -0.57365595060E+03  0.76139899832E+03  0.50064686654E+03 0.  0.
        5    1    3    3  502    0 -0.74321261742E+02 -0.21033270853E+03 -0.11425403607E+03  0.25067822598E+03  0.46999998093E+01 0.  1.
       -5    1    3    3    0  502  0.74321261742E+02  0.21033270853E+03 -0.45940191453E+03  0.51072077234E+03  0.46999998093E+01 0. -1.
</event>
<event>
 5   0  0.5191358E-02  0.5000558E+03  0.7818609E-02  0.1013764E+00
       -1   -1    0    0    0  501  0.00000000000E+00  0.00000000000E+00  0.11512254844E+03  0.11512254855E+03  0.50400001928E-02 0. -1.
        1   -1    0    0  501    0  0.00000000000E+00  0.00000000000E+00 -0.54302101176E+03  0.54302101178E+03  0.50400001928E-02 0.  1.
    10030    2    1    2    0    0  0.00000000000E+00  0.00000000000E+00 -0.42789846332E+03  0.65814356033E+03  0.50005584797E+03 0.  0.
        4    1    3    3  502    0 -0.14837835264E+03 -0.10484237073E+03  0.12121698818E+02  0.18208955685E+03  0.12699999809E+01 0. -1.
       -4    1    3    3    0  502  0.14837835264E+03  0.10484237073E+03 -0.44002016214E+03  0.47605400347E+03  0.12699999809E+01 0.  1.
</event>
<event>
 5   0  0.7698747E-02  0.4998881E+03  0.7818609E-02  0.1013808E+00
        2   -1    0    0  501    0  0.00000000000E+00  0.00000000000E+00  0.71921978658E+03  0.71921978659E+03  0.25500000920E-02 0.  1.
       -2   -1    0    0    0  501  0.00000000000E+00  0.00000000000E+00 -0.86860828105E+02  0.86860828142E+02  0.25500000920E-02 0. -1.
    10030    2    1    2    0    0  0.00000000000E+00  0.00000000000E+00  0.63235895848E+03  0.80608061473E+03  0.49988809255E+03 0.  0.
        2    1    3    3  502    0  0.18194784313E+03 -0.44672935101E+02  0.58295974146E+03  0.61232568860E+03  0.25500000920E-02 0.  1.
       -2    1    3    3    0  502 -0.18194784313E+03  0.44672935101E+02  0.49399217021E+02  0.19375492613E+03  0.25500000920E-02 0. -1.
</event>
<event>
 5   0  0.4803890E-02  0.4995743E+03  0.7818609E-02  0.1013890E+00
        1   -1    0    0  501    0  0.00000000000E+00  0.00000000000E+00  0.41265325771E+03  0.41265325774E+03  0.50400001928E-02 0.  1.
       -1   -1    0    0    0  501  0.00000000000E+00  0.00000000000E+00 -0.15120109597E+03  0.15120109606E+03  0.50400001928E-02 0. -1.
    10030    2    1    2    0    0  0.00000000000E+00  0.00000000000E+00  0.26145216174E+03  0.56385435380E+03  0.49957431822E+03 0.  0.
        5    1    3    3  502    0  0.12409999790E+03 -0.96172090951E+00  0.37533719825E+03  0.39535027099E+03  0.46999998093E+01 0.  1.
       -5    1    3    3    0  502 -0.12409999790E+03  0.96172090951E+00 -0.11388503651E+03  0.16850408281E+03  0.46999998093E+01 0. -1.
</event>
<event>
 5   0  0.7881060E-02  0.5000277E+03  0.7818609E-02  0.1013772E+00
       -2   -1    0    0    0  501  0.00000000000E+00  0.00000000000E+00  0.11977963119E+03  0.11977963122E+03  0.25500000920E-02 0. -1.
        2   -1    0    0  501    0  0.00000000000E+00  0.00000000000E+00 -0.52184938799E+03  0.52184938800E+03  0.25500000920E-02 0.  1.
    10030    2    1    2    0    0  0.00000000000E+00  0.00000000000E+00 -0.40206975680E+03  0.64162901921E+03  0.50002770819E+03 0.  0.
        1    1    3    3  502    0  0.18181884130E+03 -0.90007555398E+02 -0.38851844009E+03  0.43829901825E+03  0.50400001928E-02 0.  1.
       -1    1    3    3    0  502 -0.18181884130E+03  0.90007555398E+02 -0.13551316710E+02  0.20333000096E+03  0.50400001928E-02 0. -1.
</event>
<event>
 5   0  0.5038436E-02  0.5012286E+03  0.7818609E-02  0.1013459E+00
       -1   -1    0    0    0  501  0.00000000000E+00  0.00000000000E+00  0.42510043545E+02  0.42510043844E+02  0.50400001928E-02 0. -1.
        1   -1    0    0  501    0  0.00000000000E+00  0.00000000000E+00 -0.14774749111E+04  0.14774749112E+04  0.50400001928E-02 0.  1.
    10030    2    1    2    0    0  0.00000000000E+00  0.00000000000E+00 -0.14349648676E+04  0.15199849550E+04  0.50122858276E+03 0.  0.
        1    1    3    3  502    0  0.63659711171E+02  0.22059581657E+03 -0.10221328400E+04  0.10476023176E+04  0.50400001928E-02 0. -1.
       -1    1    3    3    0  502 -0.63659711171E+02 -0.22059581657E+03 -0.41283202757E+03  0.47238263742E+03  0.50400001928E-02 0.  1.
</event>
<event>
 5   0  0.4865501E-02  0.5024070E+03  0.7818609E-02  0.1013153E+00
        1   -1    0    0  501    0  0.00000000000E+00  0.00000000000E+00  0.63538340885E+03  0.63538340887E+03  0.50400001928E-02 0. -1.
       -1   -1    0    0    0  501  0.00000000000E+00  0.00000000000E+00 -0.99315162547E+02  0.99315162675E+02  0.50400001928E-02 0.  1.
    10030    2    1    2    0    0  0.00000000000E+00  0.00000000000E+00  0.53606824631E+03  0.73469857155E+03  0.50240703253E+03 0.  0.
        2    1    3    3  502    0 -0.37885988031E+02  0.37883155880E+01 -0.95071001881E+02  0.10241188812E+03  0.25500000920E-02 0.  1.
       -2    1    3    3    0  502  0.37885988031E+02 -0.37883155880E+01  0.63113924819E+03  0.63228668342E+03  0.25500000920E-02 0. -1.
</event>
<event>
 5   0  0.7776070E-02  0.5020238E+03  0.7818609E-02  0.1013252E+00
       -2   -1    0    0    0  501  0.00000000000E+00  0.00000000000E+00  0.36747690657E+02  0.36747690745E+02  0.25500000920E-02 0.  1.
        2   -1    0    0  501    0  0.00000000000E+00  0.00000000000E+00 -0.17145835258E+04  0.17145835258E+04  0.25500000920E-02 0. -1.
    10030    2    1    2    0    0  0.00000000000E+00  0.00000000000E+00 -0.16778358351E+04  0.17513312165E+04  0.50202384441E+03 0.  0.
        4    1    3    3  502    0 -0.55476670188E+02  0.24476408343E+03 -0.82401293421E+03  0.86138611907E+03  0.12699999809E+01 0.  1.
       -4    1    3    3    0  502  0.55476670188E+02 -0.24476408343E+03 -0.85382290089E+03  0.88994509744E+03  0.12699999809E+01 0. -1.
</event>
<event>
 5   0  0.7698747E-02  0.5007698E+03  0.7818609E-02  0.1013578E+00
        2   -1    0    0  501    0  0.00000000000E+00  0.00000000000E+00  0.20128437277E+04  0.20128437277E+04  0.25500000920E-02 0. -1.
       -2   -1    0    0    0  501  0.00000000000E+00  0.00000000000E+00 -0.31146282861E+02  0.31146282966E+02  0.25500000920E-02 0.  1.
    10030    2    1    2    0    0  0.00000000000E+00  0.00000000000E+00  0.19816974448E+04  0.20439900106E+04  0.50076980822E+03 0.  0.
        2    1    3    3  502    0  0.87390537707E+02 -0.23288872321E+03  0.87408534419E+03  0.90879010361E+03  0.25500000920E-02 0.  1.
       -2    1    3    3    0  502 -0.87390537707E+02  0.23288872321E+03  0.11076121006E+04  0.11351999070E+04  0.25500000920E-02 0. -1.
</event>
<event>
 5   0  0.7776070E-02  0.5119006E+03  0.7818609E-02  0.1010719E+00
       -2   -1    0    0    0  501  0.00000000000E+00  0.00000000000E+00  0.10055731562E+03  0.10055731565E+03  0.25500000920E-02 0. -1.
        2   -1    0    0  501    0  0.00000000000E+00  0.00000000000E+00 -0.65147471738E+03  0.65147471739E+03  0.25500000920E-02 0.  1.
    10030    2    1    2    0    0  0.00000000000E+00  0.00000000000E+00 -0.55091740177E+03  0.75203203304E+03  0.51190057154E+03 0.  0.
        4    1    3    3  502    0 -0.25601232823E+02 -0.16739995165E+03 -0.55739832637E+03  0.58255701358E+03  0.12699999809E+01 0.  1.
       -4    1    3    3    0  502  0.25601232823E+02  0.16739995165E+03  0.64809246000E+01  0.16947501945E+03  0.12699999809E+01 0. -1.
</event>
<event>
 5   0  0.3210875E-02  0.5190201E+03  0.7818609E-02  0.1008930E+00
        4   -1    0    0  501    0  0.00000000000E+00  0.00000000000E+00  0.43330146145E+03  0.43330332262E+03  0.12699999809E+01 0.  1.
       -4   -1    0    0    0  501  0.00000000000E+00  0.00000000000E+00 -0.15541925361E+03  0.15542444239E+03  0.12699999809E+01 0. -1.
    10030    2    1    2    0    0  0.00000000000E+00  0.00000000000E+00  0.27788220784E+03  0.58872776502E+03  0.51902009582E+03 0.  0.
        3    1    3    3  502    0  0.15227896020E+03 -0.33128169589E+00  0.37729787042E+03  0.40686937055E+03  0.10100000352E+00 0.  1.
       -3    1    3    3    0  502 -0.15227896020E+03  0.33128169589E+00 -0.99415662586E+02  0.18185839446E+03  0.10100000352E+00 0. -1.
</event>
<event>
 5   0  0.7881060E-02  0.5031151E+03  0.7818609E-02  0.1012969E+00
        2   -1    0    0  501    0  0.00000000000E+00  0.00000000000E+00  0.23262351938E+03  0.23262351940E+03  0.25500000920E-02 0. -1.
       -2   -1    0    0    0  501  0.00000000000E+00  0.00000000000E+00 -0.27203267258E+03  0.27203267259E+03  0.25500000920E-02 0.  1.
    10030    2    1    2    0    0  0.00000000000E+00  0.00000000000E+00 -0.39409153200E+02  0.50465619199E+03  0.50311508699E+03 0.  0.
        1    1    3    3  502    0  0.14512547916E+03 -0.13865235886E+03 -0.17181114193E+03  0.26420626381E+03  0.50400001928E-02 0.  1.
       -1    1    3    3    0  502 -0.14512547916E+03  0.13865235886E+03  0.13240198873E+03  0.24044992818E+03  0.50400001928E-02 0. -1.
</event>
<event>
 5   0  0.5191358E-02  0.5308819E+03  0.7818609E-02  0.1006018E+00
        1   -1    0    0  501    0  0.00000000000E+00  0.00000000000E+00  0.63285055005E+03  0.63285055007E+03  0.50400001928E-02 0. -1.
       -1   -1    0    0    0  501  0.00000000000E+00  0.00000000000E+00 -0.11133578210E+03  0.11133578222E+03  0.50400001928E-02 0.  1.
    10030    2    1    2    0    0  0.00000000000E+00  0.00000000000E+00  0.52151476794E+03  0.74418633229E+03  0.53088194919E+03 0.  0.
        4    1    3    3  502    0  0.24012248577E+02  0.23132018484E+03  0.81395407040E+02  0.24639894721E+03  0.12699999809E+01 0.  1.
       -4    1    3    3    0  502 -0.24012248577E+02 -0.23132018484E+03  0.44011936090E+03  0.49778738508E+03  0.12699999809E+01 0. -1.
</event>
<event>
 5   0  0.4865501E-02  0.4985158E+03  0.7818609E-02  0.1014167E+00
       -1   -1    0    0    0  501  0.00000000000E+00  0.00000000000E+00  0.43081047801E+02  0.43081048096E+02  0.50400001928E-02 0. -1.
        1   -1    0    0  501    0  0.00000000000E+00  0.00000000000E+00 -0.14421541108E+04  0.14421541108E+04  0.50400001928E-02 0.  1.
    10030    2    1    2    0    0  0.00000000000E+00  0.00000000000E+00 -0.13990730630E+04  0.14852351589E+04  0.49851583891E+03 0.  0.
        2    1    3    3  502    0  0.84120112401E+02 -0.60318732821E+02 -0.23981017417E+02  0.10625268017E+03  0.25500000920E-02 0. -1.
       -2    1    3    3    0  502 -0.84120112401E+02  0.60318732821E+02 -0.13750920456E+04  0.13789824787E+04  0.25500000920E-02 0.  1.
</event>
<event>
 5   0  0.5191358E-02  0.4998465E+03  0.7818609E-02  0.1013819E+00
       -1   -1    0    0    0  501  0.00000000000E+00  0.00000000000E+00  0.11324559301E+03  0.11324559312E+03  0.50400001928E-02 0.  1.
        1   -1    0    0  501    0  0.00000000000E+00  0.00000000000E+00 -0.55155905705E+03  0.55155905707E+03  0.50400001928E-02 0. -1.
    10030    2    1    2    0    0  0.00000000000E+00  0.00000000000E+00 -0.43831346404E+03  0.66480465020E+03  0.49984650660E+03 0.  0.
        4    1    3    3  502    0  0.19939595232E+03  0.58312593681E+02 -0.40393306303E+03  0.45422751644E+03  0.12699999809E+01 0. -1.
       -4    1    3    3    0  502 -0.19939595232E+03 -0.58312593681E+02 -0.34380401007E+02  0.21057713375E+03  0.12699999809E+01 0.  1.
</event>
<event>
 5   0  0.7881060E-02  0.5006309E+03  0.7818609E-02  0.1013614E+00
       -2   -1    0    0    0  501  0.00000000000E+00  0.00000000000E+00  0.25224687871E+03  0.25224687872E+03  0.25500000920E-02 0.  1.
        2   -1    0    0  501    0  0.00000000000E+00  0.00000000000E+00 -0.24839878239E+03  0.24839878240E+03  0.25500000920E-02 0. -1.
    10030    2    1    2    0    0  0.00000000000E+00  0.00000000000E+00  0.38480963195E+01  0.50064566112E+03  0.50063087216E+03 0.  0.
        1    1    3    3  502    0  0.16815206640E+03 -0.17831247207E+03 -0.48943576593E+02  0.24993184841E+03  0.50400001928E-02 0. -1.
       -1    1    3    3    0  502 -0.16815206640E+03  0.17831247207E+03  0.52791672912E+02  0.25071381272E+03  0.50400001928E-02 0.  1.
</event>
<event>
 5   0  0.5038436E-02  0.4976960E+03  0.7818609E-02  0.1014382E+00
       -1   -1    0    0    0  501  0.00000000000E+00  0.00000000000E+00  0.63475961102E+03  0.63475961104E+03  0.50400001928E-02 0.  1.
        1   -1    0    0  501    0  0.00000000000E+00  0.00000000000E+00 -0.97557132746E+02  0.97557132876E+02  0.50400001928E-02 0. -1.
    10030    2    1    2    0    0  0.00000000000E+00  0.00000000000E+00  0.53720247827E+03  0.73231674392E+03  0.49769600235E+03 0.  0.
        1    1    3    3  502    0  0.28813857711E+02 -0.25187617922E+02  0.63040352040E+03  0.63156413218E+03  0.50400001928E-02 0.  1.
       -1    1    3    3    0  502 -0.28813857711E+02  0.25187617922E+02 -0.93201042128E+02  0.10075261174E+03  0.50400001928E-02 0. -1.
</event>
<event>
 5   0  0.4803890E-02  0.4964956E+03  0.7818609E-02  0.1014698E+00
       -1   -1    0    0    0  501  0.00000000000E+00  0.00000000000E+00  0.63799203201E+03  0.63799203203E+03  0.50400001928E-02 0. -1.
        1   -1    0    0  501    0  0.00000000000E+00  0.00000000000E+00 -0.96595186162E+02  0.96595186293E+02  0.50400001928E-02 0.  1.
    10030    2    1    2    0    0  0.00000000000E+00  0.00000000000E+00  0.54139684585E+03  0.73458721832E+03  0.49649555550E+03 0.  0.
        5    1    3    3  502    0 -0.17006076705E+03 -0.11807361799E+03  0.68142227066E+02  0.21800802018E+03  0.46999998093E+01 0.  1.
       -5    1    3    3    0  502  0.17006076705E+03  0.11807361799E+03  0.47325461878E+03  0.51657919814E+03  0.46999998093E+01 0. -1.
</event>
<event>
 5   0  0.4884478E-02  0.5127471E+03  0.7818609E-02  0.1010504E+00
       -1   -1    0    0    0  501  0.00000000000E+00  0.00000000000E+00  0.23961685216E+03  0.23961685222E+03  0.50400001928E-02 0. -1.
        1   -1    0    0  501    0  0.00000000000E+00  0.00000000000E+00 -0.27430204360E+03  0.27430204364E+03  0.50400001928E-02 0.  1.
    10030    2    1    2    0    0  0.00000000000E+00  0.00000000000E+00 -0.34685191435E+02  0.51391889586E+03  0.51274708094E+03 0.  0.
        3    1    3    3  502    0  0.23936500336E+03 -0.55429765816E+02 -0.90717266289E+02  0.26191161940E+03  0.10100000352E+00 0.  1.
       -3    1    3    3    0  502 -0.23936500336E+03  0.55429765816E+02  0.56032074854E+02  0.25200727646E+03  0.10100000352E+00 0. -1.
</event>
<event>
 5   0  0.7698747E-02  0.4987881E+03  0.7818609E-02  0.1014096E+00
       -2   -1    0    0    0  501  0.00000000000E+00  0.00000000000E+00  0.50942793754E+02  0.50942793818E+02  0.25500000920E-02 0.  1.
        2   -1    0    0  501    0  0.00000000000E+00  0.00000000000E+00 -0.12209261232E+04  0.12209261232E+04  0.25500000920E-02 0. -1.
    10030    2    1    2    0    0  0.00000000000E+00  0.00000000000E+00 -0.11699833295E+04  0.12718689170E+04  0.49878808216E+03 0.  0.
        2    1    3    3  502    0 -0.34908210336E+02  0.22245462817E+03 -0.31162967128E+03  0.38447067089E+03  0.25500000920E-02 0. -1.
       -2    1    3    3    0  502  0.34908210336E+02 -0.22245462817E+03 -0.85835365817E+03  0.88739824614E+03  0.25500000920E-02 0.  1.
</event>
<event>
 5   0  0.7698747E-02  0.4983437E+03  0.7818609E-02  0.1014212E+00
        2   -1    0    0  501    0  0.00000000000E+00  0.00000000000E+00  0.24278182265E+03  0.24278182266E+03  0.25500000920E-02 0.  1.
       -2   -1    0    0    0  501  0.00000000000E+00  0.00000000000E+00 -0.25573004060E+03  0.25573004061E+03  0.25500000920E-02 0. -1.
    10030    2    1    2    0    0  0.00000000000E+00  0.00000000000E+00 -0.12948217951E+02  0.49851186327E+03  0.49834367807E+03 0.  0.
        2    1    3    3  502    0  0.16539224168E+03  0.66626598208E+01 -0.19278309429E+03  0.25409507294E+03  0.25500000920E-02 0. -1.
       -2    1    3    3    0  502 -0.16539224168E+03 -0.66626598208E+01  0.17983487634E+03  0.24441679033E+03  0.25500000920E-02 0.  1.
</event>
<event>
 5   0  0.3210875E-02  0.5002654E+03  0.7818609E-02  0.1013710E+00
        3   -1    0    0  501    0  0.00000000000E+00  0.00000000000E+00  0.56949097362E+02  0.56949186925E+02  0.10100000352E+00 0. -1.
       -3   -1    0    0    0  501  0.00000000000E+00  0.00000000000E+00 -0.10986356310E+04  0.10986356357E+04  0.10100000352E+00 0.  1.
    10030    2    1    2    0    0  0.00000000000E+00  0.00000000000E+00 -0.10416865337E+04  0.11555848226E+04  0.50026537737E+03 0.  0.
        1    1    3    3  502    0  0.88132705283E+02 -0.11606486107E+03 -0.51248507670E+02  0.15448247564E+03  0.50400001928E-02 0. -1.
       -1    1    3    3    0  502 -0.88132705283E+02  0.11606486107E+03 -0.99043802601E+03  0.10011023470E+04  0.50400001928E-02 0.  1.
</event>
<event>
 5   0  0.7776070E-02  0.5003036E+03  0.7818609E-02  0.1013700E+00
        2   -1    0    0  501    0  0.00000000000E+00  0.00000000000E+00  0.55862860122E+03  0.55862860123E+03  0.25500000920E-02 0. -1.
       -2   -1    0    0    0  501  0.00000000000E+00  0.00000000000E+00 -0.11201702524E+03  0.11201702527E+03  0.25500000920E-02 0.  1.
    10030    2    1    2    0    0  0.00000000000E+00  0.00000000000E+00  0.44661157598E+03  0.67064562650E+03  0.50030356439E+03 0.  0.
        4    1    3    3  502    0  0.12426055094E+03  0.99818840408E+02 -0.35131219913E+02  0.16321856798E+03  0.12699999809E+01 0.  1.
       -4    1    3    3    0  502 -0.12426055094E+03 -0.99818840408E+02  0.48174279589E+03  0.50742705852E+03  0.12699999809E+01 0. -1.
</event>
<event>
 5   0  0.3210875E-02  0.5008314E+03  0.7818609E-02  0.1013562E+00
        3   -1    0    0  501    0  0.00000000000E+00  0.00000000000E+00  0.16575632909E+03  0.16575635986E+03  0.10100000352E+00 0. -1.
       -3   -1    0    0    0  501  0.00000000000E+00  0.00000000000E+00 -0.37831436632E+03  0.37831437981E+03  0.10100000352E+00 0.  1.
    10030    2    1    2    0    0  0.00000000000E+00  0.00000000000E+00 -0.21255803723E+03  0.54407073967E+03  0.50083135941E+03 0.  0.
        1    1    3    3  502    0  0.42094545398E+02 -0.62797977540E+02  0.15306283930E+03  0.17071546367E+03  0.50400001928E-02 0. -1.
       -1    1    3    3    0  502 -0.42094545398E+02  0.62797977540E+02 -0.36562087653E+03  0.37335527600E+03  0.50400001928E-02 0.  1.
</event>
<event>
 5   0  0.4803890E-02  0.4937492E+03  0.7818609E-02  0.1015423E+00
        1   -1    0    0  501    0  0.00000000000E+00  0.00000000000E+00  0.33425563306E+03  0.33425563310E+03  0.50400001928E-02 0.  1.
       -1   -1    0    0    0  501  0.00000000000E+00  0.00000000000E+00 -0.18233671205E+03  0.18233671212E+03  0.50400001928E-02 0. -1.
    10030    2    1    2    0    0  0.00000000000E+00  0.00000000000E+00  0.15191892101E+03  0.51659234522E+03  0.49374922033E+03 0.  0.
        5    1    3    3  502    0  0.11086807509E+03 -0.12347348686E+02 -0.15441080078E+03  0.19054913406E+03  0.46999998093E+01 0. -1.
       -5    1    3    3    0  502 -0.11086807509E+03  0.12347348686E+02  0.30632972179E+03  0.32604321116E+03  0.46999998093E+01 0.  1.
</event>
<event>
 5   0  0.5038436E-02  0.5009122E+03  0.7818609E-02  0.1013541E+00
        1   -1    0    0  501    0  0.00000000000E+00  0.00000000000E+00  0.24442054731E+03  0.24442054736E+03  0.50400001928E-02 0. -1.
       -1   -1    0    0    0  501  0.00000000000E+00  0.00000000000E+00 -0.25664071043E+03  0.25664071048E+03  0.50400001928E-02 0.  1.
    10030    2    1    2    0    0  0.00000000000E+00  0.00000000000E+00 -0.12220163119E+02  0.50106125784E+03  0.50091221958E+03 0.  0.
        1    1    3    3  502    0 -0.13711425626E+03  0.18482193861E+03 -0.10497670181E+03  0.25294184353E+03  0.50400001928E-02 0.  1.
       -1    1    3    3    0  502  0.13711425626E+03 -0.18482193861E+03  0.92756538691E+02  0.24811941431E+03  0.50400001928E-02 0. -1.
</event>
<event>
 5   0  0.4865501E-02  0.5027524E+03  0.7818609E-02  0.1013063E+00
        1   -1    0    0  501    0  0.00000000000E+00  0.00000000000E+00  0.36778702300E+03  0.36778702304E+03  0.50400001928E-02 0.  1.
       -1   -1    0    0    0  501  0.00000000000E+00  0.00000000000E+00 -0.17181134973E+03  0.17181134980E+03  0.50400001928E-02 0. -1.
    10030    2    1    2    0    0  0.00000000000E+00  0.00000000000E+00  0.19597567328E+03  0.53959837284E+03  0.50275236395E+03 0.  0.
        2    1    3    3  502    0  0.13704523965E+03 -0.19766331907E+03  0.19573109444E+02  0.24131989565E+03  0.25500000920E-02 0. -1.
       -2    1    3    3    0  502 -0.13704523965E+03  0.19766331907E+03  0.17640256383E+03  0.29827847719E+03  0.25500000920E-02 0.  1.
</event>
<event>
 5   0  0.7933103E-02  0.4996543E+03  0.7818609E-02  0.1013869E+00
       -2   -1    0    0    0  501  0.00000000000E+00  0.00000000000E+00  0.72599919139E+02  0.72599919183E+02  0.25500000920E-02 0.  1.
        2   -1    0    0  501    0  0.00000000000E+00  0.00000000000E+00 -0.85969239919E+03  0.85969239919E+03  0.25500000920E-02 0. -1.
    10030    2    1    2    0    0  0.00000000000E+00  0.00000000000E+00 -0.78709248005E+03  0.93229231838E+03  0.49965427523E+03 0.  0.
        5    1    3    3  502    0 -0.10704832750E+03  0.22136337961E+02  0.25516722648E+02  0.11235014469E+03  0.46999998093E+01 0.  1.
       -5    1    3    3    0  502  0.10704832750E+03 -0.22136337961E+02 -0.81260920270E+03  0.81994217368E+03  0.46999998093E+01 0. -1.
</event>
<event>
 5   0  0.4884478E-02  0.5002630E+03  0.7818609E-02  0.1013710E+00
        1   -1    0    0  501    0  0.00000000000E+00  0.00000000000E+00  0.12037545692E+03  0.12037545703E+03  0.50400001928E-02 0.  1.
       -1   -1    0    0    0  501  0.00000000000E+00  0.00000000000E+00 -0.51975523422E+03  0.51975523424E+03  0.50400001928E-02 0. -1.
    10030    2    1    2    0    0  0.00000000000E+00  0.00000000000E+00 -0.39937977729E+03  0.64013069127E+03  0.50026302621E+03 0.  0.
        3    1    3    3  502    0 -0.53789256345E+01 -0.22005608681E+03 -0.47681754602E+02  0.22522693912E+03  0.10100000352E+00 0.  1.
       -3    1    3    3    0  502  0.53789256345E+01  0.22005608681E+03 -0.35169802269E+03  0.41490375215E+03  0.10100000352E+00 0. -1.
</event>
<event>
 5   0  0.4865501E-02  0.4995018E+03  0.7818609E-02  0.1013909E+00
        1   -1    0    0  501    0  0.00000000000E+00  0.00000000000E+00  0.10609600579E+04  0.10609600579E+04  0.50400001928E-02 0.  1.
       -1   -1    0    0    0  501  0.00000000000E+00  0.00000000000E+00 -0.58791563815E+02  0.58791564031E+02  0.50400001928E-02 0. -1.
    10030    2    1    2    0    0  0.00000000000E+00  0.00000000000E+00  0.10021684941E+04  0.11197516220E+04  0.49950175606E+03 0.  0.
        2    1    3    3  502    0  0.33104942733E+02  0.39713770431E+02  0.10488318731E+04  0.10501054322E+04  0.25500000920E-02 0.  1.
       -2    1    3    3    0  502 -0.33104942733E+02 -0.39713770431E+02 -0.46663379000E+02  0.69646189712E+02  0.25500000920E-02 0. -1.
</event>
<event>
 5   0  0.8208720E-02  0.4936798E+03  0.7818609E-02  0.1015442E+00
       -2   -1    0    0    0  501  0.00000000000E+00  0.00000000000E+00  0.18655354877E+03  0.18655354879E+03  0.25500000920E-02 0. -1.
        2   -1    0    0  501    0  0.00000000000E+00  0.00000000000E+00 -0.32660831120E+03  0.32660831121E+03  0.25500000920E-02 0.  1.
    10030    2    1    2    0    0  0.00000000000E+00  0.00000000000E+00 -0.14005476243E+03  0.51316186000E+03  0.49367981332E+03 0.  0.
        3    1    3    3  502    0  0.19886035346E+03 -0.10770076995E+03  0.32795591408E+02  0.22851795781E+03  0.10100000352E+00 0. -1.
       -3    1    3    3    0  502 -0.19886035346E+03  0.10770076995E+03 -0.17285035384E+03  0.28464390218E+03  0.10100000352E+00 0.  1.
</event>
<event>
 5   0  0.4884478E-02  0.5003359E+03  0.7818609E-02  0.1013691E+00
        1   -1    0    0  501    0  0.00000000000E+00  0.00000000000E+00  0.96559043002E+03  0.96559043003E+03  0.50400001928E-02 0. -1.
       -1   -1    0    0    0  501  0.00000000000E+00  0.00000000000E+00 -0.64814243593E+02  0.64814243789E+02  0.50400001928E-02 0.  1.
    10030    2    1    2    0    0  0.00000000000E+00  0.00000000000E+00  0.90077618643E+03  0.10304046738E+04  0.50033594094E+03 0.  0.
        3    1    3    3  502    0  0.19003740428E+03  0.46654487258E+02  0.77137551053E+03  0.79580842208E+03  0.10100000352E+00 0. -1.
       -3    1    3    3    0  502 -0.19003740428E+03 -0.46654487258E+02  0.12940067590E+03  0.23459625174E+03  0.10100000352E+00 0.  1.
</event>
<event>
 5   0  0.4884478E-02  0.4915645E+03  0.7818609E-02  0.1016004E+00
        1   -1    0    0  501    0  0.00000000000E+00  0.00000000000E+00  0.22981466960E+03  0.22981466966E+03  0.50400001928E-02 0.  1.
       -1   -1    0    0    0  501  0.00000000000E+00  0.00000000000E+00 -0.26285925413E+03  0.26285925418E+03  0.50400001928E-02 0. -1.
    10030    2    1    2    0    0  0.00000000000E+00  0.00000000000E+00 -0.33044584528E+02  0.49267392384E+03  0.49156449288E+03 0.  0.
        3    1    3    3  502    0 -0.41008423860E+02 -0.55769798476E+02 -0.25288699474E+03  0.26219039562E+03  0.10100000352E+00 0. -1.
       -3    1    3    3    0  502  0.41008423860E+02  0.55769798476E+02  0.21984241021E+03  0.23048352821E+03  0.10100000352E+00 0.  1.
</event>
<event>
 5   0  0.5038436E-02  0.5026835E+03  0.7818609E-02  0.1013081E+00
       -1   -1    0    0    0  501  0.00000000000E+00  0.00000000000E+00  0.81910902693E+02  0.81910902848E+02  0.50400001928E-02 0. -1.
        1   -1    0    0  501    0  0.00000000000E+00  0.00000000000E+00 -0.77123661438E+03  0.77123661439E+03  0.50400001928E-02 0.  1.
    10030    2    1    2    0    0  0.00000000000E+00  0.00000000000E+00 -0.68932571168E+03  0.85314751724E+03  0.50268354796E+03 0.  0.
        1    1    3    3  502    0 -0.17439861767E+03  0.83872268550E+02 -0.72460176252E+02  0.20663957135E+03  0.50400001928E-02 0. -1.
       -1    1    3    3    0  502  0.17439861767E+03 -0.83872268550E+02 -0.61686553543E+03  0.64650794589E+03  0.50400001928E-02 0.  1.
</event>
<event>
 5   0  0.3210875E-02  0.4944410E+03  0.7818609E-02  0.1015240E+00
       -4   -1    0    0    0  501  0.00000000000E+00  0.00000000000E+00  0.28916699504E+03  0.28916978390E+03  0.12699999809E+01 0. -1.
        4   -1    0    0  501    0  0.00000000000E+00  0.00000000000E+00 -0.21135303450E+03  0.21135685012E+03  0.12699999809E+01 0.  1.
    10030    2    1    2    0    0  0.00000000000E+00  0.00000000000E+00  0.77813960542E+02  0.50052663401E+03  0.49444099638E+03 0.  0.
        2    1    3    3  502    0  0.17588739791E+03  0.10496520456E+03 -0.10123063097E+03  0.22847693880E+03  0.25500000920E-02 0.  1.
       -2    1    3    3    0  502 -0.17588739791E+03 -0.10496520456E+03  0.17904459151E+03  0.27204969521E+03  0.25500000920E-02 0. -1.
</event>
<event>
 5   0  0.4865501E-02  0.4979696E+03  0.7818609E-02  0.1014310E+00
       -1   -1    0    0    0  501  0.00000000000E+00  0.00000000000E+00  0.13046677324E+03  0.13046677334E+03  0.50400001928E-02 0.  1.
        1   -1    0    0  501    0  0.00000000000E+00  0.00000000000E+00 -0.47516635746E+03  0.47516635749E+03  0.50400001928E-02 0. -1.
    10030    2    1    2    0    0  0.00000000000E+00  0.00000000000E+00 -0.34469958422E+03  0.60563313083E+03  0.49796956312E+03 0.  0.
        2    1    3    3  502    0  0.13480361108E+02 -0.24860656227E+03 -0.17544538737E+03  0.30457844128E+03  0.25500000920E-02 0. -1.
       -2    1    3    3    0  502 -0.13480361108E+02  0.24860656227E+03 -0.16925419685E+03  0.30105468955E+03  0.25500000920E-02 0.  1.
</event>
<event>
 5   0  0.4865501E-02  0.4995412E+03  0.7818609E-02  0.1013899E+00
        1   -1    0    0  501    0  0.00000000000E+00  0.00000000000E+00  0.10017940776E+03  0.10017940789E+03  0.50400001928E-02 0. -1.
       -1   -1    0    0    0  501  0.00000000000E+00  0.00000000000E+00 -0.62273621047E+03  0.62273621049E+03  0.50400001928E-02 0.  1.
    10030    2    1    2    0    0  0.00000000000E+00  0.00000000000E+00 -0.52255680271E+03  0.72291561838E+03  0.49954116872E+03 0.  0.
        2    1    3    3  502    0 -0.12505181824E+03 -0.15447083867E+03 -0.42349716113E+02  0.20320604249E+03  0.25500000920E-02 0. -1.
       -2    1    3    3    0  502  0.12505181824E+03  0.15447083867E+03 -0.48020708659E+03  0.51970957588E+03  0.25500000920E-02 0.  1.
</event>
<event>
 5   0  0.8208720E-02  0.5070506E+03  0.7818609E-02  0.1011955E+00
       -2   -1    0    0    0  501  0.00000000000E+00  0.00000000000E+00  0.38334287485E+02  0.38334287570E+02  0.25500000920E-02 0. -1.
        2   -1    0    0  501    0  0.00000000000E+00  0.00000000000E+00 -0.16766996715E+04  0.16766996715E+04  0.25500000920E-02 0.  1.
    10030    2    1    2    0    0  0.00000000000E+00  0.00000000000E+00 -0.16383653841E+04  0.17150339591E+04  0.50705063774E+03 0.  0.
        3    1    3    3  502    0  0.62676269491E+02  0.87699129609E+02 -0.15953293230E+04  0.15989668886E+04  0.10100000352E+00 0.  1.
       -3    1    3    3    0  502 -0.62676269491E+02 -0.87699129609E+02 -0.43036061101E+02  0.11606707047E+03  0.10100000352E+00 0. -1.
</event>
<event>
 5   0  0.7776070E-02  0.5031161E+03  0.7818609E-02  0.1012969E+00
        2   -1    0    0  501    0  0.00000000000E+00  0.00000000000E+00  0.55427926742E+03  0.55427926743E+03  0.25500000920E-02 0. -1.
       -2   -1    0    0    0  501  0.00000000000E+00  0.00000000000E+00 -0.11416889650E+03  0.11416889653E+03  0.25500000920E-02 0.  1.
    10030    2    1    2    0    0  0.00000000000E+00  0.00000000000E+00  0.44011037092E+03  0.66844816396E+03  0.50311609924E+03 0.  0.
        4    1    3    3  502    0 -0.71924118367E+02 -0.23923519130E+03  0.25931762124E+03  0.36007471051E+03  0.12699999809E+01 0.  1.
       -4    1    3    3    0  502  0.71924118367E+02  0.23923519130E+03  0.18079274968E+03  0.30837345345E+03  0.12699999809E+01 0. -1.
</event>
<event>
 5   0  0.7776070E-02  0.5002131E+03  0.7818609E-02  0.1013723E+00
       -2   -1    0    0    0  501  0.00000000000E+00  0.00000000000E+00  0.10428981083E+03  0.10428981086E+03  0.25500000920E-02 0.  1.
        2   -1    0    0  501    0  0.00000000000E+00  0.00000000000E+00 -0.59980247828E+03  0.59980247828E+03  0.25500000920E-02 0. -1.
    10030    2    1    2    0    0  0.00000000000E+00  0.00000000000E+00 -0.49551266745E+03  0.70409228914E+03  0.50021310262E+03 0.  0.
        4    1    3    3  502    0  0.10531259952E+03  0.16139891234E+03 -0.47213840406E+03  0.50995748647E+03  0.12699999809E+01 0. -1.
       -4    1    3    3    0  502 -0.10531259952E+03 -0.16139891234E+03 -0.23374263390E+02  0.19413480267E+03  0.12699999809E+01 0.  1.
</event>
<event>
 5   0  0.4803890E-02  0.4909258E+03  0.7818609E-02  0.1016175E+00
        1   -1    0    0  501    0  0.00000000000E+00  0.00000000000E+00  0.87534074427E+03  0.87534074428E+03  0.50400001928E-02 0.  1.
       -1   -1    0    0    0  501  0.00000000000E+00  0.00000000000E+00 -0.68832655314E+02  0.68832655499E+02  0.50400001928E-02 0. -1.
    10030    2    1    2    0    0  0.00000000000E+00  0.00000000000E+00  0.80650808895E+03  0.94417339978E+03  0.49092576965E+03 0.  0.
        5    1    3    3  502    0 -0.19946295260E+03  0.14202030990E+03  0.37137794195E+03  0.44485829615E+03  0.46999998093E+01 0.  1.
       -5    1    3    3    0  502  0.19946295260E+03 -0.14202030990E+03  0.43513014700E+03  0.49931510363E+03  0.46999998093E+01 0. -1.
</event>
<event>
 5   0  0.4884478E-02  0.4998537E+03  0.7818609E-02  0.1013817E+00
        1   -1    0    0  501    0  0.00000000000E+00  0.00000000000E+00  0.12314949155E+03  0.12314949166E+03  0.50400001928E-02 0. -1.
       -1   -1    0    0    0  501  0.00000000000E+00  0.00000000000E+00 -0.50721632071E+03  0.50721632074E+03  0.50400001928E-02 0.  1.
    10030    2    1    2    0    0  0.00000000000E+00  0.00000000000E+00 -0.38406682916E+03  0.63036581239E+03  0.49985370677E+03 0.  0.
        3    1    3    3  502    0 -0.18748850891E+03 -0.11054597671E+03 -0.34695421099E+03  0.40957244617E+03  0.10100000352E+00 0.  1.
       -3    1    3    3    0  502  0.18748850891E+03  0.11054597671E+03 -0.37112618168E+02  0.22079336622E+03  0.10100000352E+00 0. -1.
</event>
<event>
 5   0  0.7776070E-02  0.5002572E+03  0.7818609E-02  0.1013712E+00
        2   -1    0    0  501    0  0.00000000000E+00  0.00000000000E+00  0.73150304934E+03  0.73150304934E+03  0.25500000920E-02 0.  1.
       -2   -1    0    0    0  501  0.00000000000E+00  0.00000000000E+00 -0.85528441366E+02  0.85528441404E+02  0.25500000920E-02 0. -1.
    10030    2    1    2    0    0  0.00000000000E+00  0.00000000000E+00  0.64597460797E+03  0.81703149075E+03  0.50025719658E+03 0.  0.
        4    1    3    3  502    0  0.85244225666E+02  0.19157473909E+03  0.54570072697E+03  0.58460102205E+03  0.12699999809E+01 0.  1.
       -4    1    3    3    0  502 -0.85244225666E+02 -0.19157473909E+03  0.10027388100E+03  0.23243046869E+03  0.12699999809E+01 0. -1.
</event>
<event>
 5   0  0.3210875E-02  0.4997217E+03  0.7818609E-02  0.1013852E+00
       -3   -1    0    0    0  501  0.00000000000E+00  0.00000000000E+00  0.18796999472E+03  0.18797002186E+03  0.10100000352E+00 0. -1.
        3   -1    0    0  501    0  0.00000000000E+00  0.00000000000E+00 -0.33212976928E+03  0.33212978463E+03  0.10100000352E+00 0.  1.
    10030    2    1    2    0    0  0.00000000000E+00  0.00000000000E+00 -0.14415977456E+03  0.52009980649E+03  0.49972169065E+03 0.  0.
        1    1    3    3  502    0 -0.17718196701E+02  0.86232357633E+02  0.17129439429E+03  0.19259211702E+03  0.50400001928E-02 0. -1.
       -1    1    3    3    0  502  0.17718196701E+02 -0.86232357633E+02 -0.31545416884E+03  0.32750768947E+03  0.50400001928E-02 0.  1.
</event>
<event>
 5   0  0.7933103E-02  0.4994714E+03  0.7818609E-02  0.1013917E+00
       -2   -1    0    0    0  501  0.00000000000E+00  0.00000000000E+00  0.69907658174E+02  0.69907658221E+02  0.25500000920E-02 0.  1.
        2   -1    0    0  501    0  0.00000000000E+00  0.00000000000E+00 -0.89214721145E+03  0.89214721145E+03  0.25500000920E-02 0. -1.
    10030    2    1    2    0    0  0.00000000000E+00  0.00000000000E+00 -0.82223955327E+03  0.96205486967E+03  0.49947140988E+03 0.  0.
        5    1    3    3  502    0 -0.27610020136E+01 -0.22577186577E+03 -0.20577712777E+03  0.30552720798E+03  0.46999998093E+01 0.  1.
       -5    1    3    3    0  502  0.27610020136E+01  0.22577186577E+03 -0.61646242550E+03  0.65652766169E+03  0.46999998093E+01 0. -1.
</event>
<event>
 5   0  0.4803890E-02  0.4589723E+03  0.7818609E-02  0.1025080E+00
        1   -1    0    0  501    0  0.00000000000E+00  0.00000000000E+00  0.54074659608E+03  0.54074659610E+03  0.50400001928E-02 0. -1.
       -1   -1    0    0    0  501  0.00000000000E+00  0.00000000000E+00 -0.97391080881E+02  0.97391081012E+02  0.50400001928E-02 0.  1.
    10030    2    1    2    0    0  0.00000000000E+00  0.00000000000E+00  0.44335551520E+03  0.63813767711E+03  0.45897231082E+03 0.  0.
        5    1    3    3  502    0  0.74926865346E+02  0.14458738591E+03 -0.30378618336E+01  0.16294436448E+03  0.46999998093E+01 0.  1.
       -5    1    3    3    0  502 -0.74926865346E+02 -0.14458738591E+03  0.44639337703E+03  0.47519331263E+03  0.46999998093E+01 0. -1.
</event>
<event>
 5   0  0.4884478E-02  0.4989555E+03  0.7818609E-02  0.1014052E+00
       -1   -1    0    0    0  501  0.00000000000E+00  0.00000000000E+00  0.12565780633E+03  0.12565780643E+03  0.50400001928E-02 0.  1.
        1   -1    0    0  501    0  0.00000000000E+00  0.00000000000E+00 -0.49530660527E+03  0.49530660530E+03  0.50400001928E-02 0. -1.
    10030    2    1    2    0    0  0.00000000000E+00  0.00000000000E+00 -0.36964879894E+03  0.62096441173E+03  0.49895547504E+03 0.  0.
        3    1    3    3  502    0 -0.32981470815E+02  0.24441312635E+03 -0.23161565959E+03  0.33833619037E+03  0.10100000352E+00 0.  1.
       -3    1    3    3    0  502  0.32981470815E+02 -0.24441312635E+03 -0.13803313935E+03  0.28262822136E+03  0.10100000352E+00 0. -1.
</event>
<event>
 5   0  0.7698747E-02  0.5101641E+03  0.7818609E-02  0.1011159E+00
       -2   -1    0    0    0  501  0.00000000000E+00  0.00000000000E+00  0.71222569621E+02  0.71222569667E+02  0.25500000920E-02 0.  1.
        2   -1    0    0  501    0  0.00000000000E+00  0.00000000000E+00 -0.91357077577E+03  0.91357077577E+03  0.25500000920E-02 0. -1.
    10030    2    1    2    0    0  0.00000000000E+00  0.00000000000E+00 -0.84234820615E+03  0.98479334544E+03  0.51016412342E+03 0.  0.
        2    1    3    3  502    0 -0.16332960085E+03  0.16352985441E+03 -0.62951100957E+03  0.67059874960E+03  0.25500000920E-02 0. -1.
       -2    1    3    3    0  502  0.16332960085E+03 -0.16352985441E+03 -0.21283719658E+03  0.31419459584E+03  0.25500000920E-02 0.  1.
</event>
<event>
 5   0  0.7933103E-02  0.5056893E+03  0.7818609E-02  0.1012304E+00
        2   -1    0    0  501    0  0.00000000000E+00  0.00000000000E+00  0.69896320260E+03  0.69896320261E+03  0.25500000920E-02 0. -1.
       -2   -1    0    0    0  501  0.00000000000E+00  0.00000000000E+00 -0.91464644455E+02  0.91464644491E+02  0.25500000920E-02 0.  1.
    10030    2    1    2    0    0  0.00000000000E+00  0.00000000000E+00  0.60749855815E+03  0.79042784710E+03  0.50568931501E+03 0.  0.
        5    1    3    3  502    0  0.20992685582E+03 -0.98818346657E+02  0.46063340618E+03  0.51579024353E+03  0.46999998093E+01 0. -1.
       -5    1    3    3    0  502 -0.20992685582E+03  0.98818346657E+02  0.14686515196E+03  0.27463760356E+03  0.46999998093E+01 0.  1.
</event>
<event>
 5   0  0.7881060E-02  0.5023831E+03  0.7818609E-02  0.1013159E+00
        2   -1    0    0  501    0  0.00000000000E+00  0.00000000000E+00  0.71731232829E+03  0.71731232830E+03  0.25500000920E-02 0. -1.
       -2   -1    0    0    0  501  0.00000000000E+00  0.00000000000E+00 -0.87963346898E+02  0.87963346935E+02  0.25500000920E-02 0.  1.
    10030    2    1    2    0    0  0.00000000000E+00  0.00000000000E+00  0.62934898139E+03  0.80527567523E+03  0.50238309360E+03 0.  0.
        1    1    3    3  502    0 -0.10278928117E+03  0.23688663508E+02 -0.50741553136E+02  0.11705338245E+03  0.50400001928E-02 0.  1.
       -1    1    3    3    0  502  0.10278928117E+03 -0.23688663508E+02  0.68009053453E+03  0.68822229278E+03  0.50400001928E-02 0. -1.
</event>
<event>
 5   0  0.7776070E-02  0.4969120E+03  0.7818609E-02  0.1014588E+00
       -2   -1    0    0    0  501  0.00000000000E+00  0.00000000000E+00  0.29499040544E+02  0.29499040654E+02  0.25500000920E-02 0. -1.
        2   -1    0    0  501    0  0.00000000000E+00  0.00000000000E+00 -0.20926236344E+04  0.20926236344E+04  0.25500000920E-02 0.  1.
    10030    2    1    2    0    0  0.00000000000E+00  0.00000000000E+00 -0.20631245939E+04  0.21221226751E+04  0.49691202261E+03 0.  0.
        4    1    3    3  502    0 -0.43711026487E+02  0.22900545268E+03 -0.13983045642E+04  0.14176076391E+04  0.12699999809E+01 0.  1.
       -4    1    3    3    0  502  0.43711026487E+02 -0.22900545268E+03 -0.66482002966E+03  0.70451503599E+03  0.12699999809E+01 0. -1.
</event>
<event>
 5   0  0.7933103E-02  0.4965132E+03  0.7818609E-02  0.1014693E+00
       -2   -1    0    0    0  501  0.00000000000E+00  0.00000000000E+00  0.24913167973E+02  0.24913168104E+02  0.25500000920E-02 0. -1.
        2   -1    0    0  501    0  0.00000000000E+00  0.00000000000E+00 -0.24738455444E+04  0.24738455444E+04  0.25500000920E-02 0.  1.
    10030    2    1    2    0    0  0.00000000000E+00  0.00000000000E+00 -0.24489323764E+04  0.24987587125E+04  0.49651316096E+03 0.  0.
        5    1    3    3  502    0 -0.27518973694E+02 -0.17602365867E+02  0.13823642573E+02  0.35781563542E+02  0.46999998093E+01 0. -1.
       -5    1    3    3    0  502  0.27518973694E+02  0.17602365867E+02 -0.24627560190E+04  0.24629771490E+04  0.46999998093E+01 0.  1.
</event>
<event>
 5   0  0.8208720E-02  0.4962122E+03  0.7818609E-02  0.1014772E+00
        2   -1    0    0  501    0  0.00000000000E+00  0.00000000000E+00  0.61942712282E+03  0.61942712282E+03  0.25500000920E-02 0.  1.
       -2   -1    0    0    0  501  0.00000000000E+00  0.00000000000E+00 -0.99376703364E+02  0.99376703397E+02  0.25500000920E-02 0. -1.
    10030    2    1    2    0    0  0.00000000000E+00  0.00000000000E+00  0.52005041945E+03  0.71880382622E+03  0.49621215404E+03 0.  0.
        3    1    3    3  502    0 -0.24088410310E+03  0.33358142128E+02  0.18878357953E+03  0.30785900486E+03  0.10100000352E+00 0. -1.
       -3    1    3    3    0  502  0.24088410310E+03 -0.33358142128E+02  0.33126683992E+03  0.41094482136E+03  0.10100000352E+00 0.  1.
</event>
<event>
 5   0  0.4865501E-02  0.5045818E+03  0.7818609E-02  0.1012590E+00
        1   -1    0    0  501    0  0.00000000000E+00  0.00000000000E+00  0.96482164641E+03  0.96482164642E+03  0.50400001928E-02 0. -1.
       -1   -1    0    0    0  501  0.00000000000E+00  0.00000000000E+00 -0.65971464006E+02  0.65971464199E+02  0.50400001928E-02 0.  1.
    10030    2    1    2    0    0  0.00000000000E+00  0.00000000000E+00  0.89885018240E+03  0.10307931106E+04  0.50458179366E+03 0.  0.
        2    1    3    3  502    0  0.60668174731E+01 -0.22686038245E+03  0.67458803622E+03  0.71173833536E+03  0.25500000920E-02 0. -1.
       -2    1    3    3    0  502 -0.60668174731E+01  0.22686038245E+03  0.22426214618E+03  0.31905477526E+03  0.25500000920E-02 0.  1.
</event>
<event>
 5   0  0.7933103E-02  0.4550685E+03  0.7818609E-02  0.1026221E+00
       -2   -1    0    0    0  501  0.00000000000E+00  0.00000000000E+00  0.54363487829E+02  0.54363487889E+02  0.25500000920E-02 0. -1.
        2   -1    0    0  501    0  0.00000000000E+00  0.00000000000E+00 -0.95232720474E+03  0.95232720474E+03  0.25500000920E-02 0.  1.
    10030    2    1    2    0    0  0.00000000000E+00  0.00000000000E+00 -0.89796371691E+03  0.10066906926E+04  0.45506847149E+03 0.  0.
        5    1    3    3  502    0 -0.50671384531E+02  0.15253630758E+03 -0.80509945914E+03  0.82100069638E+03  0.46999998093E+01 0.  1.
       -5    1    3    3    0  502  0.50671384531E+02 -0.15253630758E+03 -0.92864257767E+02  0.18568999625E+03  0.46999998093E+01 0. -1.
</event>
<event>
 5   0  0.4803890E-02  0.5014639E+03  0.7818609E-02  0.1013398E+00
        1   -1    0    0  501    0  0.00000000000E+00  0.00000000000E+00  0.22120859552E+04  0.22120859552E+04  0.50400001928E-02 0. -1.
       -1   -1    0    0    0  501  0.00000000000E+00  0.00000000000E+00 -0.28419556370E+02  0.28419556817E+02  0.50400001928E-02 0.  1.
    10030    2    1    2    0    0  0.00000000000E+00  0.00000000000E+00  0.21836663989E+04  0.22405055121E+04  0.50146386513E+03 0.  0.
        5    1    3    3  502    0 -0.38404416941E+02  0.19717567391E+03  0.17618926357E+04  0.17733135356E+04  0.46999998093E+01 0. -1.
       -5    1    3    3    0  502  0.38404416941E+02 -0.19717567391E+03  0.42177376315E+03  0.46719197650E+03  0.46999998093E+01 0.  1.
</event>
<event>
 5   0  0.4803890E-02  0.5006571E+03  0.7818609E-02  0.1013608E+00
        1   -1    0    0  501    0  0.00000000000E+00  0.00000000000E+00  0.32658254661E+03  0.32658254665E+03  0.50400001928E-02 0.  1.
       -1   -1    0    0    0  501  0.00000000000E+00  0.00000000000E+00 -0.19187913254E+03  0.19187913261E+03  0.50400001928E-02 0. -1.
    10030    2    1    2    0    0  0.00000000000E+00  0.00000000000E+00  0.13470341407E+03  0.51846167926E+03  0.50065707136E+03 0.  0.
        5    1    3    3  502    0  0.44458167124E+01  0.84321606995E+02  0.31134127555E+03  0.32262265660E+03  0.46999998093E+01 0.  1.
       -5    1    3    3    0  502 -0.44458167124E+01 -0.84321606995E+02 -0.17663786148E+03  0.19583902266E+03  0.46999998093E+01 0. -1.
</event>
<event>
 5   0  0.4803890E-02  0.4992733E+03  0.7818609E-02  0.1013969E+00
        1   -1    0    0  501    0  0.00000000000E+00  0.00000000000E+00  0.14212673196E+04  0.14212673196E+04  0.50400001928E-02 0. -1.
       -1   -1    0    0    0  501  0.00000000000E+00  0.00000000000E+00 -0.43847102204E+02  0.43847102494E+02  0.50400001928E-02 0.  1.
    10030    2    1    2    0    0  0.00000000000E+00  0.00000000000E+00  0.13774202174E+04  0.14651144221E+04  0.49927328645E+03 0.  0.
        5    1    3    3  502    0  0.29220052450E+02 -0.58319264841E+02  0.13956821050E+04  0.13972135042E+04  0.46999998093E+01 0. -1.
       -5    1    3    3    0  502 -0.29220052450E+02  0.58319264841E+02 -0.18261887590E+02  0.67900917912E+02  0.46999998093E+01 0.  1.
</event>
<event>
 5   0  0.5191358E-02  0.4977825E+03  0.7818609E-02  0.1014359E+00
       -1   -1    0    0    0  501  0.00000000000E+00  0.00000000000E+00  0.13838899060E+04  0.13838899060E+04  0.50400001928E-02 0.  1.
        1   -1    0    0  501    0  0.00000000000E+00  0.00000000000E+00 -0.44762840410E+02  0.44762840694E+02  0.50400001928E-02 0. -1.
    10030    2    1    2    0    0  0.00000000000E+00  0.00000000000E+00  0.13391270656E+04  0.14286527467E+04  0.49778245537E+03 0.  0.
        4    1    3    3  502    0 -0.12149443612E+03 -0.21506921838E+03  0.75706728040E+03  0.79634675026E+03  0.12699999809E+01 0.  1.
       -4    1    3    3    0  502  0.12149443612E+03  0.21506921838E+03  0.58205978520E+03  0.63230599645E+03  0.12699999809E+01 0. -1.
</event>
<event>
 5   0  0.8208720E-02  0.5005784E+03  0.7818609E-02  0.1013628E+00
       -2   -1    0    0    0  501  0.00000000000E+00  0.00000000000E+00  0.44590186333E+02  0.44590186406E+02  0.25500000920E-02 0. -1.
        2   -1    0    0  501    0  0.00000000000E+00  0.00000000000E+00 -0.14048984146E+04  0.14048984146E+04  0.25500000920E-02 0.  1.
    10030    2    1    2    0    0  0.00000000000E+00  0.00000000000E+00 -0.13603082282E+04  0.14494886010E+04  0.50057839402E+03 0.  0.
        3    1    3    3  502    0  0.18508379252E+02 -0.92999725277E+02 -0.94354859245E+01  0.95291907315E+02  0.10100000352E+00 0. -1.
       -3    1    3    3    0  502 -0.18508379252E+02  0.92999725277E+02 -0.13508727423E+04  0.13541966937E+04  0.10100000352E+00 0.  1.
</event>
<event>
 5   0  0.3210875E-02  0.5020368E+03  0.7818609E-02  0.1013249E+00
        4   -1    0    0  501    0  0.00000000000E+00  0.00000000000E+00  0.46444548160E+03  0.46444721797E+03  0.12699999809E+01 0. -1.
       -4   -1    0    0    0  501  0.00000000000E+00  0.00000000000E+00 -0.13566269688E+03  0.13566864127E+03  0.12699999809E+01 0.  1.
    10030    2    1    2    0    0  0.00000000000E+00  0.00000000000E+00  0.32878278472E+03  0.60011585924E+03  0.50203677652E+03 0.  0.
        2    1    3    3  502    0 -0.17393058945E+03 -0.91796121682E+02  0.35085203068E+03  0.40221328339E+03  0.25500000920E-02 0. -1.
       -2    1    3    3    0  502  0.17393058945E+03  0.91796121682E+02 -0.22069245957E+02  0.19790257584E+03  0.25500000920E-02 0.  1.
</event>
<event>
 5   0  0.5191358E-02  0.4992108E+03  0.7818609E-02  0.1013985E+00
        1   -1    0    0  501    0  0.00000000000E+00  0.00000000000E+00  0.42210572336E+03  0.42210572339E+03  0.50400001928E-02 0.  1.
       -1   -1    0    0    0  501  0.00000000000E+00  0.00000000000E+00 -0.14760014819E+03  0.14760014828E+03  0.50400001928E-02 0. -1.
    10030    2    1    2    0    0  0.00000000000E+00  0.00000000000E+00  0.27450557517E+03  0.56970587167E+03  0.49921084665E+03 0.  0.
        4    1    3    3  502    0  0.10539542613E+03 -0.55518683864E+02  0.38756824883E+03  0.40546427772E+03  0.12699999809E+01 0.  1.
       -4    1    3    3    0  502 -0.10539542613E+03  0.55518683864E+02 -0.11306267366E+03  0.16424159395E+03  0.12699999809E+01 0. -1.
</event>
<event>
 5   0  0.7698747E-02  0.4951577E+03  0.7818609E-02  0.1015051E+00
        2   -1    0    0  501    0  0.00000000000E+00  0.00000000000E+00  0.64983653244E+02  0.64983653294E+02  0.25500000920E-02 0. -1.
       -2   -1    0    0    0  501  0.00000000000E+00  0.00000000000E+00 -0.94324147959E+03  0.94324147960E+03  0.25500000920E-02 0.  1.
    10030    2    1    2    0    0  0.00000000000E+00  0.00000000000E+00 -0.87825782635E+03  0.10082251329E+04  0.49515766080E+03 0.  0.
        2    1    3    3  502    0 -0.18628454495E+03 -0.98564846283E+02 -0.17459669005E+03  0.27368040630E+03  0.25500000920E-02 0. -1.
       -2    1    3    3    0  502  0.18628454495E+03  0.98564846283E+02 -0.70366113630E+03  0.73454472659E+03  0.25500000920E-02 0.  1.
</event>
<event>
 5   0  0.7698747E-02  0.5014231E+03  0.7818609E-02  0.1013408E+00
       -2   -1    0    0    0  501  0.00000000000E+00  0.00000000000E+00  0.22508014636E+03  0.22508014638E+03  0.25500000920E-02 0.  1.
        2   -1    0    0  501    0  0.00000000000E+00  0.00000000000E+00 -0.27926179746E+03  0.27926179747E+03  0.25500000920E-02 0. -1.
    10030    2    1    2    0    0  0.00000000000E+00  0.00000000000E+00 -0.54181651096E+02  0.50434194385E+03  0.50142311974E+03 0.  0.
        2    1    3    3  502    0 -0.19307174694E+03 -0.45293724404E+02  0.12719067062E+03  0.23559645081E+03  0.25500000920E-02 0.  1.
       -2    1    3    3    0  502  0.19307174694E+03  0.45293724404E+02 -0.18137232171E+03  0.26874549304E+03  0.25500000920E-02 0. -1.
</event>
<event>
 5   0  0.5191358E-02  0.4978428E+03  0.7818609E-02  0.1014344E+00
       -1   -1    0    0    0  501  0.00000000000E+00  0.00000000000E+00  0.12604260795E+03  0.12604260805E+03  0.50400001928E-02 0. -1.
        1   -1    0    0  501    0  0.00000000000E+00  0.00000000000E+00 -0.49159454459E+03  0.49159454462E+03  0.50400001928E-02 0.  1.
    10030    2    1    2    0    0  0.00000000000E+00  0.00000000000E+00 -0.36555193664E+03  0.61763715267E+03  0.49784278037E+03 0.  0.
        4    1    3    3  502    0  0.10046914476E+03  0.20970093304E+03 -0.29298746531E+03  0.37404785535E+03  0.12699999809E+01 0.  1.
       -4    1    3    3    0  502 -0.10046914476E+03 -0.20970093304E+03 -0.72564471337E+02  0.24358929732E+03  0.12699999809E+01 0. -1.
</event>
<event>
 5   0  0.7933103E-02  0.4881840E+03  0.7818609E-02  0.1016910E+00
       -2   -1    0    0    0  501  0.00000000000E+00  0.00000000000E+00  0.35023735512E+03  0.35023735512E+03  0.25500000920E-02 0.  1.
        2   -1    0    0  501    0  0.00000000000E+00  0.00000000000E+00 -0.17011577785E+03  0.17011577787E+03  0.25500000920E-02 0. -1.
    10030    2    1    2    0    0  0.00000000000E+00  0.00000000000E+00  0.18012157727E+03  0.52035313299E+03  0.48818398214E+03 0.  0.
        5    1    3    3  502    0 -0.49547357786E+02  0.14833561779E+03  0.28975743299E+03  0.32930207430E+03  0.46999998093E+01 0.  1.
       -5    1    3    3    0  502  0.49547357786E+02 -0.14833561779E+03 -0.10963585573E+03  0.19105105869E+03  0.46999998093E+01 0. -1.
</event>
<event>
 5   0  0.3210875E-02  0.4985923E+03  0.7818609E-02  0.1014147E+00
       -3   -1    0    0    0  501  0.00000000000E+00  0.00000000000E+00  0.63559134036E+03  0.63559134839E+03  0.10100000352E+00 0.  1.
        3   -1    0    0  501    0  0.00000000000E+00  0.00000000000E+00 -0.97780664287E+02  0.97780716450E+02  0.10100000352E+00 0. -1.
    10030    2    1    2    0    0  0.00000000000E+00  0.00000000000E+00  0.53781067607E+03  0.73337206483E+03  0.49859228051E+03 0.  0.
        3    1    3    3  502    0 -0.88228933588E+02  0.63038581141E+01  0.61173356277E+03  0.61809549858E+03  0.10100000352E+00 0.  1.
       -3    1    3    3    0  502  0.88228933588E+02 -0.63038581141E+01 -0.73922886694E+02  0.11527656625E+03  0.10100000352E+00 0. -1.
</event>
<event>
 5   0  0.4884478E-02  0.5551539E+03  0.7818609E-02  0.1000308E+00
       -1   -1    0    0    0  501  0.00000000000E+00  0.00000000000E+00  0.36022527228E+03  0.36022527231E+03  0.50400001928E-02 0.  1.
        1   -1    0    0  501    0  0.00000000000E+00  0.00000000000E+00 -0.21389108420E+03  0.21389108426E+03  0.50400001928E-02 0. -1.
    10030    2    1    2    0    0  0.00000000000E+00  0.00000000000E+00  0.14633418808E+03  0.57411635657E+03  0.55515393926E+03 0.  0.
        3    1    3    3  502    0  0.12507216794E+03 -0.22703203834E+03 -0.29534490803E+02  0.26088098814E+03  0.10100000352E+00 0. -1.
       -3    1    3    3    0  502 -0.12507216794E+03  0.22703203834E+03  0.17586867889E+03  0.31323536843E+03  0.10100000352E+00 0.  1.
</event>
<event>
 5   0  0.7776070E-02  0.5222048E+03  0.7818609E-02  0.1008140E+00
       -2   -1    0    0    0  501  0.00000000000E+00  0.00000000000E+00  0.18785568972E+03  0.18785568973E+03  0.25500000920E-02 0.  1.
        2   -1    0    0  501    0  0.00000000000E+00  0.00000000000E+00 -0.36290871621E+03  0.36290871622E+03  0.25500000920E-02 0. -1.
    10030    2    1    2    0    0  0.00000000000E+00  0.00000000000E+00 -0.17505302650E+03  0.55076440595E+03  0.52220481497E+03 0.  0.
        4    1    3    3  502    0 -0.19082638858E+03 -0.10187885027E+03 -0.24173813291E+03  0.32439628314E+03  0.12699999809E+01 0. -1.
       -4    1    3    3    0  502  0.19082638858E+03  0.10187885027E+03  0.66685106416E+02  0.22636812282E+03  0.12699999809E+01 0.  1.
</event>
<event>
 5   0  0.3210875E-02  0.4970719E+03  0.7818609E-02  0.1014546E+00
        3   -1    0    0  501    0  0.00000000000E+00  0.00000000000E+00  0.58466362091E+03  0.58466362964E+03  0.10100000352E+00 0.  1.
       -3   -1    0    0    0  501  0.00000000000E+00  0.00000000000E+00 -0.10565065260E+03  0.10565070088E+03  0.10100000352E+00 0. -1.
    10030    2    1    2    0    0  0.00000000000E+00  0.00000000000E+00  0.47901296831E+03  0.69031433052E+03  0.49707187721E+03 0.  0.
        2    1    3    3  502    0  0.23979096061E+03  0.14595438401E+02  0.15104573756E+03  0.28377375928E+03  0.25500000920E-02 0. -1.
       -2    1    3    3    0  502 -0.23979096061E+03 -0.14595438401E+02  0.32796723075E+03  0.40654057124E+03  0.25500000920E-02 0.  1.
</event>
<event>
 5   0  0.3210875E-02  0.4901225E+03  0.7818609E-02  0.1016390E+00
       -4   -1    0    0    0  501  0.00000000000E+00  0.00000000000E+00  0.11611060704E+03  0.11611755237E+03  0.12699999809E+01 0. -1.
        4   -1    0    0  501    0  0.00000000000E+00  0.00000000000E+00 -0.51719936150E+03  0.51720092076E+03  0.12699999809E+01 0.  1.
    10030    2    1    2    0    0  0.00000000000E+00  0.00000000000E+00 -0.40108875445E+03  0.63331847312E+03  0.49012253514E+03 0.  0.
        2    1    3    3  502    0  0.19285881236E+03 -0.50176087852E+02 -0.16245144165E+02  0.19994015608E+03  0.25500000920E-02 0. -1.
       -2    1    3    3    0  502 -0.19285881236E+03  0.50176087852E+02 -0.38484361029E+03  0.43337831704E+03  0.25500000920E-02 0.  1.
</event>
<event>
 5   0  0.3210875E-02  0.4978595E+03  0.7818609E-02  0.1014339E+00
        3   -1    0    0  501    0  0.00000000000E+00  0.00000000000E+00  0.48096724429E+03  0.48096725489E+03  0.10100000352E+00 0.  1.
       -3   -1    0    0    0  501  0.00000000000E+00  0.00000000000E+00 -0.12883624909E+03  0.12883628868E+03  0.10100000352E+00 0. -1.
    10030    2    1    2    0    0  0.00000000000E+00  0.00000000000E+00  0.35213099520E+03  0.60980354357E+03  0.49785954242E+03 0.  0.
        5    1    3    3  502    0  0.28908342585E+02  0.10727329636E+03  0.44885456500E+03  0.46242379145E+03  0.46999998093E+01 0.  1.
       -5    1    3    3    0  502 -0.28908342585E+02 -0.10727329636E+03 -0.96723569799E+02  0.14737975212E+03  0.46999998093E+01 0. -1.
</event>
<event>
 5   0  0.5038436E-02  0.4968155E+03  0.7818609E-02  0.1014613E+00
        1   -1    0    0  501    0  0.00000000000E+00  0.00000000000E+00  0.24776169031E+03  0.24776169036E+03  0.50400001928E-02 0. -1.
       -1   -1    0    0    0  501  0.00000000000E+00  0.00000000000E+00 -0.24905547534E+03  0.24905547539E+03  0.50400001928E-02 0.  1.
    10030    2    1    2    0    0  0.00000000000E+00  0.00000000000E+00 -0.12937850299E+01  0.49681716575E+03  0.49681548115E+03 0.  0.
        1    1    3    3  502    0 -0.11737289742E+03  0.54991208693E+02  0.21126412656E+03  0.24785673539E+03  0.50400001928E-02 0. -1.
       -1    1    3    3    0  502  0.11737289742E+03 -0.54991208693E+02 -0.21255791159E+03  0.24896043036E+03  0.50400001928E-02 0.  1.
</event>
<event>
 5   0  0.5038436E-02  0.4991374E+03  0.7818609E-02  0.1014004E+00
        1   -1    0    0  501    0  0.00000000000E+00  0.00000000000E+00  0.21897392156E+03  0.21897392162E+03  0.50400001928E-02 0. -1.
       -1   -1    0    0    0  501  0.00000000000E+00  0.00000000000E+00 -0.28443816159E+03  0.28443816164E+03  0.50400001928E-02 0.  1.
    10030    2    1    2    0    0  0.00000000000E+00  0.00000000000E+00 -0.65464240034E+02  0.50341208325E+03  0.49913741479E+03 0.  0.
        1    1    3    3  502    0  0.48624050010E+02 -0.55724415636E+02 -0.27313249129E+03  0.28296796031E+03  0.50400001928E-02 0.  1.
       -1    1    3    3    0  502 -0.48624050010E+02  0.55724415636E+02  0.20766825125E+03  0.22044412295E+03  0.50400001928E-02 0. -1.
</event>
<event>
 5   0  0.4884478E-02  0.4975366E+03  0.7818609E-02  0.1014424E+00
       -1   -1    0    0    0  501  0.00000000000E+00  0.00000000000E+00  0.29068510832E+03  0.29068510837E+03  0.50400001928E-02 0.  1.
        1   -1    0    0  501    0  0.00000000000E+00  0.00000000000E+00 -0.21289587978E+03  0.21289587984E+03  0.50400001928E-02 0. -1.
    10030    2    1    2    0    0  0.00000000000E+00  0.00000000000E+00  0.77789228544E+02  0.50358098821E+03  0.49753657916E+03 0.  0.
        3    1    3    3  502    0 -0.43597986051E+02  0.23734431002E+03 -0.22275902009E+02  0.24234135408E+03  0.10100000352E+00 0. -1.
       -3    1    3    3    0  502  0.43597986051E+02 -0.23734431002E+03  0.10006513055E+03  0.26123963413E+03  0.10100000352E+00 0.  1.
</event>
<event>
 5   0  0.7776070E-02  0.4986300E+03  0.7818609E-02  0.1014137E+00
        2   -1    0    0  501    0  0.00000000000E+00  0.00000000000E+00  0.10220165580E+03  0.10220165583E+03  0.25500000920E-02 0. -1.
       -2   -1    0    0    0  501  0.00000000000E+00  0.00000000000E+00 -0.60818956425E+03  0.60818956425E+03  0.25500000920E-02 0.  1.
    10030    2    1    2    0    0  0.00000000000E+00  0.00000000000E+00 -0.50598790845E+03  0.71039122008E+03  0.49863004530E+03 0.  0.
        4    1    3    3  502    0  0.15027042809E+03 -0.19851052859E+03 -0.27150040546E+03  0.36837713634E+03  0.12699999809E+01 0.  1.
       -4    1    3    3    0  502 -0.15027042809E+03  0.19851052859E+03 -0.23448750299E+03  0.34201408374E+03  0.12699999809E+01 0. -1.
</event>
<event>
 5   0  0.7881060E-02  0.5051477E+03  0.7818609E-02  0.1012444E+00
       -2   -1    0    0    0  501  0.00000000000E+00  0.00000000000E+00  0.91930091367E+02  0.91930091403E+02  0.25500000920E-02 0.  1.
        2   -1    0    0  501    0  0.00000000000E+00  0.00000000000E+00 -0.69393553232E+03  0.69393553232E+03  0.25500000920E-02 0. -1.
    10030    2    1    2    0    0  0.00000000000E+00  0.00000000000E+00 -0.60200544095E+03  0.78586562373E+03  0.50514772851E+03 0.  0.
        1    1    3    3  502    0  0.20352801442E+02 -0.18364857811E+03 -0.56889530483E+03  0.59814956712E+03  0.50400001928E-02 0. -1.
       -1    1    3    3    0  502 -0.20352801442E+02  0.18364857811E+03 -0.33110136126E+02  0.18771605661E+03  0.50400001928E-02 0.  1.
</event>
<event>
 5   0  0.3210875E-02  0.4991850E+03  0.7818609E-02  0.1013992E+00
        4   -1    0    0  501    0  0.00000000000E+00  0.00000000000E+00  0.13148100477E+03  0.13148713821E+03  0.12699999809E+01 0.  1.
       -4   -1    0    0    0  501  0.00000000000E+00  0.00000000000E+00 -0.47378740910E+03  0.47378911123E+03  0.12699999809E+01 0. -1.
    10030    2    1    2    0    0  0.00000000000E+00  0.00000000000E+00 -0.34230640433E+03  0.60527624945E+03  0.49918499947E+03 0.  0.
        2    1    3    3  502    0 -0.87541796833E+02 -0.93606269832E+02 -0.43084597649E+03  0.44950412168E+03  0.25500000920E-02 0. -1.
       -2    1    3    3    0  502  0.87541796833E+02  0.93606269832E+02  0.88539572155E+02  0.15577212776E+03  0.25500000920E-02 0.  1.
</event>
<event>
 5   0  0.3210875E-02  0.5057251E+03  0.7818609E-02  0.1012295E+00
       -4   -1    0    0    0  501  0.00000000000E+00  0.00000000000E+00  0.28363827525E+03  0.28364111847E+03  0.12699999809E+01 0.  1.
        4   -1    0    0  501    0  0.00000000000E+00  0.00000000000E+00 -0.22542030526E+03  0.22542388277E+03  0.12699999809E+01 0. -1.
    10030    2    1    2    0    0  0.00000000000E+00  0.00000000000E+00  0.58217969985E+02  0.50906500124E+03  0.50572506707E+03 0.  0.
        3    1    3    3  502    0 -0.49623220278E+02  0.24451529074E+03  0.70481022933E+02  0.25926391224E+03  0.10100000352E+00 0. -1.
       -3    1    3    3    0  502  0.49623220278E+02 -0.24451529074E+03 -0.12263052948E+02  0.24980108900E+03  0.10100000352E+00 0.  1.
</event>
<event>
 5   0  0.3210875E-02  0.5014886E+03  0.7818609E-02  0.1013391E+00
       -3   -1    0    0    0  501  0.00000000000E+00  0.00000000000E+00  0.68688277344E+03  0.68688278086E+03  0.10100000352E+00 0. -1.
        3   -1    0    0  501    0  0.00000000000E+00  0.00000000000E+00 -0.91533329106E+02  0.91533384828E+02  0.10100000352E+00 0.  1.
    10030    2    1    2    0    0  0.00000000000E+00  0.00000000000E+00  0.59534944433E+03  0.77841616569E+03  0.50148855036E+03 0.  0.
        1    1    3    3  502    0 -0.95881541015E+02 -0.87967475097E+02 -0.35024458798E+02  0.13475258559E+03  0.50400001928E-02 0.  1.
       -1    1    3    3    0  502  0.95881541015E+02  0.87967475097E+02  0.63037390313E+03  0.64366358011E+03  0.50400001928E-02 0. -1.
</event>
<event>
 5   0  0.4803890E-02  0.4987265E+03  0.7818609E-02  0.1014112E+00
       -1   -1    0    0    0  501  0.00000000000E+00  0.00000000000E+00  0.23965511195E+03  0.23965511201E+03  0.50400001928E-02 0. -1.
        1   -1    0    0  501    0  0.00000000000E+00  0.00000000000E+00 -0.25946467786E+03  0.25946467791E+03  0.50400001928E-02 0.  1.
    10030    2    1    2    0    0  0.00000000000E+00  0.00000000000E+00 -0.19809565912E+02  0.49911978992E+03  0.49872652405E+03 0.  0.
        5    1    3    3  502    0 -0.16030289299E+03  0.16665138745E+03  0.83390204167E+02  0.24585711011E+03  0.46999998093E+01 0. -1.
       -5    1    3    3    0  502  0.16030289299E+03 -0.16665138745E+03 -0.10319977008E+03  0.25326267981E+03  0.46999998093E+01 0.  1.
</event>
<event>
 5   0  0.7776070E-02  0.4961735E+03  0.7818609E-02  0.1014783E+00
       -2   -1    0    0    0  501  0.00000000000E+00  0.00000000000E+00  0.18945924258E+03  0.18945924260E+03  0.25500000920E-02 0.  1.
        2   -1    0    0  501    0  0.00000000000E+00  0.00000000000E+00 -0.32485639625E+03  0.32485639626E+03  0.25500000920E-02 0. -1.
    10030    2    1    2    0    0  0.00000000000E+00  0.00000000000E+00 -0.13539715368E+03  0.51431563886E+03  0.49617354540E+03 0.  0.
        4    1    3    3  502    0  0.38315659237E+02 -0.21343073432E+03  0.57226377423E+02  0.22427046009E+03  0.12699999809E+01 0.  1.
       -4    1    3    3    0  502 -0.38315659237E+02  0.21343073432E+03 -0.19262353110E+03  0.29004517877E+03  0.12699999809E+01 0. -1.
</event>
<event>
 5   0  0.4884478E-02  0.4997867E+03  0.7818609E-02  0.1013835E+00
       -1   -1    0    0    0  501  0.00000000000E+00  0.00000000000E+00  0.16253420246E+03  0.16253420254E+03  0.50400001928E-02 0. -1.
        1   -1    0    0  501    0  0.00000000000E+00  0.00000000000E+00 -0.38420635755E+03  0.38420635758E+03  0.50400001928E-02 0.  1.
    10030    2    1    2    0    0  0.00000000000E+00  0.00000000000E+00 -0.22167215509E+03  0.54674056012E+03  0.49978665022E+03 0.  0.
        3    1    3    3  502    0 -0.20865251864E+03 -0.13669775585E+03 -0.12722755527E+03  0.28001609063E+03  0.10100000352E+00 0. -1.
       -3    1    3    3    0  502  0.20865251864E+03  0.13669775585E+03 -0.94444599821E+02  0.26672446949E+03  0.10100000352E+00 0.  1.
</event>
<event>
 5   0  0.7776070E-02  0.4978076E+03  0.7818609E-02  0.1014353E+00
       -2   -1    0    0    0  501  0.00000000000E+00  0.00000000000E+00  0.26474734078E+03  0.26474734079E+03  0.25500000920E-02 0. -1.
        2   -1    0    0  501    0  0.00000000000E+00  0.00000000000E+00 -0.23400838205E+03  0.23400838207E+03  0.25500000920E-02 0.  1.
    10030    2    1    2    0    0  0.00000000000E+00  0.00000000000E+00  0.30738958728E+02  0.49875572286E+03  0.49780758080E+03 0.  0.
        4    1    3    3  502    0  0.14171620958E+03  0.95322285704E+02 -0.16603243609E+03  0.23819782732E+03  0.12699999809E+01 0.  1.
       -4    1    3    3    0  502 -0.14171620958E+03 -0.95322285704E+02  0.19677139481E+03  0.26055789554E+03  0.12699999809E+01 0. -1.
</event>
<event>
 5   0  0.5038436E-02  0.5019363E+03  0.7818609E-02  0.1013275E+00
       -1   -1    0    0    0  501  0.00000000000E+00  0.00000000000E+00  0.16803499355E+03  0.16803499363E+03  0.50400001928E-02 0. -1.
        1   -1    0    0  501    0  0.00000000000E+00  0.00000000000E+00 -0.37483269799E+03  0.37483269803E+03  0.50400001928E-02 0.  1.
    10030    2    1    2    0    0  0.00000000000E+00  0.00000000000E+00 -0.20679770444E+03  0.54286769165E+03  0.50193629086E+03 0.  0.
        1    1    3    3  502    0  0.19656021421E+03  0.12689895785E+02 -0.27160656515E+03  0.33551017499E+03  0.50400001928E-02 0.  1.
       -1    1    3    3    0  502 -0.19656021421E+03 -0.12689895785E+02  0.64808860708E+02  0.20735751666E+03  0.50400001928E-02 0. -1.
</event>
<event>
 5   0  0.5038436E-02  0.5063966E+03  0.7818609E-02  0.1012123E+00
        1   -1    0    0  501    0  0.00000000000E+00  0.00000000000E+00  0.79898242590E+03  0.79898242592E+03  0.50400001928E-02 0.  1.
       -1   -1    0    0    0  501  0.00000000000E+00  0.00000000000E+00 -0.80238791890E+02  0.80238792049E+02  0.50400001928E-02 0. -1.
    10030    2    1    2    0    0  0.00000000000E+00  0.00000000000E+00  0.71874363401E+03  0.87922121797E+03  0.50639662192E+03 0.  0.
        1    1    3    3  502    0 -0.18113963376E+02  0.15023337010E+03  0.71183601456E+03  0.72774218842E+03  0.50400001928E-02 0.  1.
       -1    1    3    3    0  502  0.18113963376E+02 -0.15023337010E+03  0.69076194533E+01  0.15147902955E+03  0.50400001928E-02 0. -1.
</event>
<event>
 5   0  0.7776070E-02  0.4976384E+03  0.7818609E-02  0.1014397E+00
        2   -1    0    0  501    0  0.00000000000E+00  0.00000000000E+00  0.14398931469E+04  0.14398931469E+04  0.25500000920E-02 0.  1.
       -2   -1    0    0    0  501  0.00000000000E+00  0.00000000000E+00 -0.42996943849E+02  0.42996943925E+02  0.25500000920E-02 0. -1.
    10030    2    1    2    0    0  0.00000000000E+00  0.00000000000E+00  0.13968962031E+04  0.14828900909E+04  0.49763844243E+03 0.  0.
        4    1    3    3  502    0  0.20453381314E+03 -0.81053616891E+02  0.35214822010E+03  0.41522734899E+03  0.12699999809E+01 0. -1.
       -4    1    3    3    0  502 -0.20453381314E+03  0.81053616891E+02  0.10447479830E+04  0.10676627419E+04  0.12699999809E+01 0.  1.
</event>
<event>
 5   0  0.7881060E-02  0.4989466E+03  0.7818609E-02  0.1014054E+00
        2   -1    0    0  501    0  0.00000000000E+00  0.00000000000E+00  0.38968430599E+03  0.38968430600E+03  0.25500000920E-02 0.  1.
       -2   -1    0    0    0  501  0.00000000000E+00  0.00000000000E+00 -0.15971116160E+03  0.15971116162E+03  0.25500000920E-02 0. -1.
    10030    2    1    2    0    0  0.00000000000E+00  0.00000000000E+00  0.22997314439E+03  0.54939546761E+03  0.49894662309E+03 0.  0.
        1    1    3    3  502    0 -0.17983838875E+03 -0.17086101489E+03  0.85820631873E+02  0.26248907283E+03  0.50400001928E-02 0. -1.
       -1    1    3    3    0  502  0.17983838875E+03  0.17086101489E+03  0.14415251252E+03  0.28690639478E+03  0.50400001928E-02 0.  1.
</event>
<event>
 5   0  0.7698747E-02  0.4992255E+03  0.7818609E-02  0.1013981E+00
       -2   -1    0    0    0  501  0.00000000000E+00  0.00000000000E+00  0.29915979202E+03  0.29915979203E+03  0.25500000920E-02 0.  1.
        2   -1    0    0  501    0  0.00000000000E+00  0.00000000000E+00 -0.20827173885E+03  0.20827173887E+03  0.25500000920E-02 0. -1.
    10030    2    1    2    0    0  0.00000000000E+00  0.00000000000E+00  0.90888053164E+02  0.50743153089E+03  0.49922552052E+03 0.  0.
        2    1    3    3  502    0  0.16416779642E+03 -0.18393215842E+03  0.85129705681E+02  0.26082402320E+03  0.25500000920E-02 0.  1.
       -2    1    3    3    0  502 -0.16416779642E+03  0.18393215842E+03  0.57583474837E+01  0.24660750770E+03  0.25500000920E-02 0. -1.
</event>
<event>
 5   0  0.7776070E-02  0.4991529E+03  0.7818609E-02  0.1014000E+00
        2   -1    0    0  501    0  0.00000000000E+00  0.00000000000E+00  0.15342890645E+04  0.15342890645E+04  0.25500000920E-02 0.  1.
       -2   -1    0    0    0  501  0.00000000000E+00  0.00000000000E+00 -0.40597572488E+02  0.40597572569E+02  0.25500000920E-02 0. -1.
    10030    2    1    2    0    0  0.00000000000E+00  0.00000000000E+00  0.14936914921E+04  0.15748866371E+04  0.49915292879E+03 0.  0.
        4    1    3    3  502    0 -0.84427992703E+02  0.40242848863E+02  0.14768942544E+04  0.14798533117E+04  0.12699999809E+01 0.  1.
       -4    1    3    3    0  502  0.84427992703E+02 -0.40242848863E+02  0.16797237700E+02  0.95033325369E+02  0.12699999809E+01 0. -1.
</event>
<event>
 5   0  0.5038436E-02  0.4985348E+03  0.7818609E-02  0.1014162E+00
       -1   -1    0    0    0  501  0.00000000000E+00  0.00000000000E+00  0.16956255894E+03  0.16956255901E+03  0.50400001928E-02 0.  1.
        1   -1    0    0  501    0  0.00000000000E+00  0.00000000000E+00 -0.36643844775E+03  0.36643844779E+03  0.50400001928E-02 0. -1.
    10030    2    1    2    0    0  0.00000000000E+00  0.00000000000E+00 -0.19687588881E+03  0.53600100680E+03  0.49853481694E+03 0.  0.
        1    1    3    3  502    0  0.20140689526E+03  0.42642903351E+02 -0.24953834087E+03  0.32350044552E+03  0.50400001928E-02 0. -1.
       -1    1    3    3    0  502 -0.20140689526E+03 -0.42642903351E+02  0.52662452055E+02  0.21250056128E+03  0.50400001928E-02 0.  1.
</event>
<event>
 5   0  0.4884478E-02  0.4988017E+03  0.7818609E-02  0.1014092E+00
        1   -1    0    0  501    0  0.00000000000E+00  0.00000000000E+00  0.86231532749E+02  0.86231532896E+02  0.50400001928E-02 0. -1.
       -1   -1    0    0    0  501  0.00000000000E+00  0.00000000000E+00 -0.72132291305E+03  0.72132291307E+03  0.50400001928E-02 0.  1.
    10030    2    1    2    0    0  0.00000000000E+00  0.00000000000E+00 -0.63509138030E+03  0.80755444596E+03  0.49880168591E+03 0.  0.
        3    1    3    3  502    0  0.21779039941E+03  0.12074712352E+03 -0.33975857057E+03  0.42124627285E+03  0.10100000352E+00 0.  1.
       -3    1    3    3    0  502 -0.21779039941E+03 -0.12074712352E+03 -0.29533280973E+03  0.38630817311E+03  0.10100000352E+00 0. -1.
</event>
<event>
 5   0  0.7698747E-02  0.4938810E+03  0.7818609E-02  0.1015389E+00
       -2   -1    0    0    0  501  0.00000000000E+00  0.00000000000E+00  0.10006554091E+03  0.10006554094E+03  0.25500000920E-02 0.  1.
        2   -1    0    0  501    0  0.00000000000E+00  0.00000000000E+00 -0.60939663170E+03  0.60939663170E+03  0.25500000920E-02 0. -1.
    10030    2    1    2    0    0  0.00000000000E+00  0.00000000000E+00 -0.50933109079E+03  0.70946217264E+03  0.49388097186E+03 0.  0.
        2    1    3    3  502    0  0.82267124268E+02  0.19961542073E+03 -0.42683889467E+03  0.47833632304E+03  0.25500000920E-02 0. -1.
       -2    1    3    3    0  502 -0.82267124268E+02 -0.19961542073E+03 -0.82492196118E+02  0.23112584960E+03  0.25500000920E-02 0.  1.
</event>
<event>
 5   0  0.3210875E-02  0.4910254E+03  0.7818609E-02  0.1016148E+00
        3   -1    0    0  501    0  0.00000000000E+00  0.00000000000E+00  0.27729698356E+03  0.27729700195E+03  0.10100000352E+00 0. -1.
       -3   -1    0    0    0  501  0.00000000000E+00  0.00000000000E+00 -0.21737158702E+03  0.21737161048E+03  0.10100000352E+00 0.  1.
    10030    2    1    2    0    0  0.00000000000E+00  0.00000000000E+00  0.59925396542E+02  0.49466861243E+03  0.49102544025E+03 0.  0.
        4    1    3    3  502    0 -0.13128706152E+03  0.18462016455E+02 -0.17820475386E+03  0.22211637889E+03  0.12699999809E+01 0.  1.
       -4    1    3    3    0  502  0.13128706152E+03 -0.18462016455E+02  0.23813015041E+03  0.27255223354E+03  0.12699999809E+01 0. -1.
</event>
<event>
 5   0  0.4865501E-02  0.4981159E+03  0.7818609E-02  0.1014272E+00
       -1   -1    0    0    0  501  0.00000000000E+00  0.00000000000E+00  0.89509170278E+02  0.89509170420E+02  0.50400001928E-02 0.  1.
        1   -1    0    0  501    0  0.00000000000E+00  0.00000000000E+00 -0.69299999592E+03  0.69299999594E+03  0.50400001928E-02 0. -1.
    10030    2    1    2    0    0  0.00000000000E+00  0.00000000000E+00 -0.60349082564E+03  0.78250916636E+03  0.49811586885E+03 0.  0.
        2    1    3    3  502    0  0.53608437216E+02 -0.14071025448E+03 -0.61339598034E+03  0.63160736930E+03  0.25500000920E-02 0. -1.
       -2    1    3    3    0  502 -0.53608437216E+02  0.14071025448E+03  0.99051546992E+01  0.15090179705E+03  0.25500000920E-02 0.  1.
</event>
<event>
 5   0  0.4865501E-02  0.4969412E+03  0.7818609E-02  0.1014580E+00
       -1   -1    0    0    0  501  0.00000000000E+00  0.00000000000E+00  0.41809712659E+03  0.41809712662E+03  0.50400001928E-02 0. -1.
        1   -1    0    0  501    0  0.00000000000E+00  0.00000000000E+00 -0.14766336853E+03  0.14766336862E+03  0.50400001928E-02 0.  1.
    10030    2    1    2    0    0  0.00000000000E+00  0.00000000000E+00  0.27043375806E+03  0.56576049523E+03  0.49694116399E+03 0.  0.
        2    1    3    3  502    0  0.10276047982E+03 -0.20885075195E+03  0.36232244236E+02  0.23556554996E+03  0.25500000920E-02 0.  1.
       -2    1    3    3    0  502 -0.10276047982E+03  0.20885075195E+03  0.23420151382E+03  0.33019494527E+03  0.25500000920E-02 0. -1.
</event>
<event>
 5   0  0.5191358E-02  0.5110063E+03  0.7818609E-02  0.1010945E+00
        1   -1    0    0  501    0  0.00000000000E+00  0.00000000000E+00  0.81886304587E+02  0.81886304742E+02  0.50400001928E-02 0. -1.
       -1   -1    0    0    0  501  0.00000000000E+00  0.00000000000E+00 -0.79722548541E+03  0.79722548542E+03  0.50400001928E-02 0.  1.
    10030    2    1    2    0    0  0.00000000000E+00  0.00000000000E+00 -0.71533918082E+03  0.87911179017E+03  0.51100625827E+03 0.  0.
        4    1    3    3  502    0  0.24115910228E+03 -0.83527265698E+02 -0.37843672276E+03  0.45645425046E+03  0.12699999809E+01 0.  1.
       -4    1    3    3    0  502 -0.24115910228E+03  0.83527265698E+02 -0.33690245806E+03  0.42265753971E+03  0.12699999809E+01 0. -1.
</event>
<event>
 5   0  0.7698747E-02  0.5092935E+03  0.7818609E-02  0.1011381E+00
        2   -1    0    0  501    0  0.00000000000E+00  0.00000000000E+00  0.13293193737E+04  0.13293193737E+04  0.25500000920E-02 0.  1.
       -2   -1    0    0    0  501  0.00000000000E+00  0.00000000000E+00 -0.48780574055E+02  0.48780574122E+02  0.25500000920E-02 0. -1.
    10030    2    1    2    0    0  0.00000000000E+00  0.00000000000E+00  0.12805387997E+04  0.13780999479E+04  0.50929348003E+03 0.  0.
        2    1    3    3  502    0 -0.18698345801E+03 -0.22687613471E+01  0.17255460992E+03  0.25444656464E+03  0.25500000920E-02 0. -1.
       -2    1    3    3    0  502  0.18698345801E+03  0.22687613471E+01  0.11079841898E+04  0.11236533832E+04  0.25500000920E-02 0.  1.
</event>
<event>
 5   0  0.5038436E-02  0.4976723E+03  0.7818609E-02  0.1014388E+00
       -1   -1    0    0    0  501  0.00000000000E+00  0.00000000000E+00  0.57669032602E+03  0.57669032605E+03  0.50400001928E-02 0. -1.
        1   -1    0    0  501    0  0.00000000000E+00  0.00000000000E+00 -0.10737033820E+03  0.10737033832E+03  0.50400001928E-02 0.  1.
    10030    2    1    2    0    0  0.00000000000E+00  0.00000000000E+00  0.46931998782E+03  0.68406066437E+03  0.49767232349E+03 0.  0.
        1    1    3    3  502    0  0.14412084665E+03  0.26983891377E+02 -0.41685187815E+02  0.15243557242E+03  0.50400001928E-02 0.  1.
       -1    1    3    3    0  502 -0.14412084665E+03 -0.26983891377E+02  0.51100517564E+03  0.53162509194E+03  0.50400001928E-02 0. -1.
</event>
<event>
 5   0  0.7698747E-02  0.5007550E+03  0.7818609E-02  0.1013582E+00
        2   -1    0    0  501    0  0.00000000000E+00  0.00000000000E+00  0.10196753841E+04  0.10196753841E+04  0.25500000920E-02 0.  1.
       -2   -1    0    0    0  501  0.00000000000E+00  0.00000000000E+00 -0.61479262135E+02  0.61479262188E+02  0.25500000920E-02 0. -1.
    10030    2    1    2    0    0  0.00000000000E+00  0.00000000000E+00  0.95819612198E+03  0.10811546463E+04  0.50075499104E+03 0.  0.
        2    1    3    3  502    0 -0.14510924616E+03 -0.20151975232E+03  0.41007645147E+03  0.47940546509E+03  0.25500000920E-02 0. -1.
       -2    1    3    3    0  502  0.14510924616E+03  0.20151975232E+03  0.54811967051E+03  0.60174918122E+03  0.25500000920E-02 0.  1.
</event>
<event>
 5   0  0.7698747E-02  0.5009230E+03  0.7818609E-02  0.1013538E+00
        2   -1    0    0  501    0  0.00000000000E+00  0.00000000000E+00  0.33241581290E+03  0.33241581291E+03  0.25500000920E-02 0. -1.
       -2   -1    0    0    0  501  0.00000000000E+00  0.00000000000E+00 -0.18871230120E+03  0.18871230122E+03  0.25500000920E-02 0.  1.
    10030    2    1    2    0    0  0.00000000000E+00  0.00000000000E+00  0.14370351169E+03  0.52112811413E+03  0.50092296021E+03 0.  0.
        2    1    3    3  502    0 -0.18292763566E+02  0.22075697126E+03  0.19345401173E+03  0.29409644714E+03  0.25500000920E-02 0. -1.
       -2    1    3    3    0  502  0.18292763566E+02 -0.22075697126E+03 -0.49750500032E+02  0.22703166699E+03  0.25500000920E-02 0.  1.
</event>
<event>
 5   0  0.7698747E-02  0.4991771E+03  0.7818609E-02  0.1013994E+00
        2   -1    0    0  501    0  0.00000000000E+00  0.00000000000E+00  0.30231149464E+03  0.30231149465E+03  0.25500000920E-02 0. -1.
       -2   -1    0    0    0  501  0.00000000000E+00  0.00000000000E+00 -0.20606045395E+03  0.20606045397E+03  0.25500000920E-02 0.  1.
    10030    2    1    2    0    0  0.00000000000E+00  0.00000000000E+00  0.96251040683E+02  0.50837194861E+03  0.49917709814E+03 0.  0.
        2    1    3    3  502    0  0.16002915632E+02 -0.23761921509E+03 -0.27918880949E+02  0.23978834127E+03  0.25500000920E-02 0. -1.
       -2    1    3    3    0  502 -0.16002915632E+02  0.23761921509E+03  0.12416992163E+03  0.26858360734E+03  0.25500000920E-02 0.  1.
</event>
<event>
 5   0  0.7881060E-02  0.5024465E+03  0.7818609E-02  0.1013142E+00
        2   -1    0    0  501    0  0.00000000000E+00  0.00000000000E+00  0.14724821606E+03  0.14724821608E+03  0.25500000920E-02 0.  1.
       -2   -1    0    0    0  501  0.00000000000E+00  0.00000000000E+00 -0.42861722213E+03  0.42861722214E+03  0.25500000920E-02 0. -1.
    10030    2    1    2    0    0  0.00000000000E+00  0.00000000000E+00 -0.28136900607E+03  0.57586543822E+03  0.50244650000E+03 0.  0.
        1    1    3    3  502    0  0.75380108455E+02  0.23952405293E+03 -0.13186690404E+03  0.28362442259E+03  0.50400001928E-02 0.  1.
       -1    1    3    3    0  502 -0.75380108455E+02 -0.23952405293E+03 -0.14950210203E+03  0.29224101563E+03  0.50400001928E-02 0. -1.
</event>
<event>
 5   0  0.4865501E-02  0.4974310E+03  0.7818609E-02  0.1014452E+00
       -1   -1    0    0    0  501  0.00000000000E+00  0.00000000000E+00  0.18722712347E+03  0.18722712353E+03  0.50400001928E-02 0. -1.
        1   -1    0    0  501    0  0.00000000000E+00  0.00000000000E+00 -0.33039760821E+03  0.33039760824E+03  0.50400001928E-02 0.  1.
    10030    2    1    2    0    0  0.00000000000E+00  0.00000000000E+00 -0.14317048474E+03  0.51762473178E+03  0.49743097536E+03 0.  0.
        2    1    3    3  502    0 -0.70401088185E+02  0.22720878295E+03  0.40228512966E+01  0.23789982683E+03  0.25500000920E-02 0. -1.
       -2    1    3    3    0  502  0.70401088185E+02 -0.22720878295E+03 -0.14719333604E+03  0.27972490495E+03  0.25500000920E-02 0.  1.
</event>
<event>
 5   0  0.7776070E-02  0.5001908E+03  0.7818609E-02  0.1013729E+00
       -2   -1    0    0    0  501  0.00000000000E+00  0.00000000000E+00  0.91017050312E+02  0.91017050348E+02  0.25500000920E-02 0.  1.
        2   -1    0    0  501    0  0.00000000000E+00  0.00000000000E+00 -0.68720865598E+03  0.68720865599E+03  0.25500000920E-02 0. -1.
    10030    2    1    2    0    0  0.00000000000E+00  0.00000000000E+00 -0.59619160567E+03  0.77822570634E+03  0.50019078293E+03 0.  0.
        4    1    3    3  502    0  0.32171334335E+01 -0.23009502236E+03 -0.45047475609E+03  0.50584897750E+03  0.12699999809E+01 0.  1.
       -4    1    3    3    0  502 -0.32171334335E+01  0.23009502236E+03 -0.14571684958E+03  0.27237672884E+03  0.12699999809E+01 0. -1.
</event>
<event>
 5   0  0.7933103E-02  0.4985797E+03  0.7818609E-02  0.1014150E+00
       -2   -1    0    0    0  501  0.00000000000E+00  0.00000000000E+00  0.93850383388E+02  0.93850383423E+02  0.25500000920E-02 0.  1.
        2   -1    0    0  501    0  0.00000000000E+00  0.00000000000E+00 -0.66217554936E+03  0.66217554936E+03  0.25500000920E-02 0. -1.
    10030    2    1    2    0    0  0.00000000000E+00  0.00000000000E+00 -0.56832516597E+03  0.75602593278E+03  0.49857969952E+03 0.  0.
        5    1    3    3  502    0 -0.10695205300E+03  0.21450697857E+03 -0.38780164580E+03  0.45592125633E+03  0.46999998093E+01 0. -1.
       -5    1    3    3    0  502  0.10695205300E+03 -0.21450697857E+03 -0.18052352017E+03  0.30010467645E+03  0.46999998093E+01 0.  1.
</event>
<event>
 5   0  0.4884478E-02  0.5047579E+03  0.7818609E-02  0.1012544E+00
       -1   -1    0    0    0  501  0.00000000000E+00  0.00000000000E+00  0.21141212811E+03  0.21141212817E+03  0.50400001928E-02 0.  1.
        1   -1    0    0  501    0  0.00000000000E+00  0.00000000000E+00 -0.30128425957E+03  0.30128425961E+03  0.50400001928E-02 0. -1.
    10030    2    1    2    0    0  0.00000000000E+00  0.00000000000E+00 -0.89872131465E+02  0.51269638778E+03  0.50475794796E+03 0.  0.
        3    1    3    3  502    0 -0.16373924607E+03  0.15447524072E+03 -0.16084472004E+03  0.27666617948E+03  0.10100000352E+00 0. -1.
       -3    1    3    3    0  502  0.16373924607E+03 -0.15447524072E+03  0.70972588577E+02  0.23603020830E+03  0.10100000352E+00 0.  1.
</event>
<event>
 5   0  0.7933103E-02  0.5006769E+03  0.7818609E-02  0.1013602E+00
       -2   -1    0    0    0  501  0.00000000000E+00  0.00000000000E+00  0.96393698248E+02  0.96393698282E+02  0.25500000920E-02 0. -1.
        2   -1    0    0  501    0  0.00000000000E+00  0.00000000000E+00 -0.65013926703E+03  0.65013926704E+03  0.25500000920E-02 0.  1.
    10030    2    1    2    0    0  0.00000000000E+00  0.00000000000E+00 -0.55374556878E+03  0.74653296532E+03  0.50067685523E+03 0.  0.
        5    1    3    3  502    0  0.23105184132E+03 -0.20561584949E+02 -0.41705905308E+03  0.47725053788E+03  0.46999998093E+01 0.  1.
       -5    1    3    3    0  502 -0.23105184132E+03  0.20561584949E+02 -0.13668651570E+03  0.26928242743E+03  0.46999998093E+01 0. -1.
</event>
<event>
 5   0  0.4884478E-02  0.4937362E+03  0.7818609E-02  0.1015427E+00
       -1   -1    0    0    0  501  0.00000000000E+00  0.00000000000E+00  0.54003960016E+03  0.54003960018E+03  0.50400001928E-02 0. -1.
        1   -1    0    0  501    0  0.00000000000E+00  0.00000000000E+00 -0.11285072468E+03  0.11285072480E+03  0.50400001928E-02 0.  1.
    10030    2    1    2    0    0  0.00000000000E+00  0.00000000000E+00  0.42718887548E+03  0.65289032498E+03  0.49373620601E+03 0.  0.
        3    1    3    3  502    0  0.90888232800E+02  0.76729500433E+02 -0.72459890753E+02  0.13927861669E+03  0.10100000352E+00 0.  1.
       -3    1    3    3    0  502 -0.90888232800E+02 -0.76729500433E+02  0.49964876623E+03  0.51361170829E+03  0.10100000352E+00 0. -1.
</event>
<event>
 5   0  0.7933103E-02  0.5007248E+03  0.7818609E-02  0.1013590E+00
       -2   -1    0    0    0  501  0.00000000000E+00  0.00000000000E+00  0.66125733896E+02  0.66125733945E+02  0.25500000920E-02 0.  1.
        2   -1    0    0  501    0  0.00000000000E+00  0.00000000000E+00 -0.94791131261E+03  0.94791131261E+03  0.25500000920E-02 0. -1.
    10030    2    1    2    0    0  0.00000000000E+00  0.00000000000E+00 -0.88178557871E+03  0.10140370466E+04  0.50072479963E+03 0.  0.
        5    1    3    3  502    0 -0.23785088640E+03 -0.67083429463E+02 -0.36024216029E+03  0.43688640940E+03  0.46999998093E+01 0. -1.
       -5    1    3    3    0  502  0.23785088640E+03  0.67083429463E+02 -0.52154341842E+03  0.57715063715E+03  0.46999998093E+01 0.  1.
</event>
<event>
 5   0  0.7698747E-02  0.5035616E+03  0.7818609E-02  0.1012853E+00
        2   -1    0    0  501    0  0.00000000000E+00  0.00000000000E+00  0.41023860235E+03  0.41023860236E+03  0.25500000920E-02 0. -1.
       -2   -1    0    0    0  501  0.00000000000E+00  0.00000000000E+00 -0.15452856211E+03  0.15452856213E+03  0.25500000920E-02 0.  1.
    10030    2    1    2    0    0  0.00000000000E+00  0.00000000000E+00  0.25571004025E+03  0.56476716449E+03  0.50356164012E+03 0.  0.
        2    1    3    3  502    0 -0.18447137330E+03  0.16223224987E+03  0.65970607877E+02  0.25436413186E+03  0.25500000920E-02 0. -1.
       -2    1    3    3    0  502  0.18447137330E+03 -0.16223224987E+03  0.18973943237E+03  0.31040303263E+03  0.25500000920E-02 0.  1.
</event>
<event>
 5   0  0.5038436E-02  0.5023996E+03  0.7818609E-02  0.1013154E+00
        1   -1    0    0  501    0  0.00000000000E+00  0.00000000000E+00  0.72105628450E+03  0.72105628452E+03  0.50400001928E-02 0.  1.
       -1   -1    0    0    0  501  0.00000000000E+00  0.00000000000E+00 -0.87512359218E+02  0.87512359363E+02  0.50400001928E-02 0. -1.
    10030    2    1    2    0    0  0.00000000000E+00  0.00000000000E+00  0.63354392529E+03  0.80856864388E+03  0.50239958858E+03 0.  0.
        1    1    3    3  502    0 -0.23042922163E+03 -0.91016235391E+02  0.25002969570E+03  0.35198924706E+03  0.50400001928E-02 0.  1.
       -1    1    3    3    0  502  0.23042922163E+03  0.91016235391E+02  0.38351422959E+03  0.45657939683E+03  0.50400001928E-02 0. -1.
</event>
<event>
 5   0  0.5038436E-02  0.4948269E+03  0.7818609E-02  0.1015138E+00
       -1   -1    0    0    0  501  0.00000000000E+00  0.00000000000E+00  0.88573016371E+02  0.88573016515E+02  0.50400001928E-02 0. -1.
        1   -1    0    0  501    0  0.00000000000E+00  0.00000000000E+00 -0.69110672978E+03  0.69110672980E+03  0.50400001928E-02 0.  1.
    10030    2    1    2    0    0  0.00000000000E+00  0.00000000000E+00 -0.60253371341E+03  0.77967974631E+03  0.49482686974E+03 0.  0.
        1    1    3    3  502    0  0.24035405762E+03  0.49300902374E+02 -0.25112327696E+03  0.35108909446E+03  0.50400001928E-02 0. -1.
       -1    1    3    3    0  502 -0.24035405762E+03 -0.49300902374E+02 -0.35141043645E+03  0.42859065186E+03  0.50400001928E-02 0.  1.
</event>
<event>
 5   0  0.7776070E-02  0.5075312E+03  0.7818609E-02  0.1011832E+00
       -2   -1    0    0    0  501  0.00000000000E+00  0.00000000000E+00  0.12591745148E+04  0.12591745148E+04  0.25500000920E-02 0. -1.
        2   -1    0    0  501    0  0.00000000000E+00  0.00000000000E+00 -0.51142229562E+02  0.51142229625E+02  0.25500000920E-02 0.  1.
    10030    2    1    2    0    0  0.00000000000E+00  0.00000000000E+00  0.12080322852E+04  0.13103167444E+04  0.50753124883E+03 0.  0.
        4    1    3    3  502    0  0.24924504040E+03  0.17919985915E+02  0.71805695422E+03  0.76029705936E+03  0.12699999809E+01 0. -1.
       -4    1    3    3    0  502 -0.24924504040E+03 -0.17919985915E+02  0.48997533097E+03  0.55001968503E+03  0.12699999809E+01 0.  1.
</event>
<event>
 5   0  0.7776070E-02  0.4963295E+03  0.7818609E-02  0.1014741E+00
        2   -1    0    0  501    0  0.00000000000E+00  0.00000000000E+00  0.11674619865E+04  0.11674619865E+04  0.25500000920E-02 0.  1.
       -2   -1    0    0    0  501  0.00000000000E+00  0.00000000000E+00 -0.52751816752E+02  0.52751816813E+02  0.25500000920E-02 0. -1.
    10030    2    1    2    0    0  0.00000000000E+00  0.00000000000E+00  0.11147101697E+04  0.12202138033E+04  0.49632949062E+03 0.  0.
        4    1    3    3  502    0  0.69733704866E+02 -0.12068540925E+03  0.10621296442E+04  0.10712370193E+04  0.12699999809E+01 0.  1.
       -4    1    3    3    0  502 -0.69733704866E+02  0.12068540925E+03  0.52580525558E+02  0.14897678399E+03  0.12699999809E+01 0. -1.
</event>
<event>
 5   0  0.7881060E-02  0.4989381E+03  0.7818609E-02  0.1014056E+00
        2   -1    0    0  501    0  0.00000000000E+00  0.00000000000E+00  0.99955121648E+03  0.99955121649E+03  0.25500000920E-02 0. -1.
       -2   -1    0    0    0  501  0.00000000000E+00  0.00000000000E+00 -0.62262745492E+02  0.62262745544E+02  0.25500000920E-02 0.  1.
    10030    2    1    2    0    0  0.00000000000E+00  0.00000000000E+00  0.93728847099E+03  0.10618139620E+04  0.49893808445E+03 0.  0.
        1    1    3    3  502    0  0.19836351809E+02  0.26809451218E+02  0.99478578452E+03  0.99534465621E+03  0.50400001928E-02 0. -1.
       -1    1    3    3    0  502 -0.19836351809E+02 -0.26809451218E+02 -0.57497313532E+02  0.66469305822E+02  0.50400001928E-02 0.  1.
</event>
<event>
 5   0  0.7933103E-02  0.5016162E+03  0.7818609E-02  0.1013358E+00
       -2   -1    0    0    0  501  0.00000000000E+00  0.00000000000E+00  0.24368779928E+03  0.24368779929E+03  0.25500000920E-02 0.  1.
        2   -1    0    0  501    0  0.00000000000E+00  0.00000000000E+00 -0.25813648738E+03  0.25813648739E+03  0.25500000920E-02 0. -1.
    10030    2    1    2    0    0  0.00000000000E+00  0.00000000000E+00 -0.14448688102E+02  0.50182428668E+03  0.50161623789E+03 0.  0.
        5    1    3    3  502    0  0.11831883984E+03 -0.10274087674E+03 -0.20307986931E+03  0.25655127934E+03  0.46999998093E+01 0. -1.
       -5    1    3    3    0  502 -0.11831883984E+03  0.10274087674E+03  0.18863118120E+03  0.24527300735E+03  0.46999998093E+01 0.  1.
</event>
<event>
 5   0  0.4884478E-02  0.5007164E+03  0.7818609E-02  0.1013592E+00
        1   -1    0    0  501    0  0.00000000000E+00  0.00000000000E+00  0.17196146279E+04  0.17196146279E+04  0.50400001928E-02 0.  1.
       -1   -1    0    0    0  501  0.00000000000E+00  0.00000000000E+00 -0.36449584034E+02  0.36449584383E+02  0.50400001928E-02 0. -1.
    10030    2    1    2    0    0  0.00000000000E+00  0.00000000000E+00  0.16831650439E+04  0.17560642123E+04  0.50071643952E+03 0.  0.
        3    1    3    3  502    0 -0.43568646172E+02  0.23106900457E+03  0.54013244396E+03  0.58909606943E+03  0.10100000352E+00 0. -1.
       -3    1    3    3    0  502  0.43568646172E+02 -0.23106900457E+03  0.11430325999E+04  0.11669681429E+04  0.10100000352E+00 0.  1.
</event>
<event>
 5   0  0.5038436E-02  0.5009625E+03  0.7818609E-02  0.1013528E+00
        1   -1    0    0  501    0  0.00000000000E+00  0.00000000000E+00  0.71973144902E+03  0.71973144904E+03  0.50400001928E-02 0. -1.
       -1   -1    0    0    0  501  0.00000000000E+00  0.00000000000E+00 -0.87172598584E+02  0.87172598730E+02  0.50400001928E-02 0.  1.
    10030    2    1    2    0    0  0.00000000000E+00  0.00000000000E+00  0.63255885044E+03  0.80690404777E+03  0.50096251660E+03 0.  0.
        1    1    3    3  502    0 -0.21026952752E+03 -0.87796929943E+02  0.48381843921E+03  0.53479141471E+03  0.50400001928E-02 0. -1.
       -1    1    3    3    0  502  0.21026952752E+03  0.87796929943E+02  0.14874041123E+03  0.27211263306E+03  0.50400001928E-02 0.  1.
</event>
<event>
 5   0  0.7698747E-02  0.4949434E+03  0.7818609E-02  0.1015107E+00
        2   -1    0    0  501    0  0.00000000000E+00  0.00000000000E+00  0.10447921986E+04  0.10447921986E+04  0.25500000920E-02 0.  1.
       -2   -1    0    0    0  501  0.00000000000E+00  0.00000000000E+00 -0.58616672501E+02  0.58616672557E+02  0.25500000920E-02 0. -1.
    10030    2    1    2    0    0  0.00000000000E+00  0.00000000000E+00  0.98617552612E+03  0.11034088712E+04  0.49494339948E+03 0.  0.
        2    1    3    3  502    0 -0.22478075033E+03  0.96029514381E+02  0.57926323589E+03  0.62872406492E+03  0.25500000920E-02 0.  1.
       -2    1    3    3    0  502  0.22478075033E+03 -0.96029514381E+02  0.40691229023E+03  0.47468480626E+03  0.25500000920E-02 0. -1.
</event>
<event>
 5   0  0.4803890E-02  0.4990141E+03  0.7818609E-02  0.1014037E+00
       -1   -1    0    0    0  501  0.00000000000E+00  0.00000000000E+00  0.95504099634E+02  0.95504099767E+02  0.50400001928E-02 0.  1.
        1   -1    0    0  501    0  0.00000000000E+00  0.00000000000E+00 -0.65184395831E+03  0.65184395833E+03  0.50400001928E-02 0. -1.
    10030    2    1    2    0    0  0.00000000000E+00  0.00000000000E+00 -0.55633985867E+03  0.74734805809E+03  0.49901410961E+03 0.  0.
        5    1    3    3  502    0  0.24522530126E+03 -0.38635201954E+00 -0.34673679496E+03  0.42471648499E+03  0.46999998093E+01 0. -1.
       -5    1    3    3    0  502 -0.24522530126E+03  0.38635201954E+00 -0.20960306371E+03  0.32263157310E+03  0.46999998093E+01 0.  1.
</event>
<event>
 5   0  0.5038436E-02  0.4991438E+03  0.7818609E-02  0.1014003E+00
        1   -1    0    0  501    0  0.00000000000E+00  0.00000000000E+00  0.13353374143E+04  0.13353374143E+04  0.50400001928E-02 0.  1.
       -1   -1    0    0    0  501  0.00000000000E+00  0.00000000000E+00 -0.46644486164E+02  0.46644486437E+02  0.50400001928E-02 0. -1.
    10030    2    1    2    0    0  0.00000000000E+00  0.00000000000E+00  0.12886929281E+04  0.13819819008E+04  0.49914377785E+03 0.  0.
        1    1    3    3  502    0 -0.12735679584E+03 -0.16476350546E+03  0.26351753472E+03  0.33586940514E+03  0.50400001928E-02 0. -1.
       -1    1    3    3    0  502  0.12735679584E+03  0.16476350546E+03  0.10251753934E+04  0.10461124956E+04  0.50400001928E-02 0.  1.
</event>
<event>
 5   0  0.4865501E-02  0.4907166E+03  0.7818609E-02  0.1016231E+00
       -1   -1    0    0    0  501  0.00000000000E+00  0.00000000000E+00  0.10912946966E+03  0.10912946978E+03  0.50400001928E-02 0. -1.
        1   -1    0    0  501    0  0.00000000000E+00  0.00000000000E+00 -0.55164472045E+03  0.55164472048E+03  0.50400001928E-02 0.  1.
    10030    2    1    2    0    0  0.00000000000E+00  0.00000000000E+00 -0.44251525079E+03  0.66077419025E+03  0.49071660184E+03 0.  0.
        2    1    3    3  502    0  0.20887690514E+02 -0.20263646797E+03 -0.37105661247E+02  0.20706198074E+03  0.25500000920E-02 0. -1.
       -2    1    3    3    0  502 -0.20887690514E+02  0.20263646797E+03 -0.40540958954E+03  0.45371220952E+03  0.25500000920E-02 0.  1.
</event>
<event>
 5   0  0.7698747E-02  0.4974622E+03  0.7818609E-02  0.1014443E+00
       -2   -1    0    0    0  501  0.00000000000E+00  0.00000000000E+00  0.13008936644E+03  0.13008936647E+03  0.25500000920E-02 0. -1.
        2   -1    0    0  501    0  0.00000000000E+00  0.00000000000E+00 -0.47557422406E+03  0.47557422406E+03  0.25500000920E-02 0.  1.
    10030    2    1    2    0    0  0.00000000000E+00  0.00000000000E+00 -0.34548485761E+03  0.60566359053E+03  0.49746215741E+03 0.  0.
        2    1    3    3  502    0 -0.15095920315E+03 -0.84629603272E+02 -0.39025165260E+03  0.42690420838E+03  0.25500000920E-02 0.  1.
       -2    1    3    3    0  502  0.15095920315E+03  0.84629603272E+02  0.44766794990E+02  0.17875938215E+03  0.25500000920E-02 0. -1.
</event>
<event>
 5   0  0.8208720E-02  0.4989936E+03  0.7818609E-02  0.1014042E+00
       -2   -1    0    0    0  501  0.00000000000E+00  0.00000000000E+00  0.47927507631E+02  0.47927507699E+02  0.25500000920E-02 0. -1.
        2   -1    0    0  501    0  0.00000000000E+00  0.00000000000E+00 -0.12988086269E+04  0.12988086269E+04  0.25500000920E-02 0.  1.
    10030    2    1    2    0    0  0.00000000000E+00  0.00000000000E+00 -0.12508811193E+04  0.13467361346E+04  0.49899362892E+03 0.  0.
        3    1    3    3  502    0  0.11154180580E+03 -0.73596747132E+02 -0.56806337342E+02  0.14520683797E+03  0.10100000352E+00 0. -1.
       -3    1    3    3    0  502 -0.11154180580E+03  0.73596747132E+02 -0.11940747819E+04  0.12015292967E+04  0.10100000352E+00 0.  1.
</event>
<event>
 5   0  0.4803890E-02  0.4985750E+03  0.7818609E-02  0.1014152E+00
        1   -1    0    0  501    0  0.00000000000E+00  0.00000000000E+00  0.13987867288E+04  0.13987867288E+04  0.50400001928E-02 0. -1.
       -1   -1    0    0    0  501  0.00000000000E+00  0.00000000000E+00 -0.44427248622E+02  0.44427248907E+02  0.50400001928E-02 0.  1.
    10030    2    1    2    0    0  0.00000000000E+00  0.00000000000E+00  0.13543594802E+04  0.14432139777E+04  0.49857495317E+03 0.  0.
        5    1    3    3  502    0 -0.16637223355E+02  0.42250889774E+02  0.13865839029E+04  0.13873351955E+04  0.46999998093E+01 0. -1.
       -5    1    3    3    0  502  0.16637223355E+02 -0.42250889774E+02 -0.32224422703E+02  0.55878782237E+02  0.46999998093E+01 0.  1.
</event>
<event>
 5   0  0.5038436E-02  0.5010559E+03  0.7818609E-02  0.1013504E+00
       -1   -1    0    0    0  501  0.00000000000E+00  0.00000000000E+00  0.68300778258E+02  0.68300778444E+02  0.50400001928E-02 0. -1.
        1   -1    0    0  501    0  0.00000000000E+00  0.00000000000E+00 -0.91893919277E+03  0.91893919279E+03  0.50400001928E-02 0.  1.
    10030    2    1    2    0    0  0.00000000000E+00  0.00000000000E+00 -0.85063841452E+03  0.98723997123E+03  0.50105593355E+03 0.  0.
        1    1    3    3  502    0  0.10542644835E+03  0.13712702198E+03 -0.78240767229E+03  0.80129914629E+03  0.50400001928E-02 0.  1.
       -1    1    3    3    0  502 -0.10542644835E+03 -0.13712702198E+03 -0.68230742227E+02  0.18594082494E+03  0.50400001928E-02 0. -1.
</event>
<event>
 5   0  0.4884478E-02  0.5048297E+03  0.7818609E-02  0.1012526E+00
       -1   -1    0    0    0  501  0.00000000000E+00  0.00000000000E+00  0.21359589604E+03  0.21359589610E+03  0.50400001928E-02 0.  1.
        1   -1    0    0  501    0  0.00000000000E+00  0.00000000000E+00 -0.29828879064E+03  0.29828879068E+03  0.50400001928E-02 0. -1.
    10030    2    1    2    0    0  0.00000000000E+00  0.00000000000E+00 -0.84692894598E+02  0.51188468678E+03  0.50482971997E+03 0.  0.
        3    1    3    3  502    0 -0.18823576150E+03  0.15986942886E+03 -0.95251411277E+02  0.26469563227E+03  0.10100000352E+00 0. -1.
       -3    1    3    3    0  502  0.18823576150E+03 -0.15986942886E+03  0.10558516679E+02  0.24718905451E+03  0.10100000352E+00 0.  1.
</event>
<event>
 5   0  0.7933103E-02  0.4980113E+03  0.7818609E-02  0.1014299E+00
       -2   -1    0    0    0  501  0.00000000000E+00  0.00000000000E+00  0.34608994293E+02  0.34608994387E+02  0.25500000920E-02 0.  1.
        2   -1    0    0  501    0  0.00000000000E+00  0.00000000000E+00 -0.17915520379E+04  0.17915520379E+04  0.25500000920E-02 0. -1.
    10030    2    1    2    0    0  0.00000000000E+00  0.00000000000E+00 -0.17569430436E+04  0.18261610323E+04  0.49801130246E+03 0.  0.
        5    1    3    3  502    0  0.33328962285E+02  0.22446292650E+03 -0.50295270639E+03  0.55179519748E+03  0.46999998093E+01 0.  1.
       -5    1    3    3    0  502 -0.33328962285E+02 -0.22446292650E+03 -0.12539903373E+04  0.12743658348E+04  0.46999998093E+01 0. -1.
</event>
<event>
 5   0  0.4803890E-02  0.4965205E+03  0.7818609E-02  0.1014691E+00
        1   -1    0    0  501    0  0.00000000000E+00  0.00000000000E+00  0.94070284865E+03  0.94070284866E+03  0.50400001928E-02 0. -1.
       -1   -1    0    0    0  501  0.00000000000E+00  0.00000000000E+00 -0.65518184069E+02  0.65518184263E+02  0.50400001928E-02 0.  1.
    10030    2    1    2    0    0  0.00000000000E+00  0.00000000000E+00  0.87518466458E+03  0.10062210329E+04  0.49652046281E+03 0.  0.
        5    1    3    3  502    0  0.20087694992E+03  0.10922834165E+03  0.63332628726E+03  0.67335477704E+03  0.46999998093E+01 0. -1.
       -5    1    3    3    0  502 -0.20087694992E+03 -0.10922834165E+03  0.24185837732E+03  0.33286625589E+03  0.46999998093E+01 0.  1.
</event>
<event>
 5   0  0.7698747E-02  0.5035816E+03  0.7818609E-02  0.1012848E+00
        2   -1    0    0  501    0  0.00000000000E+00  0.00000000000E+00  0.22540261326E+03  0.22540261327E+03  0.25500000920E-02 0. -1.
       -2   -1    0    0    0  501  0.00000000000E+00  0.00000000000E+00 -0.28126830301E+03  0.28126830302E+03  0.25500000920E-02 0.  1.
    10030    2    1    2    0    0  0.00000000000E+00  0.00000000000E+00 -0.55865689750E+02  0.50667091630E+03  0.50358161417E+03 0.  0.
        2    1    3    3  502    0  0.10307007581E+03  0.13725029657E+03  0.15741869594E+03  0.23289854073E+03  0.25500000920E-02 0. -1.
       -2    1    3    3    0  502 -0.10307007581E+03 -0.13725029657E+03 -0.21328438569E+03  0.27377237557E+03  0.25500000920E-02 0.  1.
</event>
<event>
 5   0  0.7698747E-02  0.4996675E+03  0.7818609E-02  0.1013866E+00
       -2   -1    0    0    0  501  0.00000000000E+00  0.00000000000E+00  0.13757989684E+03  0.13757989686E+03  0.25500000920E-02 0. -1.
        2   -1    0    0  501    0  0.00000000000E+00  0.00000000000E+00 -0.45367740720E+03  0.45367740721E+03  0.25500000920E-02 0.  1.
    10030    2    1    2    0    0  0.00000000000E+00  0.00000000000E+00 -0.31609751036E+03  0.59125730407E+03  0.49966745297E+03 0.  0.
        2    1    3    3  502    0 -0.18731911148E+03  0.15771069986E+03 -0.99409306671E+02  0.26427887664E+03  0.25500000920E-02 0. -1.
       -2    1    3    3    0  502  0.18731911148E+03 -0.15771069986E+03 -0.21668820369E+03  0.32697842743E+03  0.25500000920E-02 0.  1.
</event>
<event>
 5   0  0.7933103E-02  0.5031170E+03  0.7818609E-02  0.1012969E+00
       -2   -1    0    0    0  501  0.00000000000E+00  0.00000000000E+00  0.11266463449E+03  0.11266463452E+03  0.25500000920E-02 0.  1.
        2   -1    0    0  501    0  0.00000000000E+00  0.00000000000E+00 -0.56168194681E+03  0.56168194681E+03  0.25500000920E-02 0. -1.
    10030    2    1    2    0    0  0.00000000000E+00  0.00000000000E+00 -0.44901731232E+03  0.67434658133E+03  0.50311704899E+03 0.  0.
        5    1    3    3  502    0  0.16510387899E+02 -0.21958270963E+03 -0.38740482535E+03  0.44563858448E+03  0.46999998093E+01 0. -1.
       -5    1    3    3    0  502 -0.16510387899E+02  0.21958270963E+03 -0.61612486973E+02  0.22870799685E+03  0.46999998093E+01 0.  1.
</event>
<event>
 5   0  0.7881060E-02  0.5015257E+03  0.7818609E-02  0.1013381E+00
        2   -1    0    0  501    0  0.00000000000E+00  0.00000000000E+00  0.69408836918E+03  0.69408836918E+03  0.25500000920E-02 0.  1.
       -2   -1    0    0    0  501  0.00000000000E+00  0.00000000000E+00 -0.90596533236E+02  0.90596533272E+02  0.25500000920E-02 0. -1.
    10030    2    1    2    0    0  0.00000000000E+00  0.00000000000E+00  0.60349183594E+03  0.78468490245E+03  0.50152567242E+03 0.  0.
        1    1    3    3  502    0 -0.24093555845E+03  0.67760282666E+02  0.32601484806E+03  0.41100739703E+03  0.50400001928E-02 0. -1.
       -1    1    3    3    0  502  0.24093555845E+03 -0.67760282666E+02  0.27747698788E+03  0.37367750543E+03  0.50400001928E-02 0.  1.
</event>
<event>
 5   0  0.7698747E-02  0.4991962E+03  0.7818609E-02  0.1013989E+00
       -2   -1    0    0    0  501  0.00000000000E+00  0.00000000000E+00  0.36542251595E+02  0.36542251684E+02  0.25500000920E-02 0.  1.
        2   -1    0    0  501    0  0.00000000000E+00  0.00000000000E+00 -0.17048538741E+04  0.17048538741E+04  0.25500000920E-02 0. -1.
    10030    2    1    2    0    0  0.00000000000E+00  0.00000000000E+00 -0.16683116225E+04  0.17413961257E+04  0.49919615094E+03 0.  0.
        2    1    3    3  502    0 -0.48387953372E+02  0.29775182881E+02  0.13685167070E+02  0.58440049207E+02  0.25500000920E-02 0.  1.
       -2    1    3    3    0  502  0.48387953372E+02 -0.29775182881E+02 -0.16819967895E+04  0.16829560765E+04  0.25500000920E-02 0. -1.
</event>
<event>
 5   0  0.7881060E-02  0.4945268E+03  0.7818609E-02  0.1015217E+00
       -2   -1    0    0    0  501  0.00000000000E+00  0.00000000000E+00  0.58645364811E+02  0.58645364866E+02  0.25500000920E-02 0.  1.
        2   -1    0    0  501    0  0.00000000000E+00  0.00000000000E+00 -0.10425239246E+04  0.10425239246E+04  0.25500000920E-02 0. -1.
    10030    2    1    2    0    0  0.00000000000E+00  0.00000000000E+00 -0.98387855979E+03  0.11011692895E+04  0.49452682805E+03 0.  0.
        1    1    3    3  502    0  0.49086977998E+02  0.22806736608E+03 -0.67440670126E+03  0.71361660128E+03  0.50400001928E-02 0.  1.
       -1    1    3    3    0  502 -0.49086977998E+02 -0.22806736608E+03 -0.30947185853E+03  0.38755268820E+03  0.50400001928E-02 0. -1.
</event>
<event>
 5   0  0.4865501E-02  0.4981505E+03  0.7818609E-02  0.1014263E+00
       -1   -1    0    0    0  501  0.00000000000E+00  0.00000000000E+00  0.67463154594E+03  0.67463154596E+03  0.50400001928E-02 0.  1.
        1   -1    0    0  501    0  0.00000000000E+00  0.00000000000E+00 -0.91959058563E+02  0.91959058701E+02  0.50400001928E-02 0. -1.
    10030    2    1    2    0    0  0.00000000000E+00  0.00000000000E+00  0.58267248738E+03  0.76659060466E+03  0.49815050698E+03 0.  0.
        2    1    3    3  502    0  0.23084851304E+03  0.65508365245E+02  0.18861024311E+03  0.30521501552E+03  0.25500000920E-02 0. -1.
       -2    1    3    3    0  502 -0.23084851304E+03 -0.65508365245E+02  0.39406224427E+03  0.46137558914E+03  0.25500000920E-02 0.  1.
</event>
<event>
 5   0  0.5191358E-02  0.5004871E+03  0.7818609E-02  0.1013652E+00
        1   -1    0    0  501    0  0.00000000000E+00  0.00000000000E+00  0.10176728491E+04  0.10176728491E+04  0.50400001928E-02 0. -1.
       -1   -1    0    0    0  501  0.00000000000E+00  0.00000000000E+00 -0.61534337870E+02  0.61534338077E+02  0.50400001928E-02 0.  1.
    10030    2    1    2    0    0  0.00000000000E+00  0.00000000000E+00  0.95613851127E+03  0.10792071872E+04  0.50048706300E+03 0.  0.
        4    1    3    3  502    0 -0.98388740281E+02  0.13431471364E+03  0.75239898926E+02  0.18271136201E+03  0.12699999809E+01 0.  1.
       -4    1    3    3    0  502  0.98388740281E+02 -0.13431471364E+03  0.88089861234E+03  0.89649582522E+03  0.12699999809E+01 0. -1.
</event>
<event>
 5   0  0.5191358E-02  0.4987767E+03  0.7818609E-02  0.1014099E+00
        1   -1    0    0  501    0  0.00000000000E+00  0.00000000000E+00  0.11092304546E+04  0.11092304547E+04  0.50400001928E-02 0.  1.
       -1   -1    0    0    0  501  0.00000000000E+00  0.00000000000E+00 -0.56070008587E+02  0.56070008813E+02  0.50400001928E-02 0. -1.
    10030    2    1    2    0    0  0.00000000000E+00  0.00000000000E+00  0.10531604461E+04  0.11653004635E+04  0.49877674868E+03 0.  0.
        4    1    3    3  502    0  0.18160632610E+03 -0.52117677090E+01  0.92570715480E+03  0.94336809865E+03  0.12699999809E+01 0.  1.
       -4    1    3    3    0  502 -0.18160632610E+03  0.52117677090E+01  0.12745329125E+03  0.22193236481E+03  0.12699999809E+01 0. -1.
</event>
<event>
 5   0  0.7776070E-02  0.5058580E+03  0.7818609E-02  0.1012261E+00
       -2   -1    0    0    0  501  0.00000000000E+00  0.00000000000E+00  0.59816007208E+02  0.59816007262E+02  0.25500000920E-02 0.  1.
        2   -1    0    0  501    0  0.00000000000E+00  0.00000000000E+00 -0.10694975983E+04  0.10694975983E+04  0.25500000920E-02 0. -1.
    10030    2    1    2    0    0  0.00000000000E+00  0.00000000000E+00 -0.10096815910E+04  0.11293136055E+04  0.50585798829E+03 0.  0.
        4    1    3    3  502    0  0.17586541642E+03 -0.18168267215E+03 -0.51790125570E+03  0.57633372416E+03  0.12699999809E+01 0.  1.
       -4    1    3    3    0  502 -0.17586541642E+03  0.18168267215E+03 -0.49178033534E+03  0.55297988135E+03  0.12699999809E+01 0. -1.
</event>
<event>
 5   0  0.4803890E-02  0.4844246E+03  0.7818609E-02  0.1017926E+00
       -1   -1    0    0    0  501  0.00000000000E+00  0.00000000000E+00  0.34161318039E+03  0.34161318043E+03  0.50400001928E-02 0. -1.
        1   -1    0    0  501    0  0.00000000000E+00  0.00000000000E+00 -0.17173455898E+03  0.17173455906E+03  0.50400001928E-02 0.  1.
    10030    2    1    2    0    0  0.00000000000E+00  0.00000000000E+00  0.16987862141E+03  0.51334773948E+03  0.48442456133E+03 0.  0.
        5    1    3    3  502    0 -0.71054989492E+02  0.54087271020E+02 -0.15360161438E+03  0.17773516916E+03  0.46999998093E+01 0.  1.
       -5    1    3    3    0  502  0.71054989492E+02 -0.54087271020E+02  0.32348023579E+03  0.33561257032E+03  0.46999998093E+01 0. -1.
</event>
<event>
 5   0  0.4865501E-02  0.4961316E+03  0.7818609E-02  0.1014794E+00
        1   -1    0    0  501    0  0.00000000000E+00  0.00000000000E+00  0.11686192811E+04  0.11686192811E+04  0.50400001928E-02 0.  1.
       -1   -1    0    0    0  501  0.00000000000E+00  0.00000000000E+00 -0.52657560040E+02  0.52657560282E+02  0.50400001928E-02 0. -1.
    10030    2    1    2    0    0  0.00000000000E+00  0.00000000000E+00  0.11159617211E+04  0.12212768414E+04  0.49613159590E+03 0.  0.
        2    1    3    3  502    0 -0.20173385026E+03  0.64790890558E+02  0.24042286523E+03  0.32046460019E+03  0.25500000920E-02 0. -1.
       -2    1    3    3    0  502  0.20173385026E+03 -0.64790890558E+02  0.87553885584E+03  0.90081224122E+03  0.25500000920E-02 0.  1.
</event>
<event>
 5   0  0.5191358E-02  0.4979459E+03  0.7818609E-02  0.1014316E+00
       -1   -1    0    0    0  501  0.00000000000E+00  0.00000000000E+00  0.32670424940E+02  0.32670425329E+02  0.50400001928E-02 0.  1.
        1   -1    0    0  501    0  0.00000000000E+00  0.00000000000E+00 -0.18973591145E+04  0.18973591146E+04  0.50400001928E-02 0. -1.
    10030    2    1    2    0    0  0.00000000000E+00  0.00000000000E+00 -0.18646886896E+04  0.19300295399E+04  0.49794589633E+03 0.  0.
        4    1    3    3  502    0 -0.21866696460E+03 -0.53385646093E+02 -0.13447431805E+04  0.13634519071E+04  0.12699999809E+01 0. -1.
       -4    1    3    3    0  502  0.21866696460E+03  0.53385646093E+02 -0.51994550914E+03  0.56657763280E+03  0.12699999809E+01 0.  1.
</event>
<event>
 5   0  0.5191358E-02  0.5013915E+03  0.7818609E-02  0.1013416E+00
       -1   -1    0    0    0  501  0.00000000000E+00  0.00000000000E+00  0.55626210069E+02  0.55626210297E+02  0.50400001928E-02 0. -1.
        1   -1    0    0  501    0  0.00000000000E+00  0.00000000000E+00 -0.11298334188E+04  0.11298334188E+04  0.50400001928E-02 0.  1.
    10030    2    1    2    0    0  0.00000000000E+00  0.00000000000E+00 -0.10742072088E+04  0.11854596291E+04  0.50139146878E+03 0.  0.
        4    1    3    3  502    0 -0.40940493850E+02  0.17591489018E+03 -0.94814907144E+03  0.96519969291E+03  0.12699999809E+01 0.  1.
       -4    1    3    3    0  502  0.40940493850E+02 -0.17591489018E+03 -0.12605813733E+03  0.22025993623E+03  0.12699999809E+01 0. -1.
</event>
<event>
 5   0  0.8208720E-02  0.4989690E+03  0.7818609E-02  0.1014048E+00
        2   -1    0    0  501    0  0.00000000000E+00  0.00000000000E+00  0.86495179464E+03  0.86495179465E+03  0.25500000920E-02 0. -1.
       -2   -1    0    0    0  501  0.00000000000E+00  0.00000000000E+00 -0.71960664058E+02  0.71960664103E+02  0.25500000920E-02 0.  1.
    10030    2    1    2    0    0  0.00000000000E+00  0.00000000000E+00  0.79299113058E+03  0.93691245875E+03  0.49896895913E+03 0.  0.
        3    1    3    3  502    0 -0.23177498584E+03 -0.54206412326E+02  0.25617599032E+03  0.34969147461E+03  0.10100000352E+00 0. -1.
       -3    1    3    3    0  502  0.23177498584E+03  0.54206412326E+02  0.53681514026E+03  0.58722098414E+03  0.10100000352E+00 0.  1.
</event>
<event>
 5   0  0.4865501E-02  0.5023226E+03  0.7818609E-02  0.1013174E+00
       -1   -1    0    0    0  501  0.00000000000E+00  0.00000000000E+00  0.19542117452E+03  0.19542117459E+03  0.50400001928E-02 0.  1.
        1   -1    0    0  501    0  0.00000000000E+00  0.00000000000E+00 -0.32280024006E+03  0.32280024010E+03  0.50400001928E-02 0. -1.
    10030    2    1    2    0    0  0.00000000000E+00  0.00000000000E+00 -0.12737906554E+03  0.51822141469E+03  0.50232261377E+03 0.  0.
        2    1    3    3  502    0  0.18941177355E+03  0.13437836667E+03 -0.16235997607E+03  0.28336394835E+03  0.25500000920E-02 0. -1.
       -2    1    3    3    0  502 -0.18941177355E+03 -0.13437836667E+03  0.34980910535E+02  0.23485746634E+03  0.25500000920E-02 0.  1.
</event>
<event>
 5   0  0.8208720E-02  0.4989720E+03  0.7818609E-02  0.1014048E+00
       -2   -1    0    0    0  501  0.00000000000E+00  0.00000000000E+00  0.24744009658E+03  0.24744009660E+03  0.25500000920E-02 0.  1.
        2   -1    0    0  501    0  0.00000000000E+00  0.00000000000E+00 -0.25154883441E+03  0.25154883442E+03  0.25500000920E-02 0. -1.
    10030    2    1    2    0    0  0.00000000000E+00  0.00000000000E+00 -0.41087378249E+01  0.49898893102E+03  0.49897201480E+03 0.  0.
        3    1    3    3  502    0 -0.18563705816E+03 -0.50148321756E+02  0.15690788890E+03  0.24818555022E+03  0.10100000352E+00 0.  1.
       -3    1    3    3    0  502  0.18563705816E+03  0.50148321756E+02 -0.16101662672E+03  0.25080338080E+03  0.10100000352E+00 0. -1.
</event>
<event>
 5   0  0.4803890E-02  0.5028074E+03  0.7818609E-02  0.1013049E+00
        1   -1    0    0  501    0  0.00000000000E+00  0.00000000000E+00  0.92356240886E+03  0.92356240887E+03  0.50400001928E-02 0.  1.
       -1   -1    0    0    0  501  0.00000000000E+00  0.00000000000E+00 -0.68434803327E+02  0.68434803513E+02  0.50400001928E-02 0. -1.
    10030    2    1    2    0    0  0.00000000000E+00  0.00000000000E+00  0.85512760553E+03  0.99199721238E+03  0.50280736633E+03 0.  0.
        5    1    3    3  502    0 -0.16125539838E+02  0.24615329188E+03  0.33232593042E+03  0.41390106326E+03  0.46999998093E+01 0.  1.
       -5    1    3    3    0  502  0.16125539838E+02 -0.24615329188E+03  0.52280167511E+03  0.57809614912E+03  0.46999998093E+01 0. -1.
</event>
<event>
 5   0  0.8208720E-02  0.4993298E+03  0.7818609E-02  0.1013954E+00
       -2   -1    0    0    0  501  0.00000000000E+00  0.00000000000E+00  0.18870795217E+03  0.18870795219E+03  0.25500000920E-02 0. -1.
        2   -1    0    0  501    0  0.00000000000E+00  0.00000000000E+00 -0.33031231669E+03  0.33031231670E+03  0.25500000920E-02 0.  1.
    10030    2    1    2    0    0  0.00000000000E+00  0.00000000000E+00 -0.14160436452E+03  0.51902026889E+03  0.49932979429E+03 0.  0.
        3    1    3    3  502    0  0.10979563262E+03 -0.62661359460E+02 -0.29458487905E+03  0.32056479544E+03  0.10100000352E+00 0.  1.
       -3    1    3    3    0  502 -0.10979563262E+03  0.62661359460E+02  0.15298051453E+03  0.19845547344E+03  0.10100000352E+00 0. -1.
</event>
<event>
 5   0  0.5038436E-02  0.4963147E+03  0.7818609E-02  0.1014745E+00
       -1   -1    0    0    0  501  0.00000000000E+00  0.00000000000E+00  0.68718670020E+03  0.68718670022E+03  0.50400001928E-02 0.  1.
        1   -1    0    0  501    0  0.00000000000E+00  0.00000000000E+00 -0.89614741382E+02  0.89614741524E+02  0.50400001928E-02 0. -1.
    10030    2    1    2    0    0  0.00000000000E+00  0.00000000000E+00  0.59757195882E+03  0.77680144174E+03  0.49631465214E+03 0.  0.
        1    1    3    3  502    0 -0.19423656306E+03 -0.98749585722E+02  0.11291798859E+03  0.24541759367E+03  0.50400001928E-02 0. -1.
       -1    1    3    3    0  502  0.19423656306E+03  0.98749585722E+02  0.48465397023E+03  0.53138384807E+03  0.50400001928E-02 0.  1.
</event>
<event>
 5   0  0.4803890E-02  0.4557878E+03  0.7818609E-02  0.1026010E+00
        1   -1    0    0  501    0  0.00000000000E+00  0.00000000000E+00  0.70172664274E+03  0.70172664276E+03  0.50400001928E-02 0. -1.
       -1   -1    0    0    0  501  0.00000000000E+00  0.00000000000E+00 -0.74011198580E+02  0.74011198752E+02  0.50400001928E-02 0.  1.
    10030    2    1    2    0    0  0.00000000000E+00  0.00000000000E+00  0.62771544416E+03  0.77573784151E+03  0.45578780141E+03 0.  0.
        5    1    3    3  502    0  0.41725059014E+02 -0.10427740644E+03 -0.23539750187E+02  0.11485193895E+03  0.46999998093E+01 0.  1.
       -5    1    3    3    0  502 -0.41725059014E+02  0.10427740644E+03  0.65125519435E+03  0.66088590256E+03  0.46999998093E+01 0. -1.
</event>
<event>
 5   0  0.7933103E-02  0.4703398E+03  0.7818609E-02  0.1021824E+00
       -2   -1    0    0    0  501  0.00000000000E+00  0.00000000000E+00  0.22788842549E+03  0.22788842551E+03  0.25500000920E-02 0.  1.
        2   -1    0    0  501    0  0.00000000000E+00  0.00000000000E+00 -0.24268402149E+03  0.24268402151E+03  0.25500000920E-02 0. -1.
    10030    2    1    2    0    0  0.00000000000E+00  0.00000000000E+00 -0.14795595999E+02  0.47057244702E+03  0.47033979018E+03 0.  0.
        5    1    3    3  502    0  0.13395022980E+03 -0.63542425924E+01 -0.20062476139E+03  0.24136160702E+03  0.46999998093E+01 0. -1.
       -5    1    3    3    0  502 -0.13395022980E+03  0.63542425924E+01  0.18582916539E+03  0.22921083999E+03  0.46999998093E+01 0.  1.
</event>
<event>
 5   0  0.5038436E-02  0.5001243E+03  0.7818609E-02  0.1013746E+00
       -1   -1    0    0    0  501  0.00000000000E+00  0.00000000000E+00  0.59596198971E+02  0.59596199184E+02  0.50400001928E-02 0. -1.
        1   -1    0    0  501    0  0.00000000000E+00  0.00000000000E+00 -0.10492461005E+04  0.10492461005E+04  0.50400001928E-02 0.  1.
    10030    2    1    2    0    0  0.00000000000E+00  0.00000000000E+00 -0.98964990151E+03  0.11088422997E+04  0.50012430254E+03 0.  0.
        1    1    3    3  502    0 -0.21240356759E+03 -0.35565857278E+02 -0.77659176207E+03  0.80590009968E+03  0.50400001928E-02 0.  1.
       -1    1    3    3    0  502  0.21240356759E+03  0.35565857278E+02 -0.21305813944E+03  0.30294219999E+03  0.50400001928E-02 0. -1.
</event>
<event>
 5   0  0.4865501E-02  0.5095992E+03  0.7818609E-02  0.1011303E+00
        1   -1    0    0  501    0  0.00000000000E+00  0.00000000000E+00  0.12482388637E+03  0.12482388647E+03  0.50400001928E-02 0.  1.
       -1   -1    0    0    0  501  0.00000000000E+00  0.00000000000E+00 -0.52011541169E+03  0.52011541172E+03  0.50400001928E-02 0. -1.
    10030    2    1    2    0    0  0.00000000000E+00  0.00000000000E+00 -0.39529152533E+03  0.64493929819E+03  0.50959916440E+03 0.  0.
        2    1    3    3  502    0  0.13045470333E+03 -0.21340684460E+03 -0.25915245469E+03  0.36016788547E+03  0.25500000920E-02 0. -1.
       -2    1    3    3    0  502 -0.13045470333E+03  0.21340684460E+03 -0.13613907063E+03  0.28477141272E+03  0.25500000920E-02 0.  1.
</event>
<event>
 5   0  0.7698747E-02  0.5036048E+03  0.7818609E-02  0.1012842E+00
        2   -1    0    0  501    0  0.00000000000E+00  0.00000000000E+00  0.92493828614E+03  0.92493828614E+03  0.25500000920E-02 0. -1.
       -2   -1    0    0    0  501  0.00000000000E+00  0.00000000000E+00 -0.68549918638E+02  0.68549918686E+02  0.25500000920E-02 0.  1.
    10030    2    1    2    0    0  0.00000000000E+00  0.00000000000E+00  0.85638836750E+03  0.99348820483E+03  0.50360478268E+03 0.  0.
        2    1    3    3  502    0 -0.12056351342E+03  0.19222634919E+03  0.64355812800E+03  0.68238815509E+03  0.25500000920E-02 0. -1.
       -2    1    3    3    0  502  0.12056351342E+03 -0.19222634919E+03  0.21283023950E+03  0.31110004973E+03  0.25500000920E-02 0.  1.
</event>
<event>
 5   0  0.7698747E-02  0.5017532E+03  0.7818609E-02  0.1013322E+00
       -2   -1    0    0    0  501  0.00000000000E+00  0.00000000000E+00  0.98040282495E+02  0.98040282528E+02  0.25500000920E-02 0.  1.
        2   -1    0    0  501    0  0.00000000000E+00  0.00000000000E+00 -0.64197160581E+03  0.64197160582E+03  0.25500000920E-02 0. -1.
    10030    2    1    2    0    0  0.00000000000E+00  0.00000000000E+00 -0.54393132332E+03  0.74001188834E+03  0.50175323657E+03 0.  0.
        2    1    3    3  502    0  0.98290614948E+02  0.21601810607E+01 -0.61237666061E+03  0.62021841785E+03  0.25500000920E-02 0. -1.
       -2    1    3    3    0  502 -0.98290614948E+02 -0.21601810607E+01  0.68445337297E+02  0.11979347050E+03  0.25500000920E-02 0.  1.
</event>
<event>
 5   0  0.7776070E-02  0.5029529E+03  0.7818609E-02  0.1013011E+00
       -2   -1    0    0    0  501  0.00000000000E+00  0.00000000000E+00  0.11412371957E+03  0.11412371959E+03  0.25500000920E-02 0. -1.
        2   -1    0    0  501    0  0.00000000000E+00  0.00000000000E+00 -0.55413908660E+03  0.55413908661E+03  0.25500000920E-02 0.  1.
    10030    2    1    2    0    0  0.00000000000E+00  0.00000000000E+00 -0.44001536703E+03  0.66826280620E+03  0.50295293510E+03 0.  0.
        4    1    3    3  502    0 -0.34766208787E+02 -0.14853795593E+03  0.45617027937E+02  0.15923171720E+03  0.12699999809E+01 0. -1.
       -4    1    3    3    0  502  0.34766208787E+02  0.14853795593E+03 -0.48563239497E+03  0.50903108900E+03  0.12699999809E+01 0.  1.
</event>
<event>
 5   0  0.7881060E-02  0.5001449E+03  0.7818609E-02  0.1013741E+00
        2   -1    0    0  501    0  0.00000000000E+00  0.00000000000E+00  0.51001563277E+03  0.51001563277E+03  0.25500000920E-02 0. -1.
       -2   -1    0    0    0  501  0.00000000000E+00  0.00000000000E+00 -0.12261629058E+03  0.12261629060E+03  0.25500000920E-02 0.  1.
    10030    2    1    2    0    0  0.00000000000E+00  0.00000000000E+00  0.38739934219E+03  0.63263192338E+03  0.50014487916E+03 0.  0.
        1    1    3    3  502    0  0.17755315458E+03 -0.15994022297E+03  0.10048928983E+03  0.25923752626E+03  0.50400001928E-02 0.  1.
       -1    1    3    3    0  502 -0.17755315458E+03  0.15994022297E+03  0.28691005236E+03  0.37339439712E+03  0.50400001928E-02 0. -1.
</event>
<event>
 5   0  0.3210875E-02  0.4978715E+03  0.7818609E-02  0.1014336E+00
        4   -1    0    0  501    0  0.00000000000E+00  0.00000000000E+00  0.86961604344E+03  0.86961697081E+03  0.12699999809E+01 0.  1.
       -4   -1    0    0    0  501  0.00000000000E+00  0.00000000000E+00 -0.71253563791E+02  0.71264880923E+02  0.12699999809E+01 0. -1.
    10030    2    1    2    0    0  0.00000000000E+00  0.00000000000E+00  0.79836247965E+03  0.94088185173E+03  0.49787147940E+03 0.  0.
        2    1    3    3  502    0  0.10618346734E+03  0.20068103597E+03  0.20626152283E+03  0.30674357816E+03  0.25500000920E-02 0. -1.
       -2    1    3    3    0  502 -0.10618346734E+03 -0.20068103597E+03  0.59210095682E+03  0.63413827357E+03  0.25500000920E-02 0.  1.
</event>
<event>
 5   0  0.7698747E-02  0.5014587E+03  0.7818609E-02  0.1013399E+00
       -2   -1    0    0    0  501  0.00000000000E+00  0.00000000000E+00  0.86461298836E+02  0.86461298873E+02  0.25500000920E-02 0. -1.
        2   -1    0    0  501    0  0.00000000000E+00  0.00000000000E+00 -0.72709064644E+03  0.72709064645E+03  0.25500000920E-02 0.  1.
    10030    2    1    2    0    0  0.00000000000E+00  0.00000000000E+00 -0.64062934761E+03  0.81355194532E+03  0.50145867897E+03 0.  0.
        2    1    3    3  502    0 -0.88971354188E+02  0.24707893900E+02 -0.69850048976E+03  0.70457740248E+03  0.25500000920E-02 0.  1.
       -2    1    3    3    0  502  0.88971354188E+02 -0.24707893900E+02  0.57871142151E+02  0.10897454284E+03  0.25500000920E-02 0. -1.
</event>
<event>
 5   0  0.7881060E-02  0.5002869E+03  0.7818609E-02  0.1013704E+00
        2   -1    0    0  501    0  0.00000000000E+00  0.00000000000E+00  0.99230561653E+03  0.99230561653E+03  0.25500000920E-02 0.  1.
       -2   -1    0    0    0  501  0.00000000000E+00  0.00000000000E+00 -0.63056923375E+02  0.63056923426E+02  0.25500000920E-02 0. -1.
    10030    2    1    2    0    0  0.00000000000E+00  0.00000000000E+00  0.92924869315E+03  0.10553625400E+04  0.50028687472E+03 0.  0.
        1    1    3    3  502    0  0.11383097783E+03 -0.53819368395E+02  0.86678575689E+01  0.12621072739E+03  0.50400001928E-02 0. -1.
       -1    1    3    3    0  502 -0.11383097783E+03  0.53819368395E+02  0.92058083558E+03  0.92915181257E+03  0.50400001928E-02 0.  1.
</event>
<event>
 5   0  0.4803890E-02  0.4994919E+03  0.7818609E-02  0.1013912E+00
        1   -1    0    0  501    0  0.00000000000E+00  0.00000000000E+00  0.18892422723E+03  0.18892422730E+03  0.50400001928E-02 0. -1.
       -1   -1    0    0    0  501  0.00000000000E+00  0.00000000000E+00 -0.33014845906E+03  0.33014845910E+03  0.50400001928E-02 0.  1.
    10030    2    1    2    0    0  0.00000000000E+00  0.00000000000E+00 -0.14122423183E+03  0.51907268640E+03  0.49949191196E+03 0.  0.
        5    1    3    3  502    0 -0.29114359205E+02  0.12546753244E+03 -0.29291671226E+03  0.32001880871E+03  0.46999998093E+01 0.  1.
       -5    1    3    3    0  502  0.29114359205E+02 -0.12546753244E+03  0.15169248043E+03  0.19905387770E+03  0.46999998093E+01 0. -1.
</event>
<event>
 5   0  0.4803890E-02  0.5075970E+03  0.7818609E-02  0.1011815E+00
        1   -1    0    0  501    0  0.00000000000E+00  0.00000000000E+00  0.54233346844E+02  0.54233347079E+02  0.50400001928E-02 0. -1.
       -1   -1    0    0    0  501  0.00000000000E+00  0.00000000000E+00 -0.11877136135E+04  0.11877136135E+04  0.50400001928E-02 0.  1.
    10030    2    1    2    0    0  0.00000000000E+00  0.00000000000E+00 -0.11334802667E+04  0.12419469606E+04  0.50759702326E+03 0.  0.
        5    1    3    3  502    0 -0.18347920337E+03  0.15319482114E+03 -0.35829002071E+03  0.43072856909E+03  0.46999998093E+01 0. -1.
       -5    1    3    3    0  502  0.18347920337E+03 -0.15319482114E+03 -0.77519024596E+03  0.81121839151E+03  0.46999998093E+01 0.  1.
</event>
<event>
 5   0  0.4884478E-02  0.5010193E+03  0.7818609E-02  0.1013513E+00
        1   -1    0    0  501    0  0.00000000000E+00  0.00000000000E+00  0.44950949050E+03  0.44950949053E+03  0.50400001928E-02 0.  1.
       -1   -1    0    0    0  501  0.00000000000E+00  0.00000000000E+00 -0.13960789529E+03  0.13960789538E+03  0.50400001928E-02 0. -1.
    10030    2    1    2    0    0  0.00000000000E+00  0.00000000000E+00  0.30990159521E+03  0.58911738591E+03  0.50101925679E+03 0.  0.
        3    1    3    3  502    0 -0.18646097066E+03  0.16281041586E+03  0.20018829983E+03  0.31835560413E+03  0.10100000352E+00 0.  1.
       -3    1    3    3    0  502  0.18646097066E+03 -0.16281041586E+03  0.10971329539E+03  0.27076178179E+03  0.10100000352E+00 0. -1.
</event>
<event>
 5   0  0.3210875E-02  0.4990583E+03  0.7818609E-02  0.1014025E+00
        3   -1    0    0  501    0  0.00000000000E+00  0.00000000000E+00  0.21515555584E+03  0.21515557955E+03  0.10100000352E+00 0. -1.
       -3   -1    0    0    0  501  0.00000000000E+00  0.00000000000E+00 -0.28939431974E+03  0.28939433737E+03  0.10100000352E+00 0.  1.
    10030    2    1    2    0    0  0.00000000000E+00  0.00000000000E+00 -0.74238763903E+02  0.50454991691E+03  0.49905833786E+03 0.  0.
        3    1    3    3  502    0 -0.15161407487E+02 -0.98740502607E+02 -0.26829518742E+03  0.28628984076E+03  0.10100000352E+00 0.  1.
       -3    1    3    3    0  502  0.15161407487E+02  0.98740502607E+02  0.19405642352E+03  0.21826007615E+03  0.10100000352E+00 0. -1.
</event>
<event>
 5   0  0.7933103E-02  0.4994510E+03  0.7818609E-02  0.1013922E+00
       -2   -1    0    0    0  501  0.00000000000E+00  0.00000000000E+00  0.38532725665E+02  0.38532725749E+02  0.25500000920E-02 0.  1.
        2   -1    0    0  501    0  0.00000000000E+00  0.00000000000E+00 -0.16184376543E+04  0.16184376543E+04  0.25500000920E-02 0. -1.
    10030    2    1    2    0    0  0.00000000000E+00  0.00000000000E+00 -0.15799049286E+04  0.16569703800E+04  0.49945095539E+03 0.  0.
        5    1    3    3  502    0  0.34201187285E+02  0.19745105235E+02  0.27958999782E+02  0.48614669180E+02  0.46999998093E+01 0.  1.
       -5    1    3    3    0  502 -0.34201187285E+02 -0.19745105235E+02 -0.16078639284E+04  0.16083557108E+04  0.46999998093E+01 0. -1.
</event>
<event>
 5   0  0.5191358E-02  0.4996997E+03  0.7818609E-02  0.1013857E+00
       -1   -1    0    0    0  501  0.00000000000E+00  0.00000000000E+00  0.10699669027E+03  0.10699669039E+03  0.50400001928E-02 0.  1.
        1   -1    0    0  501    0  0.00000000000E+00  0.00000000000E+00 -0.58342877201E+03  0.58342877204E+03  0.50400001928E-02 0. -1.
    10030    2    1    2    0    0  0.00000000000E+00  0.00000000000E+00 -0.47643208174E+03  0.69042546243E+03  0.49969970048E+03 0.  0.
        4    1    3    3  502    0 -0.76986056190E+02 -0.23401168002E+03 -0.29576790480E+03  0.38492672763E+03  0.12699999809E+01 0.  1.
       -4    1    3    3    0  502  0.76986056190E+02  0.23401168002E+03 -0.18066417695E+03  0.30549873480E+03  0.12699999809E+01 0. -1.
</event>
<event>
 5   0  0.7881060E-02  0.4993320E+03  0.7818609E-02  0.1013953E+00
        2   -1    0    0  501    0  0.00000000000E+00  0.00000000000E+00  0.21573667583E+03  0.21573667584E+03  0.25500000920E-02 0.  1.
       -2   -1    0    0    0  501  0.00000000000E+00  0.00000000000E+00 -0.28893150585E+03  0.28893150586E+03  0.25500000920E-02 0. -1.
    10030    2    1    2    0    0  0.00000000000E+00  0.00000000000E+00 -0.73194830020E+02  0.50466818170E+03  0.49933204431E+03 0.  0.
        1    1    3    3  502    0 -0.65127540110E+02 -0.12904562424E+03 -0.24233793139E+03  0.28217378091E+03  0.50400001928E-02 0. -1.
       -1    1    3    3    0  502  0.65127540110E+02  0.12904562424E+03  0.16914310137E+03  0.22249440079E+03  0.50400001928E-02 0.  1.
</event>
<event>
 5   0  0.3210875E-02  0.5041103E+03  0.7818609E-02  0.1012712E+00
        3   -1    0    0  501    0  0.00000000000E+00  0.00000000000E+00  0.19507011716E+03  0.19507014331E+03  0.10100000352E+00 0.  1.
       -3   -1    0    0    0  501  0.00000000000E+00  0.00000000000E+00 -0.32568692549E+03  0.32568694115E+03  0.10100000352E+00 0. -1.
    10030    2    1    2    0    0  0.00000000000E+00  0.00000000000E+00 -0.13061680833E+03  0.52075708445E+03  0.50411029586E+03 0.  0.
        2    1    3    3  502    0  0.31221616445E+02  0.13857138337E+03 -0.28040280946E+03  0.31432873426E+03  0.25500000920E-02 0. -1.
       -2    1    3    3    0  502 -0.31221616445E+02 -0.13857138337E+03  0.14978600113E+03  0.20642835019E+03  0.25500000920E-02 0.  1.
</event>
<event>
 5   0  0.7698747E-02  0.4966565E+03  0.7818609E-02  0.1014655E+00
        2   -1    0    0  501    0  0.00000000000E+00  0.00000000000E+00  0.25281212586E+03  0.25281212588E+03  0.25500000920E-02 0.  1.
       -2   -1    0    0    0  501  0.00000000000E+00  0.00000000000E+00 -0.24392389511E+03  0.24392389512E+03  0.25500000920E-02 0. -1.
    10030    2    1    2    0    0  0.00000000000E+00  0.00000000000E+00  0.88882307553E+01  0.49673602100E+03  0.49665649488E+03 0.  0.
        2    1    3    3  502    0 -0.85793308693E+01 -0.99533847131E+02 -0.22293855874E+03  0.24429939137E+03  0.25500000920E-02 0. -1.
       -2    1    3    3    0  502  0.85793308693E+01  0.99533847131E+02  0.23182678950E+03  0.25243662963E+03  0.25500000920E-02 0.  1.
</event>
<event>
 5   0  0.4803890E-02  0.5022390E+03  0.7818609E-02  0.1013196E+00
       -1   -1    0    0    0  501  0.00000000000E+00  0.00000000000E+00  0.83823278504E+02  0.83823278655E+02  0.50400001928E-02 0. -1.
        1   -1    0    0  501    0  0.00000000000E+00  0.00000000000E+00 -0.75230894851E+03  0.75230894853E+03  0.50400001928E-02 0.  1.
    10030    2    1    2    0    0  0.00000000000E+00  0.00000000000E+00 -0.66848567001E+03  0.83613222718E+03  0.50223899722E+03 0.  0.
        5    1    3    3  502    0  0.20176709916E+03 -0.89437355099E+02 -0.13495248961E+03  0.25873397002E+03  0.46999998093E+01 0. -1.
       -5    1    3    3    0  502 -0.20176709916E+03  0.89437355099E+02 -0.53353318040E+03  0.57739825717E+03  0.46999998093E+01 0.  1.
</event>
<event>
 5   0  0.7776070E-02  0.4990509E+03  0.7818609E-02  0.1014027E+00
       -2   -1    0    0    0  501  0.00000000000E+00  0.00000000000E+00  0.30196652236E+03  0.30196652237E+03  0.25500000920E-02 0.  1.
        2   -1    0    0  501    0  0.00000000000E+00  0.00000000000E+00 -0.20619153927E+03  0.20619153929E+03  0.25500000920E-02 0. -1.
    10030    2    1    2    0    0  0.00000000000E+00  0.00000000000E+00  0.95774983090E+02  0.50815806166E+03  0.49905086739E+03 0.  0.
        4    1    3    3  502    0 -0.10164741931E+03 -0.31603114752E+02  0.27768347825E+03  0.29738978077E+03  0.12699999809E+01 0.  1.
       -4    1    3    3    0  502  0.10164741931E+03  0.31603114752E+02 -0.18190849516E+03  0.21076828088E+03  0.12699999809E+01 0. -1.
</event>
<event>
 5   0  0.7933103E-02  0.5161508E+03  0.7818609E-02  0.1009647E+00
       -2   -1    0    0    0  501  0.00000000000E+00  0.00000000000E+00  0.11575124509E+03  0.11575124512E+03  0.25500000920E-02 0. -1.
        2   -1    0    0  501    0  0.00000000000E+00  0.00000000000E+00 -0.57539684530E+03  0.57539684531E+03  0.25500000920E-02 0.  1.
    10030    2    1    2    0    0  0.00000000000E+00  0.00000000000E+00 -0.45964560021E+03  0.69114809043E+03  0.51615075812E+03 0.  0.
        5    1    3    3  502    0 -0.15630727849E+03 -0.18366244835E+03 -0.35267188995E+03  0.42727439919E+03  0.46999998093E+01 0. -1.
       -5    1    3    3    0  502  0.15630727849E+03  0.18366244835E+03 -0.10697371026E+03  0.26387369124E+03  0.46999998093E+01 0.  1.
</event>
<event>
 5   0  0.5191358E-02  0.5058779E+03  0.7818609E-02  0.1012256E+00
       -1   -1    0    0    0  501  0.00000000000E+00  0.00000000000E+00  0.49930597973E+03  0.49930597975E+03  0.50400001928E-02 0. -1.
        1   -1    0    0  501    0  0.00000000000E+00  0.00000000000E+00 -0.12813410219E+03  0.12813410229E+03  0.50400001928E-02 0.  1.
    10030    2    1    2    0    0  0.00000000000E+00  0.00000000000E+00  0.37117187753E+03  0.62744008204E+03  0.50587794366E+03 0.  0.
        4    1    3    3  502    0  0.15210579474E+03 -0.13758946541E+03  0.19986883533E+01  0.20511616573E+03  0.12699999809E+01 0.  1.
       -4    1    3    3    0  502 -0.15210579474E+03  0.13758946541E+03  0.36917318918E+03  0.42232391632E+03  0.12699999809E+01 0. -1.
</event>
<event>
 5   0  0.7881060E-02  0.4999576E+03  0.7818609E-02  0.1013790E+00
       -2   -1    0    0    0  501  0.00000000000E+00  0.00000000000E+00  0.31284437683E+03  0.31284437684E+03  0.25500000920E-02 0. -1.
        2   -1    0    0  501    0  0.00000000000E+00  0.00000000000E+00 -0.19974595280E+03  0.19974595281E+03  0.25500000920E-02 0.  1.
    10030    2    1    2    0    0  0.00000000000E+00  0.00000000000E+00  0.11309842404E+03  0.51259032965E+03  0.49995759074E+03 0.  0.
        1    1    3    3  502    0  0.14902830341E+02  0.18090419519E+03  0.23276696595E+03  0.29517601978E+03  0.50400001928E-02 0. -1.
       -1    1    3    3    0  502 -0.14902830341E+02 -0.18090419519E+03 -0.11966854191E+03  0.21741430988E+03  0.50400001928E-02 0.  1.
</event>
<event>
 5   0  0.4803890E-02  0.5002050E+03  0.7818609E-02  0.1013725E+00
       -1   -1    0    0    0  501  0.00000000000E+00  0.00000000000E+00  0.68840521944E+02  0.68840522129E+02  0.50400001928E-02 0. -1.
        1   -1    0    0  501    0  0.00000000000E+00  0.00000000000E+00 -0.90864018109E+03  0.90864018111E+03  0.50400001928E-02 0.  1.
    10030    2    1    2    0    0  0.00000000000E+00  0.00000000000E+00 -0.83979965915E+03  0.97748070324E+03  0.50020501566E+03 0.  0.
        5    1    3    3  502    0  0.12902601224E+03 -0.20508301801E+03 -0.54071716605E+03  0.59254020941E+03  0.46999998093E+01 0.  1.
       -5    1    3    3    0  502 -0.12902601224E+03  0.20508301801E+03 -0.29908249310E+03  0.38494049382E+03  0.46999998093E+01 0. -1.
</event>
<event>
 5   0  0.5038436E-02  0.4976017E+03  0.7818609E-02  0.1014407E+00
        1   -1    0    0  501    0  0.00000000000E+00  0.00000000000E+00  0.12972252926E+04  0.12972252926E+04  0.50400001928E-02 0. -1.
       -1   -1    0    0    0  501  0.00000000000E+00  0.00000000000E+00 -0.47718675909E+02  0.47718676175E+02  0.50400001928E-02 0.  1.
    10030    2    1    2    0    0  0.00000000000E+00  0.00000000000E+00  0.12495066167E+04  0.13449439688E+04  0.49760174237E+03 0.  0.
        1    1    3    3  502    0 -0.14503577395E+03 -0.15272300136E+03  0.26676889889E+03  0.33989018272E+03  0.50400001928E-02 0. -1.
       -1    1    3    3    0  502  0.14503577395E+03  0.15272300136E+03  0.98273771779E+03  0.10050537861E+04  0.50400001928E-02 0.  1.
</event>
<event>
 5   0  0.4884478E-02  0.4964068E+03  0.7818609E-02  0.1014721E+00
        1   -1    0    0  501    0  0.00000000000E+00  0.00000000000E+00  0.14793852573E+04  0.14793852573E+04  0.50400001928E-02 0. -1.
       -1   -1    0    0    0  501  0.00000000000E+00  0.00000000000E+00 -0.41642239884E+02  0.41642240189E+02  0.50400001928E-02 0.  1.
    10030    2    1    2    0    0  0.00000000000E+00  0.00000000000E+00  0.14377430174E+04  0.15210274975E+04  0.49640675259E+03 0.  0.
        3    1    3    3  502    0  0.15257835084E+03 -0.18600835694E+03  0.90589667550E+03  0.93729827637E+03  0.10100000352E+00 0. -1.
       -3    1    3    3    0  502 -0.15257835084E+03  0.18600835694E+03  0.53184634193E+03  0.58372922115E+03  0.10100000352E+00 0.  1.
</event>
<event>
 5   0  0.5191358E-02  0.4898208E+03  0.7818609E-02  0.1016471E+00
       -1   -1    0    0    0  501  0.00000000000E+00  0.00000000000E+00  0.23638272943E+03  0.23638272948E+03  0.50400001928E-02 0.  1.
        1   -1    0    0  501    0  0.00000000000E+00  0.00000000000E+00 -0.25374570707E+03  0.25374570713E+03  0.50400001928E-02 0. -1.
    10030    2    1    2    0    0  0.00000000000E+00  0.00000000000E+00 -0.17362977648E+02  0.49012843661E+03  0.48982079517E+03 0.  0.
        4    1    3    3  502    0  0.17409831789E+03 -0.83254256696E+02 -0.15956742402E+03  0.25040940729E+03  0.12699999809E+01 0. -1.
       -4    1    3    3    0  502 -0.17409831789E+03  0.83254256696E+02  0.14220444637E+03  0.23971902932E+03  0.12699999809E+01 0.  1.
</event>
<event>
 5   0  0.8208720E-02  0.4922985E+03  0.7818609E-02  0.1015809E+00
       -2   -1    0    0    0  501  0.00000000000E+00  0.00000000000E+00  0.70577521008E+02  0.70577521054E+02  0.25500000920E-02 0. -1.
        2   -1    0    0  501    0  0.00000000000E+00  0.00000000000E+00 -0.85848088876E+03  0.85848088877E+03  0.25500000920E-02 0.  1.
    10030    2    1    2    0    0  0.00000000000E+00  0.00000000000E+00 -0.78790336776E+03  0.92905840982E+03  0.49229849882E+03 0.  0.
        3    1    3    3  502    0 -0.24720264031E+02  0.12220317254E+03  0.65796806382E+01  0.12485194925E+03  0.10100000352E+00 0. -1.
       -3    1    3    3    0  502  0.24720264031E+02 -0.12220317254E+03 -0.79448304839E+03  0.80420646057E+03  0.10100000352E+00 0.  1.
</event>
<event>
 5   0  0.4803890E-02  0.4991331E+03  0.7818609E-02  0.1014005E+00
       -1   -1    0    0    0  501  0.00000000000E+00  0.00000000000E+00  0.75779018349E+02  0.75779018517E+02  0.50400001928E-02 0.  1.
        1   -1    0    0  501    0  0.00000000000E+00  0.00000000000E+00 -0.82190904351E+03  0.82190904353E+03  0.50400001928E-02 0. -1.
    10030    2    1    2    0    0  0.00000000000E+00  0.00000000000E+00 -0.74613002517E+03  0.89768806205E+03  0.49913309076E+03 0.  0.
        5    1    3    3  502    0 -0.11181150422E+03 -0.16842118071E+03 -0.63612433790E+03  0.66749065151E+03  0.46999998093E+01 0. -1.
       -5    1    3    3    0  502  0.11181150422E+03  0.16842118071E+03 -0.11000568727E+03  0.23019741054E+03  0.46999998093E+01 0.  1.
</event>
<event>
 5   0  0.8208720E-02  0.5007407E+03  0.7818609E-02  0.1013586E+00
       -2   -1    0    0    0  501  0.00000000000E+00  0.00000000000E+00  0.11879799325E+03  0.11879799328E+03  0.25500000920E-02 0.  1.
        2   -1    0    0  501    0  0.00000000000E+00  0.00000000000E+00 -0.52766304343E+03  0.52766304344E+03  0.25500000920E-02 0. -1.
    10030    2    1    2    0    0  0.00000000000E+00  0.00000000000E+00 -0.40886505018E+03  0.64646103672E+03  0.50074069411E+03 0.  0.
        3    1    3    3  502    0  0.21468700760E+03 -0.12835192728E+03 -0.21860849313E+03  0.33219634546E+03  0.10100000352E+00 0.  1.
       -3    1    3    3    0  502 -0.21468700760E+03  0.12835192728E+03 -0.19025655705E+03  0.31426469126E+03  0.10100000352E+00 0. -1.
</event>
<event>
 5   0  0.7933103E-02  0.5399695E+03  0.7818609E-02  0.1003843E+00
       -2   -1    0    0    0  501  0.00000000000E+00  0.00000000000E+00  0.36259315303E+02  0.36259315393E+02  0.25500000920E-02 0.  1.
        2   -1    0    0  501    0  0.00000000000E+00  0.00000000000E+00 -0.20102909877E+04  0.20102909877E+04  0.25500000920E-02 0. -1.
    10030    2    1    2    0    0  0.00000000000E+00  0.00000000000E+00 -0.19740316724E+04  0.20465503031E+04  0.53996953569E+03 0.  0.
        5    1    3    3  502    0  0.11288915075E+03 -0.23996452846E+03 -0.79589635300E+03  0.83892790513E+03  0.46999998093E+01 0. -1.
       -5    1    3    3    0  502 -0.11288915075E+03  0.23996452846E+03 -0.11781353194E+04  0.12076223980E+04  0.46999998093E+01 0.  1.
</event>
<event>
 5   0  0.4865501E-02  0.4989945E+03  0.7818609E-02  0.1014042E+00
        1   -1    0    0  501    0  0.00000000000E+00  0.00000000000E+00  0.45644896432E+02  0.45644896710E+02  0.50400001928E-02 0. -1.
       -1   -1    0    0    0  501  0.00000000000E+00  0.00000000000E+00 -0.13637640913E+04  0.13637640913E+04  0.50400001928E-02 0.  1.
    10030    2    1    2    0    0  0.00000000000E+00  0.00000000000E+00 -0.13181191948E+04  0.14094089880E+04  0.49899447254E+03 0.  0.
        2    1    3    3  502    0 -0.17057237351E+03 -0.16350557796E+03 -0.88536981245E+03  0.91635621537E+03  0.25500000920E-02 0.  1.
       -2    1    3    3    0  502  0.17057237351E+03  0.16350557796E+03 -0.43274938238E+03  0.49305277262E+03  0.25500000920E-02 0. -1.
</event>
<event>
 5   0  0.5191358E-02  0.4950804E+03  0.7818609E-02  0.1015071E+00
        1   -1    0    0  501    0  0.00000000000E+00  0.00000000000E+00  0.65309053299E+02  0.65309053493E+02  0.50400001928E-02 0. -1.
       -1   -1    0    0    0  501  0.00000000000E+00  0.00000000000E+00 -0.93824906878E+03  0.93824906880E+03  0.50400001928E-02 0.  1.
    10030    2    1    2    0    0  0.00000000000E+00  0.00000000000E+00 -0.87294001549E+03  0.10035581223E+04  0.49508043203E+03 0.  0.
        4    1    3    3  502    0 -0.24104033259E+03  0.45511551299E+02 -0.50378559244E+03  0.56033318596E+03  0.12699999809E+01 0. -1.
       -4    1    3    3    0  502  0.24104033259E+03 -0.45511551299E+02 -0.36915442305E+03  0.44322493633E+03  0.12699999809E+01 0.  1.
</event>
<event>
 5   0  0.7698747E-02  0.4993959E+03  0.7818609E-02  0.1013937E+00
        2   -1    0    0  501    0  0.00000000000E+00  0.00000000000E+00  0.65396959957E+03  0.65396959957E+03  0.25500000920E-02 0.  1.
       -2   -1    0    0    0  501  0.00000000000E+00  0.00000000000E+00 -0.95339380478E+02  0.95339380512E+02  0.25500000920E-02 0. -1.
    10030    2    1    2    0    0  0.00000000000E+00  0.00000000000E+00  0.55863021909E+03  0.74930898008E+03  0.49939586097E+03 0.  0.
        2    1    3    3  502    0 -0.12020776188E+03 -0.17443911372E+03  0.80996135529E+02  0.22680230243E+03  0.25500000920E-02 0. -1.
       -2    1    3    3    0  502  0.12020776188E+03  0.17443911372E+03  0.47763408356E+03  0.52250667766E+03  0.25500000920E-02 0.  1.
</event>
<event>
 5   0  0.8208720E-02  0.5018629E+03  0.7818609E-02  0.1013294E+00
       -2   -1    0    0    0  501  0.00000000000E+00  0.00000000000E+00  0.12946298628E+03  0.12946298630E+03  0.25500000920E-02 0.  1.
        2   -1    0    0  501    0  0.00000000000E+00  0.00000000000E+00 -0.48636746465E+03  0.48636746466E+03  0.25500000920E-02 0. -1.
    10030    2    1    2    0    0  0.00000000000E+00  0.00000000000E+00 -0.35690447838E+03  0.61583045096E+03  0.50186286737E+03 0.  0.
        3    1    3    3  502    0 -0.19845436071E+03  0.11051381202E+03 -0.47612439560E+02  0.23208703224E+03  0.10100000352E+00 0.  1.
       -3    1    3    3    0  502  0.19845436071E+03 -0.11051381202E+03 -0.30929203882E+03  0.38374341872E+03  0.10100000352E+00 0. -1.
</event>
<event>
 5   0  0.5038436E-02  0.5011108E+03  0.7818609E-02  0.1013489E+00
       -1   -1    0    0    0  501  0.00000000000E+00  0.00000000000E+00  0.49558317563E+02  0.49558317819E+02  0.50400001928E-02 0.  1.
        1   -1    0    0  501    0  0.00000000000E+00  0.00000000000E+00 -0.12667501796E+04  0.12667501796E+04  0.50400001928E-02 0. -1.
    10030    2    1    2    0    0  0.00000000000E+00  0.00000000000E+00 -0.12171918620E+04  0.13163084974E+04  0.50111079752E+03 0.  0.
        1    1    3    3  502    0  0.21144564876E+01 -0.24189641871E+03 -0.78003561878E+03  0.81668470960E+03  0.50400001928E-02 0.  1.
       -1    1    3    3    0  502 -0.21144564876E+01  0.24189641871E+03 -0.43715624324E+03  0.49962378781E+03  0.50400001928E-02 0. -1.
</event>
<event>
 5   0  0.7933103E-02  0.5063992E+03  0.7818609E-02  0.1012122E+00
       -2   -1    0    0    0  501  0.00000000000E+00  0.00000000000E+00  0.80661719419E+02  0.80661719460E+02  0.25500000920E-02 0. -1.
        2   -1    0    0  501    0  0.00000000000E+00  0.00000000000E+00 -0.79480116518E+03  0.79480116519E+03  0.25500000920E-02 0.  1.
    10030    2    1    2    0    0  0.00000000000E+00  0.00000000000E+00 -0.71413944576E+03  0.87546288464E+03  0.50639916508E+03 0.  0.
        5    1    3    3  502    0 -0.21646345803E+02  0.16608918527E+03 -0.68524021606E+03  0.70542924908E+03  0.46999998093E+01 0.  1.
       -5    1    3    3    0  502  0.21646345803E+02 -0.16608918527E+03 -0.28899229701E+02  0.17003363557E+03  0.46999998093E+01 0. -1.
</event>
<event>
 5   0  0.5191358E-02  0.4988995E+03  0.7818609E-02  0.1014067E+00
       -1   -1    0    0    0  501  0.00000000000E+00  0.00000000000E+00  0.11451233042E+03  0.11451233054E+03  0.50400001928E-02 0. -1.
        1   -1    0    0  501    0  0.00000000000E+00  0.00000000000E+00 -0.54339287910E+03  0.54339287913E+03  0.50400001928E-02 0.  1.
    10030    2    1    2    0    0  0.00000000000E+00  0.00000000000E+00 -0.42888054868E+03  0.65790520966E+03  0.49889952883E+03 0.  0.
        4    1    3    3  502    0  0.51937268186E+02 -0.67620638619E+02 -0.52357520043E+03  0.53047397109E+03  0.12699999809E+01 0.  1.
       -4    1    3    3    0  502 -0.51937268186E+02  0.67620638619E+02  0.94694651754E+02  0.12743123857E+03  0.12699999809E+01 0. -1.
</event>
<event>
 5   0  0.3210875E-02  0.4965005E+03  0.7818609E-02  0.1014696E+00
        3   -1    0    0  501    0  0.00000000000E+00  0.00000000000E+00  0.13355382510E+03  0.13355386329E+03  0.10100000352E+00 0.  1.
       -3   -1    0    0    0  501  0.00000000000E+00  0.00000000000E+00 -0.46144816461E+03  0.46144817567E+03  0.10100000352E+00 0. -1.
    10030    2    1    2    0    0  0.00000000000E+00  0.00000000000E+00 -0.32789433951E+03  0.59500203895E+03  0.49650048185E+03 0.  0.
        5    1    3    3  502    0 -0.22301787774E+03  0.10894462202E+03 -0.16342803056E+03  0.29721493171E+03  0.46999998093E+01 0. -1.
       -5    1    3    3    0  502  0.22301787774E+03 -0.10894462202E+03 -0.16446630896E+03  0.29778710725E+03  0.46999998093E+01 0.  1.
</event>
<event>
 5   0  0.4803890E-02  0.5045300E+03  0.7818609E-02  0.1012603E+00
       -1   -1    0    0    0  501  0.00000000000E+00  0.00000000000E+00  0.48053384794E+02  0.48053385058E+02  0.50400001928E-02 0. -1.
        1   -1    0    0  501    0  0.00000000000E+00  0.00000000000E+00 -0.13243108247E+04  0.13243108247E+04  0.50400001928E-02 0.  1.
    10030    2    1    2    0    0  0.00000000000E+00  0.00000000000E+00 -0.12762574399E+04  0.13723642097E+04  0.50452995087E+03 0.  0.
        5    1    3    3  502    0  0.47094354134E+02 -0.24748541807E+03 -0.67128893831E+03  0.71702011063E+03  0.46999998093E+01 0.  1.
       -5    1    3    3    0  502 -0.47094354134E+02  0.24748541807E+03 -0.60496850155E+03  0.65534409909E+03  0.46999998093E+01 0. -1.
</event>
<event>
 5   0  0.7698747E-02  0.5002496E+03  0.7818609E-02  0.1013714E+00
       -2   -1    0    0    0  501  0.00000000000E+00  0.00000000000E+00  0.24498130438E+03  0.24498130440E+03  0.25500000920E-02 0. -1.
        2   -1    0    0  501    0  0.00000000000E+00  0.00000000000E+00 -0.25537629826E+03  0.25537629828E+03  0.25500000920E-02 0.  1.
    10030    2    1    2    0    0  0.00000000000E+00  0.00000000000E+00 -0.10394993880E+02  0.50035760267E+03  0.50024961235E+03 0.  0.
        2    1    3    3  502    0  0.15974121219E+03 -0.11588462019E+03  0.14851039408E+03  0.24698550003E+03  0.25500000920E-02 0. -1.
       -2    1    3    3    0  502 -0.15974121219E+03  0.11588462019E+03 -0.15890538796E+03  0.25337210264E+03  0.25500000920E-02 0.  1.
</event>
<event>
 5   0  0.5038436E-02  0.5001170E+03  0.7818609E-02  0.1013748E+00
       -1   -1    0    0    0  501  0.00000000000E+00  0.00000000000E+00  0.13063776939E+03  0.13063776949E+03  0.50400001928E-02 0. -1.
        1   -1    0    0  501    0  0.00000000000E+00  0.00000000000E+00 -0.47864609757E+03  0.47864609759E+03  0.50400001928E-02 0.  1.
    10030    2    1    2    0    0  0.00000000000E+00  0.00000000000E+00 -0.34800832818E+03  0.60928386708E+03  0.50011702051E+03 0.  0.
        1    1    3    3  502    0 -0.32281896324E+01 -0.15964775475E+03 -0.40844501838E+03  0.43854892528E+03  0.50400001928E-02 0.  1.
       -1    1    3    3    0  502  0.32281896324E+01  0.15964775475E+03  0.60436690202E+02  0.17073494180E+03  0.50400001928E-02 0. -1.
</event>
<event>
 5   0  0.4865501E-02  0.5010823E+03  0.7818609E-02  0.1013497E+00
        1   -1    0    0  501    0  0.00000000000E+00  0.00000000000E+00  0.46255609198E+02  0.46255609473E+02  0.50400001928E-02 0.  1.
       -1   -1    0    0    0  501  0.00000000000E+00  0.00000000000E+00 -0.13570434382E+04  0.13570434382E+04  0.50400001928E-02 0. -1.
    10030    2    1    2    0    0  0.00000000000E+00  0.00000000000E+00 -0.13107878290E+04  0.14032990476E+04  0.50108231316E+03 0.  0.
        2    1    3    3  502    0  0.30789240678E+02 -0.24861740973E+03 -0.66520673462E+03  0.71081544268E+03  0.25500000920E-02 0. -1.
       -2    1    3    3    0  502 -0.30789240678E+02  0.24861740973E+03 -0.64558109434E+03  0.69248360496E+03  0.25500000920E-02 0.  1.
</event>
<event>
 5   0  0.7933103E-02  0.5027069E+03  0.7818609E-02  0.1013075E+00
       -2   -1    0    0    0  501  0.00000000000E+00  0.00000000000E+00  0.37876116381E+02  0.37876116467E+02  0.25500000920E-02 0.  1.
        2   -1    0    0  501    0  0.00000000000E+00  0.00000000000E+00 -0.16680316703E+04  0.16680316703E+04  0.25500000920E-02 0. -1.
    10030    2    1    2    0    0  0.00000000000E+00  0.00000000000E+00 -0.16301555540E+04  0.17059077868E+04  0.50270691958E+03 0.  0.
        5    1    3    3  502    0 -0.48793146917E+02  0.21261028522E+03 -0.12385459693E+04  0.12576176337E+04  0.46999998093E+01 0. -1.
       -5    1    3    3    0  502  0.48793146917E+02 -0.21261028522E+03 -0.39160958468E+03  0.44829015311E+03  0.46999998093E+01 0.  1.
</event>
<event>
 5   0  0.7776070E-02  0.4987025E+03  0.7818609E-02  0.1014118E+00
       -2   -1    0    0    0  501  0.00000000000E+00  0.00000000000E+00  0.98587197321E+02  0.98587197353E+02  0.25500000920E-02 0.  1.
        2   -1    0    0  501    0  0.00000000000E+00  0.00000000000E+00 -0.63067062792E+03  0.63067062792E+03  0.25500000920E-02 0. -1.
    10030    2    1    2    0    0  0.00000000000E+00  0.00000000000E+00 -0.53208343060E+03  0.72925782527E+03  0.49870251514E+03 0.  0.
        4    1    3    3  502    0  0.15196582614E+03  0.11871324126E+03 -0.34885695408E+02  0.19597211692E+03  0.12699999809E+01 0.  1.
       -4    1    3    3    0  502 -0.15196582614E+03 -0.11871324126E+03 -0.49719773519E+03  0.53328570836E+03  0.12699999809E+01 0. -1.
</event>
<event>
 5   0  0.4865501E-02  0.5001943E+03  0.7818609E-02  0.1013728E+00
       -1   -1    0    0    0  501  0.00000000000E+00  0.00000000000E+00  0.71990120848E+02  0.71990121025E+02  0.50400001928E-02 0.  1.
        1   -1    0    0  501    0  0.00000000000E+00  0.00000000000E+00 -0.86884951983E+03  0.86884951984E+03  0.50400001928E-02 0. -1.
    10030    2    1    2    0    0  0.00000000000E+00  0.00000000000E+00 -0.79685939898E+03  0.94083964087E+03  0.50019429034E+03 0.  0.
        2    1    3    3  502    0  0.12214807285E+03 -0.92614376217E+02 -0.26729324117E+02  0.15560215666E+03  0.25500000920E-02 0.  1.
       -2    1    3    3    0  502 -0.12214807285E+03  0.92614376217E+02 -0.77013007486E+03  0.78523748420E+03  0.25500000920E-02 0. -1.
</event>
<event>
 5   0  0.4884478E-02  0.5029975E+03  0.7818609E-02  0.1012999E+00
        1   -1    0    0  501    0  0.00000000000E+00  0.00000000000E+00  0.28153091244E+03  0.28153091249E+03  0.50400001928E-02 0. -1.
       -1   -1    0    0    0  501  0.00000000000E+00  0.00000000000E+00 -0.22467021968E+03  0.22467021974E+03  0.50400001928E-02 0.  1.
    10030    2    1    2    0    0  0.00000000000E+00  0.00000000000E+00  0.56860692759E+02  0.50620113223E+03  0.50299746310E+03 0.  0.
        3    1    3    3  502    0 -0.11624249128E+03 -0.15474956440E+03 -0.13319096500E+03  0.23494592531E+03  0.10100000352E+00 0.  1.
       -3    1    3    3    0  502  0.11624249128E+03  0.15474956440E+03  0.19005165776E+03  0.27125520692E+03  0.10100000352E+00 0. -1.
</event>
<event>
 5   0  0.4865501E-02  0.5020619E+03  0.7818609E-02  0.1013242E+00
       -1   -1    0    0    0  501  0.00000000000E+00  0.00000000000E+00  0.55625755913E+02  0.55625756142E+02  0.50400001928E-02 0.  1.
        1   -1    0    0  501    0  0.00000000000E+00  0.00000000000E+00 -0.11328663959E+04  0.11328663959E+04  0.50400001928E-02 0. -1.
    10030    2    1    2    0    0  0.00000000000E+00  0.00000000000E+00 -0.10772406400E+04  0.11884921521E+04  0.50206194743E+03 0.  0.
        2    1    3    3  502    0  0.14036536982E+03  0.20757833462E+03 -0.50308456197E+03  0.56203672349E+03  0.25500000920E-02 0.  1.
       -2    1    3    3    0  502 -0.14036536982E+03 -0.20757833462E+03 -0.57415607804E+03  0.62645542859E+03  0.25500000920E-02 0. -1.
</event>
<event>
 5   0  0.8208720E-02  0.4981742E+03  0.7818609E-02  0.1014257E+00
       -2   -1    0    0    0  501  0.00000000000E+00  0.00000000000E+00  0.25733972159E+03  0.25733972160E+03  0.25500000920E-02 0. -1.
        2   -1    0    0  501    0  0.00000000000E+00  0.00000000000E+00 -0.24109913611E+03  0.24109913612E+03  0.25500000920E-02 0.  1.
    10030    2    1    2    0    0  0.00000000000E+00  0.00000000000E+00  0.16240585483E+02  0.49843885772E+03  0.49817420474E+03 0.  0.
        3    1    3    3  502    0  0.15915426074E+03 -0.10508864525E+03 -0.15218552255E+03  0.24399619986E+03  0.10100000352E+00 0.  1.
       -3    1    3    3    0  502 -0.15915426074E+03  0.10508864525E+03  0.16842610803E+03  0.25444265786E+03  0.10100000352E+00 0. -1.
</event>
<event>
 5   0  0.4803890E-02  0.5019360E+03  0.7818609E-02  0.1013275E+00
       -1   -1    0    0    0  501  0.00000000000E+00  0.00000000000E+00  0.15446336887E+03  0.15446336895E+03  0.50400001928E-02 0.  1.
        1   -1    0    0  501    0  0.00000000000E+00  0.00000000000E+00 -0.40776617235E+03  0.40776617238E+03  0.50400001928E-02 0. -1.
    10030    2    1    2    0    0  0.00000000000E+00  0.00000000000E+00 -0.25330280348E+03  0.56222954133E+03  0.50193599880E+03 0.  0.
        5    1    3    3  502    0  0.15591381512E+03 -0.17360782783E+03 -0.23295937309E+02  0.23454975234E+03  0.46999998093E+01 0.  1.
       -5    1    3    3    0  502 -0.15591381512E+03  0.17360782783E+03 -0.23000686618E+03  0.32767978899E+03  0.46999998093E+01 0. -1.
</event>
<event>
 5   0  0.5191358E-02  0.4991800E+03  0.7818609E-02  0.1013993E+00
        1   -1    0    0  501    0  0.00000000000E+00  0.00000000000E+00  0.44823986540E+02  0.44823986823E+02  0.50400001928E-02 0.  1.
       -1   -1    0    0    0  501  0.00000000000E+00  0.00000000000E+00 -0.13897728494E+04  0.13897728494E+04  0.50400001928E-02 0. -1.
    10030    2    1    2    0    0  0.00000000000E+00  0.00000000000E+00 -0.13449488628E+04  0.14345968362E+04  0.49917996636E+03 0.  0.
        4    1    3    3  502    0 -0.91299609018E+02 -0.12987147067E+03 -0.11898552549E+03  0.19839704049E+03  0.12699999809E+01 0.  1.
       -4    1    3    3    0  502  0.91299609018E+02  0.12987147067E+03 -0.12259633373E+04  0.12361997957E+04  0.12699999809E+01 0. -1.
</event>
<event>
 5   0  0.5038436E-02  0.5052300E+03  0.7818609E-02  0.1012423E+00
        1   -1    0    0  501    0  0.00000000000E+00  0.00000000000E+00  0.31586560311E+03  0.31586560315E+03  0.50400001928E-02 0. -1.
       -1   -1    0    0    0  501  0.00000000000E+00  0.00000000000E+00 -0.20203000934E+03  0.20203000940E+03  0.50400001928E-02 0.  1.
    10030    2    1    2    0    0  0.00000000000E+00  0.00000000000E+00  0.11383559377E+03  0.51789561255E+03  0.50522997050E+03 0.  0.
        1    1    3    3  502    0 -0.18237173965E+03  0.70961385800E+02  0.22067032921E+03  0.29494128893E+03  0.50400001928E-02 0. -1.
       -1    1    3    3    0  502  0.18237173965E+03 -0.70961385800E+02 -0.10683473544E+03  0.22295432362E+03  0.50400001928E-02 0.  1.
</event>
<event>
 5   0  0.7881060E-02  0.5005074E+03  0.7818609E-02  0.1013647E+00
       -2   -1    0    0    0  501  0.00000000000E+00  0.00000000000E+00  0.11916939524E+03  0.11916939526E+03  0.25500000920E-02 0. -1.
        2   -1    0    0  501    0  0.00000000000E+00  0.00000000000E+00 -0.52552848329E+03  0.52552848330E+03  0.25500000920E-02 0.  1.
    10030    2    1    2    0    0  0.00000000000E+00  0.00000000000E+00 -0.40635908806E+03  0.64469787857E+03  0.50050738874E+03 0.  0.
        1    1    3    3  502    0  0.10302713604E+00 -0.23834622867E+03 -0.30142935366E+03  0.38427671099E+03  0.50400001928E-02 0.  1.
       -1    1    3    3    0  502 -0.10302713604E+00  0.23834622867E+03 -0.10492973440E+03  0.26042116758E+03  0.50400001928E-02 0. -1.
</event>
<event>
 5   0  0.5038436E-02  0.4963206E+03  0.7818609E-02  0.1014744E+00
       -1   -1    0    0    0  501  0.00000000000E+00  0.00000000000E+00  0.48119405130E+02  0.48119405394E+02  0.50400001928E-02 0.  1.
        1   -1    0    0  501    0  0.00000000000E+00  0.00000000000E+00 -0.12798064642E+04  0.12798064642E+04  0.50400001928E-02 0. -1.
    10030    2    1    2    0    0  0.00000000000E+00  0.00000000000E+00 -0.12316870591E+04  0.13279258696E+04  0.49632056545E+03 0.  0.
        1    1    3    3  502    0  0.14992624795E+03  0.46123880986E+02 -0.11303426562E+04  0.11411747512E+04  0.50400001928E-02 0. -1.
       -1    1    3    3    0  502 -0.14992624795E+03 -0.46123880986E+02 -0.10134440286E+03  0.18675111844E+03  0.50400001928E-02 0.  1.
</event>
<event>
 5   0  0.8208720E-02  0.4994547E+03  0.7818609E-02  0.1013921E+00
        2   -1    0    0  501    0  0.00000000000E+00  0.00000000000E+00  0.16713513708E+04  0.16713513708E+04  0.25500000920E-02 0.  1.
       -2   -1    0    0    0  501  0.00000000000E+00  0.00000000000E+00 -0.37313364692E+02  0.37313364779E+02  0.25500000920E-02 0. -1.
    10030    2    1    2    0    0  0.00000000000E+00  0.00000000000E+00  0.16340380061E+04  0.17086647356E+04  0.49945467584E+03 0.  0.
        3    1    3    3  502    0  0.24388240032E+03  0.43501637905E+02  0.92480768369E+03  0.95741332752E+03  0.10100000352E+00 0.  1.
       -3    1    3    3    0  502 -0.24388240032E+03 -0.43501637905E+02  0.70923032243E+03  0.75125140808E+03  0.10100000352E+00 0. -1.
</event>
<event>
 5   0  0.8208720E-02  0.4968756E+03  0.7818609E-02  0.1014598E+00
        2   -1    0    0  501    0  0.00000000000E+00  0.00000000000E+00  0.98864336007E+03  0.98864336007E+03  0.25500000920E-02 0.  1.
       -2   -1    0    0    0  501  0.00000000000E+00  0.00000000000E+00 -0.62430346835E+02  0.62430346887E+02  0.25500000920E-02 0. -1.
    10030    2    1    2    0    0  0.00000000000E+00  0.00000000000E+00  0.92621301323E+03  0.10510737070E+04  0.49687562989E+03 0.  0.
        3    1    3    3  502    0  0.94931316558E+02  0.20266392623E+03  0.23491436191E+03  0.32445244565E+03  0.10100000352E+00 0.  1.
       -3    1    3    3    0  502 -0.94931316558E+02 -0.20266392623E+03  0.69129865132E+03  0.72662126130E+03  0.10100000352E+00 0. -1.
</event>
<event>
 5   0  0.7776070E-02  0.4978803E+03  0.7818609E-02  0.1014334E+00
       -2   -1    0    0    0  501  0.00000000000E+00  0.00000000000E+00  0.67673277865E+02  0.67673277913E+02  0.25500000920E-02 0.  1.
        2   -1    0    0  501    0  0.00000000000E+00  0.00000000000E+00 -0.91574108802E+03  0.91574108803E+03  0.25500000920E-02 0. -1.
    10030    2    1    2    0    0  0.00000000000E+00  0.00000000000E+00 -0.84806781016E+03  0.98341436594E+03  0.49788031143E+03 0.  0.
        4    1    3    3  502    0  0.20815570028E+03  0.13643291159E+03 -0.43426943773E+03  0.50053400721E+03  0.12699999809E+01 0. -1.
       -4    1    3    3    0  502 -0.20815570028E+03 -0.13643291159E+03 -0.41379837243E+03  0.48288035873E+03  0.12699999809E+01 0.  1.
</event>
<event>
 5   0  0.4884478E-02  0.4994321E+03  0.7818609E-02  0.1013927E+00
       -1   -1    0    0    0  501  0.00000000000E+00  0.00000000000E+00  0.61291888002E+03  0.61291888004E+03  0.50400001928E-02 0. -1.
        1   -1    0    0  501    0  0.00000000000E+00  0.00000000000E+00 -0.10173955802E+03  0.10173955814E+03  0.50400001928E-02 0.  1.
    10030    2    1    2    0    0  0.00000000000E+00  0.00000000000E+00  0.51117932200E+03  0.71465843819E+03  0.49943206147E+03 0.  0.
        3    1    3    3  502    0 -0.32469595591E+02  0.78433733116E+02  0.59163864392E+03  0.59769759938E+03  0.10100000352E+00 0. -1.
       -3    1    3    3    0  502  0.32469595591E+02 -0.78433733116E+02 -0.80459321920E+02  0.11696083880E+03  0.10100000352E+00 0.  1.
</event>
<event>
 5   0  0.7776070E-02  0.5512394E+03  0.7818609E-02  0.1001207E+00
        2   -1    0    0  501    0  0.00000000000E+00  0.00000000000E+00  0.20497030739E+04  0.20497030739E+04  0.25500000920E-02 0. -1.
       -2   -1    0    0    0  501  0.00000000000E+00  0.00000000000E+00 -0.37062066778E+02  0.37062066866E+02  0.25500000920E-02 0.  1.
    10030    2    1    2    0    0  0.00000000000E+00  0.00000000000E+00  0.20126410071E+04  0.20867651407E+04  0.55123944812E+03 0.  0.
        4    1    3    3  502    0  0.64127836992E+02  0.25895410895E+03  0.12684573160E+04  0.12962080024E+04  0.12699999809E+01 0. -1.
       -4    1    3    3    0  502 -0.64127836992E+02 -0.25895410895E+03  0.74418369106E+03  0.79055713833E+03  0.12699999809E+01 0.  1.
</event>
<event>
 5   0  0.4803890E-02  0.5105390E+03  0.7818609E-02  0.1011064E+00
        1   -1    0    0  501    0  0.00000000000E+00  0.00000000000E+00  0.58432125342E+03  0.58432125344E+03  0.50400001928E-02 0. -1.
       -1   -1    0    0    0  501  0.00000000000E+00  0.00000000000E+00 -0.11151832108E+03  0.11151832119E+03  0.50400001928E-02 0.  1.
    10030    2    1    2    0    0  0.00000000000E+00  0.00000000000E+00  0.47280293234E+03  0.69583957463E+03  0.51053902964E+03 0.  0.
        5    1    3    3  502    0  0.15558841236E+03 -0.96387564269E+02 -0.60433781898E+01  0.18318550441E+03  0.46999998093E+01 0.  1.
       -5    1    3    3    0  502 -0.15558841236E+03  0.96387564269E+02  0.47884631053E+03  0.51265407022E+03  0.46999998093E+01 0. -1.
</event>
<event>
 5   0  0.7881060E-02  0.5134670E+03  0.7818609E-02  0.1010322E+00
       -2   -1    0    0    0  501  0.00000000000E+00  0.00000000000E+00  0.10052485628E+03  0.10052485632E+03  0.25500000920E-02 0. -1.
        2   -1    0    0  501    0  0.00000000000E+00  0.00000000000E+00 -0.65567942688E+03  0.65567942689E+03  0.25500000920E-02 0.  1.
    10030    2    1    2    0    0  0.00000000000E+00  0.00000000000E+00 -0.55515457060E+03  0.75620428320E+03  0.51346696162E+03 0.  0.
        1    1    3    3  502    0  0.16136172807E+03 -0.14306130414E+03 -0.48274844119E+03  0.52872507178E+03  0.50400001928E-02 0.  1.
       -1    1    3    3    0  502 -0.16136172807E+03  0.14306130414E+03 -0.72406129405E+02  0.22747921142E+03  0.50400001928E-02 0. -1.
</event>
<event>
 5   0  0.3210875E-02  0.4994914E+03  0.7818609E-02  0.1013912E+00
        4   -1    0    0  501    0  0.00000000000E+00  0.00000000000E+00  0.29207915919E+03  0.29208192024E+03  0.12699999809E+01 0.  1.
       -4   -1    0    0    0  501  0.00000000000E+00  0.00000000000E+00 -0.21354230477E+03  0.21354608127E+03  0.12699999809E+01 0. -1.
    10030    2    1    2    0    0  0.00000000000E+00  0.00000000000E+00  0.78536854422E+02  0.50562800151E+03  0.49949137972E+03 0.  0.
        5    1    3    3  502    0 -0.14572662725E+03 -0.44686399240E+02 -0.16094340961E+03  0.22171602392E+03  0.46999998093E+01 0. -1.
       -5    1    3    3    0  502  0.14572662725E+03  0.44686399240E+02  0.23948026403E+03  0.28391197760E+03  0.46999998093E+01 0.  1.
</event>
<event>
 5   0  0.7933103E-02  0.4976657E+03  0.7818609E-02  0.1014390E+00
       -2   -1    0    0    0  501  0.00000000000E+00  0.00000000000E+00  0.43166129728E+02  0.43166129803E+02  0.25500000920E-02 0. -1.
        2   -1    0    0  501    0  0.00000000000E+00  0.00000000000E+00 -0.14344069577E+04  0.14344069577E+04  0.25500000920E-02 0.  1.
    10030    2    1    2    0    0  0.00000000000E+00  0.00000000000E+00 -0.13912408280E+04  0.14775730875E+04  0.49766573873E+03 0.  0.
        5    1    3    3  502    0 -0.10914058083E+03 -0.21186173954E+03 -0.48361909354E+03  0.53917212530E+03  0.46999998093E+01 0. -1.
       -5    1    3    3    0  502  0.10914058083E+03  0.21186173954E+03 -0.90762173445E+03  0.93840096223E+03  0.46999998093E+01 0.  1.
</event>
<event>
 5   0  0.4884478E-02  0.5044887E+03  0.7818609E-02  0.1012614E+00
       -1   -1    0    0    0  501  0.00000000000E+00  0.00000000000E+00  0.85775740460E+02  0.85775740608E+02  0.50400001928E-02 0.  1.
        1   -1    0    0  501    0  0.00000000000E+00  0.00000000000E+00 -0.74178555567E+03  0.74178555569E+03  0.50400001928E-02 0. -1.
    10030    2    1    2    0    0  0.00000000000E+00  0.00000000000E+00 -0.65600981521E+03  0.82756129630E+03  0.50448867329E+03 0.  0.
        3    1    3    3  502    0 -0.22456273850E+03  0.66409279274E+02 -0.48178782246E+03  0.53568473188E+03  0.10100000352E+00 0. -1.
       -3    1    3    3    0  502  0.22456273850E+03 -0.66409279274E+02 -0.17422199275E+03  0.29187656442E+03  0.10100000352E+00 0.  1.
</event>
<event>
 5   0  0.5038436E-02  0.5002298E+03  0.7818609E-02  0.1013719E+00
       -1   -1    0    0    0  501  0.00000000000E+00  0.00000000000E+00  0.11683006004E+03  0.11683006015E+03  0.50400001928E-02 0.  1.
        1   -1    0    0  501    0  0.00000000000E+00  0.00000000000E+00 -0.53545684063E+03  0.53545684065E+03  0.50400001928E-02 0. -1.
    10030    2    1    2    0    0  0.00000000000E+00  0.00000000000E+00 -0.41862678059E+03  0.65228690079E+03  0.50022976673E+03 0.  0.
        1    1    3    3  502    0  0.16124246138E+03  0.18967117342E+03 -0.24080294493E+03  0.34635291783E+03  0.50400001928E-02 0. -1.
       -1    1    3    3    0  502 -0.16124246138E+03 -0.18967117342E+03 -0.17782383565E+03  0.30593398296E+03  0.50400001928E-02 0.  1.
</event>
<event>
 5   0  0.3210875E-02  0.5196113E+03  0.7818609E-02  0.1008783E+00
        3   -1    0    0  501    0  0.00000000000E+00  0.00000000000E+00  0.20827270101E+03  0.20827272549E+03  0.10100000352E+00 0. -1.
       -3   -1    0    0    0  501  0.00000000000E+00  0.00000000000E+00 -0.32408929317E+03  0.32408930891E+03  0.10100000352E+00 0.  1.
    10030    2    1    2    0    0  0.00000000000E+00  0.00000000000E+00 -0.11581659216E+03  0.53236203440E+03  0.51961125147E+03 0.  0.
        3    1    3    3  502    0 -0.20417988813E+03 -0.15288688075E+03 -0.10846624201E+03  0.27718001530E+03  0.10100000352E+00 0.  1.
       -3    1    3    3    0  502  0.20417988813E+03  0.15288688075E+03 -0.73503501585E+01  0.25518201910E+03  0.10100000352E+00 0. -1.
</event>
<event>
 5   0  0.4803890E-02  0.5074415E+03  0.7818609E-02  0.1011855E+00
       -1   -1    0    0    0  501  0.00000000000E+00  0.00000000000E+00  0.28194518999E+03  0.28194519003E+03  0.50400001928E-02 0. -1.
        1   -1    0    0  501    0  0.00000000000E+00  0.00000000000E+00 -0.22832178249E+03  0.22832178254E+03  0.50400001928E-02 0.  1.
    10030    2    1    2    0    0  0.00000000000E+00  0.00000000000E+00  0.53623407503E+02  0.51026697257E+03  0.50744153700E+03 0.  0.
        5    1    3    3  502    0 -0.24501824177E+03  0.92870294742E+01  0.92227366055E+02  0.26200794790E+03  0.46999998093E+01 0. -1.
       -5    1    3    3    0  502  0.24501824177E+03 -0.92870294742E+01 -0.38603958552E+02  0.24825902467E+03  0.46999998093E+01 0.  1.
</event>
<event>
 5   0  0.5038436E-02  0.5000170E+03  0.7818609E-02  0.1013774E+00
        1   -1    0    0  501    0  0.00000000000E+00  0.00000000000E+00  0.32360430703E+03  0.32360430706E+03  0.50400001928E-02 0. -1.
       -1   -1    0    0    0  501  0.00000000000E+00  0.00000000000E+00 -0.19315022125E+03  0.19315022131E+03  0.50400001928E-02 0.  1.
    10030    2    1    2    0    0  0.00000000000E+00  0.00000000000E+00  0.13045408578E+03  0.51675452838E+03  0.50001697381E+03 0.  0.
        1    1    3    3  502    0  0.11770383098E+03 -0.14663573656E+03 -0.10505488695E+03  0.21538978704E+03  0.50400001928E-02 0.  1.
       -1    1    3    3    0  502 -0.11770383098E+03  0.14663573656E+03  0.23550897273E+03  0.30136474134E+03  0.50400001928E-02 0. -1.
</event>
<event>
 5   0  0.4865501E-02  0.5048624E+03  0.7818609E-02  0.1012518E+00
        1   -1    0    0  501    0  0.00000000000E+00  0.00000000000E+00  0.72892050526E+03  0.72892050528E+03  0.50400001928E-02 0.  1.
       -1   -1    0    0    0  501  0.00000000000E+00  0.00000000000E+00 -0.87418999631E+02  0.87418999776E+02  0.50400001928E-02 0. -1.
    10030    2    1    2    0    0  0.00000000000E+00  0.00000000000E+00  0.64150150563E+03  0.81633950506E+03  0.50486236321E+03 0.  0.
        2    1    3    3  502    0 -0.12710984744E+03  0.11832898432E+03  0.24522029677E+02  0.17538526675E+03  0.25500000920E-02 0. -1.
       -2    1    3    3    0  502  0.12710984744E+03 -0.11832898432E+03  0.61697947596E+03  0.64095423831E+03  0.25500000920E-02 0.  1.
</event>
<event>
 5   0  0.4884478E-02  0.5009164E+03  0.7818609E-02  0.1013540E+00
        1   -1    0    0  501    0  0.00000000000E+00  0.00000000000E+00  0.33498542312E+03  0.33498542316E+03  0.50400001928E-02 0. -1.
       -1   -1    0    0    0  501  0.00000000000E+00  0.00000000000E+00 -0.18725982167E+03  0.18725982173E+03  0.50400001928E-02 0.  1.
    10030    2    1    2    0    0  0.00000000000E+00  0.00000000000E+00  0.14772560146E+03  0.52224524489E+03  0.50091640269E+03 0.  0.
        3    1    3    3  502    0 -0.80015952145E+01 -0.42191953718E+02 -0.18339277883E+03  0.18835367799E+03  0.10100000352E+00 0.  1.
       -3    1    3    3    0  502  0.80015952145E+01  0.42191953718E+02  0.33111838029E+03  0.33389156690E+03  0.10100000352E+00 0. -1.
</event>
<event>
 5   0  0.7933103E-02  0.5009375E+03  0.7818609E-02  0.1013535E+00
       -2   -1    0    0    0  501  0.00000000000E+00  0.00000000000E+00  0.44844274777E+02  0.44844274850E+02  0.25500000920E-02 0. -1.
        2   -1    0    0  501    0  0.00000000000E+00  0.00000000000E+00 -0.13989432383E+04  0.13989432383E+04  0.25500000920E-02 0.  1.
    10030    2    1    2    0    0  0.00000000000E+00  0.00000000000E+00 -0.13540989636E+04  0.14437875132E+04  0.50093750122E+03 0.  0.
        5    1    3    3  502    0 -0.18382665877E+03  0.12081873310E+03 -0.10219852432E+04  0.10454019964E+04  0.46999998093E+01 0.  1.
       -5    1    3    3    0  502  0.18382665877E+03 -0.12081873310E+03 -0.33211372036E+03  0.39838551680E+03  0.46999998093E+01 0. -1.
</event>
<event>
 5   0  0.4803890E-02  0.5483574E+03  0.7818609E-02  0.1001875E+00
       -1   -1    0    0    0  501  0.00000000000E+00  0.00000000000E+00  0.54209103421E+02  0.54209103655E+02  0.50400001928E-02 0.  1.
        1   -1    0    0  501    0  0.00000000000E+00  0.00000000000E+00 -0.13867405311E+04  0.13867405311E+04  0.50400001928E-02 0. -1.
    10030    2    1    2    0    0  0.00000000000E+00  0.00000000000E+00 -0.13325314277E+04  0.14409496348E+04  0.54835740551E+03 0.  0.
        5    1    3    3  502    0  0.15795206306E+02  0.23699205153E+03 -0.30656868102E+03  0.38784167802E+03  0.46999998093E+01 0.  1.
       -5    1    3    3    0  502 -0.15795206306E+02 -0.23699205153E+03 -0.10259627467E+04  0.10531079567E+04  0.46999998093E+01 0. -1.
</event>
<event>
 5   0  0.7881060E-02  0.4980724E+03  0.7818609E-02  0.1014283E+00
        2   -1    0    0  501    0  0.00000000000E+00  0.00000000000E+00  0.21915050134E+04  0.21915050134E+04  0.25500000920E-02 0. -1.
       -2   -1    0    0    0  501  0.00000000000E+00  0.00000000000E+00 -0.28299742551E+02  0.28299742666E+02  0.25500000920E-02 0.  1.
    10030    2    1    2    0    0  0.00000000000E+00  0.00000000000E+00  0.21632052708E+04  0.22198047561E+04  0.49807239557E+03 0.  0.
        1    1    3    3  502    0 -0.11573540019E+03 -0.59849727981E+02  0.13572959039E+03  0.18814673670E+03  0.50400001928E-02 0.  1.
       -1    1    3    3    0  502  0.11573540019E+03  0.59849727981E+02  0.20274756804E+04  0.20316580194E+04  0.50400001928E-02 0. -1.
</event>
<event>
 5   0  0.5038436E-02  0.4951662E+03  0.7818609E-02  0.1015048E+00
       -1   -1    0    0    0  501  0.00000000000E+00  0.00000000000E+00  0.84400995695E+02  0.84400995846E+02  0.50400001928E-02 0. -1.
        1   -1    0    0  501    0  0.00000000000E+00  0.00000000000E+00 -0.72626375445E+03  0.72626375447E+03  0.50400001928E-02 0.  1.
    10030    2    1    2    0    0  0.00000000000E+00  0.00000000000E+00 -0.64186275876E+03  0.81066475032E+03  0.49516617042E+03 0.  0.
        1    1    3    3  502    0 -0.71705031800E+02 -0.12034197092E+02  0.66528549733E+02  0.98551922559E+02  0.50400001928E-02 0. -1.
       -1    1    3    3    0  502  0.71705031800E+02  0.12034197092E+02 -0.70839130849E+03  0.71211282776E+03  0.50400001928E-02 0.  1.
</event>
<event>
 5   0  0.7776070E-02  0.5012856E+03  0.7818609E-02  0.1013444E+00
        2   -1    0    0  501    0  0.00000000000E+00  0.00000000000E+00  0.96140550155E+03  0.96140550155E+03  0.25500000920E-02 0.  1.
       -2   -1    0    0    0  501  0.00000000000E+00  0.00000000000E+00 -0.65343728311E+02  0.65343728361E+02  0.25500000920E-02 0. -1.
    10030    2    1    2    0    0  0.00000000000E+00  0.00000000000E+00  0.89606177324E+03  0.10267492299E+04  0.50128562683E+03 0.  0.
        4    1    3    3  502    0 -0.62627198112E+02 -0.11752772798E+03  0.13123793195E+02  0.13382368862E+03  0.12699999809E+01 0. -1.
       -4    1    3    3    0  502  0.62627198112E+02  0.11752772798E+03  0.88293798004E+03  0.89292554129E+03  0.12699999809E+01 0.  1.
</event>
<event>
 5   0  0.8208720E-02  0.5167692E+03  0.7818609E-02  0.1009492E+00
        2   -1    0    0  501    0  0.00000000000E+00  0.00000000000E+00  0.31190506015E+03  0.31190506016E+03  0.25500000920E-02 0.  1.
       -2   -1    0    0    0  501  0.00000000000E+00  0.00000000000E+00 -0.21404780989E+03  0.21404780990E+03  0.25500000920E-02 0. -1.
    10030    2    1    2    0    0  0.00000000000E+00  0.00000000000E+00  0.97857250263E+02  0.52595287007E+03  0.51676917488E+03 0.  0.
        3    1    3    3  502    0  0.13105310716E+03  0.37189944696E+02 -0.17452857995E+03  0.22140064206E+03  0.10100000352E+00 0. -1.
       -3    1    3    3    0  502 -0.13105310716E+03 -0.37189944696E+02  0.27238583021E+03  0.30455222801E+03  0.10100000352E+00 0.  1.
</event>
<event>
 5   0  0.4884478E-02  0.4985256E+03  0.7818609E-02  0.1014164E+00
        1   -1    0    0  501    0  0.00000000000E+00  0.00000000000E+00  0.61186916028E+03  0.61186916030E+03  0.50400001928E-02 0. -1.
       -1   -1    0    0    0  501  0.00000000000E+00  0.00000000000E+00 -0.10154450620E+03  0.10154450633E+03  0.50400001928E-02 0.  1.
    10030    2    1    2    0    0  0.00000000000E+00  0.00000000000E+00  0.51032465408E+03  0.71341366663E+03  0.49852563342E+03 0.  0.
        3    1    3    3  502    0 -0.22703452027E+03  0.23377198751E+01  0.10795352715E+03  0.25140428110E+03  0.10100000352E+00 0.  1.
       -3    1    3    3    0  502  0.22703452027E+03 -0.23377198751E+01  0.40237112693E+03  0.46200938553E+03  0.10100000352E+00 0. -1.
</event>
<event>
 5   0  0.4803890E-02  0.4999248E+03  0.7818609E-02  0.1013799E+00
       -1   -1    0    0    0  501  0.00000000000E+00  0.00000000000E+00  0.93310243221E+02  0.93310243357E+02  0.50400001928E-02 0.  1.
        1   -1    0    0  501    0  0.00000000000E+00  0.00000000000E+00 -0.66960714986E+03  0.66960714988E+03  0.50400001928E-02 0. -1.
    10030    2    1    2    0    0  0.00000000000E+00  0.00000000000E+00 -0.57629690664E+03  0.76291739323E+03  0.49992481865E+03 0.  0.
        5    1    3    3  502    0  0.14231889481E+03 -0.14209942165E+03 -0.51456312690E+03  0.55248910850E+03  0.46999998093E+01 0. -1.
       -5    1    3    3    0  502 -0.14231889481E+03  0.14209942165E+03 -0.61733779741E+02  0.21042828473E+03  0.46999998093E+01 0.  1.
</event>
<event>
 5   0  0.3210875E-02  0.4906438E+03  0.7818609E-02  0.1016250E+00
       -3   -1    0    0    0  501  0.00000000000E+00  0.00000000000E+00  0.16485209403E+03  0.16485212497E+03  0.10100000352E+00 0. -1.
        3   -1    0    0  501    0  0.00000000000E+00  0.00000000000E+00 -0.36507165885E+03  0.36507167283E+03  0.10100000352E+00 0.  1.
    10030    2    1    2    0    0  0.00000000000E+00  0.00000000000E+00 -0.20021956482E+03  0.52992379780E+03  0.49064381922E+03 0.  0.
        2    1    3    3  502    0 -0.68632945393E+01  0.22139847090E+03  0.13775930792E+02  0.22193279164E+03  0.25500000920E-02 0. -1.
       -2    1    3    3    0  502  0.68632945393E+01 -0.22139847090E+03 -0.21399549561E+03  0.30799100616E+03  0.25500000920E-02 0.  1.
</event>
<event>
 5   0  0.4865501E-02  0.4948662E+03  0.7818609E-02  0.1015128E+00
        1   -1    0    0  501    0  0.00000000000E+00  0.00000000000E+00  0.11654256719E+03  0.11654256730E+03  0.50400001928E-02 0.  1.
       -1   -1    0    0    0  501  0.00000000000E+00  0.00000000000E+00 -0.52532856533E+03  0.52532856535E+03  0.50400001928E-02 0. -1.
    10030    2    1    2    0    0  0.00000000000E+00  0.00000000000E+00 -0.40878599814E+03  0.64187113265E+03  0.49486620278E+03 0.  0.
        2    1    3    3  502    0 -0.15506905205E+03  0.18907958215E+03 -0.15541905943E+03  0.28974572185E+03  0.25500000920E-02 0.  1.
       -2    1    3    3    0  502  0.15506905205E+03 -0.18907958215E+03 -0.25336693872E+03  0.35212541080E+03  0.25500000920E-02 0. -1.
</event>
<event>
 5   0  0.8208720E-02  0.4980892E+03  0.7818609E-02  0.1014279E+00
       -2   -1    0    0    0  501  0.00000000000E+00  0.00000000000E+00  0.51315899059E+02  0.51315899123E+02  0.25500000920E-02 0.  1.
        2   -1    0    0  501    0  0.00000000000E+00  0.00000000000E+00 -0.12086550342E+04  0.12086550342E+04  0.25500000920E-02 0. -1.
    10030    2    1    2    0    0  0.00000000000E+00  0.00000000000E+00 -0.11573391351E+04  0.12599709333E+04  0.49808922804E+03 0.  0.
        3    1    3    3  502    0 -0.12111439729E+03 -0.46729845145E+02 -0.11162982509E+04  0.11238212361E+04  0.10100000352E+00 0. -1.
       -3    1    3    3    0  502  0.12111439729E+03  0.46729845145E+02 -0.41040884231E+02  0.13614969716E+03  0.10100000352E+00 0.  1.
</event>
<event>
 5   0  0.7698747E-02  0.4989639E+03  0.7818609E-02  0.1014050E+00
       -2   -1    0    0    0  501  0.00000000000E+00  0.00000000000E+00  0.15894827641E+03  0.15894827643E+03  0.25500000920E-02 0. -1.
        2   -1    0    0  501    0  0.00000000000E+00  0.00000000000E+00 -0.39158175265E+03  0.39158175266E+03  0.25500000920E-02 0.  1.
    10030    2    1    2    0    0  0.00000000000E+00  0.00000000000E+00 -0.23263347623E+03  0.55053002909E+03  0.49896390517E+03 0.  0.
        2    1    3    3  502    0  0.15348227885E+03  0.17932016711E+03 -0.27165854554E+02  0.23759317312E+03  0.25500000920E-02 0. -1.
       -2    1    3    3    0  502 -0.15348227885E+03 -0.17932016711E+03 -0.20546762168E+03  0.31293685596E+03  0.25500000920E-02 0.  1.
</event>
<event>
 5   0  0.8208720E-02  0.4961662E+03  0.7818609E-02  0.1014784E+00
       -2   -1    0    0    0  501  0.00000000000E+00  0.00000000000E+00  0.54713315362E+02  0.54713315421E+02  0.25500000920E-02 0.  1.
        2   -1    0    0  501    0  0.00000000000E+00  0.00000000000E+00 -0.11248672916E+04  0.11248672916E+04  0.25500000920E-02 0. -1.
    10030    2    1    2    0    0  0.00000000000E+00  0.00000000000E+00 -0.10701539763E+04  0.11795806070E+04  0.49616617742E+03 0.  0.
        3    1    3    3  502    0  0.21225808445E+03 -0.12717474737E+03 -0.49266219376E+03  0.55131021952E+03  0.10100000352E+00 0.  1.
       -3    1    3    3    0  502 -0.21225808445E+03  0.12717474737E+03 -0.57749178250E+03  0.62827038752E+03  0.10100000352E+00 0. -1.
</event>
<event>
 5   0  0.7698747E-02  0.5056167E+03  0.7818609E-02  0.1012323E+00
        2   -1    0    0  501    0  0.00000000000E+00  0.00000000000E+00  0.10338599460E+04  0.10338599460E+04  0.25500000920E-02 0. -1.
       -2   -1    0    0    0  501  0.00000000000E+00  0.00000000000E+00 -0.61818872549E+02  0.61818872601E+02  0.25500000920E-02 0.  1.
    10030    2    1    2    0    0  0.00000000000E+00  0.00000000000E+00  0.97204107346E+03  0.10956788186E+04  0.50561667799E+03 0.  0.
        2    1    3    3  502    0  0.65261234847E+02  0.12873777381E+03  0.93579808435E+03  0.94686350540E+03  0.25500000920E-02 0. -1.
       -2    1    3    3    0  502 -0.65261234847E+02 -0.12873777381E+03  0.36242989106E+02  0.14881531321E+03  0.25500000920E-02 0.  1.
</event>
<event>
 5   0  0.8208720E-02  0.5012840E+03  0.7818609E-02  0.1013444E+00
       -2   -1    0    0    0  501  0.00000000000E+00  0.00000000000E+00  0.22761457125E+03  0.22761457126E+03  0.25500000920E-02 0. -1.
        2   -1    0    0  501    0  0.00000000000E+00  0.00000000000E+00 -0.27599902621E+03  0.27599902622E+03  0.25500000920E-02 0.  1.
    10030    2    1    2    0    0  0.00000000000E+00  0.00000000000E+00 -0.48384454964E+02  0.50361359748E+03  0.50128395155E+03 0.  0.
        3    1    3    3  502    0  0.85506750165E+02 -0.23559587943E+03 -0.26339234490E+02  0.25201307150E+03  0.10100000352E+00 0. -1.
       -3    1    3    3    0  502 -0.85506750165E+02  0.23559587943E+03 -0.22045220474E+02  0.25160052599E+03  0.10100000352E+00 0.  1.
</event>
<event>
 5   0  0.7933103E-02  0.5001647E+03  0.7818609E-02  0.1013736E+00
       -2   -1    0    0    0  501  0.00000000000E+00  0.00000000000E+00  0.63916414918E+03  0.63916414918E+03  0.25500000920E-02 0.  1.
        2   -1    0    0  501    0  0.00000000000E+00  0.00000000000E+00 -0.97848380658E+02  0.97848380691E+02  0.25500000920E-02 0. -1.
    10030    2    1    2    0    0  0.00000000000E+00  0.00000000000E+00  0.54131576852E+03  0.73701252987E+03  0.50016468082E+03 0.  0.
        5    1    3    3  502    0  0.14335639099E+03 -0.19800831306E+03  0.34808170747E+03  0.42537196893E+03  0.46999998093E+01 0.  1.
       -5    1    3    3    0  502 -0.14335639099E+03  0.19800831306E+03  0.19323406105E+03  0.31164056094E+03  0.46999998093E+01 0. -1.
</event>
<event>
 5   0  0.7776070E-02  0.5022009E+03  0.7818609E-02  0.1013206E+00
        2   -1    0    0  501    0  0.00000000000E+00  0.00000000000E+00  0.13844778694E+03  0.13844778696E+03  0.25500000920E-02 0. -1.
       -2   -1    0    0    0  501  0.00000000000E+00  0.00000000000E+00 -0.45541680212E+03  0.45541680213E+03  0.25500000920E-02 0.  1.
    10030    2    1    2    0    0  0.00000000000E+00  0.00000000000E+00 -0.31696901518E+03  0.59386458910E+03  0.50220094942E+03 0.  0.
        4    1    3    3  502    0  0.83736473770E+02 -0.13417659851E+03 -0.38910599960E+03  0.42002410461E+03  0.12699999809E+01 0.  1.
       -4    1    3    3    0  502 -0.83736473770E+02  0.13417659851E+03  0.72136984416E+02  0.17384048449E+03  0.12699999809E+01 0. -1.
</event>
<event>
 5   0  0.7776070E-02  0.5072032E+03  0.7818609E-02  0.1011916E+00
       -2   -1    0    0    0  501  0.00000000000E+00  0.00000000000E+00  0.13536039018E+03  0.13536039020E+03  0.25500000920E-02 0.  1.
        2   -1    0    0  501    0  0.00000000000E+00  0.00000000000E+00 -0.47512989209E+03  0.47512989210E+03  0.25500000920E-02 0. -1.
    10030    2    1    2    0    0  0.00000000000E+00  0.00000000000E+00 -0.33976950191E+03  0.61049028230E+03  0.50720318449E+03 0.  0.
        4    1    3    3  502    0  0.25269757321E+03 -0.12410765487E+02 -0.14896549047E+03  0.29360248782E+03  0.12699999809E+01 0.  1.
       -4    1    3    3    0  502 -0.25269757321E+03  0.12410765487E+02 -0.19080401144E+03  0.31688779448E+03  0.12699999809E+01 0. -1.
</event>
<event>
 5   0  0.5038436E-02  0.4992823E+03  0.7818609E-02  0.1013966E+00
       -1   -1    0    0    0  501  0.00000000000E+00  0.00000000000E+00  0.47722714928E+02  0.47722715194E+02  0.50400001928E-02 0. -1.
        1   -1    0    0  501    0  0.00000000000E+00  0.00000000000E+00 -0.13058920025E+04  0.13058920025E+04  0.50400001928E-02 0.  1.
    10030    2    1    2    0    0  0.00000000000E+00  0.00000000000E+00 -0.12581692876E+04  0.13536147177E+04  0.49928233275E+03 0.  0.
        1    1    3    3  502    0  0.15359901745E+03  0.19406790845E+03 -0.54057991224E+03  0.59454323038E+03  0.50400001928E-02 0. -1.
       -1    1    3    3    0  502 -0.15359901745E+03 -0.19406790845E+03 -0.71758937535E+03  0.75907148734E+03  0.50400001928E-02 0.  1.
</event>
<event>
 5   0  0.7698747E-02  0.4995432E+03  0.7818609E-02  0.1013898E+00
        2   -1    0    0  501    0  0.00000000000E+00  0.00000000000E+00  0.91780876441E+03  0.91780876442E+03  0.25500000920E-02 0.  1.
       -2   -1    0    0    0  501  0.00000000000E+00  0.00000000000E+00 -0.67972616227E+02  0.67972616275E+02  0.25500000920E-02 0. -1.
    10030    2    1    2    0    0  0.00000000000E+00  0.00000000000E+00  0.84983614818E+03  0.98578138069E+03  0.49954324313E+03 0.  0.
        2    1    3    3  502    0 -0.14738473245E+03 -0.16959581648E+03  0.64019463291E+03  0.67847930576E+03  0.25500000920E-02 0.  1.
       -2    1    3    3    0  502  0.14738473245E+03  0.16959581648E+03  0.20964151527E+03  0.30730207493E+03  0.25500000920E-02 0. -1.
</event>
<event>
 5   0  0.4803890E-02  0.4979664E+03  0.7818609E-02  0.1014311E+00
       -1   -1    0    0    0  501  0.00000000000E+00  0.00000000000E+00  0.52429684428E+03  0.52429684430E+03  0.50400001928E-02 0.  1.
        1   -1    0    0  501    0  0.00000000000E+00  0.00000000000E+00 -0.11823957808E+03  0.11823957818E+03  0.50400001928E-02 0. -1.
    10030    2    1    2    0    0  0.00000000000E+00  0.00000000000E+00  0.40605726620E+03  0.64253642249E+03  0.49796641532E+03 0.  0.
        5    1    3    3  502    0 -0.80292791897E+02 -0.15808357025E+02 -0.10033045471E+03  0.12955742635E+03  0.46999998093E+01 0. -1.
       -5    1    3    3    0  502  0.80292791897E+02  0.15808357025E+02  0.50638772091E+03  0.51297899613E+03  0.46999998093E+01 0.  1.
</event>
<event>
 5   0  0.5191358E-02  0.5028081E+03  0.7818609E-02  0.1013049E+00
        1   -1    0    0  501    0  0.00000000000E+00  0.00000000000E+00  0.40038490585E+03  0.40038490588E+03  0.50400001928E-02 0. -1.
       -1   -1    0    0    0  501  0.00000000000E+00  0.00000000000E+00 -0.15785806781E+03  0.15785806789E+03  0.50400001928E-02 0.  1.
    10030    2    1    2    0    0  0.00000000000E+00  0.00000000000E+00  0.24252683804E+03  0.55824297377E+03  0.50280806536E+03 0.  0.
        4    1    3    3  502    0 -0.83660896392E+02 -0.23500647979E+03  0.86592589747E+02  0.26405885826E+03  0.12699999809E+01 0. -1.
       -4    1    3    3    0  502  0.83660896392E+02  0.23500647979E+03  0.15593424829E+03  0.29418411551E+03  0.12699999809E+01 0.  1.
</event>
<event>
 5   0  0.4803890E-02  0.4965149E+03  0.7818609E-02  0.1014693E+00
       -1   -1    0    0    0  501  0.00000000000E+00  0.00000000000E+00  0.46222189675E+02  0.46222189950E+02  0.50400001928E-02 0. -1.
        1   -1    0    0  501    0  0.00000000000E+00  0.00000000000E+00 -0.13333802963E+04  0.13333802963E+04  0.50400001928E-02 0.  1.
    10030    2    1    2    0    0  0.00000000000E+00  0.00000000000E+00 -0.12871581066E+04  0.13796024863E+04  0.49651488260E+03 0.  0.
        5    1    3    3  502    0  0.34477576777E+02 -0.20718917479E+03 -0.27607560855E+03  0.34692346287E+03  0.46999998093E+01 0. -1.
       -5    1    3    3    0  502 -0.34477576777E+02  0.20718917479E+03 -0.10110824981E+04  0.10326790234E+04  0.46999998093E+01 0.  1.
</event>
<event>
 5   0  0.7881060E-02  0.4786833E+03  0.7818609E-02  0.1019498E+00
       -2   -1    0    0    0  501  0.00000000000E+00  0.00000000000E+00  0.48160040312E+03  0.48160040313E+03  0.25500000920E-02 0.  1.
        2   -1    0    0  501    0  0.00000000000E+00  0.00000000000E+00 -0.11894597187E+03  0.11894597189E+03  0.25500000920E-02 0. -1.
    10030    2    1    2    0    0  0.00000000000E+00  0.00000000000E+00  0.36265443126E+03  0.60054637503E+03  0.47868331081E+03 0.  0.
        1    1    3    3  502    0  0.10659266284E+03  0.71022448103E+02  0.43498277192E+03  0.45344922075E+03  0.50400001928E-02 0.  1.
       -1    1    3    3    0  502 -0.10659266284E+03 -0.71022448103E+02 -0.72328340665E+02  0.14709715427E+03  0.50400001928E-02 0. -1.
</event>
<event>
 5   0  0.8208720E-02  0.5024842E+03  0.7818609E-02  0.1013133E+00
        2   -1    0    0  501    0  0.00000000000E+00  0.00000000000E+00  0.15215098334E+03  0.15215098336E+03  0.25500000920E-02 0.  1.
       -2   -1    0    0    0  501  0.00000000000E+00  0.00000000000E+00 -0.41486813375E+03  0.41486813376E+03  0.25500000920E-02 0. -1.
    10030    2    1    2    0    0  0.00000000000E+00  0.00000000000E+00 -0.26271715041E+03  0.56701911712E+03  0.50248420678E+03 0.  0.
        3    1    3    3  502    0 -0.30833852197E+02  0.24865716407E+03 -0.15221084025E+03  0.29317104525E+03  0.10100000352E+00 0. -1.
       -3    1    3    3    0  502  0.30833852197E+02 -0.24865716407E+03 -0.11050631016E+03  0.27384807187E+03  0.10100000352E+00 0.  1.
</event>
<event>
 5   0  0.7933103E-02  0.4998328E+03  0.7818609E-02  0.1013823E+00
       -2   -1    0    0    0  501  0.00000000000E+00  0.00000000000E+00  0.92199323742E+02  0.92199323777E+02  0.25500000920E-02 0. -1.
        2   -1    0    0  501    0  0.00000000000E+00  0.00000000000E+00 -0.67742589481E+03  0.67742589482E+03  0.25500000920E-02 0.  1.
    10030    2    1    2    0    0  0.00000000000E+00  0.00000000000E+00 -0.58522657107E+03  0.76962521859E+03  0.49983280966E+03 0.  0.
        5    1    3    3  502    0 -0.17716414492E+03 -0.84679038914E+02 -0.54678710627E+02  0.20388605953E+03  0.46999998093E+01 0. -1.
       -5    1    3    3    0  502  0.17716414492E+03  0.84679038914E+02 -0.53054786044E+03  0.56573915906E+03  0.46999998093E+01 0.  1.
</event>
<event>
 5   0  0.4803890E-02  0.5001740E+03  0.7818609E-02  0.1013733E+00
       -1   -1    0    0    0  501  0.00000000000E+00  0.00000000000E+00  0.35153808673E+03  0.35153808676E+03  0.50400001928E-02 0. -1.
        1   -1    0    0  501    0  0.00000000000E+00  0.00000000000E+00 -0.17791391644E+03  0.17791391651E+03  0.50400001928E-02 0.  1.
    10030    2    1    2    0    0  0.00000000000E+00  0.00000000000E+00  0.17362417029E+03  0.52945200328E+03  0.50017404097E+03 0.  0.
        5    1    3    3  502    0 -0.80912946687E+02 -0.19151756584E+03 -0.60227399168E+02  0.21650707281E+03  0.46999998093E+01 0.  1.
       -5    1    3    3    0  502  0.80912946687E+02  0.19151756584E+03  0.23385156946E+03  0.31294493046E+03  0.46999998093E+01 0. -1.
</event>
<event>
 5   0  0.8208720E-02  0.5025830E+03  0.7818609E-02  0.1013107E+00
       -2   -1    0    0    0  501  0.00000000000E+00  0.00000000000E+00  0.24004867193E+02  0.24004867329E+02  0.25500000920E-02 0. -1.
        2   -1    0    0  501    0  0.00000000000E+00  0.00000000000E+00 -0.26306088941E+04  0.26306088941E+04  0.25500000920E-02 0.  1.
    10030    2    1    2    0    0  0.00000000000E+00  0.00000000000E+00 -0.26066040269E+04  0.26546137614E+04  0.50258299741E+03 0.  0.
        3    1    3    3  502    0 -0.14092275397E+03 -0.19798430848E+03 -0.96548902792E+03  0.99560337596E+03  0.10100000352E+00 0. -1.
       -3    1    3    3    0  502  0.14092275397E+03  0.19798430848E+03 -0.16411149990E+04  0.16590103855E+04  0.10100000352E+00 0.  1.
</event>
<event>
 5   0  0.7776070E-02  0.4927965E+03  0.7818609E-02  0.1015676E+00
       -2   -1    0    0    0  501  0.00000000000E+00  0.00000000000E+00  0.65501152015E+02  0.65501152065E+02  0.25500000920E-02 0.  1.
        2   -1    0    0  501    0  0.00000000000E+00  0.00000000000E+00 -0.92688590729E+03  0.92688590729E+03  0.25500000920E-02 0. -1.
    10030    2    1    2    0    0  0.00000000000E+00  0.00000000000E+00 -0.86138475527E+03  0.99238705935E+03  0.49279648838E+03 0.  0.
        4    1    3    3  502    0  0.19896049903E+03 -0.12395031673E+03 -0.27783653296E+03  0.36351576739E+03  0.12699999809E+01 0.  1.
       -4    1    3    3    0  502 -0.19896049903E+03  0.12395031673E+03 -0.58354822231E+03  0.62887129196E+03  0.12699999809E+01 0. -1.
</event>
<event>
 5   0  0.7933103E-02  0.4998888E+03  0.7818609E-02  0.1013808E+00
        2   -1    0    0  501    0  0.00000000000E+00  0.00000000000E+00  0.17432007767E+04  0.17432007767E+04  0.25500000920E-02 0. -1.
       -2   -1    0    0    0  501  0.00000000000E+00  0.00000000000E+00 -0.35837647812E+02  0.35837647903E+02  0.25500000920E-02 0.  1.
    10030    2    1    2    0    0  0.00000000000E+00  0.00000000000E+00  0.17073631289E+04  0.17790384246E+04  0.49988884998E+03 0.  0.
        5    1    3    3  502    0  0.53696251600E+02  0.22632383538E+03  0.52858798929E+03  0.57752326214E+03  0.46999998093E+01 0.  1.
       -5    1    3    3    0  502 -0.53696251600E+02 -0.22632383538E+03  0.11787751396E+04  0.12015151625E+04  0.46999998093E+01 0. -1.
</event>
<event>
 5   0  0.4803890E-02  0.4980654E+03  0.7818609E-02  0.1014285E+00
        1   -1    0    0  501    0  0.00000000000E+00  0.00000000000E+00  0.14347437107E+04  0.14347437107E+04  0.50400001928E-02 0.  1.
       -1   -1    0    0    0  501  0.00000000000E+00  0.00000000000E+00 -0.43225337949E+02  0.43225338243E+02  0.50400001928E-02 0. -1.
    10030    2    1    2    0    0  0.00000000000E+00  0.00000000000E+00  0.13915183727E+04  0.14779690489E+04  0.49806538522E+03 0.  0.
        5    1    3    3  502    0 -0.33129923193E+02 -0.20761474086E+03  0.29992586534E+03  0.36630463706E+03  0.46999998093E+01 0. -1.
       -5    1    3    3    0  502  0.33129923193E+02  0.20761474086E+03  0.10915925074E+04  0.11116644119E+04  0.46999998093E+01 0.  1.
</event>
<event>
 5   0  0.8208720E-02  0.5010632E+03  0.7818609E-02  0.1013502E+00
       -2   -1    0    0    0  501  0.00000000000E+00  0.00000000000E+00  0.27694875536E+03  0.27694875537E+03  0.25500000920E-02 0. -1.
        2   -1    0    0  501    0  0.00000000000E+00  0.00000000000E+00 -0.22663428165E+03  0.22663428167E+03  0.25500000920E-02 0.  1.
    10030    2    1    2    0    0  0.00000000000E+00  0.00000000000E+00  0.50314473706E+02  0.50358303703E+03  0.50106319853E+03 0.  0.
        3    1    3    3  502    0  0.56356792027E+02  0.12938424081E+03 -0.18288546750E+03  0.23100535535E+03  0.10100000352E+00 0.  1.
       -3    1    3    3    0  502 -0.56356792027E+02 -0.12938424081E+03  0.23319994120E+03  0.27257768169E+03  0.10100000352E+00 0. -1.
</event>
<event>
 5   0  0.7881060E-02  0.4990802E+03  0.7818609E-02  0.1014019E+00
        2   -1    0    0  501    0  0.00000000000E+00  0.00000000000E+00  0.10117435794E+04  0.10117435794E+04  0.25500000920E-02 0. -1.
       -2   -1    0    0    0  501  0.00000000000E+00  0.00000000000E+00 -0.61547462793E+02  0.61547462846E+02  0.25500000920E-02 0.  1.
    10030    2    1    2    0    0  0.00000000000E+00  0.00000000000E+00  0.95019611657E+03  0.10732910422E+04  0.49908015523E+03 0.  0.
        1    1    3    3  502    0 -0.24687119195E+03 -0.35853637392E+02  0.48859370801E+03  0.54859336512E+03  0.50400001928E-02 0.  1.
       -1    1    3    3    0  502  0.24687119195E+03  0.35853637392E+02  0.46160240856E+03  0.52469767709E+03  0.50400001928E-02 0. -1.
</event>
<event>
 5   0  0.7776070E-02  0.4970326E+03  0.7818609E-02  0.1014556E+00
        2   -1    0    0  501    0  0.00000000000E+00  0.00000000000E+00  0.87112134672E+03  0.87112134672E+03  0.25500000920E-02 0. -1.
       -2   -1    0    0    0  501  0.00000000000E+00  0.00000000000E+00 -0.70897527188E+02  0.70897527234E+02  0.25500000920E-02 0.  1.
    10030    2    1    2    0    0  0.00000000000E+00  0.00000000000E+00  0.80022381953E+03  0.94201887395E+03  0.49703259203E+03 0.  0.
        4    1    3    3  502    0  0.14989006836E+03 -0.47874252414E+02  0.35547566911E+02  0.16132023757E+03  0.12699999809E+01 0.  1.
       -4    1    3    3    0  502 -0.14989006836E+03  0.47874252414E+02  0.76467625262E+03  0.78069863638E+03  0.12699999809E+01 0. -1.
</event>
<event>
 5   0  0.7881060E-02  0.5024209E+03  0.7818609E-02  0.1013149E+00
        2   -1    0    0  501    0  0.00000000000E+00  0.00000000000E+00  0.13995055385E+04  0.13995055385E+04  0.25500000920E-02 0. -1.
       -2   -1    0    0    0  501  0.00000000000E+00  0.00000000000E+00 -0.45092132463E+02  0.45092132536E+02  0.25500000920E-02 0.  1.
    10030    2    1    2    0    0  0.00000000000E+00  0.00000000000E+00  0.13544134061E+04  0.14445976711E+04  0.50242089599E+03 0.  0.
        1    1    3    3  502    0  0.83466391686E+02 -0.22653136432E+03  0.47751294897E+03  0.53507169055E+03  0.50400001928E-02 0.  1.
       -1    1    3    3    0  502 -0.83466391686E+02  0.22653136432E+03  0.87690045711E+03  0.90952598053E+03  0.50400001928E-02 0. -1.
</event>
<event>
 5   0  0.8208720E-02  0.5023033E+03  0.7818609E-02  0.1013179E+00
        2   -1    0    0  501    0  0.00000000000E+00  0.00000000000E+00  0.11232395622E+03  0.11232395625E+03  0.25500000920E-02 0.  1.
       -2   -1    0    0    0  501  0.00000000000E+00  0.00000000000E+00 -0.56156448236E+03  0.56156448236E+03  0.25500000920E-02 0. -1.
    10030    2    1    2    0    0  0.00000000000E+00  0.00000000000E+00 -0.44924052614E+03  0.67388843861E+03  0.50230327231E+03 0.  0.
        3    1    3    3  502    0 -0.19634957533E+03  0.13012562980E+03 -0.34151098565E+03  0.41486817037E+03  0.10100000352E+00 0. -1.
       -3    1    3    3    0  502  0.19634957533E+03 -0.13012562980E+03 -0.10772954049E+03  0.25902026824E+03  0.10100000352E+00 0.  1.
</event>
<event>
 5   0  0.7698747E-02  0.5008723E+03  0.7818609E-02  0.1013551E+00
        2   -1    0    0  501    0  0.00000000000E+00  0.00000000000E+00  0.62940603689E+03  0.62940603690E+03  0.25500000920E-02 0. -1.
       -2   -1    0    0    0  501  0.00000000000E+00  0.00000000000E+00 -0.99646755261E+02  0.99646755294E+02  0.25500000920E-02 0.  1.
    10030    2    1    2    0    0  0.00000000000E+00  0.00000000000E+00  0.52975928163E+03  0.72905279219E+03  0.50087231639E+03 0.  0.
        2    1    3    3  502    0  0.15820711613E+03  0.12836371731E+03  0.47687091531E+03  0.51856784068E+03  0.25500000920E-02 0. -1.
       -2    1    3    3    0  502 -0.15820711613E+03 -0.12836371731E+03  0.52888366321E+02  0.21048495151E+03  0.25500000920E-02 0.  1.
</event>
<event>
 5   0  0.7881060E-02  0.5017837E+03  0.7818609E-02  0.1013314E+00
        2   -1    0    0  501    0  0.00000000000E+00  0.00000000000E+00  0.24249434713E+03  0.24249434715E+03  0.25500000920E-02 0. -1.
       -2   -1    0    0    0  501  0.00000000000E+00  0.00000000000E+00 -0.25958010777E+03  0.25958010778E+03  0.25500000920E-02 0.  1.
    10030    2    1    2    0    0  0.00000000000E+00  0.00000000000E+00 -0.17085760634E+02  0.50207445493E+03  0.50178365365E+03 0.  0.
        1    1    3    3  502    0 -0.12383293526E+03 -0.20549384142E+03 -0.81963835957E+02  0.25353576700E+03  0.50400001928E-02 0.  1.
       -1    1    3    3    0  502  0.12383293526E+03  0.20549384142E+03  0.64878075323E+02  0.24853868793E+03  0.50400001928E-02 0. -1.
</event>
<event>
 5   0  0.7698747E-02  0.5029876E+03  0.7818609E-02  0.1013002E+00
       -2   -1    0    0    0  501  0.00000000000E+00  0.00000000000E+00  0.59682740346E+02  0.59682740401E+02  0.25500000920E-02 0. -1.
        2   -1    0    0  501    0  0.00000000000E+00  0.00000000000E+00 -0.10597557162E+04  0.10597557162E+04  0.25500000920E-02 0.  1.
    10030    2    1    2    0    0  0.00000000000E+00  0.00000000000E+00 -0.10000729758E+04  0.11194384566E+04  0.50298757548E+03 0.  0.
        2    1    3    3  502    0 -0.17535500218E+03 -0.94186987414E+02 -0.84214319706E+03  0.86534717296E+03  0.25500000920E-02 0.  1.
       -2    1    3    3    0  502  0.17535500218E+03  0.94186987414E+02 -0.15792977878E+03  0.25409128364E+03  0.25500000920E-02 0. -1.
</event>
<event>
 5   0  0.5038436E-02  0.5021252E+03  0.7818609E-02  0.1013226E+00
        1   -1    0    0  501    0  0.00000000000E+00  0.00000000000E+00  0.15887713671E+03  0.15887713679E+03  0.50400001928E-02 0.  1.
       -1   -1    0    0    0  501  0.00000000000E+00  0.00000000000E+00 -0.39673690163E+03  0.39673690167E+03  0.50400001928E-02 0. -1.
    10030    2    1    2    0    0  0.00000000000E+00  0.00000000000E+00 -0.23785976492E+03  0.55561403846E+03  0.50212517559E+03 0.  0.
        1    1    3    3  502    0  0.14642126446E+03  0.19356707263E+03 -0.47861817746E+02  0.24738260228E+03  0.50400001928E-02 0.  1.
       -1    1    3    3    0  502 -0.14642126446E+03 -0.19356707263E+03 -0.18999794718E+03  0.30823143617E+03  0.50400001928E-02 0. -1.
</event>
<event>
 5   0  0.4865501E-02  0.5001019E+03  0.7818609E-02  0.1013752E+00
        1   -1    0    0  501    0  0.00000000000E+00  0.00000000000E+00  0.11606110847E+04  0.11606110847E+04  0.50400001928E-02 0.  1.
       -1   -1    0    0    0  501  0.00000000000E+00  0.00000000000E+00 -0.53872893371E+02  0.53872893607E+02  0.50400001928E-02 0. -1.
    10030    2    1    2    0    0  0.00000000000E+00  0.00000000000E+00  0.11067381913E+04  0.12144839783E+04  0.50010189906E+03 0.  0.
        2    1    3    3  502    0  0.19941696169E+03 -0.13255497199E+03  0.72827871176E+03  0.76663408953E+03  0.25500000920E-02 0.  1.
       -2    1    3    3    0  502 -0.19941696169E+03  0.13255497199E+03  0.37845947955E+03  0.44784988877E+03  0.25500000920E-02 0. -1.
</event>
<event>
 5   0  0.4865501E-02  0.5009088E+03  0.7818609E-02  0.1013542E+00
       -1   -1    0    0    0  501  0.00000000000E+00  0.00000000000E+00  0.16550022758E+03  0.16550022765E+03  0.50400001928E-02 0. -1.
        1   -1    0    0  501    0  0.00000000000E+00  0.00000000000E+00 -0.37901710872E+03  0.37901710875E+03  0.50400001928E-02 0.  1.
    10030    2    1    2    0    0  0.00000000000E+00  0.00000000000E+00 -0.21351688114E+03  0.54451733640E+03  0.50090884511E+03 0.  0.
        2    1    3    3  502    0  0.13371056913E+03 -0.21128981861E+03 -0.91174627047E+02  0.26614792197E+03  0.25500000920E-02 0. -1.
       -2    1    3    3    0  502 -0.13371056913E+03  0.21128981861E+03 -0.12234225409E+03  0.27836941443E+03  0.25500000920E-02 0.  1.
</event>
<event>
 5   0  0.3210875E-02  0.4977104E+03  0.7818609E-02  0.1014378E+00
        3   -1    0    0  501    0  0.00000000000E+00  0.00000000000E+00  0.62320235605E+03  0.62320236424E+03  0.10100000352E+00 0.  1.
       -3   -1    0    0    0  501  0.00000000000E+00  0.00000000000E+00 -0.99372025801E+02  0.99372077128E+02  0.10100000352E+00 0. -1.
    10030    2    1    2    0    0  0.00000000000E+00  0.00000000000E+00  0.52383033025E+03  0.72257444137E+03  0.49771036600E+03 0.  0.
        5    1    3    3  502    0  0.21842366241E+03  0.10070052290E+03  0.35439042640E+03  0.42832715993E+03  0.46999998093E+01 0.  1.
       -5    1    3    3    0  502 -0.21842366241E+03 -0.10070052290E+03  0.16943990385E+03  0.29424728143E+03  0.46999998093E+01 0. -1.
</event>
<event>
 5   0  0.4803890E-02  0.5011825E+03  0.7818609E-02  0.1013471E+00
       -1   -1    0    0    0  501  0.00000000000E+00  0.00000000000E+00  0.67605556734E+03  0.67605556736E+03  0.50400001928E-02 0.  1.
        1   -1    0    0  501    0  0.00000000000E+00  0.00000000000E+00 -0.92885802861E+02  0.92885802997E+02  0.50400001928E-02 0. -1.
    10030    2    1    2    0    0  0.00000000000E+00  0.00000000000E+00  0.58316976448E+03  0.76894137036E+03  0.50118245863E+03 0.  0.
        5    1    3    3  502    0  0.21475259867E+03  0.52004900630E+02  0.11036946424E+03  0.24703582121E+03  0.46999998093E+01 0. -1.
       -5    1    3    3    0  502 -0.21475259867E+03 -0.52004900630E+02  0.47280030024E+03  0.52190554915E+03  0.46999998093E+01 0.  1.
</event>
<event>
 5   0  0.8208720E-02  0.5038015E+03  0.7818609E-02  0.1012791E+00
       -2   -1    0    0    0  501  0.00000000000E+00  0.00000000000E+00  0.24189131172E+03  0.24189131173E+03  0.25500000920E-02 0.  1.
        2   -1    0    0  501    0  0.00000000000E+00  0.00000000000E+00 -0.26232437786E+03  0.26232437787E+03  0.25500000920E-02 0. -1.
    10030    2    1    2    0    0  0.00000000000E+00  0.00000000000E+00 -0.20433066142E+02  0.50421568960E+03  0.50380150004E+03 0.  0.
        3    1    3    3  502    0  0.17478989365E+03  0.12391717002E+03 -0.14279054771E+03  0.25748033452E+03  0.10100000352E+00 0. -1.
       -3    1    3    3    0  502 -0.17478989365E+03 -0.12391717002E+03  0.12235748157E+03  0.24673535508E+03  0.10100000352E+00 0.  1.
</event>
<event>
 5   0  0.3210875E-02  0.4992044E+03  0.7818609E-02  0.1013987E+00
        3   -1    0    0  501    0  0.00000000000E+00  0.00000000000E+00  0.20014182405E+03  0.20014184954E+03  0.10100000352E+00 0. -1.
       -3   -1    0    0    0  501  0.00000000000E+00  0.00000000000E+00 -0.31128543786E+03  0.31128545425E+03  0.10100000352E+00 0.  1.
    10030    2    1    2    0    0  0.00000000000E+00  0.00000000000E+00 -0.11114361381E+03  0.51142730379E+03  0.49920435111E+03 0.  0.
        2    1    3    3  502    0 -0.12264189902E+03  0.20980127554E+03  0.27756007701E+01  0.24303356677E+03  0.25500000920E-02 0.  1.
       -2    1    3    3    0  502  0.12264189902E+03 -0.20980127554E+03 -0.11391921458E+03  0.26839373701E+03  0.25500000920E-02 0. -1.
</event>
<event>
 5   0  0.8208720E-02  0.5315027E+03  0.7818609E-02  0.1005868E+00
       -2   -1    0    0    0  501  0.00000000000E+00  0.00000000000E+00  0.87038572423E+02  0.87038572460E+02  0.25500000920E-02 0.  1.
        2   -1    0    0  501    0  0.00000000000E+00  0.00000000000E+00 -0.81140783127E+03  0.81140783128E+03  0.25500000920E-02 0. -1.
    10030    2    1    2    0    0  0.00000000000E+00  0.00000000000E+00 -0.72436925885E+03  0.89844640374E+03  0.53150269728E+03 0.  0.
        3    1    3    3  502    0  0.26239492923E+02 -0.25566069373E+03 -0.47649378719E+03  0.54138455902E+03  0.10100000352E+00 0. -1.
       -3    1    3    3    0  502 -0.26239492923E+02  0.25566069373E+03 -0.24787547165E+03  0.35706184472E+03  0.10100000352E+00 0.  1.
</event>
<event>
 5   0  0.4884478E-02  0.5036177E+03  0.7818609E-02  0.1012839E+00
       -1   -1    0    0    0  501  0.00000000000E+00  0.00000000000E+00  0.38340634080E+02  0.38340634411E+02  0.50400001928E-02 0. -1.
        1   -1    0    0  501    0  0.00000000000E+00  0.00000000000E+00 -0.16537989933E+04  0.16537989933E+04  0.50400001928E-02 0.  1.
    10030    2    1    2    0    0  0.00000000000E+00  0.00000000000E+00 -0.16154583592E+04  0.16921396277E+04  0.50361772141E+03 0.  0.
        3    1    3    3  502    0 -0.23170122503E+03  0.92462856077E+02 -0.69266045539E+03  0.73621556224E+03  0.10100000352E+00 0. -1.
       -3    1    3    3    0  502  0.23170122503E+03 -0.92462856077E+02 -0.92279790379E+03  0.95592406544E+03  0.10100000352E+00 0.  1.
</event>
<event>
 5   0  0.4865501E-02  0.4992567E+03  0.7818609E-02  0.1013973E+00
       -1   -1    0    0    0  501  0.00000000000E+00  0.00000000000E+00  0.36610001606E+02  0.36610001953E+02  0.50400001928E-02 0.  1.
        1   -1    0    0  501    0  0.00000000000E+00  0.00000000000E+00 -0.17021115117E+04  0.17021115117E+04  0.50400001928E-02 0. -1.
    10030    2    1    2    0    0  0.00000000000E+00  0.00000000000E+00 -0.16655015101E+04  0.17387215136E+04  0.49925666940E+03 0.  0.
        2    1    3    3  502    0 -0.39377176645E+02  0.36636279309E+02  0.16191312583E+02  0.56168831319E+02  0.25500000920E-02 0.  1.
       -2    1    3    3    0  502  0.39377176645E+02 -0.36636279309E+02 -0.16816928227E+04  0.16825526823E+04  0.25500000920E-02 0. -1.
</event>
<event>
 5   0  0.4803890E-02  0.5046874E+03  0.7818609E-02  0.1012563E+00
        1   -1    0    0  501    0  0.00000000000E+00  0.00000000000E+00  0.70108483869E+03  0.70108483871E+03  0.50400001928E-02 0.  1.
       -1   -1    0    0    0  501  0.00000000000E+00  0.00000000000E+00 -0.90826881952E+02  0.90826882092E+02  0.50400001928E-02 0. -1.
    10030    2    1    2    0    0  0.00000000000E+00  0.00000000000E+00  0.61025795674E+03  0.79191172080E+03  0.50468742780E+03 0.  0.
        5    1    3    3  502    0 -0.13246098205E+02  0.11660179903E+03 -0.45327539890E+02  0.12588929472E+03  0.46999998093E+01 0. -1.
       -5    1    3    3    0  502  0.13246098205E+02 -0.11660179903E+03  0.65558549663E+03  0.66602242608E+03  0.46999998093E+01 0.  1.
</event>
<event>
 5   0  0.7776070E-02  0.4911212E+03  0.7818609E-02  0.1016123E+00
       -2   -1    0    0    0  501  0.00000000000E+00  0.00000000000E+00  0.58350155610E+02  0.58350155666E+02  0.25500000920E-02 0.  1.
        2   -1    0    0  501    0  0.00000000000E+00  0.00000000000E+00 -0.10334164534E+04  0.10334164534E+04  0.25500000920E-02 0. -1.
    10030    2    1    2    0    0  0.00000000000E+00  0.00000000000E+00 -0.97506629776E+03  0.10917666090E+04  0.49112121069E+03 0.  0.
        4    1    3    3  502    0  0.18606125717E+03 -0.13829048808E+03 -0.30754704528E+03  0.38513614278E+03  0.12699999809E+01 0. -1.
       -4    1    3    3    0  502 -0.18606125717E+03  0.13829048808E+03 -0.66751925249E+03  0.70663046626E+03  0.12699999809E+01 0.  1.
</event>
<event>
 5   0  0.7776070E-02  0.5034571E+03  0.7818609E-02  0.1012880E+00
       -2   -1    0    0    0  501  0.00000000000E+00  0.00000000000E+00  0.18506560965E+03  0.18506560967E+03  0.25500000920E-02 0.  1.
        2   -1    0    0  501    0  0.00000000000E+00  0.00000000000E+00 -0.34240437217E+03  0.34240437218E+03  0.25500000920E-02 0. -1.
    10030    2    1    2    0    0  0.00000000000E+00  0.00000000000E+00 -0.15733876252E+03  0.52746998185E+03  0.50345714372E+03 0.  0.
        4    1    3    3  502    0 -0.93699446740E+02 -0.23184666885E+03 -0.48427483458E+02  0.25471415004E+03  0.12699999809E+01 0.  1.
       -4    1    3    3    0  502  0.93699446740E+02  0.23184666885E+03 -0.10891127906E+03  0.27275583180E+03  0.12699999809E+01 0. -1.
</event>
<event>
 5   0  0.8208720E-02  0.5090498E+03  0.7818609E-02  0.1011443E+00
        2   -1    0    0  501    0  0.00000000000E+00  0.00000000000E+00  0.99124261579E+03  0.99124261579E+03  0.25500000920E-02 0. -1.
       -2   -1    0    0    0  501  0.00000000000E+00  0.00000000000E+00 -0.65355262629E+02  0.65355262679E+02  0.25500000920E-02 0.  1.
    10030    2    1    2    0    0  0.00000000000E+00  0.00000000000E+00  0.92588735316E+03  0.10565978785E+04  0.50904978740E+03 0.  0.
        3    1    3    3  502    0  0.35934262856E+02 -0.20204112962E+03  0.77546886319E+03  0.80216198943E+03  0.10100000352E+00 0. -1.
       -3    1    3    3    0  502 -0.35934262856E+02  0.20204112962E+03  0.15041848997E+03  0.25443588904E+03  0.10100000352E+00 0.  1.
</event>
<event>
 5   0  0.5191358E-02  0.5018601E+03  0.7818609E-02  0.1013295E+00
       -1   -1    0    0    0  501  0.00000000000E+00  0.00000000000E+00  0.54891639137E+03  0.54891639139E+03  0.50400001928E-02 0.  1.
        1   -1    0    0  501    0  0.00000000000E+00  0.00000000000E+00 -0.11470943228E+03  0.11470943239E+03  0.50400001928E-02 0. -1.
    10030    2    1    2    0    0  0.00000000000E+00  0.00000000000E+00  0.43420695909E+03  0.66362582378E+03  0.50186009073E+03 0.  0.
        4    1    3    3  502    0  0.20291076102E+03  0.34084385321E+02  0.27176078433E+02  0.20754439139E+03  0.12699999809E+01 0. -1.
       -4    1    3    3    0  502 -0.20291076102E+03 -0.34084385321E+02  0.40703088066E+03  0.45608143239E+03  0.12699999809E+01 0.  1.
</event>
<event>
 5   0  0.7776070E-02  0.5012797E+03  0.7818609E-02  0.1013445E+00
       -2   -1    0    0    0  501  0.00000000000E+00  0.00000000000E+00  0.84286880253E+02  0.84286880291E+02  0.25500000920E-02 0. -1.
        2   -1    0    0  501    0  0.00000000000E+00  0.00000000000E+00 -0.74531560351E+03  0.74531560352E+03  0.25500000920E-02 0.  1.
    10030    2    1    2    0    0  0.00000000000E+00  0.00000000000E+00 -0.66102872326E+03  0.82960248381E+03  0.50127967061E+03 0.  0.
        4    1    3    3  502    0  0.31215580494E+02 -0.17338185677E+03 -0.35469793354E+02  0.17970920918E+03  0.12699999809E+01 0. -1.
       -4    1    3    3    0  502 -0.31215580494E+02  0.17338185677E+03 -0.62555892991E+03  0.64989327463E+03  0.12699999809E+01 0.  1.
</event>
<event>
 5   0  0.5191358E-02  0.4978884E+03  0.7818609E-02  0.1014332E+00
        1   -1    0    0  501    0  0.00000000000E+00  0.00000000000E+00  0.52452077743E+03  0.52452077746E+03  0.50400001928E-02 0. -1.
       -1   -1    0    0    0  501  0.00000000000E+00  0.00000000000E+00 -0.11815205609E+03  0.11815205620E+03  0.50400001928E-02 0.  1.
    10030    2    1    2    0    0  0.00000000000E+00  0.00000000000E+00  0.40636872134E+03  0.64267283366E+03  0.49788837448E+03 0.  0.
        4    1    3    3  502    0 -0.11422447118E+03 -0.22236590226E+02  0.48724740775E+03  0.50095243789E+03  0.12699999809E+01 0. -1.
       -4    1    3    3    0  502  0.11422447118E+03  0.22236590226E+02 -0.80878686415E+02  0.14172039577E+03  0.12699999809E+01 0.  1.
</event>
<event>
 5   0  0.7881060E-02  0.5055777E+03  0.7818609E-02  0.1012333E+00
       -2   -1    0    0    0  501  0.00000000000E+00  0.00000000000E+00  0.48908214814E+02  0.48908214881E+02  0.25500000920E-02 0. -1.
        2   -1    0    0  501    0  0.00000000000E+00  0.00000000000E+00 -0.13065740413E+04  0.13065740413E+04  0.25500000920E-02 0.  1.
    10030    2    1    2    0    0  0.00000000000E+00  0.00000000000E+00 -0.12576658265E+04  0.13554822562E+04  0.50557770492E+03 0.  0.
        1    1    3    3  502    0 -0.17276661740E+03 -0.93336608064E+02 -0.20202949771E+03  0.28173736789E+03  0.50400001928E-02 0. -1.
       -1    1    3    3    0  502  0.17276661740E+03  0.93336608064E+02 -0.10556363288E+04  0.10737448883E+04  0.50400001928E-02 0.  1.
</event>
<event>
 5   0  0.7933103E-02  0.5030272E+03  0.7818609E-02  0.1012992E+00
        2   -1    0    0  501    0  0.00000000000E+00  0.00000000000E+00  0.12834946909E+04  0.12834946909E+04  0.25500000920E-02 0.  1.
       -2   -1    0    0    0  501  0.00000000000E+00  0.00000000000E+00 -0.49286595031E+02  0.49286595097E+02  0.25500000920E-02 0. -1.
    10030    2    1    2    0    0  0.00000000000E+00  0.00000000000E+00  0.12342080959E+04  0.13327812860E+04  0.50302716866E+03 0.  0.
        5    1    3    3  502    0 -0.85492387049E+02  0.23326589307E+03  0.51397440715E+03  0.57088852355E+03  0.46999998093E+01 0.  1.
       -5    1    3    3    0  502  0.85492387049E+02 -0.23326589307E+03  0.72023368875E+03  0.76189276248E+03  0.46999998093E+01 0. -1.
</event>
<event>
 5   0  0.5191358E-02  0.5023041E+03  0.7818609E-02  0.1013179E+00
       -1   -1    0    0    0  501  0.00000000000E+00  0.00000000000E+00  0.24611089458E+03  0.24611089464E+03  0.50400001928E-02 0.  1.
        1   -1    0    0  501    0  0.00000000000E+00  0.00000000000E+00 -0.25629651494E+03  0.25629651499E+03  0.50400001928E-02 0. -1.
    10030    2    1    2    0    0  0.00000000000E+00  0.00000000000E+00 -0.10185620353E+02  0.50240740962E+03  0.50230414928E+03 0.  0.
        4    1    3    3  502    0 -0.17056297576E+03  0.34840465122E+02  0.17596971967E+03  0.24753291064E+03  0.12699999809E+01 0.  1.
       -4    1    3    3    0  502  0.17056297576E+03 -0.34840465122E+02 -0.18615534002E+03  0.25487449898E+03  0.12699999809E+01 0. -1.
</event>
<event>
 5   0  0.5191358E-02  0.5032481E+03  0.7818609E-02  0.1012935E+00
       -1   -1    0    0    0  501  0.00000000000E+00  0.00000000000E+00  0.20355862663E+03  0.20355862669E+03  0.50400001928E-02 0. -1.
        1   -1    0    0  501    0  0.00000000000E+00  0.00000000000E+00 -0.31103895720E+03  0.31103895724E+03  0.50400001928E-02 0.  1.
    10030    2    1    2    0    0  0.00000000000E+00  0.00000000000E+00 -0.10748033057E+03  0.51459758393E+03  0.50324810176E+03 0.  0.
        4    1    3    3  502    0 -0.20405477304E+03 -0.54095261642E+02 -0.19375296179E+03  0.28654226710E+03  0.12699999809E+01 0.  1.
       -4    1    3    3    0  502  0.20405477304E+03  0.54095261642E+02  0.86272631224E+02  0.22805531683E+03  0.12699999809E+01 0. -1.
</event>
<event>
 5   0  0.5191358E-02  0.5012246E+03  0.7818609E-02  0.1013460E+00
        1   -1    0    0  501    0  0.00000000000E+00  0.00000000000E+00  0.34435836653E+03  0.34435836657E+03  0.50400001928E-02 0.  1.
       -1   -1    0    0    0  501  0.00000000000E+00  0.00000000000E+00 -0.18238710604E+03  0.18238710611E+03  0.50400001928E-02 0. -1.
    10030    2    1    2    0    0  0.00000000000E+00  0.00000000000E+00  0.16197126049E+03  0.52674547268E+03  0.50122460411E+03 0.  0.
        4    1    3    3  502    0 -0.85193149257E+02  0.36426386324E+02 -0.16372273877E+03  0.18812629373E+03  0.12699999809E+01 0. -1.
       -4    1    3    3    0  502  0.85193149257E+02 -0.36426386324E+02  0.32569399926E+03  0.33861917895E+03  0.12699999809E+01 0.  1.
</event>
<event>
 5   0  0.7776070E-02  0.4979432E+03  0.7818609E-02  0.1014317E+00
       -2   -1    0    0    0  501  0.00000000000E+00  0.00000000000E+00  0.89002125182E+02  0.89002125218E+02  0.25500000920E-02 0. -1.
        2   -1    0    0  501    0  0.00000000000E+00  0.00000000000E+00 -0.69646499839E+03  0.69646499840E+03  0.25500000920E-02 0.  1.
    10030    2    1    2    0    0  0.00000000000E+00  0.00000000000E+00 -0.60746287321E+03  0.78546712362E+03  0.49794322965E+03 0.  0.
        4    1    3    3  502    0  0.13339850171E+03 -0.20494252634E+03 -0.37752808010E+03  0.44980625110E+03  0.12699999809E+01 0.  1.
       -4    1    3    3    0  502 -0.13339850171E+03  0.20494252634E+03 -0.22993479311E+03  0.33566087252E+03  0.12699999809E+01 0. -1.
</event>
<event>
 5   0  0.5038436E-02  0.5031406E+03  0.7818609E-02  0.1012962E+00
       -1   -1    0    0    0  501  0.00000000000E+00  0.00000000000E+00  0.15184707978E+03  0.15184707986E+03  0.50400001928E-02 0. -1.
        1   -1    0    0  501    0  0.00000000000E+00  0.00000000000E+00 -0.41678518929E+03  0.41678518932E+03  0.50400001928E-02 0.  1.
    10030    2    1    2    0    0  0.00000000000E+00  0.00000000000E+00 -0.26493810951E+03  0.56863226918E+03  0.50314059236E+03 0.  0.
        1    1    3    3  502    0  0.16707635484E+03 -0.17580072861E+03 -0.56931956280E+02  0.24912176179E+03  0.50400001928E-02 0.  1.
       -1    1    3    3    0  502 -0.16707635484E+03  0.17580072861E+03 -0.20800615323E+03  0.31951050739E+03  0.50400001928E-02 0. -1.
</event>
<event>
 5   0  0.7881060E-02  0.5003490E+03  0.7818609E-02  0.1013688E+00
        2   -1    0    0  501    0  0.00000000000E+00  0.00000000000E+00  0.29678197220E+04  0.29678197220E+04  0.25500000920E-02 0. -1.
       -2   -1    0    0    0  501  0.00000000000E+00  0.00000000000E+00 -0.21088639095E+02  0.21088639249E+02  0.25500000920E-02 0.  1.
    10030    2    1    2    0    0  0.00000000000E+00  0.00000000000E+00  0.29467310830E+04  0.29889083613E+04  0.50034899520E+03 0.  0.
        1    1    3    3  502    0  0.33787640148E+02 -0.10424721812E+03  0.12991643499E+03  0.16996284070E+03  0.50400001928E-02 0.  1.
       -1    1    3    3    0  502 -0.33787640148E+02  0.10424721812E+03  0.28168146480E+04  0.28189455206E+04  0.50400001928E-02 0. -1.
</event>
<event>
 5   0  0.4803890E-02  0.4994400E+03  0.7818609E-02  0.1013925E+00
        1   -1    0    0  501    0  0.00000000000E+00  0.00000000000E+00  0.10815436320E+04  0.10815436321E+04  0.50400001928E-02 0.  1.
       -1   -1    0    0    0  501  0.00000000000E+00  0.00000000000E+00 -0.57658398117E+02  0.57658398338E+02  0.50400001928E-02 0. -1.
    10030    2    1    2    0    0  0.00000000000E+00  0.00000000000E+00  0.10238852339E+04  0.11392020304E+04  0.49943998018E+03 0.  0.
        5    1    3    3  502    0 -0.10499229795E+02 -0.94637938780E+02  0.10384016022E+04  0.10427686947E+04  0.46999998093E+01 0.  1.
       -5    1    3    3    0  502  0.10499229795E+02  0.94637938780E+02 -0.14516368255E+02  0.96433335670E+02  0.46999998093E+01 0. -1.
</event>
<event>
 5   0  0.4803890E-02  0.4912905E+03  0.7818609E-02  0.1016078E+00
       -1   -1    0    0    0  501  0.00000000000E+00  0.00000000000E+00  0.11789075637E+03  0.11789075647E+03  0.50400001928E-02 0.  1.
        1   -1    0    0  501    0  0.00000000000E+00  0.00000000000E+00 -0.51184331171E+03  0.51184331174E+03  0.50400001928E-02 0. -1.
    10030    2    1    2    0    0  0.00000000000E+00  0.00000000000E+00 -0.39395255534E+03  0.62973406821E+03  0.49129052586E+03 0.  0.
        5    1    3    3  502    0  0.83362595697E+02 -0.16960058895E+03 -0.39804186564E+03  0.44065076754E+03  0.46999998093E+01 0. -1.
       -5    1    3    3    0  502 -0.83362595697E+02  0.16960058895E+03  0.40893102951E+01  0.18908330067E+03  0.46999998093E+01 0.  1.
</event>
<event>
 5   0  0.8208720E-02  0.5009123E+03  0.7818609E-02  0.1013541E+00
       -2   -1    0    0    0  501  0.00000000000E+00  0.00000000000E+00  0.19639181174E+03  0.19639181176E+03  0.25500000920E-02 0. -1.
        2   -1    0    0  501    0  0.00000000000E+00  0.00000000000E+00 -0.31940380419E+03  0.31940380420E+03  0.25500000920E-02 0.  1.
    10030    2    1    2    0    0  0.00000000000E+00  0.00000000000E+00 -0.12301199245E+03  0.51579561596E+03  0.50091233480E+03 0.  0.
        3    1    3    3  502    0 -0.87680633963E+02  0.23151429572E+03 -0.22410557594E+02  0.24857394470E+03  0.10100000352E+00 0. -1.
       -3    1    3    3    0  502  0.87680633963E+02 -0.23151429572E+03 -0.10060143485E+03  0.26722167125E+03  0.10100000352E+00 0.  1.
</event>
<event>
 5   0  0.5038436E-02  0.4996349E+03  0.7818609E-02  0.1013874E+00
        1   -1    0    0  501    0  0.00000000000E+00  0.00000000000E+00  0.40451699624E+03  0.40451699628E+03  0.50400001928E-02 0.  1.
       -1   -1    0    0    0  501  0.00000000000E+00  0.00000000000E+00 -0.15427971757E+03  0.15427971765E+03  0.50400001928E-02 0. -1.
    10030    2    1    2    0    0  0.00000000000E+00  0.00000000000E+00  0.25023727867E+03  0.55879671393E+03  0.49963493859E+03 0.  0.
        1    1    3    3  502    0  0.11037735126E+03 -0.10370611304E+03  0.34731563608E+03  0.37890139699E+03  0.50400001928E-02 0.  1.
       -1    1    3    3    0  502 -0.11037735126E+03  0.10370611304E+03 -0.97078357406E+02  0.17989531694E+03  0.50400001928E-02 0. -1.
</event>
<event>
 5   0  0.4803890E-02  0.5008116E+03  0.7818609E-02  0.1013567E+00
       -1   -1    0    0    0  501  0.00000000000E+00  0.00000000000E+00  0.47175154113E+02  0.47175154383E+02  0.50400001928E-02 0. -1.
        1   -1    0    0  501    0  0.00000000000E+00  0.00000000000E+00 -0.13291543014E+04  0.13291543014E+04  0.50400001928E-02 0.  1.
    10030    2    1    2    0    0  0.00000000000E+00  0.00000000000E+00 -0.12819791473E+04  0.13763294558E+04  0.50081157815E+03 0.  0.
        5    1    3    3  502    0  0.10036798022E+03 -0.22584563618E+03 -0.75095137888E+03  0.79058841775E+03  0.46999998093E+01 0. -1.
       -5    1    3    3    0  502 -0.10036798022E+03  0.22584563618E+03 -0.53102776842E+03  0.58574103806E+03  0.46999998093E+01 0.  1.
</event>
<event>
 5   0  0.3210875E-02  0.4991358E+03  0.7818609E-02  0.1014005E+00
        3   -1    0    0  501    0  0.00000000000E+00  0.00000000000E+00  0.59293274749E+02  0.59293360770E+02  0.10100000352E+00 0. -1.
       -3   -1    0    0    0  501  0.00000000000E+00  0.00000000000E+00 -0.10504408105E+04  0.10504408154E+04  0.10100000352E+00 0.  1.
    10030    2    1    2    0    0  0.00000000000E+00  0.00000000000E+00 -0.99114753576E+03  0.11097341761E+04  0.49913575712E+03 0.  0.
        2    1    3    3  502    0 -0.59496836783E+02  0.12975442766E+03 -0.40429625606E+02  0.14835983189E+03  0.25500000920E-02 0. -1.
       -2    1    3    3    0  502  0.59496836783E+02 -0.12975442766E+03 -0.95071791015E+03  0.96137434425E+03  0.25500000920E-02 0.  1.
</event>
<event>
 5   0  0.3210875E-02  0.5050585E+03  0.7818609E-02  0.1012467E+00
       -3   -1    0    0    0  501  0.00000000000E+00  0.00000000000E+00  0.16403949699E+03  0.16403952808E+03  0.10100000352E+00 0.  1.
        3   -1    0    0  501    0  0.00000000000E+00  0.00000000000E+00 -0.38875402943E+03  0.38875404255E+03  0.10100000352E+00 0. -1.
    10030    2    1    2    0    0  0.00000000000E+00  0.00000000000E+00 -0.22471453244E+03  0.55279357063E+03  0.50505852200E+03 0.  0.
        5    1    3    3  502    0 -0.14696065609E+03  0.14375216876E+03  0.48080765121E+02  0.21117758033E+03  0.46999998093E+01 0.  1.
       -5    1    3    3    0  502  0.14696065609E+03 -0.14375216876E+03 -0.27279529756E+03  0.34161599030E+03  0.46999998093E+01 0. -1.
</event>
<event>
 5   0  0.7933103E-02  0.5021042E+03  0.7818609E-02  0.1013231E+00
       -2   -1    0    0    0  501  0.00000000000E+00  0.00000000000E+00  0.37931802985E+02  0.37931803071E+02  0.25500000920E-02 0.  1.
        2   -1    0    0  501    0  0.00000000000E+00  0.00000000000E+00 -0.16615916977E+04  0.16615916977E+04  0.25500000920E-02 0. -1.
    10030    2    1    2    0    0  0.00000000000E+00  0.00000000000E+00 -0.16236598947E+04  0.16995235007E+04  0.50210424811E+03 0.  0.
        5    1    3    3  502    0  0.19568969165E+03 -0.15503804830E+03 -0.89969325186E+03  0.93370299844E+03  0.46999998093E+01 0. -1.
       -5    1    3    3    0  502 -0.19568969165E+03  0.15503804830E+03 -0.72396664281E+03  0.76582050230E+03  0.46999998093E+01 0.  1.
</event>
<event>
 5   0  0.5038436E-02  0.4872535E+03  0.7818609E-02  0.1017161E+00
        1   -1    0    0  501    0  0.00000000000E+00  0.00000000000E+00  0.41163658573E+03  0.41163658576E+03  0.50400001928E-02 0. -1.
       -1   -1    0    0    0  501  0.00000000000E+00  0.00000000000E+00 -0.14419029847E+03  0.14419029856E+03  0.50400001928E-02 0.  1.
    10030    2    1    2    0    0  0.00000000000E+00  0.00000000000E+00  0.26744628726E+03  0.55582688431E+03  0.48725353642E+03 0.  0.
        1    1    3    3  502    0 -0.13358490271E+03  0.17560353880E+02  0.36526893880E+03  0.38932594306E+03  0.50400001928E-02 0. -1.
       -1    1    3    3    0  502  0.13358490271E+03 -0.17560353880E+02 -0.97822651537E+02  0.16650094126E+03  0.50400001928E-02 0.  1.
</event>
<event>
 5   0  0.4803890E-02  0.4957061E+03  0.7818609E-02  0.1014906E+00
        1   -1    0    0  501    0  0.00000000000E+00  0.00000000000E+00  0.36554280159E+03  0.36554280162E+03  0.50400001928E-02 0.  1.
       -1   -1    0    0    0  501  0.00000000000E+00  0.00000000000E+00 -0.16805456383E+03  0.16805456391E+03  0.50400001928E-02 0. -1.
    10030    2    1    2    0    0  0.00000000000E+00  0.00000000000E+00  0.19748823775E+03  0.53359736553E+03  0.49570610693E+03 0.  0.
        5    1    3    3  502    0 -0.20568199864E+03 -0.12084135795E+03  0.26523746100E+02  0.24006940134E+03  0.46999998093E+01 0. -1.
       -5    1    3    3    0  502  0.20568199864E+03  0.12084135795E+03  0.17096449165E+03  0.29352796419E+03  0.46999998093E+01 0.  1.
</event>
<event>
 5   0  0.4884478E-02  0.4934246E+03  0.7818609E-02  0.1015510E+00
        1   -1    0    0  501    0  0.00000000000E+00  0.00000000000E+00  0.61458661872E+03  0.61458661874E+03  0.50400001928E-02 0.  1.
       -1   -1    0    0    0  501  0.00000000000E+00  0.00000000000E+00 -0.99037218567E+02  0.99037218695E+02  0.50400001928E-02 0. -1.
    10030    2    1    2    0    0  0.00000000000E+00  0.00000000000E+00  0.51554940015E+03  0.71362383743E+03  0.49342456096E+03 0.  0.
        3    1    3    3  502    0 -0.45307551326E+02  0.18171903084E+03  0.25504167538E+02  0.18901072229E+03  0.10100000352E+00 0. -1.
       -3    1    3    3    0  502  0.45307551326E+02 -0.18171903084E+03  0.49004523261E+03  0.52461311515E+03  0.10100000352E+00 0.  1.
</event>
<event>
 5   0  0.7776070E-02  0.4997958E+03  0.7818609E-02  0.1013832E+00
        2   -1    0    0  501    0  0.00000000000E+00  0.00000000000E+00  0.38824992756E+03  0.38824992757E+03  0.25500000920E-02 0. -1.
       -2   -1    0    0    0  501  0.00000000000E+00  0.00000000000E+00 -0.16084731589E+03  0.16084731591E+03  0.25500000920E-02 0.  1.
    10030    2    1    2    0    0  0.00000000000E+00  0.00000000000E+00  0.22740261167E+03  0.54909724348E+03  0.49979579330E+03 0.  0.
        4    1    3    3  502    0 -0.13675867521E+02  0.19187332976E+03  0.28895105225E+03  0.34712638552E+03  0.12699999809E+01 0. -1.
       -4    1    3    3    0  502  0.13675867521E+02 -0.19187332976E+03 -0.61548440578E+02  0.20197085796E+03  0.12699999809E+01 0.  1.
</event>
<event>
 5   0  0.3210875E-02  0.5039797E+03  0.7818609E-02  0.1012745E+00
       -4   -1    0    0    0  501  0.00000000000E+00  0.00000000000E+00  0.28628116369E+03  0.28628398066E+03  0.12699999809E+01 0.  1.
        4   -1    0    0  501    0  0.00000000000E+00  0.00000000000E+00 -0.22180028560E+03  0.22180392150E+03  0.12699999809E+01 0. -1.
    10030    2    1    2    0    0  0.00000000000E+00  0.00000000000E+00  0.64480878086E+02  0.50808790216E+03  0.50397969471E+03 0.  0.
        5    1    3    3  502    0  0.22337883167E+03  0.89715021173E+02  0.10720995005E+03  0.26355824945E+03  0.46999998093E+01 0.  1.
       -5    1    3    3    0  502 -0.22337883167E+03 -0.89715021173E+02 -0.42729071969E+02  0.24452965271E+03  0.46999998093E+01 0. -1.
</event>
<event>
 5   0  0.4803890E-02  0.4996049E+03  0.7818609E-02  0.1013882E+00
       -1   -1    0    0    0  501  0.00000000000E+00  0.00000000000E+00  0.15048125525E+03  0.15048125533E+03  0.50400001928E-02 0. -1.
        1   -1    0    0  501    0  0.00000000000E+00  0.00000000000E+00 -0.41467803345E+03  0.41467803348E+03  0.50400001928E-02 0.  1.
    10030    2    1    2    0    0  0.00000000000E+00  0.00000000000E+00 -0.26419677820E+03  0.56515928881E+03  0.49960492804E+03 0.  0.
        5    1    3    3  502    0  0.17400025319E+03  0.15636199452E+03 -0.33131722822E+02  0.23631538777E+03  0.46999998093E+01 0.  1.
       -5    1    3    3    0  502 -0.17400025319E+03 -0.15636199452E+03 -0.23106505538E+03  0.32884390105E+03  0.46999998093E+01 0. -1.
</event>
<event>
 5   0  0.7881060E-02  0.4970487E+03  0.7818609E-02  0.1014552E+00
       -2   -1    0    0    0  501  0.00000000000E+00  0.00000000000E+00  0.81897494243E+02  0.81897494283E+02  0.25500000920E-02 0. -1.
        2   -1    0    0  501    0  0.00000000000E+00  0.00000000000E+00 -0.75416658464E+03  0.75416658465E+03  0.25500000920E-02 0.  1.
    10030    2    1    2    0    0  0.00000000000E+00  0.00000000000E+00 -0.67226909040E+03  0.83606407893E+03  0.49704870402E+03 0.  0.
        1    1    3    3  502    0  0.11192440764E+03  0.10600168886E+03 -0.66403173024E+03  0.68169023013E+03  0.50400001928E-02 0.  1.
       -1    1    3    3    0  502 -0.11192440764E+03 -0.10600168886E+03 -0.82373601653E+01  0.15437384880E+03  0.50400001928E-02 0. -1.
</event>
<event>
 5   0  0.7776070E-02  0.4985507E+03  0.7818609E-02  0.1014158E+00
       -2   -1    0    0    0  501  0.00000000000E+00  0.00000000000E+00  0.38118979644E+02  0.38118979729E+02  0.25500000920E-02 0.  1.
        2   -1    0    0  501    0  0.00000000000E+00  0.00000000000E+00 -0.16301118327E+04  0.16301118327E+04  0.25500000920E-02 0. -1.
    10030    2    1    2    0    0  0.00000000000E+00  0.00000000000E+00 -0.15919928531E+04  0.16682308125E+04  0.49855069890E+03 0.  0.
        4    1    3    3  502    0  0.17849837774E+03  0.97777690823E+02 -0.12775930128E+04  0.12937030830E+04  0.12699999809E+01 0. -1.
       -4    1    3    3    0  502 -0.17849837774E+03 -0.97777690823E+02 -0.31439984032E+03  0.37452772951E+03  0.12699999809E+01 0.  1.
</event>
<event>
 5   0  0.7776070E-02  0.5227652E+03  0.7818609E-02  0.1008002E+00
       -2   -1    0    0    0  501  0.00000000000E+00  0.00000000000E+00  0.14202091909E+03  0.14202091912E+03  0.25500000920E-02 0. -1.
        2   -1    0    0  501    0  0.00000000000E+00  0.00000000000E+00 -0.48106201330E+03  0.48106201330E+03  0.25500000920E-02 0.  1.
    10030    2    1    2    0    0  0.00000000000E+00  0.00000000000E+00 -0.33904109420E+03  0.62308293242E+03  0.52276522179E+03 0.  0.
        4    1    3    3  502    0 -0.19195193759E+03 -0.82629982515E+02 -0.35663716317E+03  0.41335812488E+03  0.12699999809E+01 0.  1.
       -4    1    3    3    0  502  0.19195193759E+03  0.82629982515E+02  0.17596068963E+02  0.20972480754E+03  0.12699999809E+01 0. -1.
</event>
<event>
 5   0  0.7698747E-02  0.5012577E+03  0.7818609E-02  0.1013451E+00
       -2   -1    0    0    0  501  0.00000000000E+00  0.00000000000E+00  0.38612262794E+03  0.38612262795E+03  0.25500000920E-02 0.  1.
        2   -1    0    0  501    0  0.00000000000E+00  0.00000000000E+00 -0.16268100737E+03  0.16268100739E+03  0.25500000920E-02 0. -1.
    10030    2    1    2    0    0  0.00000000000E+00  0.00000000000E+00  0.22344162057E+03  0.54880363534E+03  0.50125769058E+03 0.  0.
        2    1    3    3  502    0  0.14541177432E+03  0.13510362738E+03  0.27926285825E+03  0.34261540865E+03  0.25500000920E-02 0.  1.
       -2    1    3    3    0  502 -0.14541177432E+03 -0.13510362738E+03 -0.55821237678E+02  0.20618822669E+03  0.25500000920E-02 0. -1.
</event>
<event>
 5   0  0.8208720E-02  0.5002714E+03  0.7818609E-02  0.1013708E+00
        2   -1    0    0  501    0  0.00000000000E+00  0.00000000000E+00  0.13159809840E+04  0.13159809840E+04  0.25500000920E-02 0. -1.
       -2   -1    0    0    0  501  0.00000000000E+00  0.00000000000E+00 -0.47544656961E+02  0.47544657029E+02  0.25500000920E-02 0.  1.
    10030    2    1    2    0    0  0.00000000000E+00  0.00000000000E+00  0.12684363270E+04  0.13635256410E+04  0.50027138435E+03 0.  0.
        3    1    3    3  502    0 -0.22668022059E+03 -0.96796161833E+01  0.34718765563E+03  0.41474919626E+03  0.10100000352E+00 0.  1.
       -3    1    3    3    0  502  0.22668022059E+03  0.96796161833E+01  0.92124867139E+03  0.94877644475E+03  0.10100000352E+00 0. -1.
</event>
<event>
 5   0  0.4884478E-02  0.4987373E+03  0.7818609E-02  0.1014109E+00
       -1   -1    0    0    0  501  0.00000000000E+00  0.00000000000E+00  0.63826548032E+02  0.63826548231E+02  0.50400001928E-02 0. -1.
        1   -1    0    0  501    0  0.00000000000E+00  0.00000000000E+00 -0.97427683728E+03  0.97427683729E+03  0.50400001928E-02 0.  1.
    10030    2    1    2    0    0  0.00000000000E+00  0.00000000000E+00 -0.91045028924E+03  0.10381033855E+04  0.49873731547E+03 0.  0.
        3    1    3    3  502    0  0.19762194722E+03 -0.61554310184E+02 -0.16574942811E+03  0.26517211439E+03  0.10100000352E+00 0. -1.
       -3    1    3    3    0  502 -0.19762194722E+03  0.61554310184E+02 -0.74470086113E+03  0.77293127114E+03  0.10100000352E+00 0.  1.
</event>
<event>
 5   0  0.5191358E-02  0.5069542E+03  0.7818609E-02  0.1011980E+00
       -1   -1    0    0    0  501  0.00000000000E+00  0.00000000000E+00  0.82698206370E+02  0.82698206524E+02  0.50400001928E-02 0.  1.
        1   -1    0    0  501    0  0.00000000000E+00  0.00000000000E+00 -0.77692893822E+03  0.77692893823E+03  0.50400001928E-02 0. -1.
    10030    2    1    2    0    0  0.00000000000E+00  0.00000000000E+00 -0.69423073185E+03  0.85962714476E+03  0.50695415864E+03 0.  0.
        4    1    3    3  502    0  0.17516080409E+03  0.17777898813E+03 -0.42223071022E+03  0.49047636178E+03  0.12699999809E+01 0. -1.
       -4    1    3    3    0  502 -0.17516080409E+03 -0.17777898813E+03 -0.27200002163E+03  0.36915078298E+03  0.12699999809E+01 0.  1.
</event>
<event>
 5   0  0.8208720E-02  0.5006031E+03  0.7818609E-02  0.1013622E+00
        2   -1    0    0  501    0  0.00000000000E+00  0.00000000000E+00  0.56290226391E+03  0.56290226392E+03  0.25500000920E-02 0.  1.
       -2   -1    0    0    0  501  0.00000000000E+00  0.00000000000E+00 -0.11129973976E+03  0.11129973979E+03  0.25500000920E-02 0. -1.
    10030    2    1    2    0    0  0.00000000000E+00  0.00000000000E+00  0.45160252415E+03  0.67420200371E+03  0.50060313821E+03 0.  0.
        3    1    3    3  502    0 -0.14125698570E+03 -0.19452900068E+03  0.31964963346E+03  0.39996370646E+03  0.10100000352E+00 0.  1.
       -3    1    3    3    0  502  0.14125698570E+03  0.19452900068E+03  0.13195289069E+03  0.27423829725E+03  0.10100000352E+00 0. -1.
</event>
<event>
 5   0  0.7698747E-02  0.5000101E+03  0.7818609E-02  0.1013776E+00
       -2   -1    0    0    0  501  0.00000000000E+00  0.00000000000E+00  0.54295612632E+02  0.54295612692E+02  0.25500000920E-02 0.  1.
        2   -1    0    0  501    0  0.00000000000E+00  0.00000000000E+00 -0.11511525476E+04  0.11511525476E+04  0.25500000920E-02 0. -1.
    10030    2    1    2    0    0  0.00000000000E+00  0.00000000000E+00 -0.10968569350E+04  0.12054481603E+04  0.50001013128E+03 0.  0.
        2    1    3    3  502    0 -0.20765665242E+03  0.13238543285E+03 -0.65227261847E+03  0.69721356623E+03  0.25500000920E-02 0. -1.
       -2    1    3    3    0  502  0.20765665242E+03 -0.13238543285E+03 -0.44458431654E+03  0.50823459410E+03  0.25500000920E-02 0.  1.
</event>
<event>
 5   0  0.5038436E-02  0.5007855E+03  0.7818609E-02  0.1013574E+00
        1   -1    0    0  501    0  0.00000000000E+00  0.00000000000E+00  0.79773104824E+03  0.79773104826E+03  0.50400001928E-02 0.  1.
       -1   -1    0    0    0  501  0.00000000000E+00  0.00000000000E+00 -0.78593572951E+02  0.78593573112E+02  0.50400001928E-02 0. -1.
    10030    2    1    2    0    0  0.00000000000E+00  0.00000000000E+00  0.71913747529E+03  0.87632462137E+03  0.50078551662E+03 0.  0.
        1    1    3    3  502    0  0.84196724688E+02  0.98807230947E+02  0.73424591029E+03  0.74563329737E+03  0.50400001928E-02 0.  1.
       -1    1    3    3    0  502 -0.84196724688E+02 -0.98807230947E+02 -0.15108435003E+02  0.13069132400E+03  0.50400001928E-02 0. -1.
</event>
<event>
 5   0  0.7881060E-02  0.4932447E+03  0.7818609E-02  0.1015557E+00
        2   -1    0    0  501    0  0.00000000000E+00  0.00000000000E+00  0.13047386066E+03  0.13047386068E+03  0.25500000920E-02 0. -1.
       -2   -1    0    0    0  501  0.00000000000E+00  0.00000000000E+00 -0.46616685472E+03  0.46616685473E+03  0.25500000920E-02 0.  1.
    10030    2    1    2    0    0  0.00000000000E+00  0.00000000000E+00 -0.33569299407E+03  0.59664071541E+03  0.49324472326E+03 0.  0.
        1    1    3    3  502    0  0.12303473984E+03  0.13598018129E+03 -0.36732239905E+03  0.41055316560E+03  0.50400001928E-02 0.  1.
       -1    1    3    3    0  502 -0.12303473984E+03 -0.13598018129E+03  0.31629404985E+02  0.18608754981E+03  0.50400001928E-02 0. -1.
</event>
<event>
 5   0  0.4865501E-02  0.4978905E+03  0.7818609E-02  0.1014331E+00
       -1   -1    0    0    0  501  0.00000000000E+00  0.00000000000E+00  0.57390742078E+03  0.57390742080E+03  0.50400001928E-02 0.  1.
        1   -1    0    0  501    0  0.00000000000E+00  0.00000000000E+00 -0.10798560143E+03  0.10798560154E+03  0.50400001928E-02 0. -1.
    10030    2    1    2    0    0  0.00000000000E+00  0.00000000000E+00  0.46592181935E+03  0.68189302235E+03  0.49789050219E+03 0.  0.
        2    1    3    3  502    0  0.11158525927E+03  0.20598134906E+03  0.34831490550E+03  0.41976524350E+03  0.25500000920E-02 0.  1.
       -2    1    3    3    0  502 -0.11158525927E+03 -0.20598134906E+03  0.11760691385E+03  0.26212777884E+03  0.25500000920E-02 0. -1.
</event>
<event>
 5   0  0.7933103E-02  0.5006845E+03  0.7818609E-02  0.1013600E+00
        2   -1    0    0  501    0  0.00000000000E+00  0.00000000000E+00  0.10652055633E+04  0.10652055633E+04  0.25500000920E-02 0. -1.
       -2   -1    0    0    0  501  0.00000000000E+00  0.00000000000E+00 -0.58834889711E+02  0.58834889766E+02  0.25500000920E-02 0.  1.
    10030    2    1    2    0    0  0.00000000000E+00  0.00000000000E+00  0.10063706735E+04  0.11240404530E+04  0.50068453887E+03 0.  0.
        5    1    3    3  502    0  0.53596087487E+02  0.22788495503E+03  0.70203100383E+03  0.74004980485E+03  0.46999998093E+01 0. -1.
       -5    1    3    3    0  502 -0.53596087487E+02 -0.22788495503E+03  0.30433966971E+03  0.38399064817E+03  0.46999998093E+01 0.  1.
</event>
<event>
 5   0  0.3210875E-02  0.5009402E+03  0.7818609E-02  0.1013534E+00
       -4   -1    0    0    0  501  0.00000000000E+00  0.00000000000E+00  0.14628472563E+03  0.14629023841E+03  0.12699999809E+01 0. -1.
        4   -1    0    0  501    0  0.00000000000E+00  0.00000000000E+00 -0.42884279244E+03  0.42884467296E+03  0.12699999809E+01 0.  1.
    10030    2    1    2    0    0  0.00000000000E+00  0.00000000000E+00 -0.28255806681E+03  0.57513491137E+03  0.50094022114E+03 0.  0.
        3    1    3    3  502    0  0.85667448000E+01 -0.17120924505E+03  0.68386480215E+02  0.18456087230E+03  0.10100000352E+00 0. -1.
       -3    1    3    3    0  502 -0.85667448000E+01  0.17120924505E+03 -0.35094454703E+03  0.39057403907E+03  0.10100000352E+00 0.  1.
</event>
<event>
 5   0  0.5038436E-02  0.5006280E+03  0.7818609E-02  0.1013615E+00
        1   -1    0    0  501    0  0.00000000000E+00  0.00000000000E+00  0.15687336248E+03  0.15687336256E+03  0.50400001928E-02 0.  1.
       -1   -1    0    0    0  501  0.00000000000E+00  0.00000000000E+00 -0.39941203797E+03  0.39941203800E+03  0.50400001928E-02 0. -1.
    10030    2    1    2    0    0  0.00000000000E+00  0.00000000000E+00 -0.24253867549E+03  0.55628540056E+03  0.50062804333E+03 0.  0.
        1    1    3    3  502    0 -0.78342678046E+02 -0.17890118042E+03 -0.29524508489E+03  0.35399557587E+03  0.50400001928E-02 0. -1.
       -1    1    3    3    0  502  0.78342678046E+02  0.17890118042E+03  0.52706409395E+02  0.20228982469E+03  0.50400001928E-02 0.  1.
</event>
<event>
 5   0  0.4803890E-02  0.5007747E+03  0.7818609E-02  0.1013577E+00
        1   -1    0    0  501    0  0.00000000000E+00  0.00000000000E+00  0.15131046342E+03  0.15131046351E+03  0.50400001928E-02 0. -1.
       -1   -1    0    0    0  501  0.00000000000E+00  0.00000000000E+00 -0.41433905030E+03  0.41433905034E+03  0.50400001928E-02 0.  1.
    10030    2    1    2    0    0  0.00000000000E+00  0.00000000000E+00 -0.26302858688E+03  0.56564951384E+03  0.50077473478E+03 0.  0.
        5    1    3    3  502    0 -0.13833167692E+03  0.19411726244E+03 -0.45086613252E+02  0.24263564682E+03  0.46999998093E+01 0. -1.
       -5    1    3    3    0  502  0.13833167692E+03 -0.19411726244E+03 -0.21794197363E+03  0.32301386702E+03  0.46999998093E+01 0.  1.
</event>
<event>
 5   0  0.7881060E-02  0.5007615E+03  0.7818609E-02  0.1013580E+00
        2   -1    0    0  501    0  0.00000000000E+00  0.00000000000E+00  0.55915673417E+03  0.55915673418E+03  0.25500000920E-02 0.  1.
       -2   -1    0    0    0  501  0.00000000000E+00  0.00000000000E+00 -0.11211618685E+03  0.11211618688E+03  0.25500000920E-02 0. -1.
    10030    2    1    2    0    0  0.00000000000E+00  0.00000000000E+00  0.44704054732E+03  0.67127292106E+03  0.50076150371E+03 0.  0.
        1    1    3    3  502    0  0.15873062337E+03  0.12323558393E+03  0.23303944893E+02  0.20230050374E+03  0.50400001928E-02 0. -1.
       -1    1    3    3    0  502 -0.15873062337E+03 -0.12323558393E+03  0.42373660243E+03  0.46897241732E+03  0.50400001928E-02 0.  1.
</event>
<event>
 5   0  0.4884478E-02  0.4998085E+03  0.7818609E-02  0.1013829E+00
        1   -1    0    0  501    0  0.00000000000E+00  0.00000000000E+00  0.35105884297E+03  0.35105884301E+03  0.50400001928E-02 0. -1.
       -1   -1    0    0    0  501  0.00000000000E+00  0.00000000000E+00 -0.17789645001E+03  0.17789645008E+03  0.50400001928E-02 0.  1.
    10030    2    1    2    0    0  0.00000000000E+00  0.00000000000E+00  0.17316239296E+03  0.52895529309E+03  0.49980845106E+03 0.  0.
        3    1    3    3  502    0 -0.11172688208E+03 -0.20217293190E+02 -0.14902304755E+03  0.18734864298E+03  0.10100000352E+00 0.  1.
       -3    1    3    3    0  502  0.11172688208E+03  0.20217293190E+02  0.32218544051E+03  0.34160665011E+03  0.10100000352E+00 0. -1.
</event>
<event>
 5   0  0.7698747E-02  0.5259931E+03  0.7818609E-02  0.1007209E+00
        2   -1    0    0  501    0  0.00000000000E+00  0.00000000000E+00  0.73906434183E+03  0.73906434183E+03  0.25500000920E-02 0.  1.
       -2   -1    0    0    0  501  0.00000000000E+00  0.00000000000E+00 -0.93587497332E+02  0.93587497367E+02  0.25500000920E-02 0. -1.
    10030    2    1    2    0    0  0.00000000000E+00  0.00000000000E+00  0.64547684449E+03  0.83265183920E+03  0.52599308792E+03 0.  0.
        2    1    3    3  502    0 -0.88571403872E+02  0.15021381151E+03  0.11090206714E+02  0.17473429957E+03  0.25500000920E-02 0. -1.
       -2    1    3    3    0  502  0.88571403872E+02 -0.15021381151E+03  0.63438663778E+03  0.65791753963E+03  0.25500000920E-02 0.  1.
</event>
<event>
 5   0  0.5191358E-02  0.4976615E+03  0.7818609E-02  0.1014391E+00
       -1   -1    0    0    0  501  0.00000000000E+00  0.00000000000E+00  0.52800219868E+03  0.52800219870E+03  0.50400001928E-02 0. -1.
        1   -1    0    0  501    0  0.00000000000E+00  0.00000000000E+00 -0.11726607348E+03  0.11726607358E+03  0.50400001928E-02 0.  1.
    10030    2    1    2    0    0  0.00000000000E+00  0.00000000000E+00  0.41073612520E+03  0.64526827229E+03  0.49766151014E+03 0.  0.
        4    1    3    3  502    0 -0.21282864262E+03 -0.92818716802E+02  0.32136699841E+03  0.39647157007E+03  0.12699999809E+01 0. -1.
       -4    1    3    3    0  502  0.21282864262E+03  0.92818716802E+02  0.89369126795E+02  0.24879670222E+03  0.12699999809E+01 0.  1.
</event>
<event>
 5   0  0.4803890E-02  0.5040064E+03  0.7818609E-02  0.1012738E+00
        1   -1    0    0  501    0  0.00000000000E+00  0.00000000000E+00  0.44501130300E+03  0.44501130303E+03  0.50400001928E-02 0.  1.
       -1   -1    0    0    0  501  0.00000000000E+00  0.00000000000E+00 -0.14270559720E+03  0.14270559729E+03  0.50400001928E-02 0. -1.
    10030    2    1    2    0    0  0.00000000000E+00  0.00000000000E+00  0.30230570580E+03  0.58771690032E+03  0.50400636421E+03 0.  0.
        5    1    3    3  502    0  0.26380911965E+02 -0.28354628897E+02  0.44146852045E+03  0.44318899134E+03  0.46999998093E+01 0.  1.
       -5    1    3    3    0  502 -0.26380911965E+02  0.28354628897E+02 -0.13916281465E+03  0.14452790898E+03  0.46999998093E+01 0. -1.
</event>
<event>
 5   0  0.7933103E-02  0.5006471E+03  0.7818609E-02  0.1013610E+00
        2   -1    0    0  501    0  0.00000000000E+00  0.00000000000E+00  0.21722322132E+03  0.21722322133E+03  0.25500000920E-02 0.  1.
       -2   -1    0    0    0  501  0.00000000000E+00  0.00000000000E+00 -0.28846768787E+03  0.28846768788E+03  0.25500000920E-02 0. -1.
    10030    2    1    2    0    0  0.00000000000E+00  0.00000000000E+00 -0.71244466554E+02  0.50569090921E+03  0.50064710290E+03 0.  0.
        5    1    3    3  502    0 -0.82527076254E+02 -0.18596826942E+03 -0.18284688233E+03  0.27358725833E+03  0.46999998093E+01 0. -1.
       -5    1    3    3    0  502  0.82527076254E+02  0.18596826942E+03  0.11160241578E+03  0.23210365088E+03  0.46999998093E+01 0.  1.
</event>
<event>
 5   0  0.4803890E-02  0.5021622E+03  0.7818609E-02  0.1013216E+00
        1   -1    0    0  501    0  0.00000000000E+00  0.00000000000E+00  0.47814159941E+02  0.47814160207E+02  0.50400001928E-02 0. -1.
       -1   -1    0    0    0  501  0.00000000000E+00  0.00000000000E+00 -0.13184739996E+04  0.13184739996E+04  0.50400001928E-02 0.  1.
    10030    2    1    2    0    0  0.00000000000E+00  0.00000000000E+00 -0.12706598397E+04  0.13662881598E+04  0.50216223229E+03 0.  0.
        5    1    3    3  502    0 -0.24107643672E+03  0.51679951940E+02 -0.50681746137E+03  0.56362637884E+03  0.46999998093E+01 0.  1.
       -5    1    3    3    0  502  0.24107643672E+03 -0.51679951940E+02 -0.76384237831E+03  0.80266178100E+03  0.46999998093E+01 0. -1.
</event>
<event>
 5   0  0.3210875E-02  0.5055847E+03  0.7818609E-02  0.1012331E+00
        4   -1    0    0  501    0  0.00000000000E+00  0.00000000000E+00  0.12779650401E+03  0.12780281427E+03  0.12699999809E+01 0. -1.
       -4   -1    0    0    0  501  0.00000000000E+00  0.00000000000E+00 -0.50002529358E+03  0.50002690639E+03  0.12699999809E+01 0.  1.
    10030    2    1    2    0    0  0.00000000000E+00  0.00000000000E+00 -0.37222878957E+03  0.62782972067E+03  0.50558469752E+03 0.  0.
        1    1    3    3  502    0 -0.10510694081E+03 -0.57285740203E+02 -0.46260389233E+03  0.47784044017E+03  0.50400001928E-02 0.  1.
       -1    1    3    3    0  502  0.10510694081E+03  0.57285740203E+02  0.90375102763E+02  0.14998928049E+03  0.50400001928E-02 0. -1.
</event>
<event>
 5   0  0.7881060E-02  0.5011745E+03  0.7818609E-02  0.1013473E+00
       -2   -1    0    0    0  501  0.00000000000E+00  0.00000000000E+00  0.27565376958E+03  0.27565376959E+03  0.25500000920E-02 0. -1.
        2   -1    0    0  501    0  0.00000000000E+00  0.00000000000E+00 -0.22780016910E+03  0.22780016912E+03  0.25500000920E-02 0.  1.
    10030    2    1    2    0    0  0.00000000000E+00  0.00000000000E+00  0.47853600475E+02  0.50345393870E+03  0.50117452182E+03 0.  0.
        1    1    3    3  502    0 -0.21000034089E+03  0.38653838987E+02  0.15567095531E+03  0.26424933074E+03  0.50400001928E-02 0. -1.
       -1    1    3    3    0  502  0.21000034089E+03 -0.38653838987E+02 -0.10781735483E+03  0.23920460797E+03  0.50400001928E-02 0.  1.
</event>
<event>
 5   0  0.5191358E-02  0.4989225E+03  0.7818609E-02  0.1014061E+00
       -1   -1    0    0    0  501  0.00000000000E+00  0.00000000000E+00  0.28279103232E+03  0.28279103236E+03  0.50400001928E-02 0. -1.
        1   -1    0    0  501    0  0.00000000000E+00  0.00000000000E+00 -0.22005969749E+03  0.22005969755E+03  0.50400001928E-02 0.  1.
    10030    2    1    2    0    0  0.00000000000E+00  0.00000000000E+00  0.62731334825E+02  0.50285072991E+03  0.49892247515E+03 0.  0.
        4    1    3    3  502    0  0.13628845674E+03  0.60800284758E+02  0.23283470521E+03  0.27655891039E+03  0.12699999809E+01 0. -1.
       -4    1    3    3    0  502 -0.13628845674E+03 -0.60800284758E+02 -0.17010337038E+03  0.22629181952E+03  0.12699999809E+01 0.  1.
</event>
<event>
 5   0  0.7881060E-02  0.5075153E+03  0.7818609E-02  0.1011836E+00
        2   -1    0    0  501    0  0.00000000000E+00  0.00000000000E+00  0.13775464520E+04  0.13775464520E+04  0.25500000920E-02 0. -1.
       -2   -1    0    0    0  501  0.00000000000E+00  0.00000000000E+00 -0.46744660228E+02  0.46744660297E+02  0.25500000920E-02 0.  1.
    10030    2    1    2    0    0  0.00000000000E+00  0.00000000000E+00  0.13308017918E+04  0.14242911123E+04  0.50751528410E+03 0.  0.
        1    1    3    3  502    0 -0.30416651804E+02  0.93236470109E+02  0.13222108961E+04  0.13258430774E+04  0.50400001928E-02 0. -1.
       -1    1    3    3    0  502  0.30416651804E+02 -0.93236470109E+02  0.85908956792E+01  0.98448034919E+02  0.50400001928E-02 0.  1.
</event>
<event>
 5   0  0.7881060E-02  0.5003331E+03  0.7818609E-02  0.1013692E+00
       -2   -1    0    0    0  501  0.00000000000E+00  0.00000000000E+00  0.55749689600E+02  0.55749689658E+02  0.25500000920E-02 0.  1.
        2   -1    0    0  501    0  0.00000000000E+00  0.00000000000E+00 -0.11225769161E+04  0.11225769161E+04  0.25500000920E-02 0. -1.
    10030    2    1    2    0    0  0.00000000000E+00  0.00000000000E+00 -0.10668272265E+04  0.11783266057E+04  0.50033314765E+03 0.  0.
        1    1    3    3  502    0 -0.14565624713E+03  0.14422527921E+03 -0.87115796329E+03  0.89494852954E+03  0.50400001928E-02 0. -1.
       -1    1    3    3    0  502  0.14565624713E+03 -0.14422527921E+03 -0.19566926319E+03  0.28337807621E+03  0.50400001928E-02 0.  1.
</event>
<event>
 5   0  0.5191358E-02  0.4992489E+03  0.7818609E-02  0.1013975E+00
       -1   -1    0    0    0  501  0.00000000000E+00  0.00000000000E+00  0.19328044231E+04  0.19328044231E+04  0.50400001928E-02 0.  1.
        1   -1    0    0  501    0  0.00000000000E+00  0.00000000000E+00 -0.32239357649E+02  0.32239358043E+02  0.50400001928E-02 0. -1.
    10030    2    1    2    0    0  0.00000000000E+00  0.00000000000E+00  0.19005650655E+04  0.19650437812E+04  0.49924892972E+03 0.  0.
        4    1    3    3  502    0 -0.12917907232E+03 -0.20815389071E+03  0.76170394630E+03  0.80013110779E+03  0.12699999809E+01 0. -1.
       -4    1    3    3    0  502  0.12917907232E+03  0.20815389071E+03  0.11388611192E+04  0.11649126734E+04  0.12699999809E+01 0.  1.
</event>
<event>
 5   0  0.4884478E-02  0.4990134E+03  0.7818609E-02  0.1014037E+00
        1   -1    0    0  501    0  0.00000000000E+00  0.00000000000E+00  0.23417975385E+03  0.23417975391E+03  0.50400001928E-02 0. -1.
       -1   -1    0    0    0  501  0.00000000000E+00  0.00000000000E+00 -0.26583678012E+03  0.26583678017E+03  0.50400001928E-02 0.  1.
    10030    2    1    2    0    0  0.00000000000E+00  0.00000000000E+00 -0.31657026273E+02  0.50001653408E+03  0.49901339365E+03 0.  0.
        3    1    3    3  502    0  0.13395601519E+03  0.60946579920E+02 -0.21771525742E+03  0.26279011230E+03  0.10100000352E+00 0.  1.
       -3    1    3    3    0  502 -0.13395601519E+03 -0.60946579920E+02  0.18605823115E+03  0.23722642177E+03  0.10100000352E+00 0. -1.
</event>
<event>
 5   0  0.3210875E-02  0.5013350E+03  0.7818609E-02  0.1013431E+00
        3   -1    0    0  501    0  0.00000000000E+00  0.00000000000E+00  0.75123544395E+02  0.75123612290E+02  0.10100000352E+00 0. -1.
       -3   -1    0    0    0  501  0.00000000000E+00  0.00000000000E+00 -0.83641088184E+03  0.83641088794E+03  0.10100000352E+00 0.  1.
    10030    2    1    2    0    0  0.00000000000E+00  0.00000000000E+00 -0.76128733745E+03  0.91153450023E+03  0.50133495285E+03 0.  0.
        4    1    3    3  502    0  0.19242754697E+02  0.15586779549E+03 -0.25428025532E+02  0.15910138485E+03  0.12699999809E+01 0. -1.
       -4    1    3    3    0  502 -0.19242754697E+02 -0.15586779549E+03 -0.73585931192E+03  0.75243311538E+03  0.12699999809E+01 0.  1.
</event>
<event>
 5   0  0.7776070E-02  0.4968608E+03  0.7818609E-02  0.1014602E+00
       -2   -1    0    0    0  501  0.00000000000E+00  0.00000000000E+00  0.13020187915E+03  0.13020187918E+03  0.25500000920E-02 0. -1.
        2   -1    0    0  501    0  0.00000000000E+00  0.00000000000E+00 -0.47401515025E+03  0.47401515026E+03  0.25500000920E-02 0.  1.
    10030    2    1    2    0    0  0.00000000000E+00  0.00000000000E+00 -0.34381327110E+03  0.60421702943E+03  0.49686079869E+03 0.  0.
        4    1    3    3  502    0  0.35681891527E+02  0.23714687771E+03 -0.25075641855E+03  0.34697583970E+03  0.12699999809E+01 0.  1.
       -4    1    3    3    0  502 -0.35681891527E+02 -0.23714687771E+03 -0.93056852547E+02  0.25724118973E+03  0.12699999809E+01 0. -1.
</event>
<event>
 5   0  0.5191358E-02  0.4973579E+03  0.7818609E-02  0.1014471E+00
        1   -1    0    0  501    0  0.00000000000E+00  0.00000000000E+00  0.65930219440E+03  0.65930219442E+03  0.50400001928E-02 0.  1.
       -1   -1    0    0    0  501  0.00000000000E+00  0.00000000000E+00 -0.93797998157E+02  0.93797998292E+02  0.50400001928E-02 0. -1.
    10030    2    1    2    0    0  0.00000000000E+00  0.00000000000E+00  0.56550419624E+03  0.75310019271E+03  0.49735792373E+03 0.  0.
        4    1    3    3  502    0 -0.21963036027E+03 -0.92449906604E+02  0.17509318241E+03  0.29570883621E+03  0.12699999809E+01 0. -1.
       -4    1    3    3    0  502  0.21963036027E+03  0.92449906604E+02  0.39041101383E+03  0.45739135651E+03  0.12699999809E+01 0.  1.
</event>
<event>
 5   0  0.5038436E-02  0.4994706E+03  0.7818609E-02  0.1013917E+00
       -1   -1    0    0    0  501  0.00000000000E+00  0.00000000000E+00  0.11348486140E+03  0.11348486151E+03  0.50400001928E-02 0.  1.
        1   -1    0    0  501    0  0.00000000000E+00  0.00000000000E+00 -0.54956868158E+03  0.54956868160E+03  0.50400001928E-02 0. -1.
    10030    2    1    2    0    0  0.00000000000E+00  0.00000000000E+00 -0.43608382018E+03  0.66305354311E+03  0.49947062256E+03 0.  0.
        1    1    3    3  502    0 -0.10199776870E+03  0.16633235186E+03 -0.11112843899E+02  0.19543155175E+03  0.50400001928E-02 0.  1.
       -1    1    3    3    0  502  0.10199776870E+03 -0.16633235186E+03 -0.42497097628E+03  0.46762199136E+03  0.50400001928E-02 0. -1.
</event>
<event>
 5   0  0.4803890E-02  0.4967833E+03  0.7818609E-02  0.1014622E+00
       -1   -1    0    0    0  501  0.00000000000E+00  0.00000000000E+00  0.10123959329E+03  0.10123959342E+03  0.50400001928E-02 0.  1.
        1   -1    0    0  501    0  0.00000000000E+00  0.00000000000E+00 -0.60942963795E+03  0.60942963797E+03  0.50400001928E-02 0. -1.
    10030    2    1    2    0    0  0.00000000000E+00  0.00000000000E+00 -0.50819004466E+03  0.71066923138E+03  0.49678328771E+03 0.  0.
        5    1    3    3  502    0 -0.15755251187E+03 -0.12816528539E+03 -0.45855334326E+03  0.50154002132E+03  0.46999998093E+01 0. -1.
       -5    1    3    3    0  502  0.15755251187E+03  0.12816528539E+03 -0.49636701397E+02  0.20912921006E+03  0.46999998093E+01 0.  1.
</event>
<event>
 5   0  0.7776070E-02  0.4994746E+03  0.7818609E-02  0.1013916E+00
        2   -1    0    0  501    0  0.00000000000E+00  0.00000000000E+00  0.15345001643E+04  0.15345001643E+04  0.25500000920E-02 0.  1.
       -2   -1    0    0    0  501  0.00000000000E+00  0.00000000000E+00 -0.40644326796E+02  0.40644326876E+02  0.25500000920E-02 0. -1.
    10030    2    1    2    0    0  0.00000000000E+00  0.00000000000E+00  0.14938558375E+04  0.15751444911E+04  0.49947462883E+03 0.  0.
        4    1    3    3  502    0 -0.13908757716E+03 -0.20025881344E+03  0.57657011828E+03  0.62600611872E+03  0.12699999809E+01 0. -1.
       -4    1    3    3    0  502  0.13908757716E+03  0.20025881344E+03  0.91728571919E+03  0.94913837242E+03  0.12699999809E+01 0.  1.
</event>
<event>
 5   0  0.7698747E-02  0.4973031E+03  0.7818609E-02  0.1014485E+00
       -2   -1    0    0    0  501  0.00000000000E+00  0.00000000000E+00  0.66402878640E+02  0.66402878689E+02  0.25500000920E-02 0.  1.
        2   -1    0    0  501    0  0.00000000000E+00  0.00000000000E+00 -0.93109796764E+03  0.93109796764E+03  0.25500000920E-02 0. -1.
    10030    2    1    2    0    0  0.00000000000E+00  0.00000000000E+00 -0.86469508900E+03  0.99750084633E+03  0.49730306805E+03 0.  0.
        2    1    3    3  502    0 -0.13936503685E+03 -0.13124189307E+03 -0.75063874431E+03  0.77466481297E+03  0.25500000920E-02 0. -1.
       -2    1    3    3    0  502  0.13936503685E+03  0.13124189307E+03 -0.11405634469E+03  0.22283603336E+03  0.25500000920E-02 0.  1.
</event>
<event>
 5   0  0.4803890E-02  0.5085884E+03  0.7818609E-02  0.1011561E+00
       -1   -1    0    0    0  501  0.00000000000E+00  0.00000000000E+00  0.87106862033E+02  0.87106862179E+02  0.50400001928E-02 0.  1.
        1   -1    0    0  501    0  0.00000000000E+00  0.00000000000E+00 -0.74237034922E+03  0.74237034924E+03  0.50400001928E-02 0. -1.
    10030    2    1    2    0    0  0.00000000000E+00  0.00000000000E+00 -0.65526348719E+03  0.82947721142E+03  0.50858844523E+03 0.  0.
        5    1    3    3  502    0 -0.58968765722E+02 -0.12328058723E+03 -0.67730786633E+03  0.69097283181E+03  0.46999998093E+01 0. -1.
       -5    1    3    3    0  502  0.58968765722E+02  0.12328058723E+03  0.22044379138E+02  0.13850437960E+03  0.46999998093E+01 0.  1.
</event>
<event>
 5   0  0.5038436E-02  0.4998437E+03  0.7818609E-02  0.1013820E+00
        1   -1    0    0  501    0  0.00000000000E+00  0.00000000000E+00  0.17422153301E+04  0.17422153301E+04  0.50400001928E-02 0.  1.
       -1   -1    0    0    0  501  0.00000000000E+00  0.00000000000E+00 -0.35851440182E+02  0.35851440536E+02  0.50400001928E-02 0. -1.
    10030    2    1    2    0    0  0.00000000000E+00  0.00000000000E+00  0.17063638900E+04  0.17780667707E+04  0.49984369162E+03 0.  0.
        1    1    3    3  502    0 -0.10419278436E+03 -0.19190860652E+03  0.12855867581E+04  0.13040009058E+04  0.50400001928E-02 0.  1.
       -1    1    3    3    0  502  0.10419278436E+03  0.19190860652E+03  0.42077713181E+03  0.47406586488E+03  0.50400001928E-02 0. -1.
</event>
<event>
 5   0  0.8208720E-02  0.4981959E+03  0.7818609E-02  0.1014251E+00
        2   -1    0    0  501    0  0.00000000000E+00  0.00000000000E+00  0.84275762025E+03  0.84275762026E+03  0.25500000920E-02 0.  1.
       -2   -1    0    0    0  501  0.00000000000E+00  0.00000000000E+00 -0.73627096821E+02  0.73627096865E+02  0.25500000920E-02 0. -1.
    10030    2    1    2    0    0  0.00000000000E+00  0.00000000000E+00  0.76913052343E+03  0.91638471712E+03  0.49819593304E+03 0.  0.
        3    1    3    3  502    0 -0.98592019504E+02 -0.11985482872E+03  0.26167818269E+02  0.15738593073E+03  0.10100000352E+00 0. -1.
       -3    1    3    3    0  502  0.98592019504E+02  0.11985482872E+03  0.74296270516E+03  0.75899878639E+03  0.10100000352E+00 0.  1.
</event>
<event>
 5   0  0.7776070E-02  0.5036649E+03  0.7818609E-02  0.1012827E+00
       -2   -1    0    0    0  501  0.00000000000E+00  0.00000000000E+00  0.24696621604E+03  0.24696621606E+03  0.25500000920E-02 0.  1.
        2   -1    0    0  501    0  0.00000000000E+00  0.00000000000E+00 -0.25679457158E+03  0.25679457160E+03  0.25500000920E-02 0. -1.
    10030    2    1    2    0    0  0.00000000000E+00  0.00000000000E+00 -0.98283555393E+01  0.50376078765E+03  0.50366490309E+03 0.  0.
        4    1    3    3  502    0 -0.20705677642E+03 -0.47853950527E+02 -0.14005267300E+03  0.25451694119E+03  0.12699999809E+01 0. -1.
       -4    1    3    3    0  502  0.20705677642E+03  0.47853950527E+02  0.13022431746E+03  0.24924384646E+03  0.12699999809E+01 0.  1.
</event>
<event>
 5   0  0.7776070E-02  0.5087055E+03  0.7818609E-02  0.1011531E+00
       -2   -1    0    0    0  501  0.00000000000E+00  0.00000000000E+00  0.27109395346E+03  0.27109395347E+03  0.25500000920E-02 0. -1.
        2   -1    0    0  501    0  0.00000000000E+00  0.00000000000E+00 -0.23864534212E+03  0.23864534213E+03  0.25500000920E-02 0.  1.
    10030    2    1    2    0    0  0.00000000000E+00  0.00000000000E+00  0.32448611344E+02  0.50973929560E+03  0.50870545220E+03 0.  0.
        4    1    3    3  502    0 -0.65946524824E+02  0.23175603134E+03  0.97838555252E+02  0.26006498802E+03  0.12699999809E+01 0.  1.
       -4    1    3    3    0  502  0.65946524824E+02 -0.23175603134E+03 -0.65389943908E+02  0.24967430758E+03  0.12699999809E+01 0. -1.
</event>
<event>
 5   0  0.4884478E-02  0.5006923E+03  0.7818609E-02  0.1013598E+00
       -1   -1    0    0    0  501  0.00000000000E+00  0.00000000000E+00  0.96270998596E+02  0.96270998728E+02  0.50400001928E-02 0. -1.
        1   -1    0    0  501    0  0.00000000000E+00  0.00000000000E+00 -0.65100806585E+03  0.65100806587E+03  0.50400001928E-02 0.  1.
    10030    2    1    2    0    0  0.00000000000E+00  0.00000000000E+00 -0.55473706725E+03  0.74727906460E+03  0.50069230731E+03 0.  0.
        3    1    3    3  502    0  0.10228112573E+03  0.31528832449E+02 -0.61513917011E+03  0.62438105734E+03  0.10100000352E+00 0.  1.
       -3    1    3    3    0  502 -0.10228112573E+03 -0.31528832449E+02  0.60402102859E+02  0.12289800726E+03  0.10100000352E+00 0. -1.
</event>
<event>
 5   0  0.4884478E-02  0.4966280E+03  0.7818609E-02  0.1014663E+00
        1   -1    0    0  501    0  0.00000000000E+00  0.00000000000E+00  0.40055731475E+03  0.40055731478E+03  0.50400001928E-02 0. -1.
       -1   -1    0    0    0  501  0.00000000000E+00  0.00000000000E+00 -0.15393511086E+03  0.15393511094E+03  0.50400001928E-02 0.  1.
    10030    2    1    2    0    0  0.00000000000E+00  0.00000000000E+00  0.24662220389E+03  0.55449242573E+03  0.49662796814E+03 0.  0.
        3    1    3    3  502    0 -0.22520931446E+03  0.96956260688E+01  0.70295186661E+01  0.22552752563E+03  0.10100000352E+00 0.  1.
       -3    1    3    3    0  502  0.22520931446E+03 -0.96956260688E+01  0.23959268522E+03  0.32896490010E+03  0.10100000352E+00 0. -1.
</event>
<event>
 5   0  0.5038436E-02  0.5067155E+03  0.7818609E-02  0.1012041E+00
        1   -1    0    0  501    0  0.00000000000E+00  0.00000000000E+00  0.87142349978E+03  0.87142349979E+03  0.50400001928E-02 0. -1.
       -1   -1    0    0    0  501  0.00000000000E+00  0.00000000000E+00 -0.73661249921E+02  0.73661250093E+02  0.50400001928E-02 0.  1.
    10030    2    1    2    0    0  0.00000000000E+00  0.00000000000E+00  0.79776224985E+03  0.94508474988E+03  0.50671547950E+03 0.  0.
        1    1    3    3  502    0  0.22104396722E+03  0.31180024789E+02  0.62236501441E+03  0.66118895981E+03  0.50400001928E-02 0. -1.
       -1    1    3    3    0  502 -0.22104396722E+03 -0.31180024789E+02  0.17539723544E+03  0.28389579007E+03  0.50400001928E-02 0.  1.
</event>
<event>
 5   0  0.3210875E-02  0.5020312E+03  0.7818609E-02  0.1013250E+00
       -4   -1    0    0    0  501  0.00000000000E+00  0.00000000000E+00  0.13358846542E+03  0.13359450211E+03  0.12699999809E+01 0.  1.
        4   -1    0    0  501    0  0.00000000000E+00  0.00000000000E+00 -0.47164624027E+03  0.47164795013E+03  0.12699999809E+01 0. -1.
    10030    2    1    2    0    0  0.00000000000E+00  0.00000000000E+00 -0.33805777485E+03  0.60524245224E+03  0.50203124091E+03 0.  0.
        1    1    3    3  502    0  0.53269012074E+02 -0.15565975395E+03  0.59528624308E+02  0.17496057780E+03  0.50400001928E-02 0.  1.
       -1    1    3    3    0  502 -0.53269012074E+02  0.15565975395E+03 -0.39758639916E+03  0.43028187443E+03  0.50400001928E-02 0. -1.
</event>
<event>
 5   0  0.8208720E-02  0.4980133E+03  0.7818609E-02  0.1014299E+00
        2   -1    0    0  501    0  0.00000000000E+00  0.00000000000E+00  0.63059663474E+03  0.63059663475E+03  0.25500000920E-02 0. -1.
       -2   -1    0    0    0  501  0.00000000000E+00  0.00000000000E+00 -0.98326430507E+02  0.98326430540E+02  0.25500000920E-02 0.  1.
    10030    2    1    2    0    0  0.00000000000E+00  0.00000000000E+00  0.53227020423E+03  0.72892306529E+03  0.49801331788E+03 0.  0.
        3    1    3    3  502    0 -0.81711437433E+02  0.66287100684E+01  0.61027808783E+03  0.61575973682E+03  0.10100000352E+00 0. -1.
       -3    1    3    3    0  502  0.81711437433E+02 -0.66287100684E+01 -0.78007883597E+02  0.11316332846E+03  0.10100000352E+00 0.  1.
</event>
<event>
 5   0  0.8208720E-02  0.5010030E+03  0.7818609E-02  0.1013517E+00
        2   -1    0    0  501    0  0.00000000000E+00  0.00000000000E+00  0.37107936423E+03  0.37107936423E+03  0.25500000920E-02 0. -1.
       -2   -1    0    0    0  501  0.00000000000E+00  0.00000000000E+00 -0.16910397956E+03  0.16910397958E+03  0.25500000920E-02 0.  1.
    10030    2    1    2    0    0  0.00000000000E+00  0.00000000000E+00  0.20197538466E+03  0.54018334382E+03  0.50100298295E+03 0.  0.
        3    1    3    3  502    0  0.50270338065E+02  0.10899809317E+03  0.33805354656E+03  0.35873096012E+03  0.10100000352E+00 0. -1.
       -3    1    3    3    0  502 -0.50270338065E+02 -0.10899809317E+03 -0.13607816190E+03  0.18145238370E+03  0.10100000352E+00 0.  1.
</event>
<event>
 5   0  0.3210875E-02  0.5022438E+03  0.7818609E-02  0.1013195E+00
        3   -1    0    0  501    0  0.00000000000E+00  0.00000000000E+00  0.25452962225E+03  0.25452964229E+03  0.10100000352E+00 0.  1.
       -3   -1    0    0    0  501  0.00000000000E+00  0.00000000000E+00 -0.24775975365E+03  0.24775977423E+03  0.10100000352E+00 0. -1.
    10030    2    1    2    0    0  0.00000000000E+00  0.00000000000E+00  0.67698686057E+01  0.50228941652E+03  0.50224379223E+03 0.  0.
        1    1    3    3  502    0  0.12863821708E+03  0.12832230690E+03  0.17674369736E+03  0.25348124176E+03  0.50400001928E-02 0.  1.
       -1    1    3    3    0  502 -0.12863821708E+03 -0.12832230690E+03 -0.16997382876E+03  0.24880817476E+03  0.50400001928E-02 0. -1.
</event>
<event>
 5   0  0.4884478E-02  0.5093973E+03  0.7818609E-02  0.1011355E+00
       -1   -1    0    0    0  501  0.00000000000E+00  0.00000000000E+00  0.32926877192E+03  0.32926877196E+03  0.50400001928E-02 0. -1.
        1   -1    0    0  501    0  0.00000000000E+00  0.00000000000E+00 -0.19701655949E+03  0.19701655956E+03  0.50400001928E-02 0.  1.
    10030    2    1    2    0    0  0.00000000000E+00  0.00000000000E+00  0.13225221243E+03  0.52628533151E+03  0.50939729335E+03 0.  0.
        3    1    3    3  502    0  0.18846682526E+03 -0.17099936116E+03  0.55247801311E+02  0.26040901577E+03  0.10100000352E+00 0. -1.
       -3    1    3    3    0  502 -0.18846682526E+03  0.17099936116E+03  0.77004411119E+02  0.26587631575E+03  0.10100000352E+00 0.  1.
</event>
<event>
 5   0  0.7698747E-02  0.4989160E+03  0.7818609E-02  0.1014062E+00
       -2   -1    0    0    0  501  0.00000000000E+00  0.00000000000E+00  0.64850476330E+02  0.64850476380E+02  0.25500000920E-02 0.  1.
        2   -1    0    0  501    0  0.00000000000E+00  0.00000000000E+00 -0.95958109546E+03  0.95958109547E+03  0.25500000920E-02 0. -1.
    10030    2    1    2    0    0  0.00000000000E+00  0.00000000000E+00 -0.89473061913E+03  0.10244315718E+04  0.49891598950E+03 0.  0.
        2    1    3    3  502    0 -0.76608771331E+01 -0.13610070252E+03 -0.18388583389E+02  0.13755082796E+03  0.25500000920E-02 0.  1.
       -2    1    3    3    0  502  0.76608771331E+01  0.13610070252E+03 -0.87634203574E+03  0.88688074389E+03  0.25500000920E-02 0. -1.
</event>
<event>
 5   0  0.7881060E-02  0.5023801E+03  0.7818609E-02  0.1013160E+00
       -2   -1    0    0    0  501  0.00000000000E+00  0.00000000000E+00  0.26717282481E+02  0.26717282603E+02  0.25500000920E-02 0. -1.
        2   -1    0    0  501    0  0.00000000000E+00  0.00000000000E+00 -0.23616341703E+04  0.23616341703E+04  0.25500000920E-02 0.  1.
    10030    2    1    2    0    0  0.00000000000E+00  0.00000000000E+00 -0.23349168878E+04  0.23883514529E+04  0.50238012458E+03 0.  0.
        1    1    3    3  502    0  0.14866601927E+03 -0.20172078828E+03 -0.12502920200E+04  0.12751560678E+04  0.50400001928E-02 0. -1.
       -1    1    3    3    0  502 -0.14866601927E+03  0.20172078828E+03 -0.10846248678E+04  0.11131953852E+04  0.50400001928E-02 0.  1.
</event>
<event>
 5   0  0.7776070E-02  0.5008403E+03  0.7818609E-02  0.1013560E+00
       -2   -1    0    0    0  501  0.00000000000E+00  0.00000000000E+00  0.12295202060E+03  0.12295202062E+03  0.25500000920E-02 0.  1.
        2   -1    0    0  501    0  0.00000000000E+00  0.00000000000E+00 -0.51003846811E+03  0.51003846811E+03  0.25500000920E-02 0. -1.
    10030    2    1    2    0    0  0.00000000000E+00  0.00000000000E+00 -0.38708644751E+03  0.63299048874E+03  0.50084033482E+03 0.  0.
        4    1    3    3  502    0  0.13976824805E+03 -0.15343150028E+03 -0.37062873255E+03  0.42478660376E+03  0.12699999809E+01 0. -1.
       -4    1    3    3    0  502 -0.13976824805E+03  0.15343150028E+03 -0.16457714965E+02  0.20820388498E+03  0.12699999809E+01 0.  1.
</event>
<event>
 5   0  0.3210875E-02  0.4890771E+03  0.7818609E-02  0.1016670E+00
       -3   -1    0    0    0  501  0.00000000000E+00  0.00000000000E+00  0.61565258968E+02  0.61565341815E+02  0.10100000352E+00 0.  1.
        3   -1    0    0  501    0  0.00000000000E+00  0.00000000000E+00 -0.97131177722E+03  0.97131178247E+03  0.10100000352E+00 0. -1.
    10030    2    1    2    0    0  0.00000000000E+00  0.00000000000E+00 -0.90974651826E+03  0.10328771243E+04  0.48907711703E+03 0.  0.
        1    1    3    3  502    0 -0.10199972706E+03 -0.20409011682E+03 -0.64070022607E+03  0.68011285814E+03  0.50400001928E-02 0. -1.
       -1    1    3    3    0  502  0.10199972706E+03  0.20409011682E+03 -0.26904629219E+03  0.35276426615E+03  0.50400001928E-02 0.  1.
</event>
<event>
 5   0  0.4803890E-02  0.5009418E+03  0.7818609E-02  0.1013533E+00
        1   -1    0    0  501    0  0.00000000000E+00  0.00000000000E+00  0.59004120498E+02  0.59004120713E+02  0.50400001928E-02 0. -1.
       -1   -1    0    0    0  501  0.00000000000E+00  0.00000000000E+00 -0.10632421627E+04  0.10632421627E+04  0.50400001928E-02 0.  1.
    10030    2    1    2    0    0  0.00000000000E+00  0.00000000000E+00 -0.10042380422E+04  0.11222462834E+04  0.50094178828E+03 0.  0.
        5    1    3    3  502    0 -0.84257951833E+02 -0.14362077643E+03 -0.92115933995E+03  0.93609986083E+03  0.46999998093E+01 0.  1.
       -5    1    3    3    0  502  0.84257951833E+02  0.14362077643E+03 -0.83078702211E+02  0.18614642255E+03  0.46999998093E+01 0. -1.
</event>
<event>
 5   0  0.7881060E-02  0.4952916E+03  0.7818609E-02  0.1015015E+00
       -2   -1    0    0    0  501  0.00000000000E+00  0.00000000000E+00  0.10473155578E+03  0.10473155581E+03  0.25500000920E-02 0. -1.
        2   -1    0    0  501    0  0.00000000000E+00  0.00000000000E+00 -0.58557754101E+03  0.58557754102E+03  0.25500000920E-02 0.  1.
    10030    2    1    2    0    0  0.00000000000E+00  0.00000000000E+00 -0.48084598523E+03  0.69030909683E+03  0.49529161880E+03 0.  0.
        1    1    3    3  502    0  0.24393025113E+03 -0.52784605233E+01 -0.18131421145E+03  0.30398136927E+03  0.50400001928E-02 0. -1.
       -1    1    3    3    0  502 -0.24393025113E+03  0.52784605233E+01 -0.29953177378E+03  0.38632772757E+03  0.50400001928E-02 0.  1.
</event>
<event>
 5   0  0.8208720E-02  0.4986984E+03  0.7818609E-02  0.1014119E+00
        2   -1    0    0  501    0  0.00000000000E+00  0.00000000000E+00  0.85277746563E+03  0.85277746563E+03  0.25500000920E-02 0. -1.
       -2   -1    0    0    0  501  0.00000000000E+00  0.00000000000E+00 -0.72908851316E+02  0.72908851360E+02  0.25500000920E-02 0.  1.
    10030    2    1    2    0    0  0.00000000000E+00  0.00000000000E+00  0.77986861431E+03  0.92568631699E+03  0.49869840773E+03 0.  0.
        3    1    3    3  502    0  0.17245582727E+03 -0.85019451891E+02  0.95237651597E+02  0.21456826430E+03  0.10100000352E+00 0.  1.
       -3    1    3    3    0  502 -0.17245582727E+03  0.85019451891E+02  0.68463096271E+03  0.71111805270E+03  0.10100000352E+00 0. -1.
</event>
<event>
 5   0  0.5191358E-02  0.5052728E+03  0.7818609E-02  0.1012412E+00
        1   -1    0    0  501    0  0.00000000000E+00  0.00000000000E+00  0.18205727350E+03  0.18205727357E+03  0.50400001928E-02 0. -1.
       -1   -1    0    0    0  501  0.00000000000E+00  0.00000000000E+00 -0.35057735880E+03  0.35057735884E+03  0.50400001928E-02 0.  1.
    10030    2    1    2    0    0  0.00000000000E+00  0.00000000000E+00 -0.16852008530E+03  0.53263463241E+03  0.50527282976E+03 0.  0.
        4    1    3    3  502    0  0.39636279017E+02  0.14026054117E+03  0.13326220876E+03  0.19749552706E+03  0.12699999809E+01 0.  1.
       -4    1    3    3    0  502 -0.39636279017E+02 -0.14026054117E+03 -0.30178229407E+03  0.33513910535E+03  0.12699999809E+01 0. -1.
</event>
<event>
 5   0  0.3210875E-02  0.5011810E+03  0.7818609E-02  0.1013471E+00
       -3   -1    0    0    0  501  0.00000000000E+00  0.00000000000E+00  0.21265130427E+03  0.21265132825E+03  0.10100000352E+00 0. -1.
        3   -1    0    0  501    0  0.00000000000E+00  0.00000000000E+00 -0.29529834633E+03  0.29529836360E+03  0.10100000352E+00 0.  1.
    10030    2    1    2    0    0  0.00000000000E+00  0.00000000000E+00 -0.82647042058E+02  0.50794969185E+03  0.50118096122E+03 0.  0.
        5    1    3    3  502    0 -0.13156257414E+03 -0.13753094642E+03  0.12381888916E+03  0.22710499653E+03  0.46999998093E+01 0. -1.
       -5    1    3    3    0  502  0.13156257414E+03  0.13753094642E+03 -0.20646593122E+03  0.28084469532E+03  0.46999998093E+01 0.  1.
</event>
<event>
 5   0  0.7933103E-02  0.4984974E+03  0.7818609E-02  0.1014172E+00
        2   -1    0    0  501    0  0.00000000000E+00  0.00000000000E+00  0.15841745438E+04  0.15841745438E+04  0.25500000920E-02 0.  1.
       -2   -1    0    0    0  501  0.00000000000E+00  0.00000000000E+00 -0.39215950711E+02  0.39215950794E+02  0.25500000920E-02 0. -1.
    10030    2    1    2    0    0  0.00000000000E+00  0.00000000000E+00  0.15449585930E+04  0.16233904946E+04  0.49849738573E+03 0.  0.
        5    1    3    3  502    0  0.17195522484E+03  0.17675704106E+03  0.88949706835E+03  0.92305946477E+03  0.46999998093E+01 0. -1.
       -5    1    3    3    0  502 -0.17195522484E+03 -0.17675704106E+03  0.65546152470E+03  0.70033102978E+03  0.46999998093E+01 0.  1.
</event>
<event>
 5   0  0.7698747E-02  0.5003999E+03  0.7818609E-02  0.1013675E+00
       -2   -1    0    0    0  501  0.00000000000E+00  0.00000000000E+00  0.30202430625E+03  0.30202430626E+03  0.25500000920E-02 0. -1.
        2   -1    0    0  501    0  0.00000000000E+00  0.00000000000E+00 -0.20726809705E+03  0.20726809706E+03  0.25500000920E-02 0.  1.
    10030    2    1    2    0    0  0.00000000000E+00  0.00000000000E+00  0.94756209202E+02  0.50929240332E+03  0.50039985302E+03 0.  0.
        2    1    3    3  502    0  0.15473018497E+03  0.19530494727E+03  0.70464923196E+02  0.25894161113E+03  0.25500000920E-02 0. -1.
       -2    1    3    3    0  502 -0.15473018497E+03 -0.19530494727E+03  0.24291286006E+02  0.25035079219E+03  0.25500000920E-02 0.  1.
</event>
<event>
 5   0  0.7698747E-02  0.4987903E+03  0.7818609E-02  0.1014095E+00
       -2   -1    0    0    0  501  0.00000000000E+00  0.00000000000E+00  0.16446964739E+03  0.16446964741E+03  0.25500000920E-02 0. -1.
        2   -1    0    0  501    0  0.00000000000E+00  0.00000000000E+00 -0.37817278669E+03  0.37817278670E+03  0.25500000920E-02 0.  1.
    10030    2    1    2    0    0  0.00000000000E+00  0.00000000000E+00 -0.21370313930E+03  0.54264243411E+03  0.49879031621E+03 0.  0.
        2    1    3    3  502    0 -0.15545946087E+03 -0.14979510696E+03 -0.24269631614E+03  0.32481951899E+03  0.25500000920E-02 0.  1.
       -2    1    3    3    0  502  0.15545946087E+03  0.14979510696E+03  0.28993176835E+02  0.21782291512E+03  0.25500000920E-02 0. -1.
</event>
<event>
 5   0  0.4884478E-02  0.5045288E+03  0.7818609E-02  0.1012604E+00
       -1   -1    0    0    0  501  0.00000000000E+00  0.00000000000E+00  0.41372629944E+02  0.41372630251E+02  0.50400001928E-02 0. -1.
        1   -1    0    0  501    0  0.00000000000E+00  0.00000000000E+00 -0.15381504767E+04  0.15381504767E+04  0.50400001928E-02 0.  1.
    10030    2    1    2    0    0  0.00000000000E+00  0.00000000000E+00 -0.14967778467E+04  0.15795231069E+04  0.50452881273E+03 0.  0.
        3    1    3    3  502    0 -0.87184425927E+02  0.76361174614E+02 -0.14498671903E+04  0.14544920188E+04  0.10100000352E+00 0.  1.
       -3    1    3    3    0  502  0.87184425927E+02 -0.76361174614E+02 -0.46910656471E+02  0.12503108815E+03  0.10100000352E+00 0. -1.
</event>
<event>
 5   0  0.4865501E-02  0.5417352E+03  0.7818609E-02  0.1003425E+00
        1   -1    0    0  501    0  0.00000000000E+00  0.00000000000E+00  0.16372056327E+03  0.16372056335E+03  0.50400001928E-02 0. -1.
       -1   -1    0    0    0  501  0.00000000000E+00  0.00000000000E+00 -0.44813711610E+03  0.44813711613E+03  0.50400001928E-02 0.  1.
    10030    2    1    2    0    0  0.00000000000E+00  0.00000000000E+00 -0.28441655283E+03  0.61185767948E+03  0.54173521615E+03 0.  0.
        2    1    3    3  502    0  0.22251677981E+02  0.17758574335E+03 -0.37184168429E+03  0.41267186916E+03  0.25500000920E-02 0.  1.
       -2    1    3    3    0  502 -0.22251677981E+02 -0.17758574335E+03  0.87425131463E+02  0.19918581032E+03  0.25500000920E-02 0. -1.
</event>
<event>
 5   0  0.7881060E-02  0.5013102E+03  0.7818609E-02  0.1013438E+00
       -2   -1    0    0    0  501  0.00000000000E+00  0.00000000000E+00  0.79337667093E+02  0.79337667134E+02  0.25500000920E-02 0.  1.
        2   -1    0    0  501    0  0.00000000000E+00  0.00000000000E+00 -0.79190590134E+03  0.79190590134E+03  0.25500000920E-02 0. -1.
    10030    2    1    2    0    0  0.00000000000E+00  0.00000000000E+00 -0.71256823424E+03  0.87124356847E+03  0.50131015066E+03 0.  0.
        1    1    3    3  502    0 -0.21064540328E+03  0.10110221719E+02 -0.12083255461E+03  0.24305186439E+03  0.50400001928E-02 0.  1.
       -1    1    3    3    0  502  0.21064540328E+03 -0.10110221719E+02 -0.59173567963E+03  0.62819170408E+03  0.50400001928E-02 0. -1.
</event>
<event>
 5   0  0.3210875E-02  0.4978233E+03  0.7818609E-02  0.1014349E+00
        4   -1    0    0  501    0  0.00000000000E+00  0.00000000000E+00  0.17203824482E+03  0.17204293237E+03  0.12699999809E+01 0.  1.
       -4   -1    0    0    0  501  0.00000000000E+00  0.00000000000E+00 -0.36012442389E+03  0.36012666324E+03  0.12699999809E+01 0. -1.
    10030    2    1    2    0    0  0.00000000000E+00  0.00000000000E+00 -0.18808617907E+03  0.53216959562E+03  0.49782332985E+03 0.  0.
        4    1    3    3  502    0 -0.20270266786E+01  0.22559879847E+03  0.18361282279E+02  0.22635740831E+03  0.12699999809E+01 0.  1.
       -4    1    3    3    0  502  0.20270266786E+01 -0.22559879847E+03 -0.20644746135E+03  0.30581218731E+03  0.12699999809E+01 0. -1.
</event>
<event>
 5   0  0.4803890E-02  0.4982923E+03  0.7818609E-02  0.1014226E+00
        1   -1    0    0  501    0  0.00000000000E+00  0.00000000000E+00  0.87162577477E+02  0.87162577623E+02  0.50400001928E-02 0. -1.
       -1   -1    0    0    0  501  0.00000000000E+00  0.00000000000E+00 -0.71216115179E+03  0.71216115181E+03  0.50400001928E-02 0.  1.
    10030    2    1    2    0    0  0.00000000000E+00  0.00000000000E+00 -0.62499857432E+03  0.79932372943E+03  0.49829229027E+03 0.  0.
        5    1    3    3  502    0  0.14530425292E+03 -0.20180216248E+03 -0.33598059062E+03  0.41802211182E+03  0.46999998093E+01 0. -1.
       -5    1    3    3    0  502 -0.14530425292E+03  0.20180216248E+03 -0.28901798369E+03  0.38130161761E+03  0.46999998093E+01 0.  1.
</event>
<event>
 5   0  0.7933103E-02  0.4957871E+03  0.7818609E-02  0.1014884E+00
        2   -1    0    0  501    0  0.00000000000E+00  0.00000000000E+00  0.32787096879E+03  0.32787096880E+03  0.25500000920E-02 0.  1.
       -2   -1    0    0    0  501  0.00000000000E+00  0.00000000000E+00 -0.18742500183E+03  0.18742500185E+03  0.25500000920E-02 0. -1.
    10030    2    1    2    0    0  0.00000000000E+00  0.00000000000E+00  0.14044596696E+03  0.51529597065E+03  0.49578711937E+03 0.  0.
        5    1    3    3  502    0 -0.11678088874E+03 -0.16708230991E+03 -0.76302602210E+02  0.21771185398E+03  0.46999998093E+01 0. -1.
       -5    1    3    3    0  502  0.11678088874E+03  0.16708230991E+03  0.21674856917E+03  0.29758411667E+03  0.46999998093E+01 0.  1.
</event>
<event>
 5   0  0.3210875E-02  0.4992034E+03  0.7818609E-02  0.1013987E+00
       -4   -1    0    0    0  501  0.00000000000E+00  0.00000000000E+00  0.37221882756E+03  0.37222099415E+03  0.12699999809E+01 0.  1.
        4   -1    0    0  501    0  0.00000000000E+00  0.00000000000E+00 -0.16737232811E+03  0.16737714634E+03  0.12699999809E+01 0. -1.
    10030    2    1    2    0    0  0.00000000000E+00  0.00000000000E+00  0.20484649944E+03  0.53959814050E+03  0.49920343037E+03 0.  0.
        1    1    3    3  502    0  0.24379749928E+03  0.20415669803E+02  0.15589316680E+03  0.29009774164E+03  0.50400001928E-02 0.  1.
       -1    1    3    3    0  502 -0.24379749928E+03 -0.20415669803E+02  0.48953332647E+02  0.24950039886E+03  0.50400001928E-02 0. -1.
</event>
<event>
 5   0  0.4884478E-02  0.4986301E+03  0.7818609E-02  0.1014137E+00
        1   -1    0    0  501    0  0.00000000000E+00  0.00000000000E+00  0.31164695414E+03  0.31164695418E+03  0.50400001928E-02 0. -1.
       -1   -1    0    0    0  501  0.00000000000E+00  0.00000000000E+00 -0.19944999602E+03  0.19944999609E+03  0.50400001928E-02 0.  1.
    10030    2    1    2    0    0  0.00000000000E+00  0.00000000000E+00  0.11219695812E+03  0.51109695027E+03  0.49863005842E+03 0.  0.
        3    1    3    3  502    0 -0.14281138362E+03 -0.15533980143E+03  0.19220561608E+03  0.28542696833E+03  0.10100000352E+00 0. -1.
       -3    1    3    3    0  502  0.14281138362E+03  0.15533980143E+03 -0.80008657957E+02  0.22566998194E+03  0.10100000352E+00 0.  1.
</event>
<event>
 5   0  0.4884478E-02  0.5000076E+03  0.7818609E-02  0.1013777E+00
       -1   -1    0    0    0  501  0.00000000000E+00  0.00000000000E+00  0.69297536228E+03  0.69297536230E+03  0.50400001928E-02 0.  1.
        1   -1    0    0  501    0  0.00000000000E+00  0.00000000000E+00 -0.90193533569E+02  0.90193533710E+02  0.50400001928E-02 0. -1.
    10030    2    1    2    0    0  0.00000000000E+00  0.00000000000E+00  0.60278182872E+03  0.78316889601E+03  0.50000758659E+03 0.  0.
        3    1    3    3  502    0 -0.22653617527E+03 -0.51087484667E+02  0.15636244294E+03  0.27996034283E+03  0.10100000352E+00 0.  1.
       -3    1    3    3    0  502  0.22653617527E+03  0.51087484667E+02  0.44641938578E+03  0.50320855318E+03  0.10100000352E+00 0. -1.
</event>
<event>
 5   0  0.7698747E-02  0.4922788E+03  0.7818609E-02  0.1015814E+00
       -2   -1    0    0    0  501  0.00000000000E+00  0.00000000000E+00  0.30368973044E+03  0.30368973045E+03  0.25500000920E-02 0. -1.
        2   -1    0    0  501    0  0.00000000000E+00  0.00000000000E+00 -0.19949507661E+03  0.19949507663E+03  0.25500000920E-02 0.  1.
    10030    2    1    2    0    0  0.00000000000E+00  0.00000000000E+00  0.10419465382E+03  0.50318480708E+03  0.49227880737E+03 0.  0.
        2    1    3    3  502    0  0.17311934287E+03 -0.10183850021E+03 -0.93333397421E+02  0.22147801264E+03  0.25500000920E-02 0.  1.
       -2    1    3    3    0  502 -0.17311934287E+03  0.10183850021E+03  0.19752805124E+03  0.28170679444E+03  0.25500000920E-02 0. -1.
</event>
<event>
 5   0  0.7881060E-02  0.5035327E+03  0.7818609E-02  0.1012861E+00
        2   -1    0    0  501    0  0.00000000000E+00  0.00000000000E+00  0.20305425011E+04  0.20305425011E+04  0.25500000920E-02 0.  1.
       -2   -1    0    0    0  501  0.00000000000E+00  0.00000000000E+00 -0.31216432500E+02  0.31216432605E+02  0.25500000920E-02 0. -1.
    10030    2    1    2    0    0  0.00000000000E+00  0.00000000000E+00  0.19993260686E+04  0.20617589337E+04  0.50353269222E+03 0.  0.
        1    1    3    3  502    0  0.75625403302E+02 -0.13815296856E+03  0.18039223512E+04  0.18107847176E+04  0.50400001928E-02 0.  1.
       -1    1    3    3    0  502 -0.75625403302E+02  0.13815296856E+03  0.19540371739E+03  0.25097421609E+03  0.50400001928E-02 0. -1.
</event>
<event>
 5   0  0.5038436E-02  0.5005298E+03  0.7818609E-02  0.1013641E+00
       -1   -1    0    0    0  501  0.00000000000E+00  0.00000000000E+00  0.17805591315E+03  0.17805591322E+03  0.50400001928E-02 0.  1.
        1   -1    0    0  501    0  0.00000000000E+00  0.00000000000E+00 -0.35175766076E+03  0.35175766080E+03  0.50400001928E-02 0. -1.
    10030    2    1    2    0    0  0.00000000000E+00  0.00000000000E+00 -0.17370174761E+03  0.52981357402E+03  0.50052984536E+03 0.  0.
        1    1    3    3  502    0 -0.19434474555E+03  0.34175927755E+02 -0.24978734961E+03  0.31832623865E+03  0.50400001928E-02 0. -1.
       -1    1    3    3    0  502  0.19434474555E+03 -0.34175927755E+02  0.76085602006E+02  0.21148733537E+03  0.50400001928E-02 0.  1.
</event>
<event>
 5   0  0.7881060E-02  0.5001190E+03  0.7818609E-02  0.1013748E+00
        2   -1    0    0  501    0  0.00000000000E+00  0.00000000000E+00  0.16346234347E+04  0.16346234347E+04  0.25500000920E-02 0. -1.
       -2   -1    0    0    0  501  0.00000000000E+00  0.00000000000E+00 -0.38253315497E+02  0.38253315582E+02  0.25500000920E-02 0.  1.
    10030    2    1    2    0    0  0.00000000000E+00  0.00000000000E+00  0.15963701192E+04  0.16728767503E+04  0.50011904998E+03 0.  0.
        1    1    3    3  502    0  0.89353047621E+02  0.23395470236E+02  0.15754716908E+04  0.15781769114E+04  0.50400001928E-02 0. -1.
       -1    1    3    3    0  502 -0.89353047621E+02 -0.23395470236E+02  0.20898428386E+02  0.94699838865E+02  0.50400001928E-02 0.  1.
</event>
<event>
 5   0  0.7881060E-02  0.5002484E+03  0.7818609E-02  0.1013714E+00
       -2   -1    0    0    0  501  0.00000000000E+00  0.00000000000E+00  0.12181020906E+03  0.12181020909E+03  0.25500000920E-02 0.  1.
        2   -1    0    0  501    0  0.00000000000E+00  0.00000000000E+00 -0.51360323475E+03  0.51360323476E+03  0.25500000920E-02 0. -1.
    10030    2    1    2    0    0  0.00000000000E+00  0.00000000000E+00 -0.39179302569E+03  0.63541344385E+03  0.50024840794E+03 0.  0.
        1    1    3    3  502    0 -0.44504480816E+02 -0.78339254859E+02  0.10048247507E+03  0.13496079240E+03  0.50400001928E-02 0.  1.
       -1    1    3    3    0  502  0.44504480816E+02  0.78339254859E+02 -0.49227550076E+03  0.50045265145E+03  0.50400001928E-02 0. -1.
</event>
<event>
 5   0  0.7933103E-02  0.5009922E+03  0.7818609E-02  0.1013520E+00
        2   -1    0    0  501    0  0.00000000000E+00  0.00000000000E+00  0.10304840424E+04  0.10304840424E+04  0.25500000920E-02 0.  1.
       -2   -1    0    0    0  501  0.00000000000E+00  0.00000000000E+00 -0.60892059852E+02  0.60892059905E+02  0.25500000920E-02 0. -1.
    10030    2    1    2    0    0  0.00000000000E+00  0.00000000000E+00  0.96959198259E+03  0.10913761023E+04  0.50099219962E+03 0.  0.
        5    1    3    3  502    0  0.11375394027E+03  0.19743433031E+03  0.25834480652E+03  0.34450602718E+03  0.46999998093E+01 0. -1.
       -5    1    3    3    0  502 -0.11375394027E+03 -0.19743433031E+03  0.71124717607E+03  0.74687007517E+03  0.46999998093E+01 0.  1.
</event>
<event>
 5   0  0.7881060E-02  0.5010910E+03  0.7818609E-02  0.1013495E+00
       -2   -1    0    0    0  501  0.00000000000E+00  0.00000000000E+00  0.69538668645E+02  0.69538668692E+02  0.25500000920E-02 0.  1.
        2   -1    0    0  501    0  0.00000000000E+00  0.00000000000E+00 -0.90270695013E+03  0.90270695013E+03  0.25500000920E-02 0. -1.
    10030    2    1    2    0    0  0.00000000000E+00  0.00000000000E+00 -0.83316828149E+03  0.97224561883E+03  0.50109096784E+03 0.  0.
        1    1    3    3  502    0  0.34917234914E+02 -0.18126450099E+03 -0.87900778423E+02  0.20445679124E+03  0.50400001928E-02 0.  1.
       -1    1    3    3    0  502 -0.34917234914E+02  0.18126450099E+03 -0.74526750306E+03  0.76778882758E+03  0.50400001928E-02 0. -1.
</event>
<event>
 5   0  0.5191358E-02  0.5024718E+03  0.7818609E-02  0.1013136E+00
       -1   -1    0    0    0  501  0.00000000000E+00  0.00000000000E+00  0.74456024590E+02  0.74456024761E+02  0.50400001928E-02 0. -1.
        1   -1    0    0  501    0  0.00000000000E+00  0.00000000000E+00 -0.84774166560E+03  0.84774166562E+03  0.50400001928E-02 0.  1.
    10030    2    1    2    0    0  0.00000000000E+00  0.00000000000E+00 -0.77328564101E+03  0.92219769038E+03  0.50247178781E+03 0.  0.
        4    1    3    3  502    0  0.17064066718E+03  0.13316241561E+03 -0.15255902144E+03  0.26481377259E+03  0.12699999809E+01 0. -1.
       -4    1    3    3    0  502 -0.17064066718E+03 -0.13316241561E+03 -0.62072661957E+03  0.65738391779E+03  0.12699999809E+01 0.  1.
</event>
<event>
 5   0  0.5038436E-02  0.4948633E+03  0.7818609E-02  0.1015128E+00
        1   -1    0    0  501    0  0.00000000000E+00  0.00000000000E+00  0.28402200442E+03  0.28402200446E+03  0.50400001928E-02 0. -1.
       -1   -1    0    0    0  501  0.00000000000E+00  0.00000000000E+00 -0.21555522783E+03  0.21555522789E+03  0.50400001928E-02 0.  1.
    10030    2    1    2    0    0  0.00000000000E+00  0.00000000000E+00  0.68466776583E+02  0.49957723235E+03  0.49486332617E+03 0.  0.
        1    1    3    3  502    0 -0.28714023029E+02  0.93559423357E+01  0.28215447622E+03  0.28376606078E+03  0.50400001928E-02 0. -1.
       -1    1    3    3    0  502  0.28714023029E+02 -0.93559423357E+01 -0.21368769963E+03  0.21581117157E+03  0.50400001928E-02 0.  1.
</event>
<event>
 5   0  0.5038436E-02  0.5036373E+03  0.7818609E-02  0.1012834E+00
       -1   -1    0    0    0  501  0.00000000000E+00  0.00000000000E+00  0.15282433466E+03  0.15282433474E+03  0.50400001928E-02 0.  1.
        1   -1    0    0  501    0  0.00000000000E+00  0.00000000000E+00 -0.41493799446E+03  0.41493799449E+03  0.50400001928E-02 0. -1.
    10030    2    1    2    0    0  0.00000000000E+00  0.00000000000E+00 -0.26211365980E+03  0.56776232923E+03  0.50363726217E+03 0.  0.
        1    1    3    3  502    0 -0.90376538952E+02  0.21186305793E+03 -0.24579353416E+03  0.33685061313E+03  0.50400001928E-02 0. -1.
       -1    1    3    3    0  502  0.90376538952E+02 -0.21186305793E+03 -0.16320125642E+02  0.23091171610E+03  0.50400001928E-02 0.  1.
</event>
<event>
 5   0  0.7933103E-02  0.5044793E+03  0.7818609E-02  0.1012616E+00
        2   -1    0    0  501    0  0.00000000000E+00  0.00000000000E+00  0.24165817418E+04  0.24165817418E+04  0.25500000920E-02 0. -1.
       -2   -1    0    0    0  501  0.00000000000E+00  0.00000000000E+00 -0.26328440752E+02  0.26328440876E+02  0.25500000920E-02 0.  1.
    10030    2    1    2    0    0  0.00000000000E+00  0.00000000000E+00  0.23902533010E+04  0.24429101826E+04  0.50447925374E+03 0.  0.
        5    1    3    3  502    0 -0.10228625293E+03  0.18934620657E+03  0.55841905465E+03  0.59847171535E+03  0.46999998093E+01 0.  1.
       -5    1    3    3    0  502  0.10228625293E+03 -0.18934620657E+03  0.18318342464E+04  0.18444384673E+04  0.46999998093E+01 0. -1.
</event>
<event>
 5   0  0.7881060E-02  0.4595388E+03  0.7818609E-02  0.1024915E+00
        2   -1    0    0  501    0  0.00000000000E+00  0.00000000000E+00  0.11009731218E+03  0.11009731221E+03  0.25500000920E-02 0. -1.
       -2   -1    0    0    0  501  0.00000000000E+00  0.00000000000E+00 -0.47952107006E+03  0.47952107007E+03  0.25500000920E-02 0.  1.
    10030    2    1    2    0    0  0.00000000000E+00  0.00000000000E+00 -0.36942375789E+03  0.58961838228E+03  0.45953881646E+03 0.  0.
        1    1    3    3  502    0  0.89527590079E+02 -0.12356307168E+03  0.35702779714E+02  0.15670899966E+03  0.50400001928E-02 0. -1.
       -1    1    3    3    0  502 -0.89527590079E+02  0.12356307168E+03 -0.40512653760E+03  0.43290938262E+03  0.50400001928E-02 0.  1.
</event>
<event>
 5   0  0.4884478E-02  0.4881115E+03  0.7818609E-02  0.1016929E+00
        1   -1    0    0  501    0  0.00000000000E+00  0.00000000000E+00  0.56470054535E+03  0.56470054538E+03  0.50400001928E-02 0.  1.
       -1   -1    0    0    0  501  0.00000000000E+00  0.00000000000E+00 -0.10547751750E+03  0.10547751762E+03  0.50400001928E-02 0. -1.
    10030    2    1    2    0    0  0.00000000000E+00  0.00000000000E+00  0.45922302785E+03  0.67017806300E+03  0.48811151063E+03 0.  0.
        3    1    3    3  502    0  0.50345715656E+02  0.68753141314E+02 -0.84387509406E+02  0.11992892675E+03  0.10100000352E+00 0. -1.
       -3    1    3    3    0  502 -0.50345715656E+02 -0.68753141314E+02  0.54361053726E+03  0.55024913625E+03  0.10100000352E+00 0.  1.
</event>
<event>
 5   0  0.4884478E-02  0.4991168E+03  0.7818609E-02  0.1014010E+00
        1   -1    0    0  501    0  0.00000000000E+00  0.00000000000E+00  0.79340267358E+03  0.79340267359E+03  0.50400001928E-02 0. -1.
       -1   -1    0    0    0  501  0.00000000000E+00  0.00000000000E+00 -0.78496576052E+02  0.78496576214E+02  0.50400001928E-02 0.  1.
    10030    2    1    2    0    0  0.00000000000E+00  0.00000000000E+00  0.71490609752E+03  0.87189924981E+03  0.49911679348E+03 0.  0.
        3    1    3    3  502    0  0.33799287770E+02  0.82651764444E+02 -0.49633486713E+02  0.10216261167E+03  0.10100000352E+00 0.  1.
       -3    1    3    3    0  502 -0.33799287770E+02 -0.82651764444E+02  0.76453958424E+03  0.76973663813E+03  0.10100000352E+00 0. -1.
</event>
<event>
 5   0  0.7881060E-02  0.4918893E+03  0.7818609E-02  0.1015918E+00
       -2   -1    0    0    0  501  0.00000000000E+00  0.00000000000E+00  0.84495586773E+02  0.84495586812E+02  0.25500000920E-02 0.  1.
        2   -1    0    0  501    0  0.00000000000E+00  0.00000000000E+00 -0.71588090169E+03  0.71588090169E+03  0.25500000920E-02 0. -1.
    10030    2    1    2    0    0  0.00000000000E+00  0.00000000000E+00 -0.63138531491E+03  0.80037648850E+03  0.49188932440E+03 0.  0.
        1    1    3    3  502    0  0.10041903333E+03 -0.17558434167E+03 -0.54334759479E+03  0.57977620862E+03  0.50400001928E-02 0. -1.
       -1    1    3    3    0  502 -0.10041903333E+03  0.17558434167E+03 -0.88037720123E+02  0.22060027988E+03  0.50400001928E-02 0.  1.
</event>
<event>
 5   0  0.3210875E-02  0.4953387E+03  0.7818609E-02  0.1015003E+00
       -3   -1    0    0    0  501  0.00000000000E+00  0.00000000000E+00  0.28982328631E+03  0.28982330391E+03  0.10100000352E+00 0. -1.
        3   -1    0    0  501    0  0.00000000000E+00  0.00000000000E+00 -0.21164652189E+03  0.21164654599E+03  0.10100000352E+00 0.  1.
    10030    2    1    2    0    0  0.00000000000E+00  0.00000000000E+00  0.78176764416E+02  0.50146984990E+03  0.49533867592E+03 0.  0.
        5    1    3    3  502    0  0.19636583707E+02  0.12661102785E+03  0.25361230813E+03  0.28417818464E+03  0.46999998093E+01 0. -1.
       -5    1    3    3    0  502 -0.19636583707E+02 -0.12661102785E+03 -0.17543554371E+03  0.21729166526E+03  0.46999998093E+01 0.  1.
</event>
<event>
 5   0  0.5038436E-02  0.5152621E+03  0.7818609E-02  0.1009870E+00
        1   -1    0    0  501    0  0.00000000000E+00  0.00000000000E+00  0.45582255365E+03  0.45582255368E+03  0.50400001928E-02 0.  1.
       -1   -1    0    0    0  501  0.00000000000E+00  0.00000000000E+00 -0.14561314778E+03  0.14561314786E+03  0.50400001928E-02 0. -1.
    10030    2    1    2    0    0  0.00000000000E+00  0.00000000000E+00  0.31020940588E+03  0.60143570154E+03  0.51526209602E+03 0.  0.
        1    1    3    3  502    0  0.22889629308E+03  0.63754255110E+02  0.27133553818E+03  0.36066756485E+03  0.50400001928E-02 0.  1.
       -1    1    3    3    0  502 -0.22889629308E+03 -0.63754255110E+02  0.38873867694E+02  0.24076813669E+03  0.50400001928E-02 0. -1.
</event>
<event>
 5   0  0.4865501E-02  0.5260973E+03  0.7818609E-02  0.1007183E+00
       -1   -1    0    0    0  501  0.00000000000E+00  0.00000000000E+00  0.60680698782E+03  0.60680698784E+03  0.50400001928E-02 0. -1.
        1   -1    0    0  501    0  0.00000000000E+00  0.00000000000E+00 -0.11403066373E+03  0.11403066384E+03  0.50400001928E-02 0.  1.
    10030    2    1    2    0    0  0.00000000000E+00  0.00000000000E+00  0.49277632409E+03  0.72083765168E+03  0.52609734318E+03 0.  0.
        2    1    3    3  502    0  0.26012678063E+03 -0.36291231795E+02  0.22645677562E+03  0.34679340642E+03  0.25500000920E-02 0.  1.
       -2    1    3    3    0  502 -0.26012678063E+03  0.36291231795E+02  0.26631954846E+03  0.37404424526E+03  0.25500000920E-02 0. -1.
</event>
<event>
 5   0  0.5191358E-02  0.4698418E+03  0.7818609E-02  0.1021965E+00
       -1   -1    0    0    0  501  0.00000000000E+00  0.00000000000E+00  0.13539798993E+03  0.13539799002E+03  0.50400001928E-02 0. -1.
        1   -1    0    0  501    0  0.00000000000E+00  0.00000000000E+00 -0.40759719263E+03  0.40759719266E+03  0.50400001928E-02 0.  1.
    10030    2    1    2    0    0  0.00000000000E+00  0.00000000000E+00 -0.27219920270E+03  0.54299518268E+03  0.46984184836E+03 0.  0.
        4    1    3    3  502    0 -0.10321419578E+03 -0.16654493003E+03 -0.28587662417E+03  0.34657963165E+03  0.12699999809E+01 0.  1.
       -4    1    3    3    0  502  0.10321419578E+03  0.16654493003E+03  0.13677421463E+02  0.19641555103E+03  0.12699999809E+01 0. -1.
</event>
<event>
 5   0  0.4865501E-02  0.5002629E+03  0.7818609E-02  0.1013710E+00
       -1   -1    0    0    0  501  0.00000000000E+00  0.00000000000E+00  0.19899567232E+03  0.19899567238E+03  0.50400001928E-02 0. -1.
        1   -1    0    0  501    0  0.00000000000E+00  0.00000000000E+00 -0.31440751594E+03  0.31440751598E+03  0.50400001928E-02 0.  1.
    10030    2    1    2    0    0  0.00000000000E+00  0.00000000000E+00 -0.11541184362E+03  0.51340318836E+03  0.50026287107E+03 0.  0.
        2    1    3    3  502    0  0.83772012930E+02  0.18407554700E+02 -0.29884400704E+03  0.31090887534E+03  0.25500000920E-02 0.  1.
       -2    1    3    3    0  502 -0.83772012930E+02 -0.18407554700E+02  0.18343216342E+03  0.20249431301E+03  0.25500000920E-02 0. -1.
</event>
<event>
 5   0  0.5038436E-02  0.4988422E+03  0.7818609E-02  0.1014082E+00
       -1   -1    0    0    0  501  0.00000000000E+00  0.00000000000E+00  0.44171501174E+03  0.44171501177E+03  0.50400001928E-02 0.  1.
        1   -1    0    0  501    0  0.00000000000E+00  0.00000000000E+00 -0.14083943111E+03  0.14083943120E+03  0.50400001928E-02 0. -1.
    10030    2    1    2    0    0  0.00000000000E+00  0.00000000000E+00  0.30087558063E+03  0.58255444297E+03  0.49884222355E+03 0.  0.
        1    1    3    3  502    0  0.20707770056E+03 -0.26968252337E+02  0.30971665634E+03  0.37354098563E+03  0.50400001928E-02 0.  1.
       -1    1    3    3    0  502 -0.20707770056E+03  0.26968252337E+02 -0.88410757052E+01  0.20901345734E+03  0.50400001928E-02 0. -1.
</event>
<event>
 5   0  0.4884478E-02  0.4999218E+03  0.7818609E-02  0.1013799E+00
       -1   -1    0    0    0  501  0.00000000000E+00  0.00000000000E+00  0.10386907410E+03  0.10386907422E+03  0.50400001928E-02 0. -1.
        1   -1    0    0  501    0  0.00000000000E+00  0.00000000000E+00 -0.60153095942E+03  0.60153095944E+03  0.50400001928E-02 0.  1.
    10030    2    1    2    0    0  0.00000000000E+00  0.00000000000E+00 -0.49766188532E+03  0.70540003366E+03  0.49992184928E+03 0.  0.
        3    1    3    3  502    0  0.52389665513E+02 -0.65568391646E+02  0.83393441236E+02  0.11831469595E+03  0.10100000352E+00 0. -1.
       -3    1    3    3    0  502 -0.52389665513E+02  0.65568391646E+02 -0.58105532656E+03  0.58708533771E+03  0.10100000352E+00 0.  1.
</event>
<event>
 5   0  0.5191358E-02  0.5002876E+03  0.7818609E-02  0.1013704E+00
       -1   -1    0    0    0  501  0.00000000000E+00  0.00000000000E+00  0.14195684943E+04  0.14195684943E+04  0.50400001928E-02 0.  1.
        1   -1    0    0  501    0  0.00000000000E+00  0.00000000000E+00 -0.44078130778E+02  0.44078131066E+02  0.50400001928E-02 0. -1.
    10030    2    1    2    0    0  0.00000000000E+00  0.00000000000E+00  0.13754903635E+04  0.14636466254E+04  0.50028762110E+03 0.  0.
        4    1    3    3  502    0 -0.84162720917E+02  0.93179828580E+02  0.13206816801E+04  0.13266376887E+04  0.12699999809E+01 0.  1.
       -4    1    3    3    0  502  0.84162720917E+02 -0.93179828580E+02  0.54808683409E+02  0.13700893666E+03  0.12699999809E+01 0. -1.
</event>
<event>
 5   0  0.8208720E-02  0.5080097E+03  0.7818609E-02  0.1011709E+00
        2   -1    0    0  501    0  0.00000000000E+00  0.00000000000E+00  0.19585647605E+03  0.19585647607E+03  0.25500000920E-02 0.  1.
       -2   -1    0    0    0  501  0.00000000000E+00  0.00000000000E+00 -0.32941711394E+03  0.32941711395E+03  0.25500000920E-02 0. -1.
    10030    2    1    2    0    0  0.00000000000E+00  0.00000000000E+00 -0.13356063789E+03  0.52527359002E+03  0.50800974438E+03 0.  0.
        3    1    3    3  502    0  0.19762504194E+03 -0.27044568061E+02  0.95826167287E+02  0.22129105360E+03  0.10100000352E+00 0.  1.
       -3    1    3    3    0  502 -0.19762504194E+03  0.27044568061E+02 -0.22938680518E+03  0.30398253643E+03  0.10100000352E+00 0. -1.
</event>
<event>
 5   0  0.4865501E-02  0.4970984E+03  0.7818609E-02  0.1014539E+00
        1   -1    0    0  501    0  0.00000000000E+00  0.00000000000E+00  0.32594548861E+03  0.32594548864E+03  0.50400001928E-02 0.  1.
       -1   -1    0    0    0  501  0.00000000000E+00  0.00000000000E+00 -0.18953077795E+03  0.18953077801E+03  0.50400001928E-02 0. -1.
    10030    2    1    2    0    0  0.00000000000E+00  0.00000000000E+00  0.13641471066E+03  0.51547626666E+03  0.49709838886E+03 0.  0.
        2    1    3    3  502    0  0.72494797565E+02  0.21651135968E+03  0.17004204965E+03  0.28468748340E+03  0.25500000920E-02 0.  1.
       -2    1    3    3    0  502 -0.72494797565E+02 -0.21651135968E+03 -0.33627338997E+02  0.23078878326E+03  0.25500000920E-02 0. -1.
</event>
<event>
 5   0  0.4884478E-02  0.5049507E+03  0.7818609E-02  0.1012495E+00
       -1   -1    0    0    0  501  0.00000000000E+00  0.00000000000E+00  0.26672852665E+03  0.26672852670E+03  0.50400001928E-02 0.  1.
        1   -1    0    0  501    0  0.00000000000E+00  0.00000000000E+00 -0.23898377999E+03  0.23898378004E+03  0.50400001928E-02 0. -1.
    10030    2    1    2    0    0  0.00000000000E+00  0.00000000000E+00  0.27744746659E+02  0.50571230674E+03  0.50495065722E+03 0.  0.
        3    1    3    3  502    0 -0.16302574154E+03  0.17493126119E+03 -0.67277265642E+02  0.24840406442E+03  0.10100000352E+00 0. -1.
       -3    1    3    3    0  502  0.16302574154E+03 -0.17493126119E+03  0.95022012301E+02  0.25730824233E+03  0.10100000352E+00 0.  1.
</event>
<event>
 5   0  0.3210875E-02  0.5001996E+03  0.7818609E-02  0.1013727E+00
        4   -1    0    0  501    0  0.00000000000E+00  0.00000000000E+00  0.42795977079E+03  0.42796165519E+03  0.12699999809E+01 0.  1.
       -4   -1    0    0    0  501  0.00000000000E+00  0.00000000000E+00 -0.14615340670E+03  0.14615892443E+03  0.12699999809E+01 0. -1.
    10030    2    1    2    0    0  0.00000000000E+00  0.00000000000E+00  0.28180636409E+03  0.57412057962E+03  0.50019957327E+03 0.  0.
        1    1    3    3  502    0  0.16730227141E+03 -0.14336836862E+03  0.50696481019E+01  0.22038657059E+03  0.50400001928E-02 0. -1.
       -1    1    3    3    0  502 -0.16730227141E+03  0.14336836862E+03  0.27673671599E+03  0.35373400903E+03  0.50400001928E-02 0.  1.
</event>
<event>
 5   0  0.7881060E-02  0.4979416E+03  0.7818609E-02  0.1014318E+00
       -2   -1    0    0    0  501  0.00000000000E+00  0.00000000000E+00  0.42386235503E+02  0.42386235580E+02  0.25500000920E-02 0. -1.
        2   -1    0    0  501    0  0.00000000000E+00  0.00000000000E+00 -0.14624197466E+04  0.14624197466E+04  0.25500000920E-02 0.  1.
    10030    2    1    2    0    0  0.00000000000E+00  0.00000000000E+00 -0.14200335111E+04  0.15048059821E+04  0.49794163450E+03 0.  0.
        1    1    3    3  502    0  0.18527773265E+03 -0.11008527450E+03 -0.10867428007E+04  0.11079063683E+04  0.50400001928E-02 0. -1.
       -1    1    3    3    0  502 -0.18527773265E+03  0.11008527450E+03 -0.33329071032E+03  0.39689961387E+03  0.50400001928E-02 0.  1.
</event>
<event>
 5   0  0.3210875E-02  0.4995700E+03  0.7818609E-02  0.1013891E+00
       -3   -1    0    0    0  501  0.00000000000E+00  0.00000000000E+00  0.65678079248E+03  0.65678080024E+03  0.10100000352E+00 0.  1.
        3   -1    0    0  501    0  0.00000000000E+00  0.00000000000E+00 -0.94997477028E+02  0.94997530719E+02  0.10100000352E+00 0. -1.
    10030    2    1    2    0    0  0.00000000000E+00  0.00000000000E+00  0.56178331545E+03  0.75177833096E+03  0.49956998047E+03 0.  0.
        4    1    3    3  502    0 -0.57607979825E+02 -0.12839341856E+03 -0.29660054029E+02  0.14382239385E+03  0.12699999809E+01 0. -1.
       -4    1    3    3    0  502  0.57607979825E+02  0.12839341856E+03  0.59144336948E+03  0.60795593711E+03  0.12699999809E+01 0.  1.
</event>
<event>
 5   0  0.5038436E-02  0.4971015E+03  0.7818609E-02  0.1014538E+00
        1   -1    0    0  501    0  0.00000000000E+00  0.00000000000E+00  0.13789269437E+04  0.13789269438E+04  0.50400001928E-02 0. -1.
       -1   -1    0    0    0  501  0.00000000000E+00  0.00000000000E+00 -0.44801119395E+02  0.44801119678E+02  0.50400001928E-02 0.  1.
    10030    2    1    2    0    0  0.00000000000E+00  0.00000000000E+00  0.13341258244E+04  0.14237280634E+04  0.49710148200E+03 0.  0.
        1    1    3    3  502    0 -0.11123765813E+03  0.15416001210E+03  0.20847037759E+03  0.28213299040E+03  0.50400001928E-02 0. -1.
       -1    1    3    3    0  502  0.11123765813E+03 -0.15416001210E+03  0.11256554468E+04  0.11415950730E+04  0.50400001928E-02 0.  1.
</event>
<event>
 5   0  0.7698747E-02  0.5071534E+03  0.7818609E-02  0.1011928E+00
       -2   -1    0    0    0  501  0.00000000000E+00  0.00000000000E+00  0.19831208511E+03  0.19831208512E+03  0.25500000920E-02 0.  1.
        2   -1    0    0  501    0  0.00000000000E+00  0.00000000000E+00 -0.32424219119E+03  0.32424219120E+03  0.25500000920E-02 0. -1.
    10030    2    1    2    0    0  0.00000000000E+00  0.00000000000E+00 -0.12593010608E+03  0.52255427632E+03  0.50715340883E+03 0.  0.
        2    1    3    3  502    0  0.26422765691E+02 -0.23907567168E+03  0.19758782313E+02  0.24134156049E+03  0.25500000920E-02 0. -1.
       -2    1    3    3    0  502 -0.26422765691E+02  0.23907567168E+03 -0.14568888839E+03  0.28121271583E+03  0.25500000920E-02 0.  1.
</event>
<event>
 5   0  0.4803890E-02  0.4998987E+03  0.7818609E-02  0.1013805E+00
       -1   -1    0    0    0  501  0.00000000000E+00  0.00000000000E+00  0.31644172544E+02  0.31644172945E+02  0.50400001928E-02 0. -1.
        1   -1    0    0  501    0  0.00000000000E+00  0.00000000000E+00 -0.19742869707E+04  0.19742869707E+04  0.50400001928E-02 0.  1.
    10030    2    1    2    0    0  0.00000000000E+00  0.00000000000E+00 -0.19426427982E+04  0.20059311437E+04  0.49989870158E+03 0.  0.
        5    1    3    3  502    0 -0.13852806074E+03 -0.13508323713E+03 -0.16059724302E+04  0.16175929776E+04  0.46999998093E+01 0.  1.
       -5    1    3    3    0  502  0.13852806074E+03  0.13508323713E+03 -0.33667036795E+03  0.38833816606E+03  0.46999998093E+01 0. -1.
</event>
<event>
 5   0  0.5191358E-02  0.4989921E+03  0.7818609E-02  0.1014042E+00
       -1   -1    0    0    0  501  0.00000000000E+00  0.00000000000E+00  0.14337449834E+03  0.14337449843E+03  0.50400001928E-02 0.  1.
        1   -1    0    0  501    0  0.00000000000E+00  0.00000000000E+00 -0.43416558308E+03  0.43416558310E+03  0.50400001928E-02 0. -1.
    10030    2    1    2    0    0  0.00000000000E+00  0.00000000000E+00 -0.29079108473E+03  0.57754008154E+03  0.49899207491E+03 0.  0.
        4    1    3    3  502    0  0.21348256439E+03 -0.26441316164E+02 -0.29167313449E+03  0.36242072068E+03  0.12699999809E+01 0. -1.
       -4    1    3    3    0  502 -0.21348256439E+03  0.26441316164E+02  0.88204975300E+00  0.21511936085E+03  0.12699999809E+01 0.  1.
</event>
<event>
 5   0  0.4884478E-02  0.4998698E+03  0.7818609E-02  0.1013813E+00
       -1   -1    0    0    0  501  0.00000000000E+00  0.00000000000E+00  0.38088959244E+03  0.38088959247E+03  0.50400001928E-02 0.  1.
        1   -1    0    0  501    0  0.00000000000E+00  0.00000000000E+00 -0.16400407709E+03  0.16400407717E+03  0.50400001928E-02 0. -1.
    10030    2    1    2    0    0  0.00000000000E+00  0.00000000000E+00  0.21688551535E+03  0.54489366964E+03  0.49986976748E+03 0.  0.
        3    1    3    3  502    0 -0.13823529700E+03  0.17089678186E+03 -0.21237832845E+02  0.22082971524E+03  0.10100000352E+00 0. -1.
       -3    1    3    3    0  502  0.13823529700E+03 -0.17089678186E+03  0.23812334819E+03  0.32406395440E+03  0.10100000352E+00 0.  1.
</event>
<event>
 5   0  0.3210875E-02  0.4981062E+03  0.7818609E-02  0.1014274E+00
       -3   -1    0    0    0  501  0.00000000000E+00  0.00000000000E+00  0.33114691275E+03  0.33114692816E+03  0.10100000352E+00 0. -1.
        3   -1    0    0  501    0  0.00000000000E+00  0.00000000000E+00 -0.18731091474E+03  0.18731094197E+03  0.10100000352E+00 0.  1.
    10030    2    1    2    0    0  0.00000000000E+00  0.00000000000E+00  0.14383599801E+03  0.51845787013E+03  0.49810618223E+03 0.  0.
        2    1    3    3  502    0  0.84849456704E+02  0.14546347757E+03 -0.11906851633E+03  0.20624346098E+03  0.25500000920E-02 0.  1.
       -2    1    3    3    0  502 -0.84849456704E+02 -0.14546347757E+03  0.26290451434E+03  0.31221440915E+03  0.25500000920E-02 0. -1.
</event>
<event>
 5   0  0.8208720E-02  0.4997921E+03  0.7818609E-02  0.1013833E+00
        2   -1    0    0  501    0  0.00000000000E+00  0.00000000000E+00  0.18684064610E+04  0.18684064610E+04  0.25500000920E-02 0. -1.
       -2   -1    0    0    0  501  0.00000000000E+00  0.00000000000E+00 -0.33423150720E+02  0.33423150818E+02  0.25500000920E-02 0.  1.
    10030    2    1    2    0    0  0.00000000000E+00  0.00000000000E+00  0.18349833103E+04  0.19018296119E+04  0.49979208016E+03 0.  0.
        3    1    3    3  502    0  0.29063430218E+02  0.37074679822E+02 -0.16373909029E+02  0.49873138641E+02  0.10100000352E+00 0.  1.
       -3    1    3    3    0  502 -0.29063430218E+02 -0.37074679822E+02  0.18513572193E+04  0.18519564732E+04  0.10100000352E+00 0. -1.
</event>
<event>
 5   0  0.7776070E-02  0.4932786E+03  0.7818609E-02  0.1015548E+00
       -2   -1    0    0    0  501  0.00000000000E+00  0.00000000000E+00  0.36607951940E+03  0.36607951941E+03  0.25500000920E-02 0. -1.
        2   -1    0    0  501    0  0.00000000000E+00  0.00000000000E+00 -0.16616866156E+03  0.16616866158E+03  0.25500000920E-02 0.  1.
    10030    2    1    2    0    0  0.00000000000E+00  0.00000000000E+00  0.19991085784E+03  0.53224818098E+03  0.49327859783E+03 0.  0.
        4    1    3    3  502    0  0.57813376704E+02 -0.20060097038E+03  0.24165500776E+03  0.31934603727E+03  0.12699999809E+01 0. -1.
       -4    1    3    3    0  502 -0.57813376704E+02  0.20060097038E+03 -0.41744149923E+02  0.21290214371E+03  0.12699999809E+01 0.  1.
</event>
<event>
 5   0  0.5191358E-02  0.4977776E+03  0.7818609E-02  0.1014361E+00
        1   -1    0    0  501    0  0.00000000000E+00  0.00000000000E+00  0.51779435323E+03  0.51779435325E+03  0.50400001928E-02 0.  1.
       -1   -1    0    0    0  501  0.00000000000E+00  0.00000000000E+00 -0.11963366004E+03  0.11963366015E+03  0.50400001928E-02 0. -1.
    10030    2    1    2    0    0  0.00000000000E+00  0.00000000000E+00  0.39816069319E+03  0.63742801340E+03  0.49777759559E+03 0.  0.
        4    1    3    3  502    0 -0.16741633064E+03  0.68068472620E+02 -0.20048573480E+02  0.18183812287E+03  0.12699999809E+01 0. -1.
       -4    1    3    3    0  502  0.16741633064E+03 -0.68068472620E+02  0.41820926667E+03  0.45558989053E+03  0.12699999809E+01 0.  1.
</event>
<event>
 5   0  0.4803890E-02  0.4900737E+03  0.7818609E-02  0.1016403E+00
        1   -1    0    0  501    0  0.00000000000E+00  0.00000000000E+00  0.58407025264E+03  0.58407025266E+03  0.50400001928E-02 0.  1.
       -1   -1    0    0    0  501  0.00000000000E+00  0.00000000000E+00 -0.10280106968E+03  0.10280106980E+03  0.50400001928E-02 0. -1.
    10030    2    1    2    0    0  0.00000000000E+00  0.00000000000E+00  0.48126918296E+03  0.68687132246E+03  0.49007365483E+03 0.  0.
        5    1    3    3  502    0 -0.16041867688E+03  0.87666586083E+01 -0.18598388063E+02  0.16179924669E+03  0.46999998093E+01 0. -1.
       -5    1    3    3    0  502  0.16041867688E+03 -0.87666586083E+01  0.49986757102E+03  0.52507207577E+03  0.46999998093E+01 0.  1.
</event>
<event>
 5   0  0.8208720E-02  0.5010852E+03  0.7818609E-02  0.1013496E+00
       -2   -1    0    0    0  501  0.00000000000E+00  0.00000000000E+00  0.38306792565E+03  0.38306792566E+03  0.25500000920E-02 0.  1.
        2   -1    0    0  501    0  0.00000000000E+00  0.00000000000E+00 -0.16386545073E+03  0.16386545075E+03  0.25500000920E-02 0. -1.
    10030    2    1    2    0    0  0.00000000000E+00  0.00000000000E+00  0.21920247492E+03  0.54693337641E+03  0.50108521553E+03 0.  0.
        3    1    3    3  502    0 -0.88583498850E+02 -0.10429918013E+03 -0.11947351343E+03  0.18165705562E+03  0.10100000352E+00 0. -1.
       -3    1    3    3    0  502  0.88583498850E+02  0.10429918013E+03  0.33867598835E+03  0.36527632079E+03  0.10100000352E+00 0.  1.
</event>
<event>
 5   0  0.4865501E-02  0.5008046E+03  0.7818609E-02  0.1013569E+00
       -1   -1    0    0    0  501  0.00000000000E+00  0.00000000000E+00  0.62457742764E+02  0.62457742967E+02  0.50400001928E-02 0. -1.
        1   -1    0    0  501    0  0.00000000000E+00  0.00000000000E+00 -0.10038996606E+04  0.10038996607E+04  0.50400001928E-02 0.  1.
    10030    2    1    2    0    0  0.00000000000E+00  0.00000000000E+00 -0.94144191788E+03  0.10663574036E+04  0.50080458017E+03 0.  0.
        2    1    3    3  502    0  0.29929798100E+02  0.21837864176E+03 -0.21773601653E+03  0.30982898007E+03  0.25500000920E-02 0. -1.
       -2    1    3    3    0  502 -0.29929798100E+02 -0.21837864176E+03 -0.72370590135E+03  0.75652842355E+03  0.25500000920E-02 0.  1.
</event>
<event>
 5   0  0.8208720E-02  0.4700208E+03  0.7818609E-02  0.1021914E+00
        2   -1    0    0  501    0  0.00000000000E+00  0.00000000000E+00  0.13156646818E+04  0.13156646818E+04  0.25500000920E-02 0.  1.
       -2   -1    0    0    0  501  0.00000000000E+00  0.00000000000E+00 -0.41978703607E+02  0.41978703685E+02  0.25500000920E-02 0. -1.
    10030    2    1    2    0    0  0.00000000000E+00  0.00000000000E+00  0.12736859782E+04  0.13576433855E+04  0.47002084114E+03 0.  0.
        3    1    3    3  502    0 -0.16882180517E+03 -0.44701855764E+02  0.18260030994E+03  0.25266962857E+03  0.10100000352E+00 0. -1.
       -3    1    3    3    0  502  0.16882180517E+03  0.44701855764E+02  0.10910856682E+04  0.11049737569E+04  0.10100000352E+00 0.  1.
</event>
<event>
 5   0  0.4803890E-02  0.4943517E+03  0.7818609E-02  0.1015264E+00
       -1   -1    0    0    0  501  0.00000000000E+00  0.00000000000E+00  0.81835220646E+03  0.81835220647E+03  0.50400001928E-02 0.  1.
        1   -1    0    0  501    0  0.00000000000E+00  0.00000000000E+00 -0.74657230989E+02  0.74657231159E+02  0.50400001928E-02 0. -1.
    10030    2    1    2    0    0  0.00000000000E+00  0.00000000000E+00  0.74369497547E+03  0.89300943763E+03  0.49435173628E+03 0.  0.
        5    1    3    3  502    0  0.17084090696E+01 -0.16862906308E+03  0.69818178982E+03  0.71827472544E+03  0.46999998093E+01 0.  1.
       -5    1    3    3    0  502 -0.17084090696E+01  0.16862906308E+03  0.45513185653E+02  0.17473471219E+03  0.46999998093E+01 0. -1.
</event>
<event>
 5   0  0.4865501E-02  0.4973350E+03  0.7818609E-02  0.1014477E+00
        1   -1    0    0  501    0  0.00000000000E+00  0.00000000000E+00  0.68521609648E+03  0.68521609650E+03  0.50400001928E-02 0. -1.
       -1   -1    0    0    0  501  0.00000000000E+00  0.00000000000E+00 -0.90242358777E+02  0.90242358917E+02  0.50400001928E-02 0.  1.
    10030    2    1    2    0    0  0.00000000000E+00  0.00000000000E+00  0.59497373770E+03  0.77545845541E+03  0.49733496511E+03 0.  0.
        2    1    3    3  502    0  0.70369057821E+01 -0.16650579869E+03  0.97182360841E+01  0.16693754269E+03  0.25500000920E-02 0.  1.
       -2    1    3    3    0  502 -0.70369057821E+01  0.16650579869E+03  0.58525550162E+03  0.60852091272E+03  0.25500000920E-02 0. -1.
</event>
<event>
 5   0  0.7933103E-02  0.4887393E+03  0.7818609E-02  0.1016761E+00
        2   -1    0    0  501    0  0.00000000000E+00  0.00000000000E+00  0.11966051352E+04  0.11966051352E+04  0.25500000920E-02 0. -1.
       -2   -1    0    0    0  501  0.00000000000E+00  0.00000000000E+00 -0.49904961736E+02  0.49904961801E+02  0.25500000920E-02 0.  1.
    10030    2    1    2    0    0  0.00000000000E+00  0.00000000000E+00  0.11467001735E+04  0.12465100970E+04  0.48873933145E+03 0.  0.
        5    1    3    3  502    0  0.20249270746E+03  0.10623766395E+03  0.35388147737E+03  0.42135961819E+03  0.46999998093E+01 0.  1.
       -5    1    3    3    0  502 -0.20249270746E+03 -0.10623766395E+03  0.79281869608E+03  0.82515047880E+03  0.46999998093E+01 0. -1.
</event>
<event>
 5   0  0.5038436E-02  0.4979547E+03  0.7818609E-02  0.1014314E+00
        1   -1    0    0  501    0  0.00000000000E+00  0.00000000000E+00  0.87102326640E+03  0.87102326642E+03  0.50400001928E-02 0. -1.
       -1   -1    0    0    0  501  0.00000000000E+00  0.00000000000E+00 -0.71168833839E+02  0.71168834017E+02  0.50400001928E-02 0.  1.
    10030    2    1    2    0    0  0.00000000000E+00  0.00000000000E+00  0.79985443256E+03  0.94219210043E+03  0.49795465740E+03 0.  0.
        1    1    3    3  502    0  0.18098699290E+03  0.76512579405E+02  0.68923817847E+03  0.71670058818E+03  0.50400001928E-02 0. -1.
       -1    1    3    3    0  502 -0.18098699290E+03 -0.76512579405E+02  0.11061625409E+03  0.22549151226E+03  0.50400001928E-02 0.  1.
</event>
<event>
 5   0  0.5038436E-02  0.5005143E+03  0.7818609E-02  0.1013645E+00
       -1   -1    0    0    0  501  0.00000000000E+00  0.00000000000E+00  0.27240158522E+03  0.27240158527E+03  0.50400001928E-02 0.  1.
        1   -1    0    0  501    0  0.00000000000E+00  0.00000000000E+00 -0.22991293476E+03  0.22991293482E+03  0.50400001928E-02 0. -1.
    10030    2    1    2    0    0  0.00000000000E+00  0.00000000000E+00  0.42488650462E+02  0.50231452009E+03  0.50051432714E+03 0.  0.
        1    1    3    3  502    0 -0.16072563351E+03  0.90634926444E+02 -0.14842356768E+03  0.23680577406E+03  0.50400001928E-02 0. -1.
       -1    1    3    3    0  502  0.16072563351E+03 -0.90634926444E+02  0.19091221814E+03  0.26550874603E+03  0.50400001928E-02 0.  1.
</event>
<event>
 5   0  0.8208720E-02  0.5006982E+03  0.7818609E-02  0.1013597E+00
        2   -1    0    0  501    0  0.00000000000E+00  0.00000000000E+00  0.15566009914E+03  0.15566009916E+03  0.25500000920E-02 0. -1.
       -2   -1    0    0    0  501  0.00000000000E+00  0.00000000000E+00 -0.40263798036E+03  0.40263798037E+03  0.25500000920E-02 0.  1.
    10030    2    1    2    0    0  0.00000000000E+00  0.00000000000E+00 -0.24697788122E+03  0.55829807953E+03  0.50069818433E+03 0.  0.
        3    1    3    3  502    0  0.24594298046E+03  0.10307551421E+02 -0.17434820362E+03  0.30164797623E+03  0.10100000352E+00 0.  1.
       -3    1    3    3    0  502 -0.24594298046E+03 -0.10307551421E+02 -0.72629677607E+02  0.25665010330E+03  0.10100000352E+00 0. -1.
</event>
<event>
 5   0  0.4865501E-02  0.4863368E+03  0.7818609E-02  0.1017408E+00
        1   -1    0    0  501    0  0.00000000000E+00  0.00000000000E+00  0.12031267192E+04  0.12031267192E+04  0.50400001928E-02 0.  1.
       -1   -1    0    0    0  501  0.00000000000E+00  0.00000000000E+00 -0.49147674746E+02  0.49147675004E+02  0.50400001928E-02 0. -1.
    10030    2    1    2    0    0  0.00000000000E+00  0.00000000000E+00  0.11539790445E+04  0.12522743942E+04  0.48633684147E+03 0.  0.
        2    1    3    3  502    0  0.14417571659E+03  0.19293454122E+03  0.49079701813E+03  0.54671024086E+03  0.25500000920E-02 0. -1.
       -2    1    3    3    0  502 -0.14417571659E+03 -0.19293454122E+03  0.66318202632E+03  0.70556415335E+03  0.25500000920E-02 0.  1.
</event>
<event>
 5   0  0.5038436E-02  0.4979625E+03  0.7818609E-02  0.1014312E+00
       -1   -1    0    0    0  501  0.00000000000E+00  0.00000000000E+00  0.67546799570E+03  0.67546799572E+03  0.50400001928E-02 0. -1.
        1   -1    0    0  501    0  0.00000000000E+00  0.00000000000E+00 -0.91775856662E+02  0.91775856801E+02  0.50400001928E-02 0.  1.
    10030    2    1    2    0    0  0.00000000000E+00  0.00000000000E+00  0.58369213904E+03  0.76724385252E+03  0.49796246451E+03 0.  0.
        1    1    3    3  502    0  0.74731809120E+02  0.29895558129E+02  0.65486930065E+03  0.65979723298E+03  0.50400001928E-02 0. -1.
       -1    1    3    3    0  502 -0.74731809120E+02 -0.29895558129E+02 -0.71177161611E+02  0.10744661954E+03  0.50400001928E-02 0.  1.
</event>
<event>
 5   0  0.7933103E-02  0.4996018E+03  0.7818609E-02  0.1013883E+00
        2   -1    0    0  501    0  0.00000000000E+00  0.00000000000E+00  0.12335722120E+04  0.12335722120E+04  0.25500000920E-02 0.  1.
       -2   -1    0    0    0  501  0.00000000000E+00  0.00000000000E+00 -0.50585195512E+02  0.50585195576E+02  0.25500000920E-02 0. -1.
    10030    2    1    2    0    0  0.00000000000E+00  0.00000000000E+00  0.11829870165E+04  0.12841574076E+04  0.49960180770E+03 0.  0.
        5    1    3    3  502    0 -0.80051560078E+02  0.18937369755E+03  0.22701156320E+03  0.30631191524E+03  0.46999998093E+01 0. -1.
       -5    1    3    3    0  502  0.80051560078E+02 -0.18937369755E+03  0.95597545327E+03  0.97784549232E+03  0.46999998093E+01 0.  1.
</event>
<event>
 5   0  0.4803890E-02  0.4993652E+03  0.7818609E-02  0.1013945E+00
        1   -1    0    0  501    0  0.00000000000E+00  0.00000000000E+00  0.74901885995E+03  0.74901885997E+03  0.50400001928E-02 0.  1.
       -1   -1    0    0    0  501  0.00000000000E+00  0.00000000000E+00 -0.83230761134E+02  0.83230761286E+02  0.50400001928E-02 0. -1.
    10030    2    1    2    0    0  0.00000000000E+00  0.00000000000E+00  0.66578809882E+03  0.83224962125E+03  0.49936523663E+03 0.  0.
        5    1    3    3  502    0 -0.20756905675E+03  0.22794607251E+02  0.10489762289E+03  0.23373084676E+03  0.46999998093E+01 0. -1.
       -5    1    3    3    0  502  0.20756905675E+03 -0.22794607251E+02  0.56089047592E+03  0.59851877449E+03  0.46999998093E+01 0.  1.
</event>
<event>
 5   0  0.8208720E-02  0.5094878E+03  0.7818609E-02  0.1011332E+00
        2   -1    0    0  501    0  0.00000000000E+00  0.00000000000E+00  0.13211641424E+04  0.13211641424E+04  0.25500000920E-02 0.  1.
       -2   -1    0    0    0  501  0.00000000000E+00  0.00000000000E+00 -0.49119138515E+02  0.49119138581E+02  0.25500000920E-02 0. -1.
    10030    2    1    2    0    0  0.00000000000E+00  0.00000000000E+00  0.12720450039E+04  0.13702832810E+04  0.50948776063E+03 0.  0.
        3    1    3    3  502    0  0.16626830378E+03  0.19047648054E+03  0.55234410405E+03  0.60746230991E+03  0.10100000352E+00 0.  1.
       -3    1    3    3    0  502 -0.16626830378E+03 -0.19047648054E+03  0.71970089981E+03  0.76282097105E+03  0.10100000352E+00 0. -1.
</event>
<event>
 5   0  0.4865501E-02  0.5000308E+03  0.7818609E-02  0.1013771E+00
       -1   -1    0    0    0  501  0.00000000000E+00  0.00000000000E+00  0.17375883268E+03  0.17375883275E+03  0.50400001928E-02 0. -1.
        1   -1    0    0  501    0  0.00000000000E+00  0.00000000000E+00 -0.35973829073E+03  0.35973829077E+03  0.50400001928E-02 0.  1.
    10030    2    1    2    0    0  0.00000000000E+00  0.00000000000E+00 -0.18597945805E+03  0.53349712352E+03  0.50003082104E+03 0.  0.
        2    1    3    3  502    0 -0.15114096329E+03  0.19839757951E+03 -0.11154677632E+03  0.27321763056E+03  0.25500000920E-02 0. -1.
       -2    1    3    3    0  502  0.15114096329E+03 -0.19839757951E+03 -0.74432681734E+02  0.26027949296E+03  0.25500000920E-02 0.  1.
</event>
<event>
 5   0  0.4865501E-02  0.5005275E+03  0.7818609E-02  0.1013641E+00
        1   -1    0    0  501    0  0.00000000000E+00  0.00000000000E+00  0.14260469878E+03  0.14260469887E+03  0.50400001928E-02 0. -1.
       -1   -1    0    0    0  501  0.00000000000E+00  0.00000000000E+00 -0.43919969496E+03  0.43919969499E+03  0.50400001928E-02 0.  1.
    10030    2    1    2    0    0  0.00000000000E+00  0.00000000000E+00 -0.29659499618E+03  0.58180439386E+03  0.50052748271E+03 0.  0.
        2    1    3    3  502    0  0.17883577674E+02 -0.24106395226E+03 -0.22363108471E+03  0.32930610909E+03  0.25500000920E-02 0.  1.
       -2    1    3    3    0  502 -0.17883577674E+02  0.24106395226E+03 -0.72963911477E+02  0.25249828477E+03  0.25500000920E-02 0. -1.
</event>
<event>
 5   0  0.5191358E-02  0.4987303E+03  0.7818609E-02  0.1014111E+00
        1   -1    0    0  501    0  0.00000000000E+00  0.00000000000E+00  0.30809401960E+03  0.30809401964E+03  0.50400001928E-02 0.  1.
       -1   -1    0    0    0  501  0.00000000000E+00  0.00000000000E+00 -0.20183115821E+03  0.20183115828E+03  0.50400001928E-02 0. -1.
    10030    2    1    2    0    0  0.00000000000E+00  0.00000000000E+00  0.10626286139E+03  0.50992517792E+03  0.49873027917E+03 0.  0.
        4    1    3    3  502    0  0.22522212430E+03 -0.10161935880E+03  0.18763518590E+02  0.24780068984E+03  0.12699999809E+01 0.  1.
       -4    1    3    3    0  502 -0.22522212430E+03  0.10161935880E+03  0.87499342796E+02  0.26212448807E+03  0.12699999809E+01 0. -1.
</event>
<event>
 5   0  0.5191358E-02  0.4844269E+03  0.7818609E-02  0.1017926E+00
       -1   -1    0    0    0  501  0.00000000000E+00  0.00000000000E+00  0.25999489083E+03  0.25999489087E+03  0.50400001928E-02 0. -1.
        1   -1    0    0  501    0  0.00000000000E+00  0.00000000000E+00 -0.22564813242E+03  0.22564813248E+03  0.50400001928E-02 0.  1.
    10030    2    1    2    0    0  0.00000000000E+00  0.00000000000E+00  0.34346758406E+02  0.48564302335E+03  0.48442692567E+03 0.  0.
        4    1    3    3  502    0 -0.24068920883E+03  0.22503883897E+02  0.20348535677E+01  0.24175085019E+03  0.12699999809E+01 0. -1.
       -4    1    3    3    0  502  0.24068920883E+03 -0.22503883897E+02  0.32311904839E+02  0.24389217316E+03  0.12699999809E+01 0.  1.
</event>
<event>
 5   0  0.7698747E-02  0.5166563E+03  0.7818609E-02  0.1009521E+00
       -2   -1    0    0    0  501  0.00000000000E+00  0.00000000000E+00  0.52928296498E+02  0.52928296560E+02  0.25500000920E-02 0. -1.
        2   -1    0    0  501    0  0.00000000000E+00  0.00000000000E+00 -0.12608270657E+04  0.12608270657E+04  0.25500000920E-02 0.  1.
    10030    2    1    2    0    0  0.00000000000E+00  0.00000000000E+00 -0.12078987692E+04  0.13137553623E+04  0.51665628345E+03 0.  0.
        2    1    3    3  502    0 -0.23760997088E+03  0.67954199240E+02 -0.79520399592E+03  0.83272184227E+03  0.25500000920E-02 0.  1.
       -2    1    3    3    0  502  0.23760997088E+03 -0.67954199240E+02 -0.41269477327E+03  0.48103351998E+03  0.25500000920E-02 0. -1.
</event>
<event>
 5   0  0.7881060E-02  0.5007636E+03  0.7818609E-02  0.1013580E+00
       -2   -1    0    0    0  501  0.00000000000E+00  0.00000000000E+00  0.18018215995E+03  0.18018215996E+03  0.25500000920E-02 0. -1.
        2   -1    0    0  501    0  0.00000000000E+00  0.00000000000E+00 -0.34793147815E+03  0.34793147816E+03  0.25500000920E-02 0.  1.
    10030    2    1    2    0    0  0.00000000000E+00  0.00000000000E+00 -0.16774931820E+03  0.52811363812E+03  0.50076359793E+03 0.  0.
        1    1    3    3  502    0 -0.88525776979E+02 -0.14653068722E+03 -0.27656380260E+03  0.32526234400E+03  0.50400001928E-02 0.  1.
       -1    1    3    3    0  502  0.88525776979E+02  0.14653068722E+03  0.10881448440E+03  0.20285129412E+03  0.50400001928E-02 0. -1.
</event>
<event>
 5   0  0.8208720E-02  0.4969502E+03  0.7818609E-02  0.1014578E+00
        2   -1    0    0  501    0  0.00000000000E+00  0.00000000000E+00  0.18911755458E+04  0.18911755458E+04  0.25500000920E-02 0. -1.
       -2   -1    0    0    0  501  0.00000000000E+00  0.00000000000E+00 -0.32646292301E+02  0.32646292401E+02  0.25500000920E-02 0.  1.
    10030    2    1    2    0    0  0.00000000000E+00  0.00000000000E+00  0.18585292535E+04  0.19238218382E+04  0.49695017762E+03 0.  0.
        3    1    3    3  502    0 -0.18898838097E+03  0.94484038380E+02  0.42309103628E+03  0.47291635289E+03  0.10100000352E+00 0.  1.
       -3    1    3    3    0  502  0.18898838097E+03 -0.94484038380E+02  0.14354382172E+04  0.14509054853E+04  0.10100000352E+00 0. -1.
</event>
<event>
 5   0  0.7881060E-02  0.4985853E+03  0.7818609E-02  0.1014149E+00
        2   -1    0    0  501    0  0.00000000000E+00  0.00000000000E+00  0.51523019756E+03  0.51523019757E+03  0.25500000920E-02 0. -1.
       -2   -1    0    0    0  501  0.00000000000E+00  0.00000000000E+00 -0.12061950996E+03  0.12061950999E+03  0.25500000920E-02 0.  1.
    10030    2    1    2    0    0  0.00000000000E+00  0.00000000000E+00  0.39461068760E+03  0.63584970755E+03  0.49858525432E+03 0.  0.
        1    1    3    3  502    0 -0.16966891511E+03  0.13417818489E+03  0.35533800573E+03  0.41600051009E+03  0.50400001928E-02 0. -1.
       -1    1    3    3    0  502  0.16966891511E+03 -0.13417818489E+03  0.39272681872E+02  0.21984919746E+03  0.50400001928E-02 0.  1.
</event>
<event>
 5   0  0.7776070E-02  0.4998011E+03  0.7818609E-02  0.1013831E+00
        2   -1    0    0  501    0  0.00000000000E+00  0.00000000000E+00  0.35190982332E+03  0.35190982333E+03  0.25500000920E-02 0. -1.
       -2   -1    0    0    0  501  0.00000000000E+00  0.00000000000E+00 -0.17746105777E+03  0.17746105779E+03  0.25500000920E-02 0.  1.
    10030    2    1    2    0    0  0.00000000000E+00  0.00000000000E+00  0.17444876555E+03  0.52937088112E+03  0.49980111843E+03 0.  0.
        4    1    3    3  502    0  0.24635180257E+03  0.65497273044E+01  0.13110706950E+03  0.27914653164E+03  0.12699999809E+01 0.  1.
       -4    1    3    3    0  502 -0.24635180257E+03 -0.65497273044E+01  0.43341696052E+02  0.25022434948E+03  0.12699999809E+01 0. -1.
</event>
<event>
 5   0  0.4884478E-02  0.5023035E+03  0.7818609E-02  0.1013179E+00
       -1   -1    0    0    0  501  0.00000000000E+00  0.00000000000E+00  0.12448702883E+03  0.12448702893E+03  0.50400001928E-02 0. -1.
        1   -1    0    0  501    0  0.00000000000E+00  0.00000000000E+00 -0.50669691046E+03  0.50669691048E+03  0.50400001928E-02 0.  1.
    10030    2    1    2    0    0  0.00000000000E+00  0.00000000000E+00 -0.38220988163E+03  0.63118393941E+03  0.50230346580E+03 0.  0.
        3    1    3    3  502    0  0.35126592462E+02  0.23076977320E+03 -0.30755812917E+03  0.38610954241E+03  0.10100000352E+00 0.  1.
       -3    1    3    3    0  502 -0.35126592462E+02 -0.23076977320E+03 -0.74651752462E+02  0.24507439700E+03  0.10100000352E+00 0. -1.
</event>
<event>
 5   0  0.5038436E-02  0.5015746E+03  0.7818609E-02  0.1013369E+00
       -1   -1    0    0    0  501  0.00000000000E+00  0.00000000000E+00  0.52275195324E+03  0.52275195326E+03  0.50400001928E-02 0.  1.
        1   -1    0    0  501    0  0.00000000000E+00  0.00000000000E+00 -0.12031377295E+03  0.12031377305E+03  0.50400001928E-02 0. -1.
    10030    2    1    2    0    0  0.00000000000E+00  0.00000000000E+00  0.40243818029E+03  0.64306572631E+03  0.50157456016E+03 0.  0.
        1    1    3    3  502    0  0.20319422924E+03 -0.80573320202E+02  0.35884004527E+03  0.42017393165E+03  0.50400001928E-02 0.  1.
       -1    1    3    3    0  502 -0.20319422924E+03  0.80573320202E+02  0.43598135016E+02  0.22289179466E+03  0.50400001928E-02 0. -1.
</event>
<event>
 5   0  0.4803890E-02  0.5009174E+03  0.7818609E-02  0.1013540E+00
        1   -1    0    0  501    0  0.00000000000E+00  0.00000000000E+00  0.56019442076E+03  0.56019442079E+03  0.50400001928E-02 0.  1.
       -1   -1    0    0    0  501  0.00000000000E+00  0.00000000000E+00 -0.11197818885E+03  0.11197818896E+03  0.50400001928E-02 0. -1.
    10030    2    1    2    0    0  0.00000000000E+00  0.00000000000E+00  0.44821623192E+03  0.67217260975E+03  0.50091738515E+03 0.  0.
        5    1    3    3  502    0  0.16009926447E+03  0.53018862455E+02  0.47250041406E+03  0.50171855213E+03  0.46999998093E+01 0.  1.
       -5    1    3    3    0  502 -0.16009926447E+03 -0.53018862455E+02 -0.24284182150E+02  0.17045405762E+03  0.46999998093E+01 0. -1.
</event>
<event>
 5   0  0.5191358E-02  0.4903861E+03  0.7818609E-02  0.1016319E+00
        1   -1    0    0  501    0  0.00000000000E+00  0.00000000000E+00  0.17601707225E+03  0.17601707232E+03  0.50400001928E-02 0.  1.
       -1   -1    0    0    0  501  0.00000000000E+00  0.00000000000E+00 -0.34155572188E+03  0.34155572192E+03  0.50400001928E-02 0. -1.
    10030    2    1    2    0    0  0.00000000000E+00  0.00000000000E+00 -0.16553864963E+03  0.51757279424E+03  0.49038612624E+03 0.  0.
        4    1    3    3  502    0  0.23000404855E+02 -0.10246135494E+03  0.15107820014E+03  0.18399343286E+03  0.12699999809E+01 0.  1.
       -4    1    3    3    0  502 -0.23000404855E+02  0.10246135494E+03 -0.31661684977E+03  0.33357936138E+03  0.12699999809E+01 0. -1.
</event>
<event>
 5   0  0.5191358E-02  0.5030210E+03  0.7818609E-02  0.1012993E+00
        1   -1    0    0  501    0  0.00000000000E+00  0.00000000000E+00  0.11274825050E+04  0.11274825050E+04  0.50400001928E-02 0. -1.
       -1   -1    0    0    0  501  0.00000000000E+00  0.00000000000E+00 -0.56105114156E+02  0.56105114382E+02  0.50400001928E-02 0.  1.
    10030    2    1    2    0    0  0.00000000000E+00  0.00000000000E+00  0.10713773908E+04  0.11835876194E+04  0.50302101265E+03 0.  0.
        4    1    3    3  502    0 -0.13223951699E+03 -0.10519235218E+03  0.97401653490E+03  0.98856590269E+03  0.12699999809E+01 0. -1.
       -4    1    3    3    0  502  0.13223951699E+03  0.10519235218E+03  0.97360855930E+02  0.19502171668E+03  0.12699999809E+01 0.  1.
</event>
<event>
 5   0  0.4884478E-02  0.5028615E+03  0.7818609E-02  0.1013035E+00
        1   -1    0    0  501    0  0.00000000000E+00  0.00000000000E+00  0.19270517434E+03  0.19270517440E+03  0.50400001928E-02 0.  1.
       -1   -1    0    0    0  501  0.00000000000E+00  0.00000000000E+00 -0.32805253896E+03  0.32805253900E+03  0.50400001928E-02 0. -1.
    10030    2    1    2    0    0  0.00000000000E+00  0.00000000000E+00 -0.13534736463E+03  0.52075771341E+03  0.50286149879E+03 0.  0.
        3    1    3    3  502    0 -0.15418185303E+03  0.31932777685E+01 -0.27332390709E+03  0.31382831168E+03  0.10100000352E+00 0. -1.
       -3    1    3    3    0  502  0.15418185303E+03 -0.31932777685E+01  0.13797654246E+03  0.20692940172E+03  0.10100000352E+00 0.  1.
</event>
<event>
 5   0  0.7776070E-02  0.5005753E+03  0.7818609E-02  0.1013629E+00
        2   -1    0    0  501    0  0.00000000000E+00  0.00000000000E+00  0.49018022718E+03  0.49018022719E+03  0.25500000920E-02 0.  1.
       -2   -1    0    0    0  501  0.00000000000E+00  0.00000000000E+00 -0.12779771686E+03  0.12779771688E+03  0.25500000920E-02 0. -1.
    10030    2    1    2    0    0  0.00000000000E+00  0.00000000000E+00  0.36238251032E+03  0.61797794407E+03  0.50057532457E+03 0.  0.
        4    1    3    3  502    0  0.30328219600E+02 -0.32378560077E+01 -0.12549082897E+03  0.12915047685E+03  0.12699999809E+01 0. -1.
       -4    1    3    3    0  502 -0.30328219600E+02  0.32378560077E+01  0.48787333929E+03  0.48882746722E+03  0.12699999809E+01 0.  1.
</event>
<event>
 5   0  0.4865501E-02  0.5013024E+03  0.7818609E-02  0.1013440E+00
        1   -1    0    0  501    0  0.00000000000E+00  0.00000000000E+00  0.79277888292E+03  0.79277888294E+03  0.50400001928E-02 0.  1.
       -1   -1    0    0    0  501  0.00000000000E+00  0.00000000000E+00 -0.79247857694E+02  0.79247857854E+02  0.50400001928E-02 0. -1.
    10030    2    1    2    0    0  0.00000000000E+00  0.00000000000E+00  0.71353102523E+03  0.87202674079E+03  0.50130241641E+03 0.  0.
        2    1    3    3  502    0 -0.95976137456E+02  0.20527171692E+03  0.54313104815E+03  0.58850593217E+03  0.25500000920E-02 0.  1.
       -2    1    3    3    0  502  0.95976137456E+02 -0.20527171692E+03  0.17039997707E+03  0.28352080862E+03  0.25500000920E-02 0. -1.
</event>
<event>
 5   0  0.4884478E-02  0.5011566E+03  0.7818609E-02  0.1013477E+00
        1   -1    0    0  501    0  0.00000000000E+00  0.00000000000E+00  0.71543100229E+03  0.71543100231E+03  0.50400001928E-02 0. -1.
       -1   -1    0    0    0  501  0.00000000000E+00  0.00000000000E+00 -0.87764560870E+02  0.87764561015E+02  0.50400001928E-02 0.  1.
    10030    2    1    2    0    0  0.00000000000E+00  0.00000000000E+00  0.62766644142E+03  0.80319556333E+03  0.50115661350E+03 0.  0.
        3    1    3    3  502    0 -0.74951102661E+02 -0.20170626743E+03  0.51961676331E+03  0.56240970566E+03  0.10100000352E+00 0. -1.
       -3    1    3    3    0  502  0.74951102661E+02  0.20170626743E+03  0.10804967811E+03  0.24078585766E+03  0.10100000352E+00 0.  1.
</event>
<event>
 5   0  0.7933103E-02  0.5016139E+03  0.7818609E-02  0.1013359E+00
       -2   -1    0    0    0  501  0.00000000000E+00  0.00000000000E+00  0.46048333954E+02  0.46048334024E+02  0.25500000920E-02 0.  1.
        2   -1    0    0  501    0  0.00000000000E+00  0.00000000000E+00 -0.13660457732E+04  0.13660457732E+04  0.25500000920E-02 0. -1.
    10030    2    1    2    0    0  0.00000000000E+00  0.00000000000E+00 -0.13199974393E+04  0.14120941072E+04  0.50161392330E+03 0.  0.
        5    1    3    3  502    0  0.79876500422E+02  0.22258799462E+03 -0.42520556189E+03  0.48656708739E+03  0.46999998093E+01 0.  1.
       -5    1    3    3    0  502 -0.79876500422E+02 -0.22258799462E+03 -0.89479187737E+03  0.92552701986E+03  0.46999998093E+01 0. -1.
</event>
<event>
 5   0  0.4865501E-02  0.4968662E+03  0.7818609E-02  0.1014600E+00
       -1   -1    0    0    0  501  0.00000000000E+00  0.00000000000E+00  0.40245258970E+02  0.40245259286E+02  0.50400001928E-02 0.  1.
        1   -1    0    0  501    0  0.00000000000E+00  0.00000000000E+00 -0.15335717951E+04  0.15335717951E+04  0.50400001928E-02 0. -1.
    10030    2    1    2    0    0  0.00000000000E+00  0.00000000000E+00 -0.14933265361E+04  0.15738170544E+04  0.49686615621E+03 0.  0.
        2    1    3    3  502    0  0.13881039501E+03  0.20454798705E+03 -0.82494503499E+03  0.86118669028E+03  0.25500000920E-02 0. -1.
       -2    1    3    3    0  502 -0.13881039501E+03 -0.20454798705E+03 -0.66838150111E+03  0.71263036407E+03  0.25500000920E-02 0.  1.
</event>
<event>
 5   0  0.4884478E-02  0.5036310E+03  0.7818609E-02  0.1012836E+00
       -1   -1    0    0    0  501  0.00000000000E+00  0.00000000000E+00  0.38678472872E+03  0.38678472875E+03  0.50400001928E-02 0.  1.
        1   -1    0    0  501    0  0.00000000000E+00  0.00000000000E+00 -0.16394399752E+03  0.16394399760E+03  0.50400001928E-02 0. -1.
    10030    2    1    2    0    0  0.00000000000E+00  0.00000000000E+00  0.22284073120E+03  0.55072872635E+03  0.50363095471E+03 0.  0.
        3    1    3    3  502    0  0.18914238417E+03  0.10153442684E+03 -0.32521222384E+02  0.21712144396E+03  0.10100000352E+00 0. -1.
       -3    1    3    3    0  502 -0.18914238417E+03 -0.10153442684E+03  0.25536195358E+03  0.33360728238E+03  0.10100000352E+00 0.  1.
</event>
<event>
 5   0  0.4803890E-02  0.5008353E+03  0.7818609E-02  0.1013561E+00
        1   -1    0    0  501    0  0.00000000000E+00  0.00000000000E+00  0.82280644777E+03  0.82280644779E+03  0.50400001928E-02 0.  1.
       -1   -1    0    0    0  501  0.00000000000E+00  0.00000000000E+00 -0.76213561043E+02  0.76213561210E+02  0.50400001928E-02 0. -1.
    10030    2    1    2    0    0  0.00000000000E+00  0.00000000000E+00  0.74659288673E+03  0.89902000900E+03  0.50083534027E+03 0.  0.
        5    1    3    3  502    0  0.39372964946E+02  0.34256575052E+02 -0.66262080238E+02  0.84477787487E+02  0.46999998093E+01 0. -1.
       -5    1    3    3    0  502 -0.39372964946E+02 -0.34256575052E+02  0.81285496696E+03  0.81454222151E+03  0.46999998093E+01 0.  1.
</event>
<event>
 5   0  0.3210875E-02  0.5015702E+03  0.7818609E-02  0.1013370E+00
        3   -1    0    0  501    0  0.00000000000E+00  0.00000000000E+00  0.24955625557E+03  0.24955627601E+03  0.10100000352E+00 0. -1.
       -3   -1    0    0    0  501  0.00000000000E+00  0.00000000000E+00 -0.25201995042E+03  0.25201997066E+03  0.10100000352E+00 0.  1.
    10030    2    1    2    0    0  0.00000000000E+00  0.00000000000E+00 -0.24636948466E+01  0.50157624667E+03  0.50157019591E+03 0.  0.
        5    1    3    3  502    0 -0.12792423095E+03  0.21092046084E+03  0.43702264454E+02  0.25056741125E+03  0.46999998093E+01 0. -1.
       -5    1    3    3    0  502  0.12792423095E+03 -0.21092046084E+03 -0.46165959300E+02  0.25100883542E+03  0.46999998093E+01 0.  1.
</event>
<event>
 5   0  0.7698747E-02  0.4973803E+03  0.7818609E-02  0.1014465E+00
        2   -1    0    0  501    0  0.00000000000E+00  0.00000000000E+00  0.82928381802E+03  0.82928381802E+03  0.25500000920E-02 0.  1.
       -2   -1    0    0    0  501  0.00000000000E+00  0.00000000000E+00 -0.74578563761E+02  0.74578563805E+02  0.25500000920E-02 0. -1.
    10030    2    1    2    0    0  0.00000000000E+00  0.00000000000E+00  0.75470525426E+03  0.90386238183E+03  0.49738032176E+03 0.  0.
        2    1    3    3  502    0 -0.63739714125E+02 -0.50794286774E+02  0.80432416812E+03  0.80844305808E+03  0.25500000920E-02 0.  1.
       -2    1    3    3    0  502  0.63739714125E+02  0.50794286774E+02 -0.49618913862E+02  0.95419323750E+02  0.25500000920E-02 0. -1.
</event>
<event>
 5   0  0.7698747E-02  0.4977953E+03  0.7818609E-02  0.1014356E+00
        2   -1    0    0  501    0  0.00000000000E+00  0.00000000000E+00  0.11903336674E+04  0.11903336674E+04  0.25500000920E-02 0. -1.
       -2   -1    0    0    0  501  0.00000000000E+00  0.00000000000E+00 -0.52044263445E+02  0.52044263508E+02  0.25500000920E-02 0.  1.
    10030    2    1    2    0    0  0.00000000000E+00  0.00000000000E+00  0.11382894040E+04  0.12423779310E+04  0.49779529534E+03 0.  0.
        2    1    3    3  502    0  0.82723734176E+02 -0.16473845033E+03  0.98652712579E+03  0.10036023830E+04  0.25500000920E-02 0. -1.
       -2    1    3    3    0  502 -0.82723734176E+02  0.16473845033E+03  0.15176227821E+03  0.23877554797E+03  0.25500000920E-02 0.  1.
</event>
<event>
 5   0  0.7933103E-02  0.5022685E+03  0.7818609E-02  0.1013189E+00
       -2   -1    0    0    0  501  0.00000000000E+00  0.00000000000E+00  0.11556280545E+03  0.11556280548E+03  0.25500000920E-02 0.  1.
        2   -1    0    0  501    0  0.00000000000E+00  0.00000000000E+00 -0.54575000951E+03  0.54575000951E+03  0.25500000920E-02 0. -1.
    10030    2    1    2    0    0  0.00000000000E+00  0.00000000000E+00 -0.43018720406E+03  0.66131281500E+03  0.50226846282E+03 0.  0.
        5    1    3    3  502    0  0.10763750309E+03 -0.98788500374E+02 -0.48396579524E+03  0.50555907750E+03  0.46999998093E+01 0. -1.
       -5    1    3    3    0  502 -0.10763750309E+03  0.98788500374E+02  0.53778591185E+02  0.15575373750E+03  0.46999998093E+01 0.  1.
</event>
<event>
 5   0  0.7776070E-02  0.5138960E+03  0.7818609E-02  0.1010214E+00
        2   -1    0    0  501    0  0.00000000000E+00  0.00000000000E+00  0.12573676470E+04  0.12573676470E+04  0.25500000920E-02 0. -1.
       -2   -1    0    0    0  501  0.00000000000E+00  0.00000000000E+00 -0.52508335942E+02  0.52508336004E+02  0.25500000920E-02 0.  1.
    10030    2    1    2    0    0  0.00000000000E+00  0.00000000000E+00  0.12048593111E+04  0.13098759831E+04  0.51389603172E+03 0.  0.
        4    1    3    3  502    0  0.84958049436E+02 -0.19783111506E+03  0.95987452242E+03  0.98372543525E+03  0.12699999809E+01 0. -1.
       -4    1    3    3    0  502 -0.84958049436E+02  0.19783111506E+03  0.24498478868E+03  0.32615054781E+03  0.12699999809E+01 0.  1.
</event>
<event>
 5   0  0.5038436E-02  0.5015399E+03  0.7818609E-02  0.1013378E+00
        1   -1    0    0  501    0  0.00000000000E+00  0.00000000000E+00  0.65766096871E+02  0.65766097064E+02  0.50400001928E-02 0. -1.
       -1   -1    0    0    0  501  0.00000000000E+00  0.00000000000E+00 -0.95620036924E+03  0.95620036925E+03  0.50400001928E-02 0.  1.
    10030    2    1    2    0    0  0.00000000000E+00  0.00000000000E+00 -0.89043427237E+03  0.10219664663E+04  0.50153989359E+03 0.  0.
        1    1    3    3  502    0 -0.18598461642E+03 -0.10478917753E+03 -0.71334154481E+03  0.74459868980E+03  0.50400001928E-02 0.  1.
       -1    1    3    3    0  502  0.18598461642E+03  0.10478917753E+03 -0.17709272756E+03  0.27736777652E+03  0.50400001928E-02 0. -1.
</event>
<event>
 5   0  0.7776070E-02  0.5031140E+03  0.7818609E-02  0.1012969E+00
       -2   -1    0    0    0  501  0.00000000000E+00  0.00000000000E+00  0.17800770861E+03  0.17800770862E+03  0.25500000920E-02 0. -1.
        2   -1    0    0  501    0  0.00000000000E+00  0.00000000000E+00 -0.35549538468E+03  0.35549538469E+03  0.25500000920E-02 0.  1.
    10030    2    1    2    0    0  0.00000000000E+00  0.00000000000E+00 -0.17748767608E+03  0.53350309332E+03  0.50311397856E+03 0.  0.
        4    1    3    3  502    0 -0.13446086718E+03  0.10557198138E+03  0.10694024569E+03  0.20165068089E+03  0.12699999809E+01 0. -1.
       -4    1    3    3    0  502  0.13446086718E+03 -0.10557198138E+03 -0.28442792176E+03  0.33185241243E+03  0.12699999809E+01 0.  1.
</event>
<event>
 5   0  0.5191358E-02  0.4999990E+03  0.7818609E-02  0.1013779E+00
       -1   -1    0    0    0  501  0.00000000000E+00  0.00000000000E+00  0.68211050030E+02  0.68211050216E+02  0.50400001928E-02 0.  1.
        1   -1    0    0  501    0  0.00000000000E+00  0.00000000000E+00 -0.91627015284E+03  0.91627015286E+03  0.50400001928E-02 0. -1.
    10030    2    1    2    0    0  0.00000000000E+00  0.00000000000E+00 -0.84805910281E+03  0.98448120307E+03  0.49999899734E+03 0.  0.
        4    1    3    3  502    0 -0.19167301269E+03  0.15530955458E+03 -0.34432811604E+03  0.42358359970E+03  0.12699999809E+01 0.  1.
       -4    1    3    3    0  502  0.19167301269E+03 -0.15530955458E+03 -0.50373098677E+03  0.56089760337E+03  0.12699999809E+01 0. -1.
</event>
<event>
 5   0  0.7881060E-02  0.5000311E+03  0.7818609E-02  0.1013771E+00
       -2   -1    0    0    0  501  0.00000000000E+00  0.00000000000E+00  0.13671680976E+03  0.13671680978E+03  0.25500000920E-02 0.  1.
        2   -1    0    0  501    0  0.00000000000E+00  0.00000000000E+00 -0.45720617033E+03  0.45720617033E+03  0.25500000920E-02 0. -1.
    10030    2    1    2    0    0  0.00000000000E+00  0.00000000000E+00 -0.32048936057E+03  0.59392298011E+03  0.50003107510E+03 0.  0.
        1    1    3    3  502    0 -0.19060503996E+03 -0.11520650530E+02  0.31442616896E+02  0.19352427453E+03  0.50400001928E-02 0.  1.
       -1    1    3    3    0  502  0.19060503996E+03  0.11520650530E+02 -0.35193197747E+03  0.40039870559E+03  0.50400001928E-02 0. -1.
</event>
<event>
 5   0  0.4884478E-02  0.4993435E+03  0.7818609E-02  0.1013950E+00
        1   -1    0    0  501    0  0.00000000000E+00  0.00000000000E+00  0.15762741690E+03  0.15762741698E+03  0.50400001928E-02 0. -1.
       -1   -1    0    0    0  501  0.00000000000E+00  0.00000000000E+00 -0.39546408415E+03  0.39546408419E+03  0.50400001928E-02 0.  1.
    10030    2    1    2    0    0  0.00000000000E+00  0.00000000000E+00 -0.23783666726E+03  0.55309150117E+03  0.49934349738E+03 0.  0.
        3    1    3    3  502    0 -0.18280435853E+03 -0.15090629358E+03 -0.32084730772E+02  0.23920615186E+03  0.10100000352E+00 0. -1.
       -3    1    3    3    0  502  0.18280435853E+03  0.15090629358E+03 -0.20575193648E+03  0.31388534930E+03  0.10100000352E+00 0.  1.
</event>
<event>
 5   0  0.8208720E-02  0.5041789E+03  0.7818609E-02  0.1012694E+00
       -2   -1    0    0    0  501  0.00000000000E+00  0.00000000000E+00  0.46772073779E+02  0.46772073849E+02  0.25500000920E-02 0.  1.
        2   -1    0    0  501    0  0.00000000000E+00  0.00000000000E+00 -0.13586974732E+04  0.13586974732E+04  0.25500000920E-02 0. -1.
    10030    2    1    2    0    0  0.00000000000E+00  0.00000000000E+00 -0.13119253994E+04  0.14054695470E+04  0.50417893058E+03 0.  0.
        3    1    3    3  502    0 -0.70085033217E+02  0.23016102132E+03 -0.44618316285E+03  0.50691757972E+03  0.10100000352E+00 0.  1.
       -3    1    3    3    0  502  0.70085033217E+02 -0.23016102132E+03 -0.86574223656E+03  0.89855196732E+03  0.10100000352E+00 0. -1.
</event>
<event>
 5   0  0.4803890E-02  0.5018590E+03  0.7818609E-02  0.1013295E+00
        1   -1    0    0  501    0  0.00000000000E+00  0.00000000000E+00  0.48973209696E+03  0.48973209698E+03  0.50400001928E-02 0.  1.
       -1   -1    0    0    0  501  0.00000000000E+00  0.00000000000E+00 -0.12857157078E+03  0.12857157087E+03  0.50400001928E-02 0. -1.
    10030    2    1    2    0    0  0.00000000000E+00  0.00000000000E+00  0.36116052618E+03  0.61830366786E+03  0.50185904397E+03 0.  0.
        5    1    3    3  502    0  0.92977553856E+02  0.17679724381E+03 -0.64340794471E+01  0.19991392727E+03  0.46999998093E+01 0. -1.
       -5    1    3    3    0  502 -0.92977553856E+02 -0.17679724381E+03  0.36759460563E+03  0.41838974058E+03  0.46999998093E+01 0.  1.
</event>
<event>
 5   0  0.7881060E-02  0.4972462E+03  0.7818609E-02  0.1014500E+00
       -2   -1    0    0    0  501  0.00000000000E+00  0.00000000000E+00  0.31863103283E+03  0.31863103284E+03  0.25500000920E-02 0.  1.
        2   -1    0    0  501    0  0.00000000000E+00  0.00000000000E+00 -0.19399696529E+03  0.19399696531E+03  0.25500000920E-02 0. -1.
    10030    2    1    2    0    0  0.00000000000E+00  0.00000000000E+00  0.12463406754E+03  0.51262799815E+03  0.49724623045E+03 0.  0.
        1    1    3    3  502    0  0.18715913903E+03 -0.47644911991E+02 -0.99098617127E+02  0.21706938269E+03  0.50400001928E-02 0. -1.
       -1    1    3    3    0  502 -0.18715913903E+03  0.47644911991E+02  0.22373268467E+03  0.29555861546E+03  0.50400001928E-02 0.  1.
</event>
<event>
 5   0  0.8208720E-02  0.5000094E+03  0.7818609E-02  0.1013776E+00
       -2   -1    0    0    0  501  0.00000000000E+00  0.00000000000E+00  0.33261533054E+02  0.33261533151E+02  0.25500000920E-02 0.  1.
        2   -1    0    0  501    0  0.00000000000E+00  0.00000000000E+00 -0.18791178248E+04  0.18791178248E+04  0.25500000920E-02 0. -1.
    10030    2    1    2    0    0  0.00000000000E+00  0.00000000000E+00 -0.18458562918E+04  0.19123793580E+04  0.50000935886E+03 0.  0.
        3    1    3    3  502    0 -0.17397269812E+03  0.11434412110E+03 -0.39349899140E+03  0.44517698071E+03  0.10100000352E+00 0.  1.
       -3    1    3    3    0  502  0.17397269812E+03 -0.11434412110E+03 -0.14523573004E+04  0.14672023773E+04  0.10100000352E+00 0. -1.
</event>
<event>
 5   0  0.4803890E-02  0.5006458E+03  0.7818609E-02  0.1013610E+00
        1   -1    0    0  501    0  0.00000000000E+00  0.00000000000E+00  0.13685044646E+04  0.13685044646E+04  0.50400001928E-02 0. -1.
       -1   -1    0    0    0  501  0.00000000000E+00  0.00000000000E+00 -0.45788339815E+02  0.45788340092E+02  0.50400001928E-02 0.  1.
    10030    2    1    2    0    0  0.00000000000E+00  0.00000000000E+00  0.13227161248E+04  0.14142928047E+04  0.50064577364E+03 0.  0.
        5    1    3    3  502    0  0.67805661388E+01  0.10627610120E+03  0.13011852423E+04  0.13055442201E+04  0.46999998093E+01 0. -1.
       -5    1    3    3    0  502 -0.67805661388E+01 -0.10627610120E+03  0.21530882488E+02  0.10874858464E+03  0.46999998093E+01 0.  1.
</event>
<event>
 5   0  0.5191358E-02  0.4994606E+03  0.7818609E-02  0.1013920E+00
       -1   -1    0    0    0  501  0.00000000000E+00  0.00000000000E+00  0.66775540966E+02  0.66775541157E+02  0.50400001928E-02 0.  1.
        1   -1    0    0  501    0  0.00000000000E+00  0.00000000000E+00 -0.93395305784E+03  0.93395305785E+03  0.50400001928E-02 0. -1.
    10030    2    1    2    0    0  0.00000000000E+00  0.00000000000E+00 -0.86717751687E+03  0.10007285990E+04  0.49946059214E+03 0.  0.
        4    1    3    3  502    0 -0.11317232773E+03  0.43207331536E+02  0.39566112891E+01  0.12121104295E+03  0.12699999809E+01 0.  1.
       -4    1    3    3    0  502  0.11317232773E+03 -0.43207331536E+02 -0.87113412816E+03  0.87951755605E+03  0.12699999809E+01 0. -1.
</event>
<event>
 5   0  0.4865501E-02  0.4992626E+03  0.7818609E-02  0.1013972E+00
       -1   -1    0    0    0  501  0.00000000000E+00  0.00000000000E+00  0.10741128684E+03  0.10741128696E+03  0.50400001928E-02 0. -1.
        1   -1    0    0  501    0  0.00000000000E+00  0.00000000000E+00 -0.58016044738E+03  0.58016044740E+03  0.50400001928E-02 0.  1.
    10030    2    1    2    0    0  0.00000000000E+00  0.00000000000E+00 -0.47274916054E+03  0.68757173436E+03  0.49926257731E+03 0.  0.
        2    1    3    3  502    0  0.23735653692E+01  0.24221439758E+03 -0.31948945768E+03  0.40093261502E+03  0.25500000920E-02 0.  1.
       -2    1    3    3    0  502 -0.23735653692E+01 -0.24221439758E+03 -0.15325970286E+03  0.28663911934E+03  0.25500000920E-02 0. -1.
</event>
<event>
 5   0  0.7776070E-02  0.4965997E+03  0.7818609E-02  0.1014670E+00
       -2   -1    0    0    0  501  0.00000000000E+00  0.00000000000E+00  0.12493430237E+03  0.12493430239E+03  0.25500000920E-02 0.  1.
        2   -1    0    0  501    0  0.00000000000E+00  0.00000000000E+00 -0.49348180642E+03  0.49348180642E+03  0.25500000920E-02 0. -1.
    10030    2    1    2    0    0  0.00000000000E+00  0.00000000000E+00 -0.36854750405E+03  0.61841610882E+03  0.49659965858E+03 0.  0.
        4    1    3    3  502    0  0.11116022039E+03  0.84963156529E+02 -0.43971491136E+03  0.46143921456E+03  0.12699999809E+01 0. -1.
       -4    1    3    3    0  502 -0.11116022039E+03 -0.84963156529E+02  0.71167407312E+02  0.15697689425E+03  0.12699999809E+01 0.  1.
</event>
<event>
 5   0  0.7881060E-02  0.5024357E+03  0.7818609E-02  0.1013145E+00
        2   -1    0    0  501    0  0.00000000000E+00  0.00000000000E+00  0.86340556603E+03  0.86340556604E+03  0.25500000920E-02 0.  1.
       -2   -1    0    0    0  501  0.00000000000E+00  0.00000000000E+00 -0.73094748455E+02  0.73094748500E+02  0.25500000920E-02 0. -1.
    10030    2    1    2    0    0  0.00000000000E+00  0.00000000000E+00  0.79031081758E+03  0.93650031454E+03  0.50243571802E+03 0.  0.
        1    1    3    3  502    0  0.17757459594E+02 -0.32154846619E+02 -0.68062256006E+02  0.77341659217E+02  0.50400001928E-02 0. -1.
       -1    1    3    3    0  502 -0.17757459594E+02  0.32154846619E+02  0.85837307358E+03  0.85915865532E+03  0.50400001928E-02 0.  1.
</event>
<event>
 5   0  0.5038436E-02  0.5014786E+03  0.7818609E-02  0.1013394E+00
        1   -1    0    0  501    0  0.00000000000E+00  0.00000000000E+00  0.30903463734E+03  0.30903463738E+03  0.50400001928E-02 0.  1.
       -1   -1    0    0    0  501  0.00000000000E+00  0.00000000000E+00 -0.20344065093E+03  0.20344065099E+03  0.50400001928E-02 0. -1.
    10030    2    1    2    0    0  0.00000000000E+00  0.00000000000E+00  0.10559398641E+03  0.51247528837E+03  0.50147864484E+03 0.  0.
        1    1    3    3  502    0  0.19293695008E+03 -0.12986548510E+03 -0.42962101290E+02  0.23650677179E+03  0.50400001928E-02 0. -1.
       -1    1    3    3    0  502 -0.19293695008E+03  0.12986548510E+03  0.14855608770E+03  0.27596851658E+03  0.50400001928E-02 0.  1.
</event>
<event>
 5   0  0.7933103E-02  0.5028122E+03  0.7818609E-02  0.1013047E+00
        2   -1    0    0  501    0  0.00000000000E+00  0.00000000000E+00  0.42083059687E+03  0.42083059687E+03  0.25500000920E-02 0.  1.
       -2   -1    0    0    0  501  0.00000000000E+00  0.00000000000E+00 -0.15019113586E+03  0.15019113588E+03  0.25500000920E-02 0. -1.
    10030    2    1    2    0    0  0.00000000000E+00  0.00000000000E+00  0.27063946101E+03  0.57102173275E+03  0.50281219299E+03 0.  0.
        5    1    3    3  502    0 -0.15464816952E+02  0.22776419352E+03  0.15847592082E+02  0.22888626998E+03  0.46999998093E+01 0. -1.
       -5    1    3    3    0  502  0.15464816952E+02 -0.22776419352E+03  0.25479186893E+03  0.34213546277E+03  0.46999998093E+01 0.  1.
</event>
<event>
 5   0  0.4865501E-02  0.4997499E+03  0.7818609E-02  0.1013844E+00
       -1   -1    0    0    0  501  0.00000000000E+00  0.00000000000E+00  0.66034726223E+03  0.66034726224E+03  0.50400001928E-02 0. -1.
        1   -1    0    0  501    0  0.00000000000E+00  0.00000000000E+00 -0.94552512402E+02  0.94552512536E+02  0.50400001928E-02 0.  1.
    10030    2    1    2    0    0  0.00000000000E+00  0.00000000000E+00  0.56579474982E+03  0.75489977478E+03  0.49974990849E+03 0.  0.
        2    1    3    3  502    0  0.19505767566E+02 -0.11797000074E+03 -0.48531278069E+02  0.12904526725E+03  0.25500000920E-02 0.  1.
       -2    1    3    3    0  502 -0.19505767566E+02  0.11797000074E+03  0.61432602789E+03  0.62585450753E+03  0.25500000920E-02 0. -1.
</event>
<event>
 5   0  0.4884478E-02  0.4962563E+03  0.7818609E-02  0.1014761E+00
       -1   -1    0    0    0  501  0.00000000000E+00  0.00000000000E+00  0.25385602024E+03  0.25385602029E+03  0.50400001928E-02 0. -1.
        1   -1    0    0  501    0  0.00000000000E+00  0.00000000000E+00 -0.24252949467E+03  0.24252949472E+03  0.50400001928E-02 0.  1.
    10030    2    1    2    0    0  0.00000000000E+00  0.00000000000E+00  0.11326525575E+02  0.49638551501E+03  0.49625627384E+03 0.  0.
        3    1    3    3  502    0 -0.43415729308E+02 -0.24348850001E+03 -0.14241340281E+02  0.24773857424E+03  0.10100000352E+00 0. -1.
       -3    1    3    3    0  502  0.43415729308E+02  0.24348850001E+03  0.25567865856E+02  0.24864694077E+03  0.10100000352E+00 0.  1.
</event>
<event>
 5   0  0.3210875E-02  0.4951569E+03  0.7818609E-02  0.1015051E+00
       -3   -1    0    0    0  501  0.00000000000E+00  0.00000000000E+00  0.63571976607E+03  0.63571977410E+03  0.10100000352E+00 0.  1.
        3   -1    0    0  501    0  0.00000000000E+00  0.00000000000E+00 -0.96418357005E+02  0.96418409905E+02  0.10100000352E+00 0. -1.
    10030    2    1    2    0    0  0.00000000000E+00  0.00000000000E+00  0.53930140907E+03  0.73213818400E+03  0.49515685459E+03 0.  0.
        2    1    3    3  502    0  0.26271029199E+02  0.62018754810E+02 -0.82611493865E+02  0.10658870413E+03  0.25500000920E-02 0. -1.
       -2    1    3    3    0  502 -0.26271029199E+02 -0.62018754810E+02  0.62191290293E+03  0.62554947987E+03  0.25500000920E-02 0.  1.
</event>
<event>
 5   0  0.4865501E-02  0.5081640E+03  0.7818609E-02  0.1011670E+00
        1   -1    0    0  501    0  0.00000000000E+00  0.00000000000E+00  0.27335039414E+03  0.27335039419E+03  0.50400001928E-02 0.  1.
       -1   -1    0    0    0  501  0.00000000000E+00  0.00000000000E+00 -0.23617178566E+03  0.23617178571E+03  0.50400001928E-02 0. -1.
    10030    2    1    2    0    0  0.00000000000E+00  0.00000000000E+00  0.37178608486E+02  0.50952217990E+03  0.50816395275E+03 0.  0.
        2    1    3    3  502    0  0.12994082659E+03 -0.85590457603E+02  0.21999257060E+03  0.26945700209E+03  0.25500000920E-02 0.  1.
       -2    1    3    3    0  502 -0.12994082659E+03  0.85590457603E+02 -0.18281396211E+03  0.24006517781E+03  0.25500000920E-02 0. -1.
</event>
<event>
 5   0  0.3210875E-02  0.4819573E+03  0.7818609E-02  0.1018599E+00
        3   -1    0    0  501    0  0.00000000000E+00  0.00000000000E+00  0.13320578521E+03  0.13320582350E+03  0.10100000352E+00 0. -1.
       -3   -1    0    0    0  501  0.00000000000E+00  0.00000000000E+00 -0.43594730609E+03  0.43594731779E+03  0.10100000352E+00 0.  1.
    10030    2    1    2    0    0  0.00000000000E+00  0.00000000000E+00 -0.30274152088E+03  0.56915314129E+03  0.48195733190E+03 0.  0.
        4    1    3    3  502    0 -0.23828132712E+03 -0.31174355703E+02 -0.17247170041E+03  0.29580049299E+03  0.12699999809E+01 0.  1.
       -4    1    3    3    0  502  0.23828132712E+03  0.31174355703E+02 -0.13026982047E+03  0.27335264830E+03  0.12699999809E+01 0. -1.
</event>
<event>
 5   0  0.7776070E-02  0.4985048E+03  0.7818609E-02  0.1014170E+00
        2   -1    0    0  501    0  0.00000000000E+00  0.00000000000E+00  0.12163858221E+04  0.12163858221E+04  0.25500000920E-02 0.  1.
       -2   -1    0    0    0  501  0.00000000000E+00  0.00000000000E+00 -0.51074880385E+02  0.51074880449E+02  0.25500000920E-02 0. -1.
    10030    2    1    2    0    0  0.00000000000E+00  0.00000000000E+00  0.11653109417E+04  0.12674607026E+04  0.49850480603E+03 0.  0.
        4    1    3    3  502    0 -0.15899372091E+03 -0.19012429145E+03  0.64987137710E+03  0.69552905702E+03  0.12699999809E+01 0. -1.
       -4    1    3    3    0  502  0.15899372091E+03  0.19012429145E+03  0.51543956462E+03  0.57193164553E+03  0.12699999809E+01 0.  1.
</event>
<event>
 5   0  0.5038436E-02  0.4891521E+03  0.7818609E-02  0.1016650E+00
        1   -1    0    0  501    0  0.00000000000E+00  0.00000000000E+00  0.90464462971E+03  0.90464462972E+03  0.50400001928E-02 0.  1.
       -1   -1    0    0    0  501  0.00000000000E+00  0.00000000000E+00 -0.66122582435E+02  0.66122582628E+02  0.50400001928E-02 0. -1.
    10030    2    1    2    0    0  0.00000000000E+00  0.00000000000E+00  0.83852204727E+03  0.97076721235E+03  0.48915207943E+03 0.  0.
        1    1    3    3  502    0 -0.85242836548E+02 -0.97413540686E+01  0.87379842572E+03  0.87800052618E+03  0.50400001928E-02 0.  1.
       -1    1    3    3    0  502  0.85242836548E+02  0.97413540686E+01 -0.35276378442E+02  0.92766686171E+02  0.50400001928E-02 0. -1.
</event>
<event>
 5   0  0.4884478E-02  0.5011076E+03  0.7818609E-02  0.1013490E+00
       -1   -1    0    0    0  501  0.00000000000E+00  0.00000000000E+00  0.40859803662E+03  0.40859803665E+03  0.50400001928E-02 0.  1.
        1   -1    0    0  501    0  0.00000000000E+00  0.00000000000E+00 -0.15364053022E+03  0.15364053030E+03  0.50400001928E-02 0. -1.
    10030    2    1    2    0    0  0.00000000000E+00  0.00000000000E+00  0.25495750640E+03  0.56223856696E+03  0.50110764922E+03 0.  0.
        3    1    3    3  502    0  0.21680351008E+02 -0.14557253274E+03  0.35498536375E+03  0.38428637575E+03  0.10100000352E+00 0.  1.
       -3    1    3    3    0  502 -0.21680351008E+02  0.14557253274E+03 -0.10002785735E+03  0.17795219121E+03  0.10100000352E+00 0. -1.
</event>
<event>
 5   0  0.7698747E-02  0.5001996E+03  0.7818609E-02  0.1013727E+00
        2   -1    0    0  501    0  0.00000000000E+00  0.00000000000E+00  0.10218338046E+03  0.10218338049E+03  0.25500000920E-02 0.  1.
       -2   -1    0    0    0  501  0.00000000000E+00  0.00000000000E+00 -0.61213383658E+03  0.61213383659E+03  0.25500000920E-02 0. -1.
    10030    2    1    2    0    0  0.00000000000E+00  0.00000000000E+00 -0.50995045613E+03  0.71431721708E+03  0.50019957907E+03 0.  0.
        2    1    3    3  502    0  0.56948575047E+02 -0.22275648702E+03 -0.11442646651E+03  0.25682096674E+03  0.25500000920E-02 0.  1.
       -2    1    3    3    0  502 -0.56948575047E+02  0.22275648702E+03 -0.39552398961E+03  0.45749625034E+03  0.25500000920E-02 0. -1.
</event>
<event>
 5   0  0.7776070E-02  0.4965042E+03  0.7818609E-02  0.1014695E+00
       -2   -1    0    0    0  501  0.00000000000E+00  0.00000000000E+00  0.99940229367E+02  0.99940229400E+02  0.25500000920E-02 0. -1.
        2   -1    0    0  501    0  0.00000000000E+00  0.00000000000E+00 -0.61665971049E+03  0.61665971049E+03  0.25500000920E-02 0.  1.
    10030    2    1    2    0    0  0.00000000000E+00  0.00000000000E+00 -0.51671948112E+03  0.71659993989E+03  0.49650423129E+03 0.  0.
        4    1    3    3  502    0  0.12738100676E+03 -0.19078025941E+03 -0.39531633034E+03  0.45705540386E+03  0.12699999809E+01 0.  1.
       -4    1    3    3    0  502 -0.12738100676E+03  0.19078025941E+03 -0.12140315078E+03  0.25954453603E+03  0.12699999809E+01 0. -1.
</event>
<event>
 5   0  0.4803890E-02  0.5072271E+03  0.7818609E-02  0.1011910E+00
        1   -1    0    0  501    0  0.00000000000E+00  0.00000000000E+00  0.17366338651E+03  0.17366338658E+03  0.50400001928E-02 0. -1.
       -1   -1    0    0    0  501  0.00000000000E+00  0.00000000000E+00 -0.37037067786E+03  0.37037067790E+03  0.50400001928E-02 0.  1.
    10030    2    1    2    0    0  0.00000000000E+00  0.00000000000E+00 -0.19670729136E+03  0.54403406448E+03  0.50722707424E+03 0.  0.
        5    1    3    3  502    0  0.10504090431E+03 -0.16575895660E+03  0.73886129008E+02  0.20974001366E+03  0.46999998093E+01 0. -1.
       -5    1    3    3    0  502 -0.10504090431E+03  0.16575895660E+03 -0.27059342037E+03  0.33429405082E+03  0.46999998093E+01 0.  1.
</event>
<event>
 5   0  0.7776070E-02  0.5002206E+03  0.7818609E-02  0.1013721E+00
        2   -1    0    0  501    0  0.00000000000E+00  0.00000000000E+00  0.45651163950E+03  0.45651163951E+03  0.25500000920E-02 0.  1.
       -2   -1    0    0    0  501  0.00000000000E+00  0.00000000000E+00 -0.13702861468E+03  0.13702861470E+03  0.25500000920E-02 0. -1.
    10030    2    1    2    0    0  0.00000000000E+00  0.00000000000E+00  0.31948302482E+03  0.59354025421E+03  0.50022058156E+03 0.  0.
        4    1    3    3  502    0 -0.21288486970E+03 -0.71220747852E+02  0.28890672306E+02  0.22633746159E+03  0.12699999809E+01 0. -1.
       -4    1    3    3    0  502  0.21288486970E+03  0.71220747852E+02  0.29059235252E+03  0.36720279263E+03  0.12699999809E+01 0.  1.
</event>
<event>
 5   0  0.4865501E-02  0.4971202E+03  0.7818609E-02  0.1014533E+00
        1   -1    0    0  501    0  0.00000000000E+00  0.00000000000E+00  0.49742141009E+03  0.49742141012E+03  0.50400001928E-02 0. -1.
       -1   -1    0    0    0  501  0.00000000000E+00  0.00000000000E+00 -0.12420478745E+03  0.12420478755E+03  0.50400001928E-02 0.  1.
    10030    2    1    2    0    0  0.00000000000E+00  0.00000000000E+00  0.37321662264E+03  0.62162619767E+03  0.49712018890E+03 0.  0.
        2    1    3    3  502    0 -0.12415366105E+03 -0.48764280593E+02  0.44887616162E+03  0.46827544789E+03  0.25500000920E-02 0. -1.
       -2    1    3    3    0  502  0.12415366105E+03  0.48764280593E+02 -0.75659538976E+02  0.15335074978E+03  0.25500000920E-02 0.  1.
</event>
<event>
 5   0  0.7933103E-02  0.5028703E+03  0.7818609E-02  0.1013032E+00
       -2   -1    0    0    0  501  0.00000000000E+00  0.00000000000E+00  0.25558468581E+03  0.25558468582E+03  0.25500000920E-02 0.  1.
        2   -1    0    0  501    0  0.00000000000E+00  0.00000000000E+00 -0.24735298061E+03  0.24735298063E+03  0.25500000920E-02 0. -1.
    10030    2    1    2    0    0  0.00000000000E+00  0.00000000000E+00  0.82317051920E+01  0.50293766645E+03  0.50287029676E+03 0.  0.
        5    1    3    3  502    0 -0.15467306232E+02 -0.25023609458E+03 -0.14331217822E+02  0.25116690546E+03  0.46999998093E+01 0. -1.
       -5    1    3    3    0  502  0.15467306232E+02  0.25023609458E+03  0.22562923014E+02  0.25177076099E+03  0.46999998093E+01 0.  1.
</event>
<event>
 5   0  0.4865501E-02  0.4886299E+03  0.7818609E-02  0.1016790E+00
        1   -1    0    0  501    0  0.00000000000E+00  0.00000000000E+00  0.12429364615E+04  0.12429364615E+04  0.50400001928E-02 0. -1.
       -1   -1    0    0    0  501  0.00000000000E+00  0.00000000000E+00 -0.48023211817E+02  0.48023212082E+02  0.50400001928E-02 0.  1.
    10030    2    1    2    0    0  0.00000000000E+00  0.00000000000E+00  0.11949132497E+04  0.12909596736E+04  0.48862992599E+03 0.  0.
        2    1    3    3  502    0 -0.19396184424E+03  0.17002568535E+02  0.20755348330E+03  0.28458519427E+03  0.25500000920E-02 0.  1.
       -2    1    3    3    0  502  0.19396184424E+03 -0.17002568535E+02  0.98735976638E+03  0.10063744793E+04  0.25500000920E-02 0. -1.
</event>
<event>
 5   0  0.8208720E-02  0.4875328E+03  0.7818609E-02  0.1017085E+00
        2   -1    0    0  501    0  0.00000000000E+00  0.00000000000E+00  0.89037325029E+03  0.89037325029E+03  0.25500000920E-02 0.  1.
       -2   -1    0    0    0  501  0.00000000000E+00  0.00000000000E+00 -0.66738359364E+02  0.66738359413E+02  0.25500000920E-02 0. -1.
    10030    2    1    2    0    0  0.00000000000E+00  0.00000000000E+00  0.82363489092E+03  0.95711160971E+03  0.48753276801E+03 0.  0.
        3    1    3    3  502    0 -0.16871092359E+02 -0.12029003867E+02 -0.65006375588E+02  0.68228804471E+02  0.10100000352E+00 0. -1.
       -3    1    3    3    0  502  0.16871092359E+02  0.12029003867E+02  0.88864126651E+03  0.88888280523E+03  0.10100000352E+00 0.  1.
</event>
<event>
 5   0  0.3210875E-02  0.5014245E+03  0.7818609E-02  0.1013408E+00
        4   -1    0    0  501    0  0.00000000000E+00  0.00000000000E+00  0.30373885361E+03  0.30374150867E+03  0.12699999809E+01 0. -1.
       -4   -1    0    0    0  501  0.00000000000E+00  0.00000000000E+00 -0.20693752768E+03  0.20694142471E+03  0.12699999809E+01 0.  1.
    10030    2    1    2    0    0  0.00000000000E+00  0.00000000000E+00  0.96801325928E+02  0.51068293339E+03  0.50142453246E+03 0.  0.
        2    1    3    3  502    0  0.80004842795E+02  0.14492712265E+03 -0.14336290598E+03  0.21899216554E+03  0.25500000920E-02 0.  1.
       -2    1    3    3    0  502 -0.80004842795E+02 -0.14492712265E+03  0.24016423191E+03  0.29169076785E+03  0.25500000920E-02 0. -1.
</event>
<event>
 5   0  0.7698747E-02  0.5023125E+03  0.7818609E-02  0.1013177E+00
       -2   -1    0    0    0  501  0.00000000000E+00  0.00000000000E+00  0.32714479635E+03  0.32714479636E+03  0.25500000920E-02 0.  1.
        2   -1    0    0  501    0  0.00000000000E+00  0.00000000000E+00 -0.19281817687E+03  0.19281817689E+03  0.25500000920E-02 0. -1.
    10030    2    1    2    0    0  0.00000000000E+00  0.00000000000E+00  0.13432661948E+03  0.51996297325E+03  0.50231250517E+03 0.  0.
        2    1    3    3  502    0 -0.37661348638E+02 -0.19935708225E+03  0.22041218729E+03  0.29957162038E+03  0.25500000920E-02 0.  1.
       -2    1    3    3    0  502  0.37661348638E+02  0.19935708225E+03 -0.86085567811E+02  0.22039135286E+03  0.25500000920E-02 0. -1.
</event>
<event>
 5   0  0.4803890E-02  0.5040300E+03  0.7818609E-02  0.1012732E+00
        1   -1    0    0  501    0  0.00000000000E+00  0.00000000000E+00  0.24427155078E+03  0.24427155083E+03  0.50400001928E-02 0.  1.
       -1   -1    0    0    0  501  0.00000000000E+00  0.00000000000E+00 -0.26000387383E+03  0.26000387388E+03  0.50400001928E-02 0. -1.
    10030    2    1    2    0    0  0.00000000000E+00  0.00000000000E+00 -0.15732323049E+02  0.50427542471E+03  0.50402995742E+03 0.  0.
        5    1    3    3  502    0 -0.88092312497E+02  0.15215059229E+03  0.17271939136E+03  0.24650382635E+03  0.46999998093E+01 0.  1.
       -5    1    3    3    0  502  0.88092312497E+02 -0.15215059229E+03 -0.18845171441E+03  0.25777159836E+03  0.46999998093E+01 0. -1.
</event>
<event>
 5   0  0.7776070E-02  0.4977564E+03  0.7818609E-02  0.1014366E+00
        2   -1    0    0  501    0  0.00000000000E+00  0.00000000000E+00  0.18080836738E+04  0.18080836738E+04  0.25500000920E-02 0.  1.
       -2   -1    0    0    0  501  0.00000000000E+00  0.00000000000E+00 -0.34257467636E+02  0.34257467731E+02  0.25500000920E-02 0. -1.
    10030    2    1    2    0    0  0.00000000000E+00  0.00000000000E+00  0.17738262061E+04  0.18423411415E+04  0.49775643854E+03 0.  0.
        4    1    3    3  502    0  0.22216980092E+03  0.18959801896E+02  0.12960666212E+04  0.13151080541E+04  0.12699999809E+01 0.  1.
       -4    1    3    3    0  502 -0.22216980092E+03 -0.18959801896E+02  0.47775958492E+03  0.52723308737E+03  0.12699999809E+01 0. -1.
</event>
<event>
 5   0  0.7933103E-02  0.4996635E+03  0.7818609E-02  0.1013867E+00
       -2   -1    0    0    0  501  0.00000000000E+00  0.00000000000E+00  0.41640144422E+03  0.41640144422E+03  0.25500000920E-02 0. -1.
        2   -1    0    0  501    0  0.00000000000E+00  0.00000000000E+00 -0.14989358283E+03  0.14989358285E+03  0.25500000920E-02 0.  1.
    10030    2    1    2    0    0  0.00000000000E+00  0.00000000000E+00  0.26650786139E+03  0.56629502708E+03  0.49966350428E+03 0.  0.
        5    1    3    3  502    0  0.16902183682E+03  0.78337816255E+02 -0.55334814476E+02  0.19439451245E+03  0.46999998093E+01 0.  1.
       -5    1    3    3    0  502 -0.16902183682E+03 -0.78337816255E+02  0.32184267586E+03  0.37190051463E+03  0.46999998093E+01 0. -1.
</event>
<event>
 5   0  0.5191358E-02  0.4993931E+03  0.7818609E-02  0.1013937E+00
       -1   -1    0    0    0  501  0.00000000000E+00  0.00000000000E+00  0.51366603948E+03  0.51366603951E+03  0.50400001928E-02 0. -1.
        1   -1    0    0  501    0  0.00000000000E+00  0.00000000000E+00 -0.12137917675E+03  0.12137917685E+03  0.50400001928E-02 0.  1.
    10030    2    1    2    0    0  0.00000000000E+00  0.00000000000E+00  0.39228686273E+03  0.63504521636E+03  0.49939307579E+03 0.  0.
        4    1    3    3  502    0  0.75714205094E+02 -0.23084296802E+03  0.26947638685E+03  0.36282261879E+03  0.12699999809E+01 0.  1.
       -4    1    3    3    0  502 -0.75714205094E+02  0.23084296802E+03  0.12281047588E+03  0.27222259756E+03  0.12699999809E+01 0. -1.
</event>
<event>
 5   0  0.3210875E-02  0.5088741E+03  0.7818609E-02  0.1011488E+00
        4   -1    0    0  501    0  0.00000000000E+00  0.00000000000E+00  0.12395813258E+03  0.12396463823E+03  0.12699999809E+01 0.  1.
       -4   -1    0    0    0  501  0.00000000000E+00  0.00000000000E+00 -0.52223778062E+03  0.52223932484E+03  0.12699999809E+01 0. -1.
    10030    2    1    2    0    0  0.00000000000E+00  0.00000000000E+00 -0.39827964804E+03  0.64620396307E+03  0.50887413360E+03 0.  0.
        4    1    3    3  502    0  0.12943981166E+03  0.56723251905E+02  0.69534213813E+02  0.15750813293E+03  0.12699999809E+01 0.  1.
       -4    1    3    3    0  502 -0.12943981166E+03 -0.56723251905E+02 -0.46781386186E+03  0.48869583014E+03  0.12699999809E+01 0. -1.
</event>
<event>
 5   0  0.7933103E-02  0.5140095E+03  0.7818609E-02  0.1010186E+00
       -2   -1    0    0    0  501  0.00000000000E+00  0.00000000000E+00  0.52434627096E+02  0.52434627158E+02  0.25500000920E-02 0. -1.
        2   -1    0    0  501    0  0.00000000000E+00  0.00000000000E+00 -0.12596910499E+04  0.12596910499E+04  0.25500000920E-02 0.  1.
    10030    2    1    2    0    0  0.00000000000E+00  0.00000000000E+00 -0.12072564228E+04  0.13121256771E+04  0.51400945711E+03 0.  0.
        5    1    3    3  502    0 -0.21541588927E+02 -0.58441386063E+02 -0.12400199876E+04  0.12415921614E+04  0.46999998093E+01 0.  1.
       -5    1    3    3    0  502  0.21541588927E+02  0.58441386063E+02  0.32763564765E+02  0.70533515670E+02  0.46999998093E+01 0. -1.
</event>
<event>
 5   0  0.4884478E-02  0.4837052E+03  0.7818609E-02  0.1018122E+00
        1   -1    0    0  501    0  0.00000000000E+00  0.00000000000E+00  0.50499783422E+03  0.50499783425E+03  0.50400001928E-02 0. -1.
       -1   -1    0    0    0  501  0.00000000000E+00  0.00000000000E+00 -0.11582759066E+03  0.11582759077E+03  0.50400001928E-02 0.  1.
    10030    2    1    2    0    0  0.00000000000E+00  0.00000000000E+00  0.38917024356E+03  0.62082542501E+03  0.48370520968E+03 0.  0.
        3    1    3    3  502    0  0.21790096095E+03 -0.10317524001E+03  0.21916343523E+03  0.32581985894E+03  0.10100000352E+00 0.  1.
       -3    1    3    3    0  502 -0.21790096095E+03  0.10317524001E+03  0.17000680833E+03  0.29500556608E+03  0.10100000352E+00 0. -1.
</event>
<event>
 5   0  0.7881060E-02  0.5006695E+03  0.7818609E-02  0.1013604E+00
       -2   -1    0    0    0  501  0.00000000000E+00  0.00000000000E+00  0.12910580744E+03  0.12910580746E+03  0.25500000920E-02 0.  1.
        2   -1    0    0  501    0  0.00000000000E+00  0.00000000000E+00 -0.48539632933E+03  0.48539632934E+03  0.25500000920E-02 0. -1.
    10030    2    1    2    0    0  0.00000000000E+00  0.00000000000E+00 -0.35629052190E+03  0.61450213680E+03  0.50066949192E+03 0.  0.
        1    1    3    3  502    0 -0.12829035754E+03  0.58581272952E+02 -0.43199631551E+03  0.45443481162E+03  0.50400001928E-02 0. -1.
       -1    1    3    3    0  502  0.12829035754E+03 -0.58581272952E+02  0.75705793611E+02  0.16006732518E+03  0.50400001928E-02 0.  1.
</event>
<event>
 5   0  0.5038436E-02  0.5004657E+03  0.7818609E-02  0.1013657E+00
        1   -1    0    0  501    0  0.00000000000E+00  0.00000000000E+00  0.41144402217E+03  0.41144402220E+03  0.50400001928E-02 0.  1.
       -1   -1    0    0    0  501  0.00000000000E+00  0.00000000000E+00 -0.15218713121E+03  0.15218713130E+03  0.50400001928E-02 0. -1.
    10030    2    1    2    0    0  0.00000000000E+00  0.00000000000E+00  0.25925689095E+03  0.56363115349E+03  0.50046572478E+03 0.  0.
        1    1    3    3  502    0  0.91900933726E+02 -0.23265670414E+03  0.13688896654E+03  0.28515524331E+03  0.50400001928E-02 0.  1.
       -1    1    3    3    0  502 -0.91900933726E+02  0.23265670414E+03  0.12236792441E+03  0.27847591018E+03  0.50400001928E-02 0. -1.
</event>
<event>
 5   0  0.7881060E-02  0.4984354E+03  0.7818609E-02  0.1014188E+00
        2   -1    0    0  501    0  0.00000000000E+00  0.00000000000E+00  0.92891149551E+03  0.92891149552E+03  0.25500000920E-02 0. -1.
       -2   -1    0    0    0  501  0.00000000000E+00  0.00000000000E+00 -0.66862615189E+02  0.66862615237E+02  0.25500000920E-02 0.  1.
    10030    2    1    2    0    0  0.00000000000E+00  0.00000000000E+00  0.86204888032E+03  0.99577411075E+03  0.49843535948E+03 0.  0.
        1    1    3    3  502    0  0.21201659433E+03  0.96514806259E+02  0.60795449632E+03  0.65105669009E+03  0.50400001928E-02 0. -1.
       -1    1    3    3    0  502 -0.21201659433E+03 -0.96514806259E+02  0.25409438401E+03  0.34471742066E+03  0.50400001928E-02 0.  1.
</event>
<event>
 5   0  0.7881060E-02  0.4998545E+03  0.7818609E-02  0.1013817E+00
       -2   -1    0    0    0  501  0.00000000000E+00  0.00000000000E+00  0.70552857602E+02  0.70552857648E+02  0.25500000920E-02 0. -1.
        2   -1    0    0  501    0  0.00000000000E+00  0.00000000000E+00 -0.88534515298E+03  0.88534515298E+03  0.25500000920E-02 0.  1.
    10030    2    1    2    0    0  0.00000000000E+00  0.00000000000E+00 -0.81479229537E+03  0.95589801063E+03  0.49985450095E+03 0.  0.
        1    1    3    3  502    0 -0.70701843174E+02 -0.22849073399E+03 -0.54604980710E+03  0.59613518434E+03  0.50400001928E-02 0.  1.
       -1    1    3    3    0  502  0.70701843174E+02  0.22849073399E+03 -0.26874248827E+03  0.35976282629E+03  0.50400001928E-02 0. -1.
</event>
<event>
 5   0  0.7933103E-02  0.5015004E+03  0.7818609E-02  0.1013388E+00
       -2   -1    0    0    0  501  0.00000000000E+00  0.00000000000E+00  0.18076979914E+03  0.18076979916E+03  0.25500000920E-02 0. -1.
        2   -1    0    0  501    0  0.00000000000E+00  0.00000000000E+00 -0.34782177431E+03  0.34782177432E+03  0.25500000920E-02 0.  1.
    10030    2    1    2    0    0  0.00000000000E+00  0.00000000000E+00 -0.16705197517E+03  0.52859157348E+03  0.50150043783E+03 0.  0.
        5    1    3    3  502    0 -0.23398366377E+02  0.15213055970E+03  0.12505922754E+03  0.19837613549E+03  0.46999998093E+01 0. -1.
       -5    1    3    3    0  502  0.23398366377E+02 -0.15213055970E+03 -0.29211120270E+03  0.33021543799E+03  0.46999998093E+01 0.  1.
</event>
<event>
 5   0  0.8208720E-02  0.4981274E+03  0.7818609E-02  0.1014269E+00
       -2   -1    0    0    0  501  0.00000000000E+00  0.00000000000E+00  0.33347287224E+02  0.33347287322E+02  0.25500000920E-02 0.  1.
        2   -1    0    0  501    0  0.00000000000E+00  0.00000000000E+00 -0.18602030800E+04  0.18602030800E+04  0.25500000920E-02 0. -1.
    10030    2    1    2    0    0  0.00000000000E+00  0.00000000000E+00 -0.18268557927E+04  0.18935503673E+04  0.49812739935E+03 0.  0.
        3    1    3    3  502    0 -0.35299455285E+02 -0.12201604304E+03 -0.99029593416E+02  0.16106159342E+03  0.10100000352E+00 0.  1.
       -3    1    3    3    0  502  0.35299455285E+02  0.12201604304E+03 -0.17278261993E+04  0.17324887739E+04  0.10100000352E+00 0. -1.
</event>
<event>
 5   0  0.4865501E-02  0.4989787E+03  0.7818609E-02  0.1014046E+00
        1   -1    0    0  501    0  0.00000000000E+00  0.00000000000E+00  0.82533299293E+03  0.82533299294E+03  0.50400001928E-02 0. -1.
       -1   -1    0    0    0  501  0.00000000000E+00  0.00000000000E+00 -0.75417975327E+02  0.75417975496E+02  0.50400001928E-02 0.  1.
    10030    2    1    2    0    0  0.00000000000E+00  0.00000000000E+00  0.74991501760E+03  0.90075096844E+03  0.49897873053E+03 0.  0.
        2    1    3    3  502    0  0.21472411574E+03 -0.15233428041E+02  0.60262928828E+03  0.63992230959E+03  0.25500000920E-02 0. -1.
       -2    1    3    3    0  502 -0.21472411574E+03  0.15233428041E+02  0.14728572932E+03  0.26082865885E+03  0.25500000920E-02 0.  1.
</event>
<event>
 5   0  0.4884478E-02  0.5017223E+03  0.7818609E-02  0.1013330E+00
       -1   -1    0    0    0  501  0.00000000000E+00  0.00000000000E+00  0.95319670940E+02  0.95319671073E+02  0.50400001928E-02 0. -1.
        1   -1    0    0  501    0  0.00000000000E+00  0.00000000000E+00 -0.66021324017E+03  0.66021324019E+03  0.50400001928E-02 0.  1.
    10030    2    1    2    0    0  0.00000000000E+00  0.00000000000E+00 -0.56489356923E+03  0.75553291126E+03  0.50172226923E+03 0.  0.
        3    1    3    3  502    0  0.83339069011E+02  0.15276260508E+03 -0.10347014388E+02  0.17432407993E+03  0.10100000352E+00 0. -1.
       -3    1    3    3    0  502 -0.83339069011E+02 -0.15276260508E+03 -0.55454655484E+03  0.58120883133E+03  0.10100000352E+00 0.  1.
</event>
<event>
 5   0  0.4803890E-02  0.4994479E+03  0.7818609E-02  0.1013923E+00
       -1   -1    0    0    0  501  0.00000000000E+00  0.00000000000E+00  0.43543201301E+03  0.43543201303E+03  0.50400001928E-02 0. -1.
        1   -1    0    0  501    0  0.00000000000E+00  0.00000000000E+00 -0.14321880915E+03  0.14321880924E+03  0.50400001928E-02 0.  1.
    10030    2    1    2    0    0  0.00000000000E+00  0.00000000000E+00  0.29221320386E+03  0.57865082227E+03  0.49944791281E+03 0.  0.
        5    1    3    3  502    0 -0.13999863994E+03  0.60126891441E+02  0.37527467562E+03  0.40505312543E+03  0.46999998093E+01 0. -1.
       -5    1    3    3    0  502  0.13999863994E+03 -0.60126891441E+02 -0.83061471763E+02  0.17359769684E+03  0.46999998093E+01 0.  1.
</event>
<event>
 5   0  0.3210875E-02  0.5045812E+03  0.7818609E-02  0.1012590E+00
        3   -1    0    0  501    0  0.00000000000E+00  0.00000000000E+00  0.13596025975E+04  0.13596026013E+04  0.10100000352E+00 0.  1.
       -3   -1    0    0    0  501  0.00000000000E+00  0.00000000000E+00 -0.46815497398E+02  0.46815606346E+02  0.10100000352E+00 0. -1.
    10030    2    1    2    0    0  0.00000000000E+00  0.00000000000E+00  0.13127871001E+04  0.14064182076E+04  0.50458121693E+03 0.  0.
        1    1    3    3  502    0  0.17459428967E+03 -0.22696917571E+02  0.11600563290E+04  0.11733409575E+04  0.50400001928E-02 0.  1.
       -1    1    3    3    0  502 -0.17459428967E+03  0.22696917571E+02  0.15273077112E+03  0.23307725012E+03  0.50400001928E-02 0. -1.
</event>
<event>
 5   0  0.4865501E-02  0.4996436E+03  0.7818609E-02  0.1013872E+00
        1   -1    0    0  501    0  0.00000000000E+00  0.00000000000E+00  0.57591847057E+03  0.57591847060E+03  0.50400001928E-02 0.  1.
       -1   -1    0    0    0  501  0.00000000000E+00  0.00000000000E+00 -0.10836763460E+03  0.10836763471E+03  0.50400001928E-02 0. -1.
    10030    2    1    2    0    0  0.00000000000E+00  0.00000000000E+00  0.46755083598E+03  0.68428610531E+03  0.49964356265E+03 0.  0.
        2    1    3    3  502    0 -0.10075659721E+02  0.14139897387E+03  0.51550234803E+03  0.53463806408E+03  0.25500000920E-02 0.  1.
       -2    1    3    3    0  502  0.10075659721E+02 -0.14139897387E+03 -0.47951512052E+02  0.14964804123E+03  0.25500000920E-02 0. -1.
</event>
<event>
 5   0  0.5038436E-02  0.4980666E+03  0.7818609E-02  0.1014285E+00
        1   -1    0    0  501    0  0.00000000000E+00  0.00000000000E+00  0.51728857482E+03  0.51728857484E+03  0.50400001928E-02 0. -1.
       -1   -1    0    0    0  501  0.00000000000E+00  0.00000000000E+00 -0.11988974315E+03  0.11988974326E+03  0.50400001928E-02 0.  1.
    10030    2    1    2    0    0  0.00000000000E+00  0.00000000000E+00  0.39739883166E+03  0.63717831810E+03  0.49806663977E+03 0.  0.
        1    1    3    3  502    0  0.24656871744E+03  0.71090898151E+01  0.24247557637E+03  0.34589171245E+03  0.50400001928E-02 0. -1.
       -1    1    3    3    0  502 -0.24656871744E+03 -0.71090898151E+01  0.15492325529E+03  0.29128660565E+03  0.50400001928E-02 0.  1.
</event>
<event>
 5   0  0.7776070E-02  0.4998912E+03  0.7818609E-02  0.1013807E+00
        2   -1    0    0  501    0  0.00000000000E+00  0.00000000000E+00  0.82083068399E+03  0.82083068399E+03  0.25500000920E-02 0. -1.
       -2   -1    0    0    0  501  0.00000000000E+00  0.00000000000E+00 -0.76109258761E+02  0.76109258803E+02  0.25500000920E-02 0.  1.
    10030    2    1    2    0    0  0.00000000000E+00  0.00000000000E+00  0.74472142523E+03  0.89693994280E+03  0.49989124796E+03 0.  0.
        4    1    3    3  502    0  0.18029304395E+03  0.54623815673E+02  0.66709032061E+03  0.69318139883E+03  0.12699999809E+01 0. -1.
       -4    1    3    3    0  502 -0.18029304395E+03 -0.54623815673E+02  0.77631104623E+02  0.20375854397E+03  0.12699999809E+01 0.  1.
</event>
<event>
 5   0  0.4884478E-02  0.5063836E+03  0.7818609E-02  0.1012126E+00
       -1   -1    0    0    0  501  0.00000000000E+00  0.00000000000E+00  0.95078581102E+02  0.95078581236E+02  0.50400001928E-02 0. -1.
        1   -1    0    0  501    0  0.00000000000E+00  0.00000000000E+00 -0.67424328532E+03  0.67424328534E+03  0.50400001928E-02 0.  1.
    10030    2    1    2    0    0  0.00000000000E+00  0.00000000000E+00 -0.57916470422E+03  0.76932186657E+03  0.50638362906E+03 0.  0.
        3    1    3    3  502    0  0.22233149162E+03 -0.28734652304E+02 -0.46837077306E+03  0.51925731932E+03  0.10100000352E+00 0.  1.
       -3    1    3    3    0  502 -0.22233149162E+03  0.28734652304E+02 -0.11079393116E+03  0.25006454725E+03  0.10100000352E+00 0. -1.
</event>
<event>
 5   0  0.7698747E-02  0.5004671E+03  0.7818609E-02  0.1013657E+00
       -2   -1    0    0    0  501  0.00000000000E+00  0.00000000000E+00  0.59461245287E+02  0.59461245341E+02  0.25500000920E-02 0. -1.
        2   -1    0    0  501    0  0.00000000000E+00  0.00000000000E+00 -0.10530697836E+04  0.10530697836E+04  0.25500000920E-02 0.  1.
    10030    2    1    2    0    0  0.00000000000E+00  0.00000000000E+00 -0.99360853836E+03  0.11125310290E+04  0.50046714474E+03 0.  0.
        2    1    3    3  502    0  0.23320242505E+03  0.84384343176E+02 -0.42265005904E+03  0.49003791775E+03  0.25500000920E-02 0. -1.
       -2    1    3    3    0  502 -0.23320242505E+03 -0.84384343176E+02 -0.57095847932E+03  0.62249311123E+03  0.25500000920E-02 0.  1.
</event>
<event>
 5   0  0.4803890E-02  0.4988897E+03  0.7818609E-02  0.1014069E+00
        1   -1    0    0  501    0  0.00000000000E+00  0.00000000000E+00  0.12939244856E+03  0.12939244866E+03  0.50400001928E-02 0.  1.
       -1   -1    0    0    0  501  0.00000000000E+00  0.00000000000E+00 -0.48088388777E+03  0.48088388780E+03  0.50400001928E-02 0. -1.
    10030    2    1    2    0    0  0.00000000000E+00  0.00000000000E+00 -0.35149143921E+03  0.61027633646E+03  0.49888974233E+03 0.  0.
        5    1    3    3  502    0  0.17706364668E+03  0.30292444551E+02 -0.38738004077E+03  0.42702992069E+03  0.46999998093E+01 0. -1.
       -5    1    3    3    0  502 -0.17706364668E+03 -0.30292444551E+02  0.35888601565E+02  0.18324641577E+03  0.46999998093E+01 0.  1.
</event>
<event>
 5   0  0.7776070E-02  0.5056591E+03  0.7818609E-02  0.1012312E+00
       -2   -1    0    0    0  501  0.00000000000E+00  0.00000000000E+00  0.46151767737E+02  0.46151767807E+02  0.25500000920E-02 0. -1.
        2   -1    0    0  501    0  0.00000000000E+00  0.00000000000E+00 -0.13850559495E+04  0.13850559495E+04  0.25500000920E-02 0.  1.
    10030    2    1    2    0    0  0.00000000000E+00  0.00000000000E+00 -0.13389041818E+04  0.14312077173E+04  0.50565909677E+03 0.  0.
        4    1    3    3  502    0  0.36424023691E+02  0.62335761684E+02 -0.13552499376E+04  0.13571722304E+04  0.12699999809E+01 0.  1.
       -4    1    3    3    0  502 -0.36424023691E+02 -0.62335761684E+02  0.16345755851E+02  0.74035486902E+02  0.12699999809E+01 0. -1.
</event>
<event>
 5   0  0.7881060E-02  0.4983169E+03  0.7818609E-02  0.1014219E+00
        2   -1    0    0  501    0  0.00000000000E+00  0.00000000000E+00  0.79019944194E+03  0.79019944194E+03  0.25500000920E-02 0. -1.
       -2   -1    0    0    0  501  0.00000000000E+00  0.00000000000E+00 -0.78562374237E+02  0.78562374278E+02  0.25500000920E-02 0.  1.
    10030    2    1    2    0    0  0.00000000000E+00  0.00000000000E+00  0.71163706770E+03  0.86876181622E+03  0.49831694452E+03 0.  0.
        1    1    3    3  502    0  0.11814603556E+03 -0.91165285260E+01 -0.26292078202E+02  0.12137903530E+03  0.50400001928E-02 0.  1.
       -1    1    3    3    0  502 -0.11814603556E+03  0.91165285260E+01  0.73792914590E+03  0.74738278092E+03  0.50400001928E-02 0. -1.
</event>
<event>
 5   0  0.7881060E-02  0.4973044E+03  0.7818609E-02  0.1014485E+00
        2   -1    0    0  501    0  0.00000000000E+00  0.00000000000E+00  0.10757846705E+04  0.10757846705E+04  0.25500000920E-02 0.  1.
       -2   -1    0    0    0  501  0.00000000000E+00  0.00000000000E+00 -0.57472382927E+02  0.57472382983E+02  0.25500000920E-02 0. -1.
    10030    2    1    2    0    0  0.00000000000E+00  0.00000000000E+00  0.10183122875E+04  0.11332570534E+04  0.49730436781E+03 0.  0.
        1    1    3    3  502    0  0.57930071103E+02  0.14125220155E+03  0.95640407813E+03  0.96851269391E+03  0.50400001928E-02 0.  1.
       -1    1    3    3    0  502 -0.57930071103E+02 -0.14125220155E+03  0.61908209404E+02  0.16474435953E+03  0.50400001928E-02 0. -1.
</event>
<event>
 5   0  0.4865501E-02  0.5444425E+03  0.7818609E-02  0.1002789E+00
        1   -1    0    0  501    0  0.00000000000E+00  0.00000000000E+00  0.72678692420E+03  0.72678692421E+03  0.50400001928E-02 0.  1.
       -1   -1    0    0    0  501  0.00000000000E+00  0.00000000000E+00 -0.10196168722E+03  0.10196168734E+03  0.50400001928E-02 0. -1.
    10030    2    1    2    0    0  0.00000000000E+00  0.00000000000E+00  0.62482523698E+03  0.82874861156E+03  0.54444254462E+03 0.  0.
        2    1    3    3  502    0  0.25881133700E+02  0.87265000643E+02 -0.78111394569E+02  0.11994333407E+03  0.25500000920E-02 0. -1.
       -2    1    3    3    0  502 -0.25881133700E+02 -0.87265000643E+02  0.70293663155E+03  0.70880527749E+03  0.25500000920E-02 0.  1.
</event>
<event>
 5   0  0.7776070E-02  0.5181332E+03  0.7818609E-02  0.1009151E+00
       -2   -1    0    0    0  501  0.00000000000E+00  0.00000000000E+00  0.78160338599E+02  0.78160338641E+02  0.25500000920E-02 0.  1.
        2   -1    0    0  501    0  0.00000000000E+00  0.00000000000E+00 -0.85869013316E+03  0.85869013316E+03  0.25500000920E-02 0. -1.
    10030    2    1    2    0    0  0.00000000000E+00  0.00000000000E+00 -0.78052979456E+03  0.93685047181E+03  0.51813323221E+03 0.  0.
        4    1    3    3  502    0  0.15240084510E+03  0.20946635237E+03 -0.38407267204E+03  0.46326623088E+03  0.12699999809E+01 0.  1.
       -4    1    3    3    0  502 -0.15240084510E+03 -0.20946635237E+03 -0.39645712252E+03  0.47358424093E+03  0.12699999809E+01 0. -1.
</event>
<event>
 5   0  0.7776070E-02  0.5027945E+03  0.7818609E-02  0.1013052E+00
        2   -1    0    0  501    0  0.00000000000E+00  0.00000000000E+00  0.59614171159E+03  0.59614171160E+03  0.25500000920E-02 0. -1.
       -2   -1    0    0    0  501  0.00000000000E+00  0.00000000000E+00 -0.10601601824E+03  0.10601601827E+03  0.25500000920E-02 0.  1.
    10030    2    1    2    0    0  0.00000000000E+00  0.00000000000E+00  0.49012569336E+03  0.70215772986E+03  0.50279447324E+03 0.  0.
        4    1    3    3  502    0  0.52028737690E+02  0.12760661449E+03  0.53869064881E+03  0.55603926626E+03  0.12699999809E+01 0. -1.
       -4    1    3    3    0  502 -0.52028737690E+02 -0.12760661449E+03 -0.48564955457E+02  0.14611846360E+03  0.12699999809E+01 0.  1.
</event>
<event>
 5   0  0.3210875E-02  0.4993287E+03  0.7818609E-02  0.1013954E+00
        4   -1    0    0  501    0  0.00000000000E+00  0.00000000000E+00  0.32225139686E+03  0.32225389940E+03  0.12699999809E+01 0. -1.
       -4   -1    0    0    0  501  0.00000000000E+00  0.00000000000E+00 -0.19342219171E+03  0.19342636105E+03  0.12699999809E+01 0.  1.
    10030    2    1    2    0    0  0.00000000000E+00  0.00000000000E+00  0.12882920514E+03  0.51568026044E+03  0.49932871629E+03 0.  0.
        4    1    3    3  502    0  0.10355091240E+03 -0.13283545767E+03  0.25473906518E+03  0.30538771177E+03  0.12699999809E+01 0. -1.
       -4    1    3    3    0  502 -0.10355091240E+03  0.13283545767E+03 -0.12590986003E+03  0.21029254867E+03  0.12699999809E+01 0.  1.
</event>
<event>
 5   0  0.7776070E-02  0.5036460E+03  0.7818609E-02  0.1012832E+00
        2   -1    0    0  501    0  0.00000000000E+00  0.00000000000E+00  0.14063544728E+04  0.14063544729E+04  0.25500000920E-02 0. -1.
       -2   -1    0    0    0  501  0.00000000000E+00  0.00000000000E+00 -0.45091631502E+02  0.45091631574E+02  0.25500000920E-02 0.  1.
    10030    2    1    2    0    0  0.00000000000E+00  0.00000000000E+00  0.13612628413E+04  0.14514461044E+04  0.50364597766E+03 0.  0.
        4    1    3    3  502    0  0.63665336697E+02  0.14464106311E+03  0.12456477219E+04  0.12556329768E+04  0.12699999809E+01 0. -1.
       -4    1    3    3    0  502 -0.63665336697E+02 -0.14464106311E+03  0.11561511941E+03  0.19581312767E+03  0.12699999809E+01 0.  1.
</event>
<event>
 5   0  0.4884478E-02  0.5011758E+03  0.7818609E-02  0.1013472E+00
        1   -1    0    0  501    0  0.00000000000E+00  0.00000000000E+00  0.10769775723E+03  0.10769775735E+03  0.50400001928E-02 0.  1.
       -1   -1    0    0    0  501  0.00000000000E+00  0.00000000000E+00 -0.58306041569E+03  0.58306041571E+03  0.50400001928E-02 0. -1.
    10030    2    1    2    0    0  0.00000000000E+00  0.00000000000E+00 -0.47536265846E+03  0.69075817306E+03  0.50117581406E+03 0.  0.
        3    1    3    3  502    0  0.30342634693E+02 -0.14151411537E+03 -0.51962996983E+03  0.53940915461E+03  0.10100000352E+00 0. -1.
       -3    1    3    3    0  502 -0.30342634693E+02  0.14151411537E+03  0.44267311371E+02  0.15134901845E+03  0.10100000352E+00 0.  1.
</event>
<event>
 5   0  0.4803890E-02  0.5023367E+03  0.7818609E-02  0.1013171E+00
        1   -1    0    0  501    0  0.00000000000E+00  0.00000000000E+00  0.51856842548E+03  0.51856842550E+03  0.50400001928E-02 0. -1.
       -1   -1    0    0    0  501  0.00000000000E+00  0.00000000000E+00 -0.12165327600E+03  0.12165327610E+03  0.50400001928E-02 0.  1.
    10030    2    1    2    0    0  0.00000000000E+00  0.00000000000E+00  0.39691514948E+03  0.64022170160E+03  0.50233673101E+03 0.  0.
        5    1    3    3  502    0 -0.15405676949E+03 -0.17006967024E+03  0.68445662929E+02  0.23950799513E+03  0.46999998093E+01 0.  1.
       -5    1    3    3    0  502  0.15405676949E+03  0.17006967024E+03  0.32846948655E+03  0.40071370647E+03  0.46999998093E+01 0. -1.
</event>
<event>
 5   0  0.4884478E-02  0.4981459E+03  0.7818609E-02  0.1014264E+00
        1   -1    0    0  501    0  0.00000000000E+00  0.00000000000E+00  0.24559282953E+03  0.24559282958E+03  0.50400001928E-02 0. -1.
       -1   -1    0    0    0  501  0.00000000000E+00  0.00000000000E+00 -0.25260241043E+03  0.25260241048E+03  0.50400001928E-02 0.  1.
    10030    2    1    2    0    0  0.00000000000E+00  0.00000000000E+00 -0.70095808991E+01  0.49819524007E+03  0.49814592541E+03 0.  0.
        3    1    3    3  502    0 -0.12768314737E+03 -0.21346535858E+03 -0.16424471448E+02  0.24927939927E+03  0.10100000352E+00 0. -1.
       -3    1    3    3    0  502  0.12768314737E+03  0.21346535858E+03  0.94148905489E+01  0.24891584080E+03  0.10100000352E+00 0.  1.
</event>
<event>
 5   0  0.3210875E-02  0.5147367E+03  0.7818609E-02  0.1010002E+00
       -4   -1    0    0    0  501  0.00000000000E+00  0.00000000000E+00  0.14625571039E+04  0.14625576553E+04  0.12699999809E+01 0.  1.
        4   -1    0    0  501    0  0.00000000000E+00  0.00000000000E+00 -0.45280027506E+02  0.45297834285E+02  0.12699999809E+01 0. -1.
    10030    2    1    2    0    0  0.00000000000E+00  0.00000000000E+00  0.14172770764E+04  0.15078554896E+04  0.51473669598E+03 0.  0.
        1    1    3    3  502    0  0.86825613138E+02  0.71882992725E+02  0.13864108440E+04  0.13909855787E+04  0.50400001928E-02 0.  1.
       -1    1    3    3    0  502 -0.86825613138E+02 -0.71882992725E+02  0.30866232370E+02  0.11686991087E+03  0.50400001928E-02 0. -1.
</event>
<event>
 5   0  0.8208720E-02  0.4995829E+03  0.7818609E-02  0.1013888E+00
       -2   -1    0    0    0  501  0.00000000000E+00  0.00000000000E+00  0.84687482636E+02  0.84687482674E+02  0.25500000920E-02 0.  1.
        2   -1    0    0  501    0  0.00000000000E+00  0.00000000000E+00 -0.73677684683E+03  0.73677684683E+03  0.25500000920E-02 0. -1.
    10030    2    1    2    0    0  0.00000000000E+00  0.00000000000E+00 -0.65208936419E+03  0.82146432951E+03  0.49958293181E+03 0.  0.
        3    1    3    3  502    0  0.16054720000E+03  0.19123923363E+03 -0.33742703278E+03  0.41976762686E+03  0.10100000352E+00 0.  1.
       -3    1    3    3    0  502 -0.16054720000E+03 -0.19123923363E+03 -0.31466233141E+03  0.40169670265E+03  0.10100000352E+00 0. -1.
</event>
<event>
 5   0  0.7933103E-02  0.5159846E+03  0.7818609E-02  0.1009689E+00
        2   -1    0    0  501    0  0.00000000000E+00  0.00000000000E+00  0.90007247373E+03  0.90007247374E+03  0.25500000920E-02 0.  1.
       -2   -1    0    0    0  501  0.00000000000E+00  0.00000000000E+00 -0.73949618645E+02  0.73949618689E+02  0.25500000920E-02 0. -1.
    10030    2    1    2    0    0  0.00000000000E+00  0.00000000000E+00  0.82612285509E+03  0.97402209243E+03  0.51598455872E+03 0.  0.
        5    1    3    3  502    0  0.52134728218E+02  0.58665045737E+02 -0.50783246385E+02  0.93598320441E+02  0.46999998093E+01 0. -1.
       -5    1    3    3    0  502 -0.52134728218E+02 -0.58665045737E+02  0.87690610147E+03  0.88042377199E+03  0.46999998093E+01 0.  1.
</event>
<event>
 5   0  0.7698747E-02  0.5029730E+03  0.7818609E-02  0.1013006E+00
        2   -1    0    0  501    0  0.00000000000E+00  0.00000000000E+00  0.24279256765E+03  0.24279256766E+03  0.25500000920E-02 0. -1.
       -2   -1    0    0    0  501  0.00000000000E+00  0.00000000000E+00 -0.26049178119E+03  0.26049178120E+03  0.25500000920E-02 0.  1.
    10030    2    1    2    0    0  0.00000000000E+00  0.00000000000E+00 -0.17699213540E+02  0.50328434886E+03  0.50297303472E+03 0.  0.
        2    1    3    3  502    0  0.13387715026E+03  0.42257353975E+02  0.19993402203E+03  0.24429979226E+03  0.25500000920E-02 0. -1.
       -2    1    3    3    0  502 -0.13387715026E+03 -0.42257353975E+02 -0.21763323557E+03  0.25898455660E+03  0.25500000920E-02 0.  1.
</event>
<event>
 5   0  0.4865501E-02  0.4983473E+03  0.7818609E-02  0.1014211E+00
        1   -1    0    0  501    0  0.00000000000E+00  0.00000000000E+00  0.18935722520E+03  0.18935722527E+03  0.50400001928E-02 0. -1.
       -1   -1    0    0    0  501  0.00000000000E+00  0.00000000000E+00 -0.32788564206E+03  0.32788564210E+03  0.50400001928E-02 0.  1.
    10030    2    1    2    0    0  0.00000000000E+00  0.00000000000E+00 -0.13852841686E+03  0.51724286736E+03  0.49834733024E+03 0.  0.
        2    1    3    3  502    0 -0.27853369416E+02  0.23554486603E+03 -0.14851591416E+03  0.27984669172E+03  0.25500000920E-02 0.  1.
       -2    1    3    3    0  502  0.27853369416E+02 -0.23554486603E+03  0.99874973024E+01  0.23739617564E+03  0.25500000920E-02 0. -1.
</event>
<event>
 5   0  0.7881060E-02  0.5001233E+03  0.7818609E-02  0.1013747E+00
        2   -1    0    0  501    0  0.00000000000E+00  0.00000000000E+00  0.13770061645E+04  0.13770061645E+04  0.25500000920E-02 0. -1.
       -2   -1    0    0    0  501  0.00000000000E+00  0.00000000000E+00 -0.45410715819E+02  0.45410715891E+02  0.25500000920E-02 0.  1.
    10030    2    1    2    0    0  0.00000000000E+00  0.00000000000E+00  0.13315954487E+04  0.14224168804E+04  0.50012332747E+03 0.  0.
        1    1    3    3  502    0 -0.17718574052E+03  0.15550105361E+02  0.11657039741E+04  0.11791956359E+04  0.50400001928E-02 0. -1.
       -1    1    3    3    0  502  0.17718574052E+03 -0.15550105361E+02  0.16589147458E+03  0.24322124452E+03  0.50400001928E-02 0.  1.
</event>
<event>
 5   0  0.3210875E-02  0.5011393E+03  0.7818609E-02  0.1013482E+00
        3   -1    0    0  501    0  0.00000000000E+00  0.00000000000E+00  0.84020142178E+03  0.84020142785E+03  0.10100000352E+00 0. -1.
       -3   -1    0    0    0  501  0.00000000000E+00  0.00000000000E+00 -0.74726279101E+02  0.74726347357E+02  0.10100000352E+00 0.  1.
    10030    2    1    2    0    0  0.00000000000E+00  0.00000000000E+00  0.76547514268E+03  0.91492777520E+03  0.50113934169E+03 0.  0.
        2    1    3    3  502    0 -0.42518725288E+02 -0.23400327911E+03  0.52672213713E+03  0.57792870355E+03  0.25500000920E-02 0.  1.
       -2    1    3    3    0  502  0.42518725288E+02  0.23400327911E+03  0.23875300554E+03  0.33699907166E+03  0.25500000920E-02 0. -1.
</event>
<event>
 5   0  0.3210875E-02  0.4985638E+03  0.7818609E-02  0.1014154E+00
        4   -1    0    0  501    0  0.00000000000E+00  0.00000000000E+00  0.58915169858E+03  0.58915306741E+03  0.12699999809E+01 0. -1.
       -4   -1    0    0    0  501  0.00000000000E+00  0.00000000000E+00 -0.10547087807E+03  0.10547852398E+03  0.12699999809E+01 0.  1.
    10030    2    1    2    0    0  0.00000000000E+00  0.00000000000E+00  0.48368082051E+03  0.69463159138E+03  0.49856384909E+03 0.  0.
        4    1    3    3  502    0  0.22634970436E+03  0.20493311423E+01  0.38731140526E+03  0.44860910152E+03  0.12699999809E+01 0. -1.
       -4    1    3    3    0  502 -0.22634970436E+03 -0.20493311423E+01  0.96369415254E+02  0.24602248987E+03  0.12699999809E+01 0.  1.
</event>
<event>
 5   0  0.5038436E-02  0.4998481E+03  0.7818609E-02  0.1013819E+00
       -1   -1    0    0    0  501  0.00000000000E+00  0.00000000000E+00  0.18612569422E+03  0.18612569428E+03  0.50400001928E-02 0. -1.
        1   -1    0    0  501    0  0.00000000000E+00  0.00000000000E+00 -0.33559059243E+03  0.33559059247E+03  0.50400001928E-02 0.  1.
    10030    2    1    2    0    0  0.00000000000E+00  0.00000000000E+00 -0.14946489821E+03  0.52171628675E+03  0.49984810499E+03 0.  0.
        1    1    3    3  502    0 -0.65596148481E+02  0.27925427078E+02  0.17528720411E+03  0.18923078006E+03  0.50400001928E-02 0. -1.
       -1    1    3    3    0  502  0.65596148481E+02 -0.27925427078E+02 -0.32475210232E+03  0.33248550669E+03  0.50400001928E-02 0.  1.
</event>
<event>
 5   0  0.3210875E-02  0.5001967E+03  0.7818609E-02  0.1013728E+00
        3   -1    0    0  501    0  0.00000000000E+00  0.00000000000E+00  0.20412224377E+03  0.20412226875E+03  0.10100000352E+00 0. -1.
       -3   -1    0    0    0  501  0.00000000000E+00  0.00000000000E+00 -0.30643002363E+03  0.30643004027E+03  0.10100000352E+00 0.  1.
    10030    2    1    2    0    0  0.00000000000E+00  0.00000000000E+00 -0.10230777986E+03  0.51055230902E+03  0.50019673972E+03 0.  0.
        1    1    3    3  502    0  0.33715873061E+02  0.24620231126E+03 -0.22340827153E+02  0.24950240630E+03  0.50400001928E-02 0. -1.
       -1    1    3    3    0  502 -0.33715873061E+02 -0.24620231126E+03 -0.79966952706E+02  0.26104990273E+03  0.50400001928E-02 0.  1.
</event>
<event>
 5   0  0.4884478E-02  0.4989807E+03  0.7818609E-02  0.1014045E+00
       -1   -1    0    0    0  501  0.00000000000E+00  0.00000000000E+00  0.36430937404E+03  0.36430937408E+03  0.50400001928E-02 0.  1.
        1   -1    0    0  501    0  0.00000000000E+00  0.00000000000E+00 -0.17085872132E+03  0.17085872139E+03  0.50400001928E-02 0. -1.
    10030    2    1    2    0    0  0.00000000000E+00  0.00000000000E+00  0.19345065273E+03  0.53516809547E+03  0.49898069639E+03 0.  0.
        3    1    3    3  502    0 -0.26605320555E+02  0.69213246741E+02  0.35221793051E+03  0.35993860223E+03  0.10100000352E+00 0.  1.
       -3    1    3    3    0  502  0.26605320555E+02 -0.69213246741E+02 -0.15876727778E+03  0.17522949324E+03  0.10100000352E+00 0. -1.
</event>
<event>
 5   0  0.4865501E-02  0.5008908E+03  0.7818609E-02  0.1013547E+00
       -1   -1    0    0    0  501  0.00000000000E+00  0.00000000000E+00  0.31256332738E+03  0.31256332742E+03  0.50400001928E-02 0. -1.
        1   -1    0    0  501    0  0.00000000000E+00  0.00000000000E+00 -0.20067261495E+03  0.20067261502E+03  0.50400001928E-02 0.  1.
    10030    2    1    2    0    0  0.00000000000E+00  0.00000000000E+00  0.11189071242E+03  0.51323594243E+03  0.50089080754E+03 0.  0.
        2    1    3    3  502    0 -0.11829626465E+03 -0.19320606971E+03 -0.53458418438E+02  0.23276682348E+03  0.25500000920E-02 0.  1.
       -2    1    3    3    0  502  0.11829626465E+03  0.19320606971E+03  0.16534913086E+03  0.28046911895E+03  0.25500000920E-02 0. -1.
</event>
<event>
 5   0  0.4884478E-02  0.4932933E+03  0.7818609E-02  0.1015544E+00
       -1   -1    0    0    0  501  0.00000000000E+00  0.00000000000E+00  0.29136092099E+03  0.29136092103E+03  0.50400001928E-02 0.  1.
        1   -1    0    0  501    0  0.00000000000E+00  0.00000000000E+00 -0.20879452975E+03  0.20879452981E+03  0.50400001928E-02 0. -1.
    10030    2    1    2    0    0  0.00000000000E+00  0.00000000000E+00  0.82566391239E+02  0.50015545084E+03  0.49329328603E+03 0.  0.
        3    1    3    3  502    0  0.36944809016E+02 -0.78491148191E+02  0.27538198160E+03  0.28872309442E+03  0.10100000352E+00 0.  1.
       -3    1    3    3    0  502 -0.36944809016E+02  0.78491148191E+02 -0.19281559036E+03  0.21143235643E+03  0.10100000352E+00 0. -1.
</event>
<event>
 5   0  0.5191358E-02  0.5066810E+03  0.7818609E-02  0.1012050E+00
        1   -1    0    0  501    0  0.00000000000E+00  0.00000000000E+00  0.39632860296E+03  0.39632860299E+03  0.50400001928E-02 0. -1.
       -1   -1    0    0    0  501  0.00000000000E+00  0.00000000000E+00 -0.16193990470E+03  0.16193990477E+03  0.50400001928E-02 0.  1.
    10030    2    1    2    0    0  0.00000000000E+00  0.00000000000E+00  0.23438869827E+03  0.55826850777E+03  0.50668102874E+03 0.  0.
        4    1    3    3  502    0 -0.86365425688E+02  0.23493784862E+03  0.16022191763E+03  0.29719935272E+03  0.12699999809E+01 0. -1.
       -4    1    3    3    0  502  0.86365425688E+02 -0.23493784862E+03  0.74166780632E+02  0.26106915505E+03  0.12699999809E+01 0.  1.
</event>
<event>
 5   0  0.3210875E-02  0.4986953E+03  0.7818609E-02  0.1014120E+00
        4   -1    0    0  501    0  0.00000000000E+00  0.00000000000E+00  0.58373764220E+03  0.58373902373E+03  0.12699999809E+01 0.  1.
       -4   -1    0    0    0  501  0.00000000000E+00  0.00000000000E+00 -0.10650530261E+03  0.10651287426E+03  0.12699999809E+01 0. -1.
    10030    2    1    2    0    0  0.00000000000E+00  0.00000000000E+00  0.47723233960E+03  0.69025189799E+03  0.49869527442E+03 0.  0.
        3    1    3    3  502    0 -0.10777922214E+03  0.61837148121E+02  0.53783506927E+03  0.55200250502E+03  0.10100000352E+00 0.  1.
       -3    1    3    3    0  502  0.10777922214E+03 -0.61837148121E+02 -0.60602729674E+02  0.13824939297E+03  0.10100000352E+00 0. -1.
</event>
<event>
 5   0  0.7698747E-02  0.4998821E+03  0.7818609E-02  0.1013810E+00
        2   -1    0    0  501    0  0.00000000000E+00  0.00000000000E+00  0.18863875070E+03  0.18863875071E+03  0.25500000920E-02 0. -1.
       -2   -1    0    0    0  501  0.00000000000E+00  0.00000000000E+00 -0.33116491376E+03  0.33116491377E+03  0.25500000920E-02 0.  1.
    10030    2    1    2    0    0  0.00000000000E+00  0.00000000000E+00 -0.14252616306E+03  0.51980366448E+03  0.49988212856E+03 0.  0.
        2    1    3    3  502    0 -0.47091969805E+02 -0.14420948870E+02 -0.32606920179E+03  0.32976770877E+03  0.25500000920E-02 0.  1.
       -2    1    3    3    0  502  0.47091969805E+02  0.14420948870E+02  0.18354303873E+03  0.19003595570E+03  0.25500000920E-02 0. -1.
</event>
<event>
 5   0  0.4865501E-02  0.5015852E+03  0.7818609E-02  0.1013366E+00
        1   -1    0    0  501    0  0.00000000000E+00  0.00000000000E+00  0.39995473907E+03  0.39995473910E+03  0.50400001928E-02 0. -1.
       -1   -1    0    0    0  501  0.00000000000E+00  0.00000000000E+00 -0.15726010392E+03  0.15726010400E+03  0.50400001928E-02 0.  1.
    10030    2    1    2    0    0  0.00000000000E+00  0.00000000000E+00  0.24269463515E+03  0.55721484310E+03  0.50158518263E+03 0.  0.
        2    1    3    3  502    0 -0.33399046860E+02  0.19749382216E+03  0.28900834693E+03  0.35163209570E+03  0.25500000920E-02 0. -1.
       -2    1    3    3    0  502  0.33399046860E+02 -0.19749382216E+03 -0.46313711775E+02  0.20558274740E+03  0.25500000920E-02 0.  1.
</event>
<event>
 5   0  0.4803890E-02  0.4774866E+03  0.7818609E-02  0.1019828E+00
        1   -1    0    0  501    0  0.00000000000E+00  0.00000000000E+00  0.32568963657E+03  0.32568963661E+03  0.50400001928E-02 0. -1.
       -1   -1    0    0    0  501  0.00000000000E+00  0.00000000000E+00 -0.17500822577E+03  0.17500822584E+03  0.50400001928E-02 0.  1.
    10030    2    1    2    0    0  0.00000000000E+00  0.00000000000E+00  0.15068141080E+03  0.50069786245E+03  0.47748660913E+03 0.  0.
        5    1    3    3  502    0  0.20307215216E+03 -0.10257262998E+03  0.15107942684E+03  0.27314195323E+03  0.46999998093E+01 0. -1.
       -5    1    3    3    0  502 -0.20307215216E+03  0.10257262998E+03 -0.39801604187E+00  0.22755590922E+03  0.46999998093E+01 0.  1.
</event>
<event>
 5   0  0.4803890E-02  0.4968488E+03  0.7818609E-02  0.1014605E+00
       -1   -1    0    0    0  501  0.00000000000E+00  0.00000000000E+00  0.24387491978E+03  0.24387491983E+03  0.50400001928E-02 0. -1.
        1   -1    0    0  501    0  0.00000000000E+00  0.00000000000E+00 -0.25305875560E+03  0.25305875565E+03  0.50400001928E-02 0.  1.
    10030    2    1    2    0    0  0.00000000000E+00  0.00000000000E+00 -0.91838358233E+01  0.49693367549E+03  0.49684880496E+03 0.  0.
        5    1    3    3  502    0  0.61295568749E+02  0.56469191585E+02 -0.23861196490E+03  0.25279176438E+03  0.46999998093E+01 0.  1.
       -5    1    3    3    0  502 -0.61295568749E+02 -0.56469191585E+02  0.22942812908E+03  0.24414191110E+03  0.46999998093E+01 0. -1.
</event>
<event>
 5   0  0.8208720E-02  0.4869819E+03  0.7818609E-02  0.1017234E+00
        2   -1    0    0  501    0  0.00000000000E+00  0.00000000000E+00  0.42363854270E+03  0.42363854271E+03  0.25500000920E-02 0.  1.
       -2   -1    0    0    0  501  0.00000000000E+00  0.00000000000E+00 -0.13994914023E+03  0.13994914025E+03  0.25500000920E-02 0. -1.
    10030    2    1    2    0    0  0.00000000000E+00  0.00000000000E+00  0.28368940247E+03  0.56358768296E+03  0.48698192914E+03 0.  0.
        3    1    3    3  502    0  0.73365997674E+02  0.89142368803E+02 -0.10625914582E+03  0.15690744980E+03  0.10100000352E+00 0. -1.
       -3    1    3    3    0  502 -0.73365997674E+02 -0.89142368803E+02  0.38994854829E+03  0.40668023316E+03  0.10100000352E+00 0.  1.
</event>
<event>
 5   0  0.8208720E-02  0.4950712E+03  0.7818609E-02  0.1015073E+00
        2   -1    0    0  501    0  0.00000000000E+00  0.00000000000E+00  0.17968724511E+04  0.17968724511E+04  0.25500000920E-02 0. -1.
       -2   -1    0    0    0  501  0.00000000000E+00  0.00000000000E+00 -0.34100297293E+02  0.34100297388E+02  0.25500000920E-02 0.  1.
    10030    2    1    2    0    0  0.00000000000E+00  0.00000000000E+00  0.17627721538E+04  0.18309727485E+04  0.49507124686E+03 0.  0.
        3    1    3    3  502    0  0.13118034808E+03  0.13734557317E+03  0.14685100631E+04  0.14807409989E+04  0.10100000352E+00 0. -1.
       -3    1    3    3    0  502 -0.13118034808E+03 -0.13734557317E+03  0.29426209071E+03  0.35023174960E+03  0.10100000352E+00 0.  1.
</event>
<event>
 5   0  0.7776070E-02  0.4915593E+03  0.7818609E-02  0.1016006E+00
        2   -1    0    0  501    0  0.00000000000E+00  0.00000000000E+00  0.36297713369E+02  0.36297713458E+02  0.25500000920E-02 0. -1.
       -2   -1    0    0    0  501  0.00000000000E+00  0.00000000000E+00 -0.16642273263E+04  0.16642273263E+04  0.25500000920E-02 0.  1.
    10030    2    1    2    0    0  0.00000000000E+00  0.00000000000E+00 -0.16279296129E+04  0.17005250398E+04  0.49155934148E+03 0.  0.
        4    1    3    3  502    0 -0.24170725326E+03  0.36282091777E+02 -0.90332630687E+03  0.93580917716E+03  0.12699999809E+01 0. -1.
       -4    1    3    3    0  502  0.24170725326E+03 -0.36282091777E+02 -0.72460330606E+03  0.76471586260E+03  0.12699999809E+01 0.  1.
</event>
<event>
 5   0  0.8208720E-02  0.4984893E+03  0.7818609E-02  0.1014174E+00
        2   -1    0    0  501    0  0.00000000000E+00  0.00000000000E+00  0.90521697604E+03  0.90521697605E+03  0.25500000920E-02 0.  1.
       -2   -1    0    0    0  501  0.00000000000E+00  0.00000000000E+00 -0.68627620816E+02  0.68627620863E+02  0.25500000920E-02 0. -1.
    10030    2    1    2    0    0  0.00000000000E+00  0.00000000000E+00  0.83658935523E+03  0.97384459691E+03  0.49848926734E+03 0.  0.
        3    1    3    3  502    0 -0.17606773857E+03 -0.17468750925E+03  0.46643804616E+03  0.52828026232E+03  0.10100000352E+00 0.  1.
       -3    1    3    3    0  502  0.17606773857E+03  0.17468750925E+03  0.37015130907E+03  0.44556433459E+03  0.10100000352E+00 0. -1.
</event>
<event>
 5   0  0.7881060E-02  0.4980649E+03  0.7818609E-02  0.1014285E+00
        2   -1    0    0  501    0  0.00000000000E+00  0.00000000000E+00  0.11521206097E+03  0.11521206100E+03  0.25500000920E-02 0. -1.
       -2   -1    0    0    0  501  0.00000000000E+00  0.00000000000E+00 -0.53828701920E+03  0.53828701921E+03  0.25500000920E-02 0.  1.
    10030    2    1    2    0    0  0.00000000000E+00  0.00000000000E+00 -0.42307495823E+03  0.65349908021E+03  0.49806488287E+03 0.  0.
        1    1    3    3  502    0  0.19255053792E+03  0.35207916838E+02 -0.41353692566E+03  0.45752387476E+03  0.50400001928E-02 0.  1.
       -1    1    3    3    0  502 -0.19255053792E+03 -0.35207916838E+02 -0.95380325631E+01  0.19597520545E+03  0.50400001928E-02 0. -1.
</event>
<event>
 5   0  0.8208720E-02  0.5003497E+03  0.7818609E-02  0.1013688E+00
       -2   -1    0    0    0  501  0.00000000000E+00  0.00000000000E+00  0.19040806737E+03  0.19040806739E+03  0.25500000920E-02 0.  1.
        2   -1    0    0  501    0  0.00000000000E+00  0.00000000000E+00 -0.32870172827E+03  0.32870172828E+03  0.25500000920E-02 0. -1.
    10030    2    1    2    0    0  0.00000000000E+00  0.00000000000E+00 -0.13829366090E+03  0.51910979567E+03  0.50034972101E+03 0.  0.
        3    1    3    3  502    0  0.24300028251E+03 -0.21787969464E+02 -0.11721774016E+02  0.24425655181E+03  0.10100000352E+00 0.  1.
       -3    1    3    3    0  502 -0.24300028251E+03  0.21787969464E+02 -0.12657188688E+03  0.27485324386E+03  0.10100000352E+00 0. -1.
</event>
<event>
 5   0  0.7933103E-02  0.4997715E+03  0.7818609E-02  0.1013839E+00
       -2   -1    0    0    0  501  0.00000000000E+00  0.00000000000E+00  0.36662917101E+02  0.36662917190E+02  0.25500000920E-02 0.  1.
        2   -1    0    0  501    0  0.00000000000E+00  0.00000000000E+00 -0.17031617060E+04  0.17031617060E+04  0.25500000920E-02 0. -1.
    10030    2    1    2    0    0  0.00000000000E+00  0.00000000000E+00 -0.16664987889E+04  0.17398246232E+04  0.49977145383E+03 0.  0.
        5    1    3    3  502    0 -0.18068955755E+03  0.10795010710E+03 -0.36465263833E+03  0.42106481504E+03  0.46999998093E+01 0.  1.
       -5    1    3    3    0  502  0.18068955755E+03 -0.10795010710E+03 -0.13018461506E+04  0.13187598081E+04  0.46999998093E+01 0. -1.
</event>
<event>
 5   0  0.4884478E-02  0.4973864E+03  0.7818609E-02  0.1014463E+00
        1   -1    0    0  501    0  0.00000000000E+00  0.00000000000E+00  0.23320530476E+03  0.23320530481E+03  0.50400001928E-02 0.  1.
       -1   -1    0    0    0  501  0.00000000000E+00  0.00000000000E+00 -0.26520971826E+03  0.26520971831E+03  0.50400001928E-02 0. -1.
    10030    2    1    2    0    0  0.00000000000E+00  0.00000000000E+00 -0.32004413500E+02  0.49841502312E+03  0.49738642200E+03 0.  0.
        3    1    3    3  502    0 -0.18078631786E+02  0.24803143919E+03 -0.14631444828E+02  0.24911949168E+03  0.10100000352E+00 0. -1.
       -3    1    3    3    0  502  0.18078631786E+02 -0.24803143919E+03 -0.17372968672E+02  0.24929553144E+03  0.10100000352E+00 0.  1.
</event>
<event>
 5   0  0.3210875E-02  0.4980140E+03  0.7818609E-02  0.1014299E+00
        3   -1    0    0  501    0  0.00000000000E+00  0.00000000000E+00  0.20881826202E+03  0.20881828645E+03  0.10100000352E+00 0.  1.
       -3   -1    0    0    0  501  0.00000000000E+00  0.00000000000E+00 -0.29693031416E+03  0.29693033134E+03  0.10100000352E+00 0. -1.
    10030    2    1    2    0    0  0.00000000000E+00  0.00000000000E+00 -0.88112052140E+02  0.50574861779E+03  0.49801398641E+03 0.  0.
        1    1    3    3  502    0 -0.11409173411E+03  0.46086984185E+01 -0.26877611204E+03  0.29202527686E+03  0.50400001928E-02 0. -1.
       -1    1    3    3    0  502  0.11409173411E+03 -0.46086984185E+01  0.18066405990E+03  0.21372334093E+03  0.50400001928E-02 0.  1.
</event>
<event>
 5   0  0.5038436E-02  0.4976878E+03  0.7818609E-02  0.1014384E+00
        1   -1    0    0  501    0  0.00000000000E+00  0.00000000000E+00  0.68570629214E+03  0.68570629216E+03  0.50400001928E-02 0.  1.
       -1   -1    0    0    0  501  0.00000000000E+00  0.00000000000E+00 -0.90305828693E+02  0.90305828833E+02  0.50400001928E-02 0. -1.
    10030    2    1    2    0    0  0.00000000000E+00  0.00000000000E+00  0.59540046345E+03  0.77601212099E+03  0.49768775357E+03 0.  0.
        1    1    3    3  502    0  0.19499982623E+03  0.13939542066E+03  0.40191568912E+03  0.46796606364E+03  0.50400001928E-02 0.  1.
       -1    1    3    3    0  502 -0.19499982623E+03 -0.13939542066E+03  0.19348477432E+03  0.30804605735E+03  0.50400001928E-02 0. -1.
</event>
<event>
 5   0  0.4884478E-02  0.5034879E+03  0.7818609E-02  0.1012873E+00
        1   -1    0    0  501    0  0.00000000000E+00  0.00000000000E+00  0.73384460056E+02  0.73384460229E+02  0.50400001928E-02 0.  1.
       -1   -1    0    0    0  501  0.00000000000E+00  0.00000000000E+00 -0.86360281254E+03  0.86360281255E+03  0.50400001928E-02 0. -1.
    10030    2    1    2    0    0  0.00000000000E+00  0.00000000000E+00 -0.79021835248E+03  0.93698727278E+03  0.50348793904E+03 0.  0.
        3    1    3    3  502    0  0.10234776448E+03  0.67351393904E+02  0.14155783397E+02  0.12333560540E+03  0.10100000352E+00 0.  1.
       -3    1    3    3    0  502 -0.10234776448E+03 -0.67351393904E+02 -0.80437413588E+03  0.81365166738E+03  0.10100000352E+00 0. -1.
</event>
<event>
 5   0  0.5191358E-02  0.5066845E+03  0.7818609E-02  0.1012049E+00
        1   -1    0    0  501    0  0.00000000000E+00  0.00000000000E+00  0.28058089750E+03  0.28058089755E+03  0.50400001928E-02 0. -1.
       -1   -1    0    0    0  501  0.00000000000E+00  0.00000000000E+00 -0.22874792398E+03  0.22874792404E+03  0.50400001928E-02 0.  1.
    10030    2    1    2    0    0  0.00000000000E+00  0.00000000000E+00  0.51832973523E+02  0.50932882159E+03  0.50668450870E+03 0.  0.
        4    1    3    3  502    0 -0.23306668823E+03 -0.86239204764E+02 -0.23568502126E+02  0.24962846150E+03  0.12699999809E+01 0.  1.
       -4    1    3    3    0  502  0.23306668823E+03  0.86239204764E+02  0.75401475649E+02  0.25970036009E+03  0.12699999809E+01 0. -1.
</event>
<event>
 5   0  0.5191358E-02  0.5033009E+03  0.7818609E-02  0.1012921E+00
       -1   -1    0    0    0  501  0.00000000000E+00  0.00000000000E+00  0.62588305948E+02  0.62588306151E+02  0.50400001928E-02 0. -1.
        1   -1    0    0  501    0  0.00000000000E+00  0.00000000000E+00 -0.10118174899E+04  0.10118174899E+04  0.50400001928E-02 0.  1.
    10030    2    1    2    0    0  0.00000000000E+00  0.00000000000E+00 -0.94922918397E+03  0.10744057961E+04  0.50330087517E+03 0.  0.
        4    1    3    3  502    0  0.22038716997E+03  0.99424082163E+01 -0.73305642389E+03  0.76553425114E+03  0.12699999809E+01 0.  1.
       -4    1    3    3    0  502 -0.22038716997E+03 -0.99424082163E+01 -0.21617276008E+03  0.30887154493E+03  0.12699999809E+01 0. -1.
</event>
<event>
 5   0  0.7776070E-02  0.5011774E+03  0.7818609E-02  0.1013472E+00
       -2   -1    0    0    0  501  0.00000000000E+00  0.00000000000E+00  0.32315328826E+02  0.32315328927E+02  0.25500000920E-02 0. -1.
        2   -1    0    0  501    0  0.00000000000E+00  0.00000000000E+00 -0.19431859307E+04  0.19431859307E+04  0.25500000920E-02 0.  1.
    10030    2    1    2    0    0  0.00000000000E+00  0.00000000000E+00 -0.19108706019E+04  0.19755012596E+04  0.50117738346E+03 0.  0.
        4    1    3    3  502    0 -0.16376693628E+03  0.10814171931E+01 -0.17030364388E+04  0.17108931889E+04  0.12699999809E+01 0.  1.
       -4    1    3    3    0  502  0.16376693628E+03 -0.10814171931E+01 -0.20783416308E+03  0.26460807078E+03  0.12699999809E+01 0. -1.
</event>
<event>
 5   0  0.7933103E-02  0.4992724E+03  0.7818609E-02  0.1013969E+00
        2   -1    0    0  501    0  0.00000000000E+00  0.00000000000E+00  0.10032872817E+04  0.10032872817E+04  0.25500000920E-02 0. -1.
       -2   -1    0    0    0  501  0.00000000000E+00  0.00000000000E+00 -0.62114037073E+02  0.62114037126E+02  0.25500000920E-02 0.  1.
    10030    2    1    2    0    0  0.00000000000E+00  0.00000000000E+00  0.94117324462E+03  0.10654013188E+04  0.49927236431E+03 0.  0.
        5    1    3    3  502    0 -0.82008884490E+02 -0.12442173918E+03  0.89784759755E+03  0.91014209041E+03  0.46999998093E+01 0. -1.
       -5    1    3    3    0  502  0.82008884490E+02  0.12442173918E+03  0.43325647071E+02  0.15525922841E+03  0.46999998093E+01 0.  1.
</event>
<event>
 5   0  0.5191358E-02  0.4942308E+03  0.7818609E-02  0.1015296E+00
       -1   -1    0    0    0  501  0.00000000000E+00  0.00000000000E+00  0.82743650802E+02  0.82743650955E+02  0.50400001928E-02 0.  1.
        1   -1    0    0  501    0  0.00000000000E+00  0.00000000000E+00 -0.73801447276E+03  0.73801447278E+03  0.50400001928E-02 0. -1.
    10030    2    1    2    0    0  0.00000000000E+00  0.00000000000E+00 -0.65527082196E+03  0.82075812373E+03  0.49423076347E+03 0.  0.
        4    1    3    3  502    0  0.12508485981E+03 -0.10141058484E+03 -0.16356536683E+02  0.16186252829E+03  0.12699999809E+01 0.  1.
       -4    1    3    3    0  502 -0.12508485981E+03  0.10141058484E+03 -0.63891428528E+03  0.65889559545E+03  0.12699999809E+01 0. -1.
</event>
<event>
 5   0  0.8208720E-02  0.5142605E+03  0.7818609E-02  0.1010122E+00
        2   -1    0    0  501    0  0.00000000000E+00  0.00000000000E+00  0.10303645381E+04  0.10303645381E+04  0.25500000920E-02 0.  1.
       -2   -1    0    0    0  501  0.00000000000E+00  0.00000000000E+00 -0.64167541497E+02  0.64167541548E+02  0.25500000920E-02 0. -1.
    10030    2    1    2    0    0  0.00000000000E+00  0.00000000000E+00  0.96619699662E+03  0.10945320797E+04  0.51426047597E+03 0.  0.
        3    1    3    3  502    0  0.25220847712E+03 -0.25569200805E+02  0.39147880926E+03  0.46638885949E+03  0.10100000352E+00 0. -1.
       -3    1    3    3    0  502 -0.25220847712E+03  0.25569200805E+02  0.57471818736E+03  0.62814322017E+03  0.10100000352E+00 0.  1.
</event>
<event>
 5   0  0.7881060E-02  0.4990136E+03  0.7818609E-02  0.1014037E+00
       -2   -1    0    0    0  501  0.00000000000E+00  0.00000000000E+00  0.28922400545E+03  0.28922400546E+03  0.25500000920E-02 0. -1.
        2   -1    0    0  501    0  0.00000000000E+00  0.00000000000E+00 -0.21524372626E+03  0.21524372628E+03  0.25500000920E-02 0.  1.
    10030    2    1    2    0    0  0.00000000000E+00  0.00000000000E+00  0.73980279186E+02  0.50446773173E+03  0.49901363774E+03 0.  0.
        1    1    3    3  502    0  0.67609186243E+02 -0.71552608282E+02  0.26876190674E+03  0.28622323518E+03  0.50400001928E-02 0. -1.
       -1    1    3    3    0  502 -0.67609186243E+02  0.71552608282E+02 -0.19478162756E+03  0.21824449655E+03  0.50400001928E-02 0.  1.
</event>
<event>
 5   0  0.3210875E-02  0.5013762E+03  0.7818609E-02  0.1013420E+00
        3   -1    0    0  501    0  0.00000000000E+00  0.00000000000E+00  0.84956452826E+02  0.84956512862E+02  0.10100000352E+00 0.  1.
       -3   -1    0    0    0  501  0.00000000000E+00  0.00000000000E+00 -0.73972602081E+03  0.73972602771E+03  0.10100000352E+00 0. -1.
    10030    2    1    2    0    0  0.00000000000E+00  0.00000000000E+00 -0.65476956799E+03  0.82468254057E+03  0.50137621160E+03 0.  0.
        3    1    3    3  502    0 -0.24857918590E+03 -0.27327710354E+02 -0.35616243147E+03  0.43518973242E+03  0.10100000352E+00 0.  1.
       -3    1    3    3    0  502  0.24857918590E+03  0.27327710354E+02 -0.29860713652E+03  0.38949280815E+03  0.10100000352E+00 0. -1.
</event>
<event>
 5   0  0.7698747E-02  0.4997540E+03  0.7818609E-02  0.1013843E+00
       -2   -1    0    0    0  501  0.00000000000E+00  0.00000000000E+00  0.61014684267E+02  0.61014684320E+02  0.25500000920E-02 0.  1.
        2   -1    0    0  501    0  0.00000000000E+00  0.00000000000E+00 -0.10233358924E+04  0.10233358924E+04  0.25500000920E-02 0. -1.
    10030    2    1    2    0    0  0.00000000000E+00  0.00000000000E+00 -0.96232120818E+03  0.10843505768E+04  0.49975400512E+03 0.  0.
        2    1    3    3  502    0 -0.28642161717E+02 -0.21397736441E+03 -0.75417088206E+03  0.78446185712E+03  0.25500000920E-02 0. -1.
       -2    1    3    3    0  502  0.28642161717E+02  0.21397736441E+03 -0.20815032611E+03  0.29988871965E+03  0.25500000920E-02 0.  1.
</event>
<event>
 5   0  0.3210875E-02  0.5019041E+03  0.7818609E-02  0.1013283E+00
       -4   -1    0    0    0  501  0.00000000000E+00  0.00000000000E+00  0.17016435389E+03  0.17016909307E+03  0.12699999809E+01 0.  1.
        4   -1    0    0  501    0  0.00000000000E+00  0.00000000000E+00 -0.37008371558E+03  0.37008589467E+03  0.12699999809E+01 0. -1.
    10030    2    1    2    0    0  0.00000000000E+00  0.00000000000E+00 -0.19991936168E+03  0.54025498774E+03  0.50190407510E+03 0.  0.
        4    1    3    3  502    0  0.20771302162E+03 -0.64442485580E+02 -0.23473809178E+03  0.32000174676E+03  0.12699999809E+01 0. -1.
       -4    1    3    3    0  502 -0.20771302162E+03  0.64442485580E+02  0.34818730094E+02  0.22025324098E+03  0.12699999809E+01 0.  1.
</event>
<event>
 5   0  0.5191358E-02  0.5069828E+03  0.7818609E-02  0.1011972E+00
       -1   -1    0    0    0  501  0.00000000000E+00  0.00000000000E+00  0.18310572426E+03  0.18310572433E+03  0.50400001928E-02 0. -1.
        1   -1    0    0  501    0  0.00000000000E+00  0.00000000000E+00 -0.35093333006E+03  0.35093333010E+03  0.50400001928E-02 0.  1.
    10030    2    1    2    0    0  0.00000000000E+00  0.00000000000E+00 -0.16782760580E+03  0.53403905443E+03  0.50698284625E+03 0.  0.
        4    1    3    3  502    0 -0.64681390300E+02  0.24318603561E+03 -0.51735919866E+02  0.25690727601E+03  0.12699999809E+01 0. -1.
       -4    1    3    3    0  502  0.64681390300E+02 -0.24318603561E+03 -0.11609168594E+03  0.27713177842E+03  0.12699999809E+01 0.  1.
</event>
<event>
 5   0  0.7933103E-02  0.5012357E+03  0.7818609E-02  0.1013457E+00
        2   -1    0    0  501    0  0.00000000000E+00  0.00000000000E+00  0.17627821562E+04  0.17627821562E+04  0.25500000920E-02 0. -1.
       -2   -1    0    0    0  501  0.00000000000E+00  0.00000000000E+00 -0.35630784153E+02  0.35630784244E+02  0.25500000920E-02 0.  1.
    10030    2    1    2    0    0  0.00000000000E+00  0.00000000000E+00  0.17271513720E+04  0.17984129404E+04  0.50123571540E+03 0.  0.
        5    1    3    3  502    0  0.14125870107E+03  0.68604504771E+02  0.15641618784E+04  0.15720321467E+04  0.46999998093E+01 0. -1.
       -5    1    3    3    0  502 -0.14125870107E+03 -0.68604504771E+02  0.16298949367E+03  0.22638079368E+03  0.46999998093E+01 0.  1.
</event>
<event>
 5   0  0.3210875E-02  0.5025878E+03  0.7818609E-02  0.1013106E+00
        4   -1    0    0  501    0  0.00000000000E+00  0.00000000000E+00  0.52698035871E+03  0.52698188903E+03  0.12699999809E+01 0.  1.
       -4   -1    0    0    0  501  0.00000000000E+00  0.00000000000E+00 -0.11982599126E+03  0.11983272124E+03  0.12699999809E+01 0. -1.
    10030    2    1    2    0    0  0.00000000000E+00  0.00000000000E+00  0.40715436745E+03  0.64681461027E+03  0.50258776460E+03 0.  0.
        2    1    3    3  502    0  0.13164888059E+03 -0.13743346552E+03  0.41477035811E+03  0.45634837041E+03  0.25500000920E-02 0.  1.
       -2    1    3    3    0  502 -0.13164888059E+03  0.13743346552E+03 -0.76159906586E+01  0.19046623986E+03  0.25500000920E-02 0. -1.
</event>
<event>
 5   0  0.4803890E-02  0.4969986E+03  0.7818609E-02  0.1014565E+00
        1   -1    0    0  501    0  0.00000000000E+00  0.00000000000E+00  0.63933274151E+03  0.63933274153E+03  0.50400001928E-02 0. -1.
       -1   -1    0    0    0  501  0.00000000000E+00  0.00000000000E+00 -0.96588060180E+02  0.96588060311E+02  0.50400001928E-02 0.  1.
    10030    2    1    2    0    0  0.00000000000E+00  0.00000000000E+00  0.54274468133E+03  0.73592080184E+03  0.49699862924E+03 0.  0.
        5    1    3    3  502    0  0.72578441370E+02 -0.49171631526E+02 -0.72859466125E+02  0.11408799806E+03  0.46999998093E+01 0.  1.
       -5    1    3    3    0  502 -0.72578441370E+02  0.49171631526E+02  0.61560414746E+03  0.62183280378E+03  0.46999998093E+01 0. -1.
</event>
<event>
 5   0  0.5191358E-02  0.5037763E+03  0.7818609E-02  0.1012798E+00
        1   -1    0    0  501    0  0.00000000000E+00  0.00000000000E+00  0.10640962690E+04  0.10640962690E+04  0.50400001928E-02 0. -1.
       -1   -1    0    0    0  501  0.00000000000E+00  0.00000000000E+00 -0.59625848786E+02  0.59625848999E+02  0.50400001928E-02 0.  1.
    10030    2    1    2    0    0  0.00000000000E+00  0.00000000000E+00  0.10044704202E+04  0.11237221180E+04  0.50377631288E+03 0.  0.
        4    1    3    3  502    0 -0.10497941109E+03  0.21627828522E+03  0.66988737492E+03  0.71172163195E+03  0.12699999809E+01 0.  1.
       -4    1    3    3    0  502  0.10497941109E+03 -0.21627828522E+03  0.33458304528E+03  0.41200048604E+03  0.12699999809E+01 0. -1.
</event>
<event>
 5   0  0.4884478E-02  0.4921034E+03  0.7818609E-02  0.1015861E+00
       -1   -1    0    0    0  501  0.00000000000E+00  0.00000000000E+00  0.10049806397E+03  0.10049806409E+03  0.50400001928E-02 0. -1.
        1   -1    0    0  501    0  0.00000000000E+00  0.00000000000E+00 -0.60241399710E+03  0.60241399712E+03  0.50400001928E-02 0.  1.
    10030    2    1    2    0    0  0.00000000000E+00  0.00000000000E+00 -0.50191593313E+03  0.70291206121E+03  0.49210340567E+03 0.  0.
        3    1    3    3  502    0 -0.19378551912E+03  0.39581595874E+02 -0.41896679514E+02  0.20217534991E+03  0.10100000352E+00 0. -1.
       -3    1    3    3    0  502  0.19378551912E+03 -0.39581595874E+02 -0.46001925362E+03  0.50073671131E+03  0.10100000352E+00 0.  1.
</event>
<event>
 5   0  0.3210875E-02  0.5003537E+03  0.7818609E-02  0.1013687E+00
       -3   -1    0    0    0  501  0.00000000000E+00  0.00000000000E+00  0.35124907045E+03  0.35124908497E+03  0.10100000352E+00 0. -1.
        3   -1    0    0  501    0  0.00000000000E+00  0.00000000000E+00 -0.17818823072E+03  0.17818825935E+03  0.10100000352E+00 0.  1.
    10030    2    1    2    0    0  0.00000000000E+00  0.00000000000E+00  0.17306083973E+03  0.52943734432E+03  0.50035372219E+03 0.  0.
        3    1    3    3  502    0 -0.20778969321E+03  0.36115480029E+02 -0.55855645275E+02  0.21817595608E+03  0.10100000352E+00 0.  1.
       -3    1    3    3    0  502  0.20778969321E+03 -0.36115480029E+02  0.22891648500E+03  0.31126138824E+03  0.10100000352E+00 0. -1.
</event>
<event>
 5   0  0.3210875E-02  0.5041690E+03  0.7818609E-02  0.1012696E+00
        3   -1    0    0  501    0  0.00000000000E+00  0.00000000000E+00  0.27282933237E+03  0.27282935106E+03  0.10100000352E+00 0.  1.
       -3   -1    0    0    0  501  0.00000000000E+00  0.00000000000E+00 -0.23291698591E+03  0.23291700781E+03  0.10100000352E+00 0. -1.
    10030    2    1    2    0    0  0.00000000000E+00  0.00000000000E+00  0.39912346462E+02  0.50574635887E+03  0.50416900352E+03 0.  0.
        4    1    3    3  502    0  0.17927584941E+02 -0.69413163514E+02 -0.22247201475E+03  0.23374130105E+03  0.12699999809E+01 0. -1.
       -4    1    3    3    0  502 -0.17927584941E+02  0.69413163514E+02  0.26238436121E+03  0.27200505782E+03  0.12699999809E+01 0.  1.
</event>
<event>
 5   0  0.4803890E-02  0.5025344E+03  0.7818609E-02  0.1013120E+00
        1   -1    0    0  501    0  0.00000000000E+00  0.00000000000E+00  0.62676046123E+03  0.62676046125E+03  0.50400001928E-02 0. -1.
       -1   -1    0    0    0  501  0.00000000000E+00  0.00000000000E+00 -0.10073259686E+03  0.10073259699E+03  0.50400001928E-02 0.  1.
    10030    2    1    2    0    0  0.00000000000E+00  0.00000000000E+00  0.52602786437E+03  0.72749305824E+03  0.50253441244E+03 0.  0.
        5    1    3    3  502    0 -0.49380044245E+02 -0.50620719946E+02 -0.85963206806E+02  0.11141188886E+03  0.46999998093E+01 0.  1.
       -5    1    3    3    0  502  0.49380044245E+02  0.50620719946E+02  0.61199107118E+03  0.61608116938E+03  0.46999998093E+01 0. -1.
</event>
<event>
 5   0  0.5191358E-02  0.4776766E+03  0.7818609E-02  0.1019776E+00
       -1   -1    0    0    0  501  0.00000000000E+00  0.00000000000E+00  0.39877066824E+02  0.39877067143E+02  0.50400001928E-02 0.  1.
        1   -1    0    0  501    0  0.00000000000E+00  0.00000000000E+00 -0.14304895155E+04  0.14304895155E+04  0.50400001928E-02 0. -1.
    10030    2    1    2    0    0  0.00000000000E+00  0.00000000000E+00 -0.13906124487E+04  0.14703665827E+04  0.47767656941E+03 0.  0.
        4    1    3    3  502    0  0.14358287429E+03  0.17784783296E+03 -0.90848365641E+03  0.93679776919E+03  0.12699999809E+01 0. -1.
       -4    1    3    3    0  502 -0.14358287429E+03 -0.17784783296E+03 -0.48212879226E+03  0.53356881347E+03  0.12699999809E+01 0.  1.
</event>
<event>
 5   0  0.4803890E-02  0.4999047E+03  0.7818609E-02  0.1013804E+00
       -1   -1    0    0    0  501  0.00000000000E+00  0.00000000000E+00  0.10937064090E+03  0.10937064102E+03  0.50400001928E-02 0.  1.
        1   -1    0    0  501    0  0.00000000000E+00  0.00000000000E+00 -0.57123357685E+03  0.57123357687E+03  0.50400001928E-02 0. -1.
    10030    2    1    2    0    0  0.00000000000E+00  0.00000000000E+00 -0.46186293595E+03  0.68060421789E+03  0.49990472072E+03 0.  0.
        5    1    3    3  502    0 -0.16862567454E+03 -0.95700856572E+02 -0.44559838852E+03  0.48597663103E+03  0.46999998093E+01 0. -1.
       -5    1    3    3    0  502  0.16862567454E+03  0.95700856572E+02 -0.16264547428E+02  0.19462758685E+03  0.46999998093E+01 0.  1.
</event>
<event>
 5   0  0.7881060E-02  0.5042572E+03  0.7818609E-02  0.1012674E+00
        2   -1    0    0  501    0  0.00000000000E+00  0.00000000000E+00  0.81295764502E+03  0.81295764502E+03  0.25500000920E-02 0.  1.
       -2   -1    0    0    0  501  0.00000000000E+00  0.00000000000E+00 -0.78194521838E+02  0.78194521880E+02  0.25500000920E-02 0. -1.
    10030    2    1    2    0    0  0.00000000000E+00  0.00000000000E+00  0.73476312318E+03  0.89115216690E+03  0.50425721352E+03 0.  0.
        1    1    3    3  502    0 -0.33860767120E+01 -0.21979876271E+03  0.58559218631E+03  0.62549274200E+03  0.50400001928E-02 0.  1.
       -1    1    3    3    0  502  0.33860767120E+01  0.21979876271E+03  0.14917093687E+03  0.26565942490E+03  0.50400001928E-02 0. -1.
</event>
<event>
 5   0  0.5038436E-02  0.5062370E+03  0.7818609E-02  0.1012164E+00
       -1   -1    0    0    0  501  0.00000000000E+00  0.00000000000E+00  0.50055501497E+02  0.50055501750E+02  0.50400001928E-02 0. -1.
        1   -1    0    0  501    0  0.00000000000E+00  0.00000000000E+00 -0.12799587123E+04  0.12799587123E+04  0.50400001928E-02 0.  1.
    10030    2    1    2    0    0  0.00000000000E+00  0.00000000000E+00 -0.12299032108E+04  0.13300142141E+04  0.50623700148E+03 0.  0.
        1    1    3    3  502    0 -0.21616999435E+03  0.13025161756E+03 -0.66576202084E+03  0.71199299066E+03  0.50400001928E-02 0. -1.
       -1    1    3    3    0  502  0.21616999435E+03 -0.13025161756E+03 -0.56414118999E+03  0.61802122342E+03  0.50400001928E-02 0.  1.
</event>
<event>
 5   0  0.7776070E-02  0.5012199E+03  0.7818609E-02  0.1013461E+00
       -2   -1    0    0    0  501  0.00000000000E+00  0.00000000000E+00  0.11439802717E+03  0.11439802720E+03  0.25500000920E-02 0.  1.
        2   -1    0    0  501    0  0.00000000000E+00  0.00000000000E+00 -0.54900717878E+03  0.54900717879E+03  0.25500000920E-02 0. -1.
    10030    2    1    2    0    0  0.00000000000E+00  0.00000000000E+00 -0.43460915161E+03  0.66340520598E+03  0.50121986459E+03 0.  0.
        4    1    3    3  502    0 -0.13900812198E+03  0.10292520882E+03 -0.45733255151E+03  0.48894941677E+03  0.12699999809E+01 0. -1.
       -4    1    3    3    0  502  0.13900812198E+03 -0.10292520882E+03  0.22723399900E+02  0.17445578921E+03  0.12699999809E+01 0.  1.
</event>
<event>
 5   0  0.7933103E-02  0.4996883E+03  0.7818609E-02  0.1013860E+00
       -2   -1    0    0    0  501  0.00000000000E+00  0.00000000000E+00  0.55568106328E+02  0.55568106387E+02  0.25500000920E-02 0.  1.
        2   -1    0    0  501    0  0.00000000000E+00  0.00000000000E+00 -0.11233438005E+04  0.11233438005E+04  0.25500000920E-02 0. -1.
    10030    2    1    2    0    0  0.00000000000E+00  0.00000000000E+00 -0.10677756941E+04  0.11789119069E+04  0.49968825395E+03 0.  0.
        5    1    3    3  502    0 -0.67999158248E+02 -0.43849457784E+00 -0.11009826250E+04  0.11030906166E+04  0.46999998093E+01 0. -1.
       -5    1    3    3    0  502  0.67999158248E+02  0.43849457784E+00  0.33206930891E+02  0.75821290264E+02  0.46999998093E+01 0.  1.
</event>
<event>
 5   0  0.3210875E-02  0.4906943E+03  0.7818609E-02  0.1016237E+00
        4   -1    0    0  501    0  0.00000000000E+00  0.00000000000E+00  0.69429776594E+02  0.69441390956E+02  0.12699999809E+01 0. -1.
       -4   -1    0    0    0  501  0.00000000000E+00  0.00000000000E+00 -0.86690974655E+03  0.86691067681E+03  0.12699999809E+01 0.  1.
    10030    2    1    2    0    0  0.00000000000E+00  0.00000000000E+00 -0.79747996996E+03  0.93635206777E+03  0.49069429620E+03 0.  0.
        1    1    3    3  502    0 -0.16025363330E+03 -0.49257348379E+01 -0.75312314919E+03  0.76999997904E+03  0.50400001928E-02 0.  1.
       -1    1    3    3    0  502  0.16025363330E+03  0.49257348379E+01 -0.44356820769E+02  0.16635208873E+03  0.50400001928E-02 0. -1.
</event>
<event>
 5   0  0.5038436E-02  0.5030954E+03  0.7818609E-02  0.1012974E+00
        1   -1    0    0  501    0  0.00000000000E+00  0.00000000000E+00  0.73343614731E+03  0.73343614733E+03  0.50400001928E-02 0.  1.
       -1   -1    0    0    0  501  0.00000000000E+00  0.00000000000E+00 -0.86273698375E+02  0.86273698522E+02  0.50400001928E-02 0. -1.
    10030    2    1    2    0    0  0.00000000000E+00  0.00000000000E+00  0.64716244894E+03  0.81970984585E+03  0.50309541448E+03 0.  0.
        1    1    3    3  502    0 -0.21844949791E+03 -0.10146822778E+03  0.44175295302E+03  0.50315172256E+03  0.50400001928E-02 0.  1.
       -1    1    3    3    0  502  0.21844949791E+03  0.10146822778E+03  0.20540949592E+03  0.31655812330E+03  0.50400001928E-02 0. -1.
</event>
<event>
 5   0  0.7698747E-02  0.4980374E+03  0.7818609E-02  0.1014292E+00
        2   -1    0    0  501    0  0.00000000000E+00  0.00000000000E+00  0.74833132986E+03  0.74833132986E+03  0.25500000920E-02 0.  1.
       -2   -1    0    0    0  501  0.00000000000E+00  0.00000000000E+00 -0.82864787850E+02  0.82864787889E+02  0.25500000920E-02 0. -1.
    10030    2    1    2    0    0  0.00000000000E+00  0.00000000000E+00  0.66546654201E+03  0.83119611775E+03  0.49803741590E+03 0.  0.
        2    1    3    3  502    0 -0.22510816116E+03 -0.45832826125E+00  0.15503649476E+03  0.27333168312E+03  0.25500000920E-02 0. -1.
       -2    1    3    3    0  502  0.22510816116E+03  0.45832826125E+00  0.51043004725E+03  0.55786443463E+03  0.25500000920E-02 0.  1.
</event>
<event>
 5   0  0.4884478E-02  0.5499989E+03  0.7818609E-02  0.1001494E+00
       -1   -1    0    0    0  501  0.00000000000E+00  0.00000000000E+00  0.13324169409E+03  0.13324169419E+03  0.50400001928E-02 0.  1.
        1   -1    0    0  501    0  0.00000000000E+00  0.00000000000E+00 -0.56757523402E+03  0.56757523405E+03  0.50400001928E-02 0. -1.
    10030    2    1    2    0    0  0.00000000000E+00  0.00000000000E+00 -0.43433353993E+03  0.70081692823E+03  0.54999885726E+03 0.  0.
        3    1    3    3  502    0  0.83146782670E+02 -0.21372448506E+03 -0.41055021828E+03  0.47025847671E+03  0.10100000352E+00 0. -1.
       -3    1    3    3    0  502 -0.83146782670E+02  0.21372448506E+03 -0.23783321650E+02  0.23055845153E+03  0.10100000352E+00 0.  1.
</event>
<event>
 5   0  0.4884478E-02  0.4999988E+03  0.7818609E-02  0.1013779E+00
        1   -1    0    0  501    0  0.00000000000E+00  0.00000000000E+00  0.49239905081E+03  0.49239905084E+03  0.50400001928E-02 0.  1.
       -1   -1    0    0    0  501  0.00000000000E+00  0.00000000000E+00 -0.12692896521E+03  0.12692896531E+03  0.50400001928E-02 0. -1.
    10030    2    1    2    0    0  0.00000000000E+00  0.00000000000E+00  0.36547008560E+03  0.61932801615E+03  0.49999880811E+03 0.  0.
        3    1    3    3  502    0 -0.96102171487E+02  0.68415207746E+02  0.45575589382E+03  0.47077565035E+03  0.10100000352E+00 0.  1.
       -3    1    3    3    0  502  0.96102171487E+02 -0.68415207746E+02 -0.90285808218E+02  0.14855236579E+03  0.10100000352E+00 0. -1.
</event>
<event>
 5   0  0.7698747E-02  0.5008056E+03  0.7818609E-02  0.1013569E+00
       -2   -1    0    0    0  501  0.00000000000E+00  0.00000000000E+00  0.24523807623E+03  0.24523807625E+03  0.25500000920E-02 0. -1.
        2   -1    0    0  501    0  0.00000000000E+00  0.00000000000E+00 -0.25567625040E+03  0.25567625042E+03  0.25500000920E-02 0.  1.
    10030    2    1    2    0    0  0.00000000000E+00  0.00000000000E+00 -0.10438174172E+02  0.50091432666E+03  0.50080555825E+03 0.  0.
        2    1    3    3  502    0 -0.97546250655E+02 -0.91714539936E+02  0.20642725712E+03  0.24604682550E+03  0.25500000920E-02 0. -1.
       -2    1    3    3    0  502  0.97546250655E+02  0.91714539936E+02 -0.21686543129E+03  0.25486750116E+03  0.25500000920E-02 0.  1.
</event>
<event>
 5   0  0.4884478E-02  0.4988152E+03  0.7818609E-02  0.1014089E+00
        1   -1    0    0  501    0  0.00000000000E+00  0.00000000000E+00  0.17092137754E+04  0.17092137755E+04  0.50400001928E-02 0. -1.
       -1   -1    0    0    0  501  0.00000000000E+00  0.00000000000E+00 -0.36393425088E+02  0.36393425437E+02  0.50400001928E-02 0.  1.
    10030    2    1    2    0    0  0.00000000000E+00  0.00000000000E+00  0.16728203504E+04  0.17456072009E+04  0.49881517141E+03 0.  0.
        3    1    3    3  502    0  0.98202968540E+02 -0.10974881442E+02  0.16377885948E+04  0.16407668215E+04  0.10100000352E+00 0. -1.
       -3    1    3    3    0  502 -0.98202968540E+02  0.10974881442E+02  0.35031755548E+02  0.10484037939E+03  0.10100000352E+00 0.  1.
</event>
<event>
 5   0  0.8208720E-02  0.5044515E+03  0.7818609E-02  0.1012624E+00
       -2   -1    0    0    0  501  0.00000000000E+00  0.00000000000E+00  0.31146638432E+03  0.31146638433E+03  0.25500000920E-02 0. -1.
        2   -1    0    0  501    0  0.00000000000E+00  0.00000000000E+00 -0.20425260932E+03  0.20425260933E+03  0.25500000920E-02 0.  1.
    10030    2    1    2    0    0  0.00000000000E+00  0.00000000000E+00  0.10721377500E+03  0.51571899366E+03  0.50445147128E+03 0.  0.
        3    1    3    3  502    0  0.22759112473E+00 -0.20452877881E+03 -0.97289858744E+02  0.22648929329E+03  0.10100000352E+00 0.  1.
       -3    1    3    3    0  502 -0.22759112473E+00  0.20452877881E+03  0.20450363374E+03  0.28922970037E+03  0.10100000352E+00 0. -1.
</event>
<event>
 5   0  0.8208720E-02  0.4999543E+03  0.7818609E-02  0.1013791E+00
       -2   -1    0    0    0  501  0.00000000000E+00  0.00000000000E+00  0.13978827851E+03  0.13978827854E+03  0.25500000920E-02 0.  1.
        2   -1    0    0  501    0  0.00000000000E+00  0.00000000000E+00 -0.44702297163E+03  0.44702297163E+03  0.25500000920E-02 0. -1.
    10030    2    1    2    0    0  0.00000000000E+00  0.00000000000E+00 -0.30723469311E+03  0.58681125017E+03  0.49995428459E+03 0.  0.
        3    1    3    3  502    0  0.14185722556E+03  0.14133398249E+03 -0.32924511768E+03  0.38535843674E+03  0.10100000352E+00 0. -1.
       -3    1    3    3    0  502 -0.14185722556E+03 -0.14133398249E+03  0.22010424567E+02  0.20145281343E+03  0.10100000352E+00 0.  1.
</event>
<event>
 5   0  0.7698747E-02  0.4951418E+03  0.7818609E-02  0.1015055E+00
       -2   -1    0    0    0  501  0.00000000000E+00  0.00000000000E+00  0.18051554696E+03  0.18051554697E+03  0.25500000920E-02 0.  1.
        2   -1    0    0  501    0  0.00000000000E+00  0.00000000000E+00 -0.33953500181E+03  0.33953500182E+03  0.25500000920E-02 0. -1.
    10030    2    1    2    0    0  0.00000000000E+00  0.00000000000E+00 -0.15901945486E+03  0.52005054880E+03  0.49514178402E+03 0.  0.
        2    1    3    3  502    0 -0.17796496636E+03 -0.17026717645E+03 -0.10584930641E+03  0.26807930972E+03  0.25500000920E-02 0.  1.
       -2    1    3    3    0  502  0.17796496636E+03  0.17026717645E+03 -0.53170148449E+02  0.25197123907E+03  0.25500000920E-02 0. -1.
</event>
<event>
 5   0  0.5191358E-02  0.4980179E+03  0.7818609E-02  0.1014298E+00
        1   -1    0    0  501    0  0.00000000000E+00  0.00000000000E+00  0.17414512618E+04  0.17414512618E+04  0.50400001928E-02 0.  1.
       -1   -1    0    0    0  501  0.00000000000E+00  0.00000000000E+00 -0.35605615918E+02  0.35605616275E+02  0.50400001928E-02 0. -1.
    10030    2    1    2    0    0  0.00000000000E+00  0.00000000000E+00  0.17058456459E+04  0.17770568781E+04  0.49801785145E+03 0.  0.
        4    1    3    3  502    0 -0.22064495240E+03  0.97585104472E+02  0.10727920225E+04  0.10995869152E+04  0.12699999809E+01 0.  1.
       -4    1    3    3    0  502  0.22064495240E+03 -0.97585104472E+02  0.63305362337E+03  0.67746996287E+03  0.12699999809E+01 0. -1.
</event>
<event>
 5   0  0.7881060E-02  0.5026704E+03  0.7818609E-02  0.1013084E+00
        2   -1    0    0  501    0  0.00000000000E+00  0.00000000000E+00  0.21505636192E+03  0.21505636193E+03  0.25500000920E-02 0. -1.
       -2   -1    0    0    0  501  0.00000000000E+00  0.00000000000E+00 -0.29373406637E+03  0.29373406638E+03  0.25500000920E-02 0.  1.
    10030    2    1    2    0    0  0.00000000000E+00  0.00000000000E+00 -0.78677704451E+02  0.50879042831E+03  0.50267038779E+03 0.  0.
        1    1    3    3  502    0  0.88532524311E+01 -0.22897550029E+03 -0.14384914885E+03  0.27055634804E+03  0.50400001928E-02 0.  1.
       -1    1    3    3    0  502 -0.88532524311E+01  0.22897550029E+03  0.65171444400E+02  0.23823408027E+03  0.50400001928E-02 0. -1.
</event>
<event>
 5   0  0.7698747E-02  0.4982436E+03  0.7818609E-02  0.1014238E+00
       -2   -1    0    0    0  501  0.00000000000E+00  0.00000000000E+00  0.70558651856E+02  0.70558651902E+02  0.25500000920E-02 0. -1.
        2   -1    0    0  501    0  0.00000000000E+00  0.00000000000E+00 -0.87957581315E+03  0.87957581316E+03  0.25500000920E-02 0.  1.
    10030    2    1    2    0    0  0.00000000000E+00  0.00000000000E+00 -0.80901716130E+03  0.95013446506E+03  0.49824364965E+03 0.  0.
        2    1    3    3  502    0 -0.16288501642E+03  0.17607793777E+03 -0.27620615441E+03  0.36582073271E+03  0.25500000920E-02 0. -1.
       -2    1    3    3    0  502  0.16288501642E+03 -0.17607793777E+03 -0.53281100689E+03  0.58431373235E+03  0.25500000920E-02 0.  1.
</event>
<event>
 5   0  0.7776070E-02  0.4951142E+03  0.7818609E-02  0.1015062E+00
       -2   -1    0    0    0  501  0.00000000000E+00  0.00000000000E+00  0.42730816922E+02  0.42730816998E+02  0.25500000920E-02 0. -1.
        2   -1    0    0  501    0  0.00000000000E+00  0.00000000000E+00 -0.14341992600E+04  0.14341992600E+04  0.25500000920E-02 0.  1.
    10030    2    1    2    0    0  0.00000000000E+00  0.00000000000E+00 -0.13914684431E+04  0.14769300770E+04  0.49511415277E+03 0.  0.
        4    1    3    3  502    0 -0.22213733536E+03 -0.47593931679E+02 -0.40235537851E+03  0.46206237848E+03  0.12699999809E+01 0. -1.
       -4    1    3    3    0  502  0.22213733536E+03  0.47593931679E+02 -0.98911306460E+03  0.10148676985E+04  0.12699999809E+01 0.  1.
</event>
<event>
 5   0  0.8208720E-02  0.5014131E+03  0.7818609E-02  0.1013411E+00
        2   -1    0    0  501    0  0.00000000000E+00  0.00000000000E+00  0.15656785037E+04  0.15656785037E+04  0.25500000920E-02 0.  1.
       -2   -1    0    0    0  501  0.00000000000E+00  0.00000000000E+00 -0.40144753960E+02  0.40144754041E+02  0.25500000920E-02 0. -1.
    10030    2    1    2    0    0  0.00000000000E+00  0.00000000000E+00  0.15255337498E+04  0.16058232578E+04  0.50141311662E+03 0.  0.
        3    1    3    3  502    0  0.16923211510E+03  0.12864696242E+03  0.11884135709E+04  0.12072764288E+04  0.10100000352E+00 0. -1.
       -3    1    3    3    0  502 -0.16923211510E+03 -0.12864696242E+03  0.33712017885E+03  0.39854682901E+03  0.10100000352E+00 0.  1.
</event>
<event>
 5   0  0.3210875E-02  0.4950234E+03  0.7818609E-02  0.1015086E+00
        4   -1    0    0  501    0  0.00000000000E+00  0.00000000000E+00  0.35607046661E+03  0.35607273147E+03  0.12699999809E+01 0.  1.
       -4   -1    0    0    0  501  0.00000000000E+00  0.00000000000E+00 -0.17204515119E+03  0.17204983856E+03  0.12699999809E+01 0. -1.
    10030    2    1    2    0    0  0.00000000000E+00  0.00000000000E+00  0.18402531542E+03  0.52812257002E+03  0.49502336536E+03 0.  0.
        1    1    3    3  502    0 -0.75566894816E+02 -0.22505796416E+03  0.17327685468E+02  0.23803716418E+03  0.50400001928E-02 0. -1.
       -1    1    3    3    0  502  0.75566894816E+02  0.22505796416E+03  0.16669762995E+03  0.29008540584E+03  0.50400001928E-02 0.  1.
</event>
<event>
 5   0  0.7881060E-02  0.5013542E+03  0.7818609E-02  0.1013426E+00
       -2   -1    0    0    0  501  0.00000000000E+00  0.00000000000E+00  0.16803808409E+03  0.16803808411E+03  0.25500000920E-02 0.  1.
        2   -1    0    0  501    0  0.00000000000E+00  0.00000000000E+00 -0.37395687227E+03  0.37395687228E+03  0.25500000920E-02 0. -1.
    10030    2    1    2    0    0  0.00000000000E+00  0.00000000000E+00 -0.20591878818E+03  0.54199495638E+03  0.50135415170E+03 0.  0.
        1    1    3    3  502    0  0.94191006349E+02  0.15915626172E+03  0.79980888972E+02  0.20149343401E+03  0.50400001928E-02 0.  1.
       -1    1    3    3    0  502 -0.94191006349E+02 -0.15915626172E+03 -0.28589967715E+03  0.34050152238E+03  0.50400001928E-02 0. -1.
</event>
<event>
 5   0  0.7776070E-02  0.5071167E+03  0.7818609E-02  0.1011938E+00
        2   -1    0    0  501    0  0.00000000000E+00  0.00000000000E+00  0.43647266306E+03  0.43647266307E+03  0.25500000920E-02 0. -1.
       -2   -1    0    0    0  501  0.00000000000E+00  0.00000000000E+00 -0.14729865436E+03  0.14729865438E+03  0.25500000920E-02 0.  1.
    10030    2    1    2    0    0  0.00000000000E+00  0.00000000000E+00  0.28917400871E+03  0.58377131745E+03  0.50711669640E+03 0.  0.
        4    1    3    3  502    0 -0.21620955384E+03  0.96176522615E+02  0.39751172131E+02  0.23995471085E+03  0.12699999809E+01 0.  1.
       -4    1    3    3    0  502  0.21620955384E+03 -0.96176522615E+02  0.24942283658E+03  0.34381660660E+03  0.12699999809E+01 0. -1.
</event>
<event>
 5   0  0.5038436E-02  0.5501221E+03  0.7818609E-02  0.1001466E+00
       -1   -1    0    0    0  501  0.00000000000E+00  0.00000000000E+00  0.12950220525E+03  0.12950220535E+03  0.50400001928E-02 0. -1.
        1   -1    0    0  501    0  0.00000000000E+00  0.00000000000E+00 -0.58422609797E+03  0.58422609799E+03  0.50400001928E-02 0.  1.
    10030    2    1    2    0    0  0.00000000000E+00  0.00000000000E+00 -0.45472389272E+03  0.71372830334E+03  0.55012205226E+03 0.  0.
        1    1    3    3  502    0 -0.75853097269E+02 -0.25565952530E+02  0.11405706284E+03  0.13934246984E+03  0.50400001928E-02 0. -1.
       -1    1    3    3    0  502  0.75853097269E+02  0.25565952530E+02 -0.56878095555E+03  0.57438583350E+03  0.50400001928E-02 0.  1.
</event>
<event>
 5   0  0.3210875E-02  0.4995816E+03  0.7818609E-02  0.1013888E+00
        4   -1    0    0  501    0  0.00000000000E+00  0.00000000000E+00  0.81555795073E+03  0.81555893956E+03  0.12699999809E+01 0. -1.
       -4   -1    0    0    0  501  0.00000000000E+00  0.00000000000E+00 -0.76500137881E+02  0.76510678966E+02  0.12699999809E+01 0.  1.
    10030    2    1    2    0    0  0.00000000000E+00  0.00000000000E+00  0.73905781285E+03  0.89206961853E+03  0.49958157849E+03 0.  0.
        5    1    3    3  502    0  0.12828132062E+03 -0.11616481747E+03  0.48000876412E+02  0.17965671758E+03  0.46999998093E+01 0.  1.
       -5    1    3    3    0  502 -0.12828132062E+03  0.11616481747E+03  0.69105693644E+03  0.71241290095E+03  0.46999998093E+01 0. -1.
</event>
<event>
 5   0  0.4803890E-02  0.4779013E+03  0.7818609E-02  0.1019714E+00
       -1   -1    0    0    0  501  0.00000000000E+00  0.00000000000E+00  0.39716660573E+02  0.39716660892E+02  0.50400001928E-02 0. -1.
        1   -1    0    0  501    0  0.00000000000E+00  0.00000000000E+00 -0.14376189166E+04  0.14376189167E+04  0.50400001928E-02 0.  1.
    10030    2    1    2    0    0  0.00000000000E+00  0.00000000000E+00 -0.13979022561E+04  0.14773355775E+04  0.47790134040E+03 0.  0.
        5    1    3    3  502    0  0.20438691756E+03  0.22836112241E+02 -0.10747674753E+04  0.10942772574E+04  0.46999998093E+01 0. -1.
       -5    1    3    3    0  502 -0.20438691756E+03 -0.22836112241E+02 -0.32313478075E+03  0.38305832013E+03  0.46999998093E+01 0.  1.
</event>
<event>
 5   0  0.4803890E-02  0.5006809E+03  0.7818609E-02  0.1013601E+00
       -1   -1    0    0    0  501  0.00000000000E+00  0.00000000000E+00  0.10130450883E+03  0.10130450895E+03  0.50400001928E-02 0. -1.
        1   -1    0    0  501    0  0.00000000000E+00  0.00000000000E+00 -0.61863317966E+03  0.61863317968E+03  0.50400001928E-02 0.  1.
    10030    2    1    2    0    0  0.00000000000E+00  0.00000000000E+00 -0.51732867083E+03  0.71993768863E+03  0.50068085828E+03 0.  0.
        5    1    3    3  502    0  0.18863707211E+03  0.76550742707E+02 -0.46804938985E+03  0.51042754874E+03  0.46999998093E+01 0.  1.
       -5    1    3    3    0  502 -0.18863707211E+03 -0.76550742707E+02 -0.49279280984E+02  0.20951013989E+03  0.46999998093E+01 0. -1.
</event>
<event>
 5   0  0.5038436E-02  0.4830661E+03  0.7818609E-02  0.1018296E+00
        1   -1    0    0  501    0  0.00000000000E+00  0.00000000000E+00  0.86966585837E+03  0.86966585839E+03  0.50400001928E-02 0. -1.
       -1   -1    0    0    0  501  0.00000000000E+00  0.00000000000E+00 -0.67081178111E+02  0.67081178300E+02  0.50400001928E-02 0.  1.
    10030    2    1    2    0    0  0.00000000000E+00  0.00000000000E+00  0.80258468026E+03  0.93674703669E+03  0.48306608425E+03 0.  0.
        1    1    3    3  502    0 -0.24030797065E+03  0.24229915137E+02  0.39782297861E+03  0.46540104413E+03  0.50400001928E-02 0.  1.
       -1    1    3    3    0  502  0.24030797065E+03 -0.24229915137E+02  0.40476170165E+03  0.47134599255E+03  0.50400001928E-02 0. -1.
</event>
<event>
 5   0  0.7776070E-02  0.5000478E+03  0.7818609E-02  0.1013766E+00
       -2   -1    0    0    0  501  0.00000000000E+00  0.00000000000E+00  0.43702890286E+02  0.43702890361E+02  0.25500000920E-02 0. -1.
        2   -1    0    0  501    0  0.00000000000E+00  0.00000000000E+00 -0.14303848774E+04  0.14303848774E+04  0.25500000920E-02 0.  1.
    10030    2    1    2    0    0  0.00000000000E+00  0.00000000000E+00 -0.13866819871E+04  0.14740877678E+04  0.50004781140E+03 0.  0.
        4    1    3    3  502    0 -0.95172245003E+02 -0.29260676081E+02 -0.13694081052E+04  0.13730237124E+04  0.12699999809E+01 0.  1.
       -4    1    3    3    0  502  0.95172245003E+02  0.29260676081E+02 -0.17273881900E+02  0.10106405533E+03  0.12699999809E+01 0. -1.
</event>
<event>
 5   0  0.5038436E-02  0.5019990E+03  0.7818609E-02  0.1013258E+00
       -1   -1    0    0    0  501  0.00000000000E+00  0.00000000000E+00  0.17835322975E+03  0.17835322982E+03  0.50400001928E-02 0. -1.
        1   -1    0    0  501    0  0.00000000000E+00  0.00000000000E+00 -0.35323586070E+03  0.35323586073E+03  0.50400001928E-02 0.  1.
    10030    2    1    2    0    0  0.00000000000E+00  0.00000000000E+00 -0.17488263095E+03  0.53158909056E+03  0.50199903047E+03 0.  0.
        1    1    3    3  502    0  0.16726020639E+03  0.18596512337E+03 -0.65184507890E+02  0.25847248180E+03  0.50400001928E-02 0. -1.
       -1    1    3    3    0  502 -0.16726020639E+03 -0.18596512337E+03 -0.10969812305E+03  0.27311660876E+03  0.50400001928E-02 0.  1.
</event>
<event>
 5   0  0.7933103E-02  0.4981957E+03  0.7818609E-02  0.1014251E+00
        2   -1    0    0  501    0  0.00000000000E+00  0.00000000000E+00  0.69692254919E+02  0.69692254966E+02  0.25500000920E-02 0. -1.
       -2   -1    0    0    0  501  0.00000000000E+00  0.00000000000E+00 -0.89033916637E+03  0.89033916638E+03  0.25500000920E-02 0.  1.
    10030    2    1    2    0    0  0.00000000000E+00  0.00000000000E+00 -0.82064691145E+03  0.96003142134E+03  0.49819572126E+03 0.  0.
        5    1    3    3  502    0  0.18180316610E+03 -0.28984177250E+01 -0.82351899593E+02  0.19966150705E+03  0.46999998093E+01 0. -1.
       -5    1    3    3    0  502 -0.18180316610E+03  0.28984177250E+01 -0.73829501186E+03  0.76036991430E+03  0.46999998093E+01 0.  1.
</event>
<event>
 5   0  0.7933103E-02  0.5011734E+03  0.7818609E-02  0.1013473E+00
        2   -1    0    0  501    0  0.00000000000E+00  0.00000000000E+00  0.51626820674E+03  0.51626820675E+03  0.25500000920E-02 0.  1.
       -2   -1    0    0    0  501  0.00000000000E+00  0.00000000000E+00 -0.12162997448E+03  0.12162997451E+03  0.25500000920E-02 0. -1.
    10030    2    1    2    0    0  0.00000000000E+00  0.00000000000E+00  0.39463823226E+03  0.63789818126E+03  0.50117337847E+03 0.  0.
        5    1    3    3  502    0  0.43274521626E+02  0.53994909829E+02  0.50380850961E+03  0.50855996585E+03  0.46999998093E+01 0.  1.
       -5    1    3    3    0  502 -0.43274521626E+02 -0.53994909829E+02 -0.10917027735E+03  0.12933821541E+03  0.46999998093E+01 0. -1.
</event>
<event>
 5   0  0.7933103E-02  0.5050978E+03  0.7818609E-02  0.1012457E+00
        2   -1    0    0  501    0  0.00000000000E+00  0.00000000000E+00  0.83725387313E+03  0.83725387314E+03  0.25500000920E-02 0.  1.
       -2   -1    0    0    0  501  0.00000000000E+00  0.00000000000E+00 -0.76178737035E+02  0.76178737078E+02  0.25500000920E-02 0. -1.
    10030    2    1    2    0    0  0.00000000000E+00  0.00000000000E+00  0.76107513610E+03  0.91343261022E+03  0.50509778322E+03 0.  0.
        5    1    3    3  502    0 -0.11862604512E+03  0.18141187812E+03  0.61477214930E+03  0.65188134937E+03  0.46999998093E+01 0.  1.
       -5    1    3    3    0  502  0.11862604512E+03 -0.18141187812E+03  0.14630298680E+03  0.26155126084E+03  0.46999998093E+01 0. -1.
</event>
<event>
 5   0  0.3210875E-02  0.5013881E+03  0.7818609E-02  0.1013417E+00
       -3   -1    0    0    0  501  0.00000000000E+00  0.00000000000E+00  0.68494495839E+03  0.68494496583E+03  0.10100000352E+00 0.  1.
        3   -1    0    0  501    0  0.00000000000E+00  0.00000000000E+00 -0.91755531222E+02  0.91755586810E+02  0.10100000352E+00 0. -1.
    10030    2    1    2    0    0  0.00000000000E+00  0.00000000000E+00  0.59318942717E+03  0.77670055264E+03  0.50138812508E+03 0.  0.
        5    1    3    3  502    0  0.24760152679E+03 -0.35628178381E+02  0.32106558920E+03  0.40703941545E+03  0.46999998093E+01 0.  1.
       -5    1    3    3    0  502 -0.24760152679E+03  0.35628178381E+02  0.27212383796E+03  0.36966113719E+03  0.46999998093E+01 0. -1.
</event>
<event>
 5   0  0.7698747E-02  0.4985396E+03  0.7818609E-02  0.1014161E+00
        2   -1    0    0  501    0  0.00000000000E+00  0.00000000000E+00  0.71234494584E+03  0.71234494584E+03  0.25500000920E-02 0. -1.
       -2   -1    0    0    0  501  0.00000000000E+00  0.00000000000E+00 -0.87226612970E+02  0.87226613007E+02  0.25500000920E-02 0.  1.
    10030    2    1    2    0    0  0.00000000000E+00  0.00000000000E+00  0.62511833287E+03  0.79957155885E+03  0.49853961491E+03 0.  0.
        2    1    3    3  502    0  0.23183838816E+03  0.63645947843E+02  0.41816353083E+03  0.48234902656E+03  0.25500000920E-02 0. -1.
       -2    1    3    3    0  502 -0.23183838816E+03 -0.63645947843E+02  0.20695480204E+03  0.31722253229E+03  0.25500000920E-02 0.  1.
</event>
<event>
 5   0  0.5191358E-02  0.4967679E+03  0.7818609E-02  0.1014626E+00
       -1   -1    0    0    0  501  0.00000000000E+00  0.00000000000E+00  0.15300672550E+03  0.15300672558E+03  0.50400001928E-02 0. -1.
        1   -1    0    0  501    0  0.00000000000E+00  0.00000000000E+00 -0.40321490921E+03  0.40321490924E+03  0.50400001928E-02 0.  1.
    10030    2    1    2    0    0  0.00000000000E+00  0.00000000000E+00 -0.25020818371E+03  0.55622163482E+03  0.49676792555E+03 0.  0.
        4    1    3    3  502    0  0.18118800427E+02  0.71118872004E+02  0.14058561799E+03  0.15859417950E+03  0.12699999809E+01 0. -1.
       -4    1    3    3    0  502 -0.18118800427E+02 -0.71118872004E+02 -0.39079380170E+03  0.39762745533E+03  0.12699999809E+01 0.  1.
</event>
<event>
 5   0  0.7881060E-02  0.4997393E+03  0.7818609E-02  0.1013847E+00
       -2   -1    0    0    0  501  0.00000000000E+00  0.00000000000E+00  0.41767818673E+03  0.41767818674E+03  0.25500000920E-02 0. -1.
        2   -1    0    0  501    0  0.00000000000E+00  0.00000000000E+00 -0.14948071353E+03  0.14948071355E+03  0.25500000920E-02 0.  1.
    10030    2    1    2    0    0  0.00000000000E+00  0.00000000000E+00  0.26819747321E+03  0.56715890029E+03  0.49973926557E+03 0.  0.
        1    1    3    3  502    0  0.15192194093E+03  0.15352555120E+03 -0.84870298253E+01  0.21615365069E+03  0.50400001928E-02 0.  1.
       -1    1    3    3    0  502 -0.15192194093E+03 -0.15352555120E+03  0.27668450303E+03  0.35100524960E+03  0.50400001928E-02 0. -1.
</event>
<event>
 5   0  0.7933103E-02  0.4999656E+03  0.7818609E-02  0.1013788E+00
        2   -1    0    0  501    0  0.00000000000E+00  0.00000000000E+00  0.13484011131E+04  0.13484011131E+04  0.25500000920E-02 0.  1.
       -2   -1    0    0    0  501  0.00000000000E+00  0.00000000000E+00 -0.46344817629E+02  0.46344817700E+02  0.25500000920E-02 0. -1.
    10030    2    1    2    0    0  0.00000000000E+00  0.00000000000E+00  0.13020562955E+04  0.13947459308E+04  0.49996561374E+03 0.  0.
        5    1    3    3  502    0 -0.75162143162E+02  0.18690013426E+03  0.23830289624E+03  0.31207590151E+03  0.46999998093E+01 0. -1.
       -5    1    3    3    0  502  0.75162143162E+02 -0.18690013426E+03  0.10637533993E+04  0.10826700293E+04  0.46999998093E+01 0.  1.
</event>
<event>
 5   0  0.7776070E-02  0.4999381E+03  0.7818609E-02  0.1013795E+00
       -2   -1    0    0    0  501  0.00000000000E+00  0.00000000000E+00  0.13855894948E+03  0.13855894950E+03  0.25500000920E-02 0.  1.
        2   -1    0    0  501    0  0.00000000000E+00  0.00000000000E+00 -0.45095978956E+03  0.45095978957E+03  0.25500000920E-02 0. -1.
    10030    2    1    2    0    0  0.00000000000E+00  0.00000000000E+00 -0.31240084008E+03  0.58951873907E+03  0.49993805500E+03 0.  0.
        4    1    3    3  502    0  0.13780640147E+03 -0.19429748340E+03 -0.24554476665E+03  0.34210519095E+03  0.12699999809E+01 0. -1.
       -4    1    3    3    0  502 -0.13780640147E+03  0.19429748340E+03 -0.66856073428E+02  0.24741354813E+03  0.12699999809E+01 0.  1.
</event>
<event>
 5   0  0.8208720E-02  0.4993172E+03  0.7818609E-02  0.1013957E+00
        2   -1    0    0  501    0  0.00000000000E+00  0.00000000000E+00  0.14463998527E+04  0.14463998528E+04  0.25500000920E-02 0.  1.
       -2   -1    0    0    0  501  0.00000000000E+00  0.00000000000E+00 -0.43092793680E+02  0.43092793755E+02  0.25500000920E-02 0. -1.
    10030    2    1    2    0    0  0.00000000000E+00  0.00000000000E+00  0.14033070591E+04  0.14894926465E+04  0.49931717572E+03 0.  0.
        3    1    3    3  502    0  0.15521641904E+03  0.17042136504E+03  0.41562463928E+03  0.47526774493E+03  0.10100000352E+00 0.  1.
       -3    1    3    3    0  502 -0.15521641904E+03 -0.17042136504E+03  0.98768241979E+03  0.10142249016E+04  0.10100000352E+00 0. -1.
</event>
<event>
 5   0  0.7933103E-02  0.5020066E+03  0.7818609E-02  0.1013256E+00
       -2   -1    0    0    0  501  0.00000000000E+00  0.00000000000E+00  0.49925392423E+02  0.49925392488E+02  0.25500000920E-02 0. -1.
        2   -1    0    0  501    0  0.00000000000E+00  0.00000000000E+00 -0.12619359989E+04  0.12619359989E+04  0.25500000920E-02 0.  1.
    10030    2    1    2    0    0  0.00000000000E+00  0.00000000000E+00 -0.12120106065E+04  0.13118613914E+04  0.50200657367E+03 0.  0.
        5    1    3    3  502    0  0.74719392409E+02 -0.21557264046E+02  0.17528546224E+02  0.79856390891E+02  0.46999998093E+01 0. -1.
       -5    1    3    3    0  502 -0.74719392409E+02  0.21557264046E+02 -0.12295391527E+04  0.12320050005E+04  0.46999998093E+01 0.  1.
</event>
<event>
 5   0  0.5191358E-02  0.5074084E+03  0.7818609E-02  0.1011863E+00
       -1   -1    0    0    0  501  0.00000000000E+00  0.00000000000E+00  0.44116462769E+02  0.44116463057E+02  0.50400001928E-02 0. -1.
        1   -1    0    0  501    0  0.00000000000E+00  0.00000000000E+00 -0.14589974857E+04  0.14589974857E+04  0.50400001928E-02 0.  1.
    10030    2    1    2    0    0  0.00000000000E+00  0.00000000000E+00 -0.14148810229E+04  0.15031139487E+04  0.50740835026E+03 0.  0.
        4    1    3    3  502    0  0.41683499079E+02 -0.25010915029E+03 -0.73259324162E+03  0.77523323698E+03  0.12699999809E+01 0. -1.
       -4    1    3    3    0  502 -0.41683499079E+02  0.25010915029E+03 -0.68228778127E+03  0.72788071174E+03  0.12699999809E+01 0.  1.
</event>
<event>
 5   0  0.4884478E-02  0.5019170E+03  0.7818609E-02  0.1013280E+00
        1   -1    0    0  501    0  0.00000000000E+00  0.00000000000E+00  0.24196606034E+03  0.24196606039E+03  0.50400001928E-02 0.  1.
       -1   -1    0    0    0  501  0.00000000000E+00  0.00000000000E+00 -0.26028512424E+03  0.26028512428E+03  0.50400001928E-02 0. -1.
    10030    2    1    2    0    0  0.00000000000E+00  0.00000000000E+00 -0.18319063898E+02  0.50225118467E+03  0.50191698955E+03 0.  0.
        3    1    3    3  502    0  0.98251838726E+02 -0.84869432151E+02  0.20574824845E+03  0.24328706556E+03  0.10100000352E+00 0.  1.
       -3    1    3    3    0  502 -0.98251838726E+02  0.84869432151E+02 -0.22406731235E+03  0.25896411912E+03  0.10100000352E+00 0. -1.
</event>
<event>
 5   0  0.4803890E-02  0.4998669E+03  0.7818609E-02  0.1013814E+00
        1   -1    0    0  501    0  0.00000000000E+00  0.00000000000E+00  0.37509417848E+03  0.37509417851E+03  0.50400001928E-02 0. -1.
       -1   -1    0    0    0  501  0.00000000000E+00  0.00000000000E+00 -0.16653609513E+03  0.16653609520E+03  0.50400001928E-02 0.  1.
    10030    2    1    2    0    0  0.00000000000E+00  0.00000000000E+00  0.20855808335E+03  0.54163027371E+03  0.49986686155E+03 0.  0.
        5    1    3    3  502    0  0.77847132519E+02  0.11480705915E+03 -0.12094229018E+03  0.18409227150E+03  0.46999998093E+01 0.  1.
       -5    1    3    3    0  502 -0.77847132519E+02 -0.11480705915E+03  0.32950037353E+03  0.35753800222E+03  0.46999998093E+01 0. -1.
</event>
<event>
 5   0  0.7881060E-02  0.4998799E+03  0.7818609E-02  0.1013810E+00
       -2   -1    0    0    0  501  0.00000000000E+00  0.00000000000E+00  0.45327490296E+02  0.45327490368E+02  0.25500000920E-02 0.  1.
        2   -1    0    0  501    0  0.00000000000E+00  0.00000000000E+00 -0.13781917417E+04  0.13781917417E+04  0.25500000920E-02 0. -1.
    10030    2    1    2    0    0  0.00000000000E+00  0.00000000000E+00 -0.13328642514E+04  0.14235192321E+04  0.49987987698E+03 0.  0.
        1    1    3    3  502    0 -0.20496985826E+03 -0.14291112155E+03 -0.68297378324E+03  0.72724783951E+03  0.50400001928E-02 0.  1.
       -1    1    3    3    0  502  0.20496985826E+03  0.14291112155E+03 -0.64989046817E+03  0.69627139256E+03  0.50400001928E-02 0. -1.
</event>
<event>
 5   0  0.7933103E-02  0.5020558E+03  0.7818609E-02  0.1013244E+00
       -2   -1    0    0    0  501  0.00000000000E+00  0.00000000000E+00  0.10193480241E+03  0.10193480245E+03  0.25500000920E-02 0. -1.
        2   -1    0    0  501    0  0.00000000000E+00  0.00000000000E+00 -0.61818938245E+03  0.61818938246E+03  0.25500000920E-02 0.  1.
    10030    2    1    2    0    0  0.00000000000E+00  0.00000000000E+00 -0.51625458004E+03  0.72012418490E+03  0.50205582386E+03 0.  0.
        5    1    3    3  502    0  0.19056471921E+03 -0.22344787253E+02 -0.26051627768E+02  0.19368783914E+03  0.46999998093E+01 0. -1.
       -5    1    3    3    0  502 -0.19056471921E+03  0.22344787253E+02 -0.49020295227E+03  0.52643634576E+03  0.46999998093E+01 0.  1.
</event>
<event>
 5   0  0.4803890E-02  0.4990054E+03  0.7818609E-02  0.1014039E+00
        1   -1    0    0  501    0  0.00000000000E+00  0.00000000000E+00  0.86890967189E+03  0.86890967190E+03  0.50400001928E-02 0.  1.
       -1   -1    0    0    0  501  0.00000000000E+00  0.00000000000E+00 -0.71643353639E+02  0.71643353816E+02  0.50400001928E-02 0. -1.
    10030    2    1    2    0    0  0.00000000000E+00  0.00000000000E+00  0.79726631825E+03  0.94055302572E+03  0.49900542279E+03 0.  0.
        5    1    3    3  502    0  0.40609588669E+02 -0.14591450892E+03  0.77224044177E+03  0.78696732620E+03  0.46999998093E+01 0.  1.
       -5    1    3    3    0  502 -0.40609588669E+02  0.14591450892E+03  0.25025876481E+02  0.15358569952E+03  0.46999998093E+01 0. -1.
</event>
<event>
 5   0  0.5038436E-02  0.5009021E+03  0.7818609E-02  0.1013544E+00
        1   -1    0    0  501    0  0.00000000000E+00  0.00000000000E+00  0.16712531356E+04  0.16712531356E+04  0.50400001928E-02 0. -1.
       -1   -1    0    0    0  501  0.00000000000E+00  0.00000000000E+00 -0.37532156285E+02  0.37532156624E+02  0.50400001928E-02 0.  1.
    10030    2    1    2    0    0  0.00000000000E+00  0.00000000000E+00  0.16337209793E+04  0.17087852922E+04  0.50090212286E+03 0.  0.
        1    1    3    3  502    0 -0.20221966867E+02 -0.11719838903E+03  0.15687765946E+04  0.15732782316E+04  0.50400001928E-02 0. -1.
       -1    1    3    3    0  502  0.20221966867E+02  0.11719838903E+03  0.64944384680E+02  0.13550706056E+03  0.50400001928E-02 0.  1.
</event>
<event>
 5   0  0.3210875E-02  0.5029503E+03  0.7818609E-02  0.1013012E+00
        3   -1    0    0  501    0  0.00000000000E+00  0.00000000000E+00  0.34746073388E+03  0.34746074856E+03  0.10100000352E+00 0.  1.
       -3   -1    0    0    0  501  0.00000000000E+00  0.00000000000E+00 -0.18200539796E+03  0.18200542598E+03  0.10100000352E+00 0. -1.
    10030    2    1    2    0    0  0.00000000000E+00  0.00000000000E+00  0.16545533593E+03  0.52946617454E+03  0.50295025778E+03 0.  0.
        5    1    3    3  502    0 -0.13182537794E+03 -0.75084769196E+02  0.29380276698E+03  0.33069292209E+03  0.46999998093E+01 0.  1.
       -5    1    3    3    0  502  0.13182537794E+03  0.75084769196E+02 -0.12834743106E+03  0.19877325245E+03  0.46999998093E+01 0. -1.
</event>
<event>
 5   0  0.7698747E-02  0.4985529E+03  0.7818609E-02  0.1014157E+00
       -2   -1    0    0    0  501  0.00000000000E+00  0.00000000000E+00  0.34772858001E+02  0.34772858095E+02  0.25500000920E-02 0. -1.
        2   -1    0    0  501    0  0.00000000000E+00  0.00000000000E+00 -0.17869897541E+04  0.17869897541E+04  0.25500000920E-02 0.  1.
    10030    2    1    2    0    0  0.00000000000E+00  0.00000000000E+00 -0.17522168961E+04  0.18217626122E+04  0.49855287004E+03 0.  0.
        2    1    3    3  502    0  0.16931130070E+03 -0.35994862298E+02 -0.22063975743E+03  0.28043510698E+03  0.25500000920E-02 0. -1.
       -2    1    3    3    0  502 -0.16931130070E+03  0.35994862298E+02 -0.15315771387E+04  0.15413275052E+04  0.25500000920E-02 0.  1.
</event>
<event>
 5   0  0.5191358E-02  0.4973828E+03  0.7818609E-02  0.1014464E+00
        1   -1    0    0  501    0  0.00000000000E+00  0.00000000000E+00  0.31589403431E+03  0.31589403435E+03  0.50400001928E-02 0.  1.
       -1   -1    0    0    0  501  0.00000000000E+00  0.00000000000E+00 -0.19578533308E+03  0.19578533315E+03  0.50400001928E-02 0. -1.
    10030    2    1    2    0    0  0.00000000000E+00  0.00000000000E+00  0.12010870122E+03  0.51167936749E+03  0.49738282541E+03 0.  0.
        4    1    3    3  502    0 -0.17844159693E+03 -0.29033847786E+02  0.23573000839E+03  0.29707678736E+03  0.12699999809E+01 0. -1.
       -4    1    3    3    0  502  0.17844159693E+03  0.29033847786E+02 -0.11562130717E+03  0.21460258014E+03  0.12699999809E+01 0.  1.
</event>
<event>
 5   0  0.7776070E-02  0.5022883E+03  0.7818609E-02  0.1013183E+00
        2   -1    0    0  501    0  0.00000000000E+00  0.00000000000E+00  0.13303309613E+03  0.13303309615E+03  0.25500000920E-02 0. -1.
       -2   -1    0    0    0  501  0.00000000000E+00  0.00000000000E+00 -0.47411801896E+03  0.47411801897E+03  0.25500000920E-02 0.  1.
    10030    2    1    2    0    0  0.00000000000E+00  0.00000000000E+00 -0.34108492283E+03  0.60715111512E+03  0.50228831562E+03 0.  0.
        4    1    3    3  502    0 -0.19396981330E+03  0.14696349577E+03 -0.95547868946E+02  0.26144514859E+03  0.12699999809E+01 0. -1.
       -4    1    3    3    0  502  0.19396981330E+03 -0.14696349577E+03 -0.24553705388E+03  0.34570596653E+03  0.12699999809E+01 0.  1.
</event>
<event>
 5   0  0.7881060E-02  0.4976801E+03  0.7818609E-02  0.1014386E+00
        2   -1    0    0  501    0  0.00000000000E+00  0.00000000000E+00  0.37013730302E+03  0.37013730303E+03  0.25500000920E-02 0.  1.
       -2   -1    0    0    0  501  0.00000000000E+00  0.00000000000E+00 -0.16729299962E+03  0.16729299964E+03  0.25500000920E-02 0. -1.
    10030    2    1    2    0    0  0.00000000000E+00  0.00000000000E+00  0.20284430340E+03  0.53743030267E+03  0.49768013704E+03 0.  0.
        1    1    3    3  502    0  0.11578353838E+02 -0.17848840472E+03 -0.85396173640E+02  0.19820362104E+03  0.50400001928E-02 0. -1.
       -1    1    3    3    0  502 -0.11578353838E+02  0.17848840472E+03  0.28824047704E+03  0.33922668163E+03  0.50400001928E-02 0.  1.
</event>
<event>
 5   0  0.3210875E-02  0.5027843E+03  0.7818609E-02  0.1013055E+00
        4   -1    0    0  501    0  0.00000000000E+00  0.00000000000E+00  0.83566268211E+03  0.83566364715E+03  0.12699999809E+01 0.  1.
       -4   -1    0    0    0  501  0.00000000000E+00  0.00000000000E+00 -0.75619880416E+02  0.75630544187E+02  0.12699999809E+01 0. -1.
    10030    2    1    2    0    0  0.00000000000E+00  0.00000000000E+00  0.76004280169E+03  0.91129419133E+03  0.50278429049E+03 0.  0.
        2    1    3    3  502    0 -0.25019358076E+03 -0.24030365427E+02  0.37119315916E+03  0.44828411497E+03  0.25500000920E-02 0.  1.
       -2    1    3    3    0  502  0.25019358076E+03  0.24030365427E+02  0.38884964253E+03  0.46301007637E+03  0.25500000920E-02 0. -1.
</event>
<event>
 5   0  0.5038436E-02  0.4976626E+03  0.7818609E-02  0.1014391E+00
       -1   -1    0    0    0  501  0.00000000000E+00  0.00000000000E+00  0.48789271007E+02  0.48789271267E+02  0.50400001928E-02 0.  1.
        1   -1    0    0  501    0  0.00000000000E+00  0.00000000000E+00 -0.12690705335E+04  0.12690705335E+04  0.50400001928E-02 0. -1.
    10030    2    1    2    0    0  0.00000000000E+00  0.00000000000E+00 -0.12202812625E+04  0.13178598048E+04  0.49766264221E+03 0.  0.
        1    1    3    3  502    0 -0.21607092853E+03  0.88881269212E+02 -0.83686644791E+03  0.86886821661E+03  0.50400001928E-02 0. -1.
       -1    1    3    3    0  502  0.21607092853E+03 -0.88881269212E+02 -0.38341481457E+03  0.44899158815E+03  0.50400001928E-02 0.  1.
</event>
<event>
 5   0  0.4803890E-02  0.4965832E+03  0.7818609E-02  0.1014675E+00
        1   -1    0    0  501    0  0.00000000000E+00  0.00000000000E+00  0.18525384700E+04  0.18525384700E+04  0.50400001928E-02 0. -1.
       -1   -1    0    0    0  501  0.00000000000E+00  0.00000000000E+00 -0.33277964073E+02  0.33277964455E+02  0.50400001928E-02 0.  1.
    10030    2    1    2    0    0  0.00000000000E+00  0.00000000000E+00  0.18192605059E+04  0.18858164344E+04  0.49658316127E+03 0.  0.
        5    1    3    3  502    0 -0.13831746715E+03  0.94388338242E+02  0.16055912169E+04  0.16143067014E+04  0.46999998093E+01 0. -1.
       -5    1    3    3    0  502  0.13831746715E+03 -0.94388338242E+02  0.21366928895E+03  0.27150973307E+03  0.46999998093E+01 0.  1.
</event>
<event>
 5   0  0.7776070E-02  0.5047034E+03  0.7818609E-02  0.1012559E+00
       -2   -1    0    0    0  501  0.00000000000E+00  0.00000000000E+00  0.59728083222E+02  0.59728083276E+02  0.25500000920E-02 0. -1.
        2   -1    0    0  501    0  0.00000000000E+00  0.00000000000E+00 -0.10661881394E+04  0.10661881394E+04  0.25500000920E-02 0.  1.
    10030    2    1    2    0    0  0.00000000000E+00  0.00000000000E+00 -0.10064600562E+04  0.11259162227E+04  0.50470337408E+03 0.  0.
        4    1    3    3  502    0 -0.79013922258E+02  0.23965186176E+03 -0.49902898251E+03  0.55920278347E+03  0.12699999809E+01 0. -1.
       -4    1    3    3    0  502  0.79013922258E+02 -0.23965186176E+03 -0.50743107367E+03  0.56671343921E+03  0.12699999809E+01 0.  1.
</event>
<event>
 5   0  0.3210875E-02  0.4995251E+03  0.7818609E-02  0.1013903E+00
       -3   -1    0    0    0  501  0.00000000000E+00  0.00000000000E+00  0.85351389467E+02  0.85351449226E+02  0.10100000352E+00 0.  1.
        3   -1    0    0  501    0  0.00000000000E+00  0.00000000000E+00 -0.73087616618E+03  0.73087617316E+03  0.10100000352E+00 0. -1.
    10030    2    1    2    0    0  0.00000000000E+00  0.00000000000E+00 -0.64552477671E+03  0.81622762238E+03  0.49952506863E+03 0.  0.
        1    1    3    3  502    0  0.45409489013E+02 -0.17019101927E+03 -0.61209852919E+03  0.63693925471E+03  0.50400001928E-02 0. -1.
       -1    1    3    3    0  502 -0.45409489013E+02  0.17019101927E+03 -0.33426247524E+02  0.17928836767E+03  0.50400001928E-02 0.  1.
</event>
<event>
 5   0  0.5191358E-02  0.4970059E+03  0.7818609E-02  0.1014563E+00
       -1   -1    0    0    0  501  0.00000000000E+00  0.00000000000E+00  0.79898923544E+02  0.79898923703E+02  0.50400001928E-02 0.  1.
        1   -1    0    0  501    0  0.00000000000E+00  0.00000000000E+00 -0.77289798989E+03  0.77289798991E+03  0.50400001928E-02 0. -1.
    10030    2    1    2    0    0  0.00000000000E+00  0.00000000000E+00 -0.69299906635E+03  0.85279691361E+03  0.49700590530E+03 0.  0.
        4    1    3    3  502    0  0.59606196590E+02  0.23852534435E+02 -0.75841620502E+03  0.76112981482E+03  0.12699999809E+01 0. -1.
       -4    1    3    3    0  502 -0.59606196590E+02 -0.23852534435E+02  0.65417138665E+02  0.91667098798E+02  0.12699999809E+01 0.  1.
</event>
<event>
 5   0  0.7776070E-02  0.4769279E+03  0.7818609E-02  0.1019983E+00
        2   -1    0    0  501    0  0.00000000000E+00  0.00000000000E+00  0.75441388487E+03  0.75441388487E+03  0.25500000920E-02 0. -1.
       -2   -1    0    0    0  501  0.00000000000E+00  0.00000000000E+00 -0.75376458079E+02  0.75376458122E+02  0.25500000920E-02 0.  1.
    10030    2    1    2    0    0  0.00000000000E+00  0.00000000000E+00  0.67903742679E+03  0.82979034299E+03  0.47692786283E+03 0.  0.
        4    1    3    3  502    0  0.11893037381E+03 -0.20544775002E+03  0.37881895518E+03  0.44705550607E+03  0.12699999809E+01 0. -1.
       -4    1    3    3    0  502 -0.11893037381E+03  0.20544775002E+03  0.30021847161E+03  0.38273483693E+03  0.12699999809E+01 0.  1.
</event>
<event>
 5   0  0.3210875E-02  0.4990967E+03  0.7818609E-02  0.1014015E+00
        4   -1    0    0  501    0  0.00000000000E+00  0.00000000000E+00  0.71729494954E+03  0.71729607383E+03  0.12699999809E+01 0.  1.
       -4   -1    0    0    0  501  0.00000000000E+00  0.00000000000E+00 -0.86812524522E+02  0.86821813583E+02  0.12699999809E+01 0. -1.
    10030    2    1    2    0    0  0.00000000000E+00  0.00000000000E+00  0.63048242502E+03  0.80411788742E+03  0.49909667260E+03 0.  0.
        1    1    3    3  502    0 -0.12609187410E+03  0.16494090738E+03  0.53831205257E+03  0.57696146285E+03  0.50400001928E-02 0. -1.
       -1    1    3    3    0  502  0.12609187410E+03 -0.16494090738E+03  0.92170372446E+02  0.22715642457E+03  0.50400001928E-02 0.  1.
</event>
<event>
 5   0  0.7881060E-02  0.5017426E+03  0.7818609E-02  0.1013325E+00
       -2   -1    0    0    0  501  0.00000000000E+00  0.00000000000E+00  0.56856745784E+02  0.56856745842E+02  0.25500000920E-02 0.  1.
        2   -1    0    0  501    0  0.00000000000E+00  0.00000000000E+00 -0.11069296283E+04  0.11069296283E+04  0.25500000920E-02 0. -1.
    10030    2    1    2    0    0  0.00000000000E+00  0.00000000000E+00 -0.10500728825E+04  0.11637863741E+04  0.50174262929E+03 0.  0.
        1    1    3    3  502    0 -0.16818718990E+03 -0.14845134902E+03 -0.26455380225E+03  0.34686228994E+03  0.50400001928E-02 0.  1.
       -1    1    3    3    0  502  0.16818718990E+03  0.14845134902E+03 -0.78551908027E+03  0.81692408421E+03  0.50400001928E-02 0. -1.
</event>
<event>
 5   0  0.5038436E-02  0.4987801E+03  0.7818609E-02  0.1014098E+00
       -1   -1    0    0    0  501  0.00000000000E+00  0.00000000000E+00  0.36076601763E+02  0.36076602116E+02  0.50400001928E-02 0.  1.
        1   -1    0    0  501    0  0.00000000000E+00  0.00000000000E+00 -0.17239817470E+04  0.17239817470E+04  0.50400001928E-02 0. -1.
    10030    2    1    2    0    0  0.00000000000E+00  0.00000000000E+00 -0.16879051452E+04  0.17600583491E+04  0.49878012490E+03 0.  0.
        1    1    3    3  502    0  0.19774609409E+02  0.17766021114E+03 -0.14575980833E+04  0.14685184229E+04  0.50400001928E-02 0. -1.
       -1    1    3    3    0  502 -0.19774609409E+02 -0.17766021114E+03 -0.23030706188E+03  0.29153992622E+03  0.50400001928E-02 0.  1.
</event>
<event>
 5   0  0.5191358E-02  0.5048054E+03  0.7818609E-02  0.1012532E+00
        1   -1    0    0  501    0  0.00000000000E+00  0.00000000000E+00  0.94582925388E+02  0.94582925522E+02  0.50400001928E-02 0.  1.
       -1   -1    0    0    0  501  0.00000000000E+00  0.00000000000E+00 -0.67355839977E+03  0.67355839979E+03  0.50400001928E-02 0. -1.
    10030    2    1    2    0    0  0.00000000000E+00  0.00000000000E+00 -0.57897547438E+03  0.76814132531E+03  0.50480540381E+03 0.  0.
        4    1    3    3  502    0  0.22178179555E+03 -0.62945255853E+02 -0.44582834015E+03  0.50191014320E+03  0.12699999809E+01 0. -1.
       -4    1    3    3    0  502 -0.22178179555E+03  0.62945255853E+02 -0.13314713423E+03  0.26623118211E+03  0.12699999809E+01 0.  1.
</event>
<event>
 5   0  0.4884478E-02  0.4922788E+03  0.7818609E-02  0.1015814E+00
       -1   -1    0    0    0  501  0.00000000000E+00  0.00000000000E+00  0.76789596429E+02  0.76789596594E+02  0.50400001928E-02 0. -1.
        1   -1    0    0  501    0  0.00000000000E+00  0.00000000000E+00 -0.78896903410E+03  0.78896903412E+03  0.50400001928E-02 0.  1.
    10030    2    1    2    0    0  0.00000000000E+00  0.00000000000E+00 -0.71217943767E+03  0.86575863071E+03  0.49227883888E+03 0.  0.
        3    1    3    3  502    0 -0.68521143565E+02 -0.13328044603E+03 -0.12693881531E+02  0.15039936582E+03  0.10100000352E+00 0. -1.
       -3    1    3    3    0  502  0.68521143565E+02  0.13328044603E+03 -0.69948555614E+03  0.71535926489E+03  0.10100000352E+00 0.  1.
</event>
<event>
 5   0  0.8208720E-02  0.5012793E+03  0.7818609E-02  0.1013446E+00
       -2   -1    0    0    0  501  0.00000000000E+00  0.00000000000E+00  0.12607550713E+03  0.12607550715E+03  0.25500000920E-02 0. -1.
        2   -1    0    0  501    0  0.00000000000E+00  0.00000000000E+00 -0.49827470935E+03  0.49827470936E+03  0.25500000920E-02 0.  1.
    10030    2    1    2    0    0  0.00000000000E+00  0.00000000000E+00 -0.37219920223E+03  0.62435021651E+03  0.50127931009E+03 0.  0.
        3    1    3    3  502    0  0.38236739832E+02  0.24114645180E+02  0.12095591885E+03  0.12912749084E+03  0.10100000352E+00 0. -1.
       -3    1    3    3    0  502 -0.38236739832E+02 -0.24114645180E+02 -0.49315512107E+03  0.49522272568E+03  0.10100000352E+00 0.  1.
</event>
<event>
 5   0  0.7698747E-02  0.5042344E+03  0.7818609E-02  0.1012680E+00
       -2   -1    0    0    0  501  0.00000000000E+00  0.00000000000E+00  0.30238111412E+02  0.30238111520E+02  0.25500000920E-02 0.  1.
        2   -1    0    0  501    0  0.00000000000E+00  0.00000000000E+00 -0.21020854304E+04  0.21020854304E+04  0.25500000920E-02 0. -1.
    10030    2    1    2    0    0  0.00000000000E+00  0.00000000000E+00 -0.20718473190E+04  0.21323235419E+04  0.50423444372E+03 0.  0.
        2    1    3    3  502    0 -0.23206976343E+03  0.89234586754E+02 -0.85932709467E+03  0.89457377684E+03  0.25500000920E-02 0. -1.
       -2    1    3    3    0  502  0.23206976343E+03 -0.89234586754E+02 -0.12125202243E+04  0.12377497651E+04  0.25500000920E-02 0.  1.
</event>
<event>
 5   0  0.4865501E-02  0.5017101E+03  0.7818609E-02  0.1013334E+00
        1   -1    0    0  501    0  0.00000000000E+00  0.00000000000E+00  0.55929280417E+03  0.55929280420E+03  0.50400001928E-02 0.  1.
       -1   -1    0    0    0  501  0.00000000000E+00  0.00000000000E+00 -0.11251396418E+03  0.11251396430E+03  0.50400001928E-02 0. -1.
    10030    2    1    2    0    0  0.00000000000E+00  0.00000000000E+00  0.44677883999E+03  0.67180676849E+03  0.50171007796E+03 0.  0.
        2    1    3    3  502    0  0.28836420297E+02 -0.17373253228E+03 -0.15821089638E+02  0.17681866075E+03  0.25500000920E-02 0. -1.
       -2    1    3    3    0  502 -0.28836420297E+02  0.17373253228E+03  0.46259992963E+03  0.49498810774E+03  0.25500000920E-02 0.  1.
</event>
<event>
 5   0  0.7776070E-02  0.4974106E+03  0.7818609E-02  0.1014457E+00
        2   -1    0    0  501    0  0.00000000000E+00  0.00000000000E+00  0.92649763785E+03  0.92649763785E+03  0.25500000920E-02 0. -1.
       -2   -1    0    0    0  501  0.00000000000E+00  0.00000000000E+00 -0.66761443006E+02  0.66761443055E+02  0.25500000920E-02 0.  1.
    10030    2    1    2    0    0  0.00000000000E+00  0.00000000000E+00  0.85973619484E+03  0.99325908091E+03  0.49741057194E+03 0.  0.
        4    1    3    3  502    0 -0.24839118378E+03  0.94123222548E+01  0.41365359972E+03  0.48259474246E+03  0.12699999809E+01 0. -1.
       -4    1    3    3    0  502  0.24839118378E+03 -0.94123222548E+01  0.44608259513E+03  0.51066433845E+03  0.12699999809E+01 0.  1.
</event>
<event>
 5   0  0.7933103E-02  0.5009799E+03  0.7818609E-02  0.1013523E+00
        2   -1    0    0  501    0  0.00000000000E+00  0.00000000000E+00  0.17035860649E+04  0.17035860649E+04  0.25500000920E-02 0. -1.
       -2   -1    0    0    0  501  0.00000000000E+00  0.00000000000E+00 -0.36831256288E+02  0.36831256376E+02  0.25500000920E-02 0.  1.
    10030    2    1    2    0    0  0.00000000000E+00  0.00000000000E+00  0.16667548086E+04  0.17404173213E+04  0.50097989998E+03 0.  0.
        5    1    3    3  502    0  0.89608870716E+02 -0.58662070406E+01  0.21175901061E+02  0.92383282470E+02  0.46999998093E+01 0.  1.
       -5    1    3    3    0  502 -0.89608870716E+02  0.58662070406E+01  0.16455789076E+04  0.16480340388E+04  0.46999998093E+01 0. -1.
</event>
<event>
 5   0  0.5191358E-02  0.5014742E+03  0.7818609E-02  0.1013395E+00
       -1   -1    0    0    0  501  0.00000000000E+00  0.00000000000E+00  0.47443450979E+03  0.47443450982E+03  0.50400001928E-02 0.  1.
        1   -1    0    0  501    0  0.00000000000E+00  0.00000000000E+00 -0.13251376459E+03  0.13251376469E+03  0.50400001928E-02 0. -1.
    10030    2    1    2    0    0  0.00000000000E+00  0.00000000000E+00  0.34192074520E+03  0.60694827451E+03  0.50147423855E+03 0.  0.
        4    1    3    3  502    0  0.80457345402E+02 -0.99204863001E+02 -0.90180326044E+02  0.15636205863E+03  0.12699999809E+01 0. -1.
       -4    1    3    3    0  502 -0.80457345402E+02  0.99204863001E+02  0.43210107124E+03  0.45058621588E+03  0.12699999809E+01 0.  1.
</event>
<event>
 5   0  0.7881060E-02  0.5019319E+03  0.7818609E-02  0.1013276E+00
       -2   -1    0    0    0  501  0.00000000000E+00  0.00000000000E+00  0.14162528937E+03  0.14162528939E+03  0.25500000920E-02 0.  1.
        2   -1    0    0  501    0  0.00000000000E+00  0.00000000000E+00 -0.44472210527E+03  0.44472210528E+03  0.25500000920E-02 0. -1.
    10030    2    1    2    0    0  0.00000000000E+00  0.00000000000E+00 -0.30309681590E+03  0.58634739467E+03  0.50193185536E+03 0.  0.
        1    1    3    3  502    0  0.13083768000E+03  0.22324601346E+02 -0.40036556380E+03  0.42179316143E+03  0.50400001928E-02 0. -1.
       -1    1    3    3    0  502 -0.13083768000E+03 -0.22324601346E+02  0.97268747898E+02  0.16455423323E+03  0.50400001928E-02 0.  1.
</event>
<event>
 5   0  0.5038436E-02  0.5014385E+03  0.7818609E-02  0.1013404E+00
        1   -1    0    0  501    0  0.00000000000E+00  0.00000000000E+00  0.48940921717E+02  0.48940921976E+02  0.50400001928E-02 0. -1.
       -1   -1    0    0    0  501  0.00000000000E+00  0.00000000000E+00 -0.12844083825E+04  0.12844083825E+04  0.50400001928E-02 0.  1.
    10030    2    1    2    0    0  0.00000000000E+00  0.00000000000E+00 -0.12354674608E+04  0.13333493045E+04  0.50143845198E+03 0.  0.
        1    1    3    3  502    0 -0.17499685675E+03  0.63607960398E+02 -0.10641868152E+04  0.10803533913E+04  0.50400001928E-02 0.  1.
       -1    1    3    3    0  502  0.17499685675E+03 -0.63607960398E+02 -0.17128064561E+03  0.25299591318E+03  0.50400001928E-02 0. -1.
</event>
<event>
 5   0  0.7881060E-02  0.5044698E+03  0.7818609E-02  0.1012619E+00
       -2   -1    0    0    0  501  0.00000000000E+00  0.00000000000E+00  0.11283912232E+04  0.11283912232E+04  0.25500000920E-02 0.  1.
        2   -1    0    0  501    0  0.00000000000E+00  0.00000000000E+00 -0.56383328268E+02  0.56383328326E+02  0.25500000920E-02 0. -1.
    10030    2    1    2    0    0  0.00000000000E+00  0.00000000000E+00  0.10720078949E+04  0.11847745515E+04  0.50446983175E+03 0.  0.
        1    1    3    3  502    0  0.20507254022E+03  0.23972044440E+02  0.87628538388E+03  0.90028077826E+03  0.50400001928E-02 0.  1.
       -1    1    3    3    0  502 -0.20507254022E+03 -0.23972044440E+02  0.19572251101E+03  0.28449377323E+03  0.50400001928E-02 0. -1.
</event>
<event>
 5   0  0.4865501E-02  0.4734184E+03  0.7818609E-02  0.1020960E+00
       -1   -1    0    0    0  501  0.00000000000E+00  0.00000000000E+00  0.71990482785E+02  0.71990482962E+02  0.50400001928E-02 0. -1.
        1   -1    0    0  501    0  0.00000000000E+00  0.00000000000E+00 -0.77831463709E+03  0.77831463710E+03  0.50400001928E-02 0.  1.
    10030    2    1    2    0    0  0.00000000000E+00  0.00000000000E+00 -0.70632415430E+03  0.85030512007E+03  0.47341840507E+03 0.  0.
        2    1    3    3  502    0 -0.23148657063E+03  0.25138636375E+02 -0.27667992990E+03  0.36162102682E+03  0.25500000920E-02 0. -1.
       -2    1    3    3    0  502  0.23148657063E+03 -0.25138636375E+02 -0.42964422440E+03  0.48868409324E+03  0.25500000920E-02 0.  1.
</event>
<event>
 5   0  0.7698747E-02  0.4987371E+03  0.7818609E-02  0.1014109E+00
        2   -1    0    0  501    0  0.00000000000E+00  0.00000000000E+00  0.64257912458E+03  0.64257912458E+03  0.25500000920E-02 0.  1.
       -2   -1    0    0    0  501  0.00000000000E+00  0.00000000000E+00 -0.96773565642E+02  0.96773565675E+02  0.25500000920E-02 0. -1.
    10030    2    1    2    0    0  0.00000000000E+00  0.00000000000E+00  0.54580555894E+03  0.73935269026E+03  0.49873709750E+03 0.  0.
        2    1    3    3  502    0 -0.18298909858E+03 -0.12699824555E+03  0.10668909683E+03  0.24697394187E+03  0.25500000920E-02 0. -1.
       -2    1    3    3    0  502  0.18298909858E+03  0.12699824555E+03  0.43911646210E+03  0.49237874839E+03  0.25500000920E-02 0.  1.
</event>
<event>
 5   0  0.7698747E-02  0.4989556E+03  0.7818609E-02  0.1014052E+00
       -2   -1    0    0    0  501  0.00000000000E+00  0.00000000000E+00  0.15433941235E+03  0.15433941237E+03  0.25500000920E-02 0.  1.
        2   -1    0    0  501    0  0.00000000000E+00  0.00000000000E+00 -0.40326174105E+03  0.40326174106E+03  0.25500000920E-02 0. -1.
    10030    2    1    2    0    0  0.00000000000E+00  0.00000000000E+00 -0.24892232870E+03  0.55760115342E+03  0.49895562986E+03 0.  0.
        2    1    3    3  502    0  0.32421850649E+02  0.61552596481E+02  0.14327988713E+03  0.15927656638E+03  0.25500000920E-02 0.  1.
       -2    1    3    3    0  502 -0.32421850649E+02 -0.61552596481E+02 -0.39220221583E+03  0.39832458705E+03  0.25500000920E-02 0. -1.
</event>
<event>
 5   0  0.5191358E-02  0.4997121E+03  0.7818609E-02  0.1013854E+00
        1   -1    0    0  501    0  0.00000000000E+00  0.00000000000E+00  0.16817742311E+03  0.16817742318E+03  0.50400001928E-02 0. -1.
       -1   -1    0    0    0  501  0.00000000000E+00  0.00000000000E+00 -0.37120343779E+03  0.37120343782E+03  0.50400001928E-02 0.  1.
    10030    2    1    2    0    0  0.00000000000E+00  0.00000000000E+00 -0.20302601468E+03  0.53938086101E+03  0.49971206768E+03 0.  0.
        4    1    3    3  502    0 -0.10584893131E+03  0.17072589886E+03 -0.26188443472E+03  0.33005514517E+03  0.12699999809E+01 0.  1.
       -4    1    3    3    0  502  0.10584893131E+03 -0.17072589886E+03  0.58858420046E+02  0.20932571584E+03  0.12699999809E+01 0. -1.
</event>
<event>
 5   0  0.4803890E-02  0.5018989E+03  0.7818609E-02  0.1013284E+00
       -1   -1    0    0    0  501  0.00000000000E+00  0.00000000000E+00  0.39976908204E+03  0.39976908207E+03  0.50400001928E-02 0. -1.
        1   -1    0    0  501    0  0.00000000000E+00  0.00000000000E+00 -0.15753002942E+03  0.15753002950E+03  0.50400001928E-02 0.  1.
    10030    2    1    2    0    0  0.00000000000E+00  0.00000000000E+00  0.24223905262E+03  0.55729911156E+03  0.50189893518E+03 0.  0.
        5    1    3    3  502    0  0.10061595036E+03 -0.26506177331E+02  0.37463536735E+03  0.38884430737E+03  0.46999998093E+01 0. -1.
       -5    1    3    3    0  502 -0.10061595036E+03  0.26506177331E+02 -0.13239631473E+03  0.16845480419E+03  0.46999998093E+01 0.  1.
</event>
<event>
 5   0  0.3210875E-02  0.5030727E+03  0.7818609E-02  0.1012980E+00
       -4   -1    0    0    0  501  0.00000000000E+00  0.00000000000E+00  0.52755799910E+03  0.52755952774E+03  0.12699999809E+01 0. -1.
        4   -1    0    0  501    0  0.00000000000E+00  0.00000000000E+00 -0.11992587757E+03  0.11993260195E+03  0.12699999809E+01 0.  1.
    10030    2    1    2    0    0  0.00000000000E+00  0.00000000000E+00  0.40763212153E+03  0.64749212970E+03  0.50307267022E+03 0.  0.
        1    1    3    3  502    0  0.18521758568E+01  0.64083225072E+02  0.51687020547E+03  0.52083097030E+03  0.50400001928E-02 0. -1.
       -1    1    3    3    0  502 -0.18521758568E+01 -0.64083225072E+02 -0.10923808394E+03  0.12666115940E+03  0.50400001928E-02 0.  1.
</event>
<event>
 5   0  0.8208720E-02  0.4989357E+03  0.7818609E-02  0.1014057E+00
       -2   -1    0    0    0  501  0.00000000000E+00  0.00000000000E+00  0.68369924639E+03  0.68369924639E+03  0.25500000920E-02 0. -1.
        2   -1    0    0  501    0  0.00000000000E+00  0.00000000000E+00 -0.91025720092E+02  0.91025720128E+02  0.25500000920E-02 0.  1.
    10030    2    1    2    0    0  0.00000000000E+00  0.00000000000E+00  0.59267352630E+03  0.77472496652E+03  0.49893573231E+03 0.  0.
        3    1    3    3  502    0 -0.25144490556E+02  0.24054896589E+03  0.20140060910E+03  0.31473523150E+03  0.10100000352E+00 0.  1.
       -3    1    3    3    0  502  0.25144490556E+02 -0.24054896589E+03  0.39127291719E+03  0.45998973502E+03  0.10100000352E+00 0. -1.
</event>
<event>
 5   0  0.3210875E-02  0.4992342E+03  0.7818609E-02  0.1013979E+00
        4   -1    0    0  501    0  0.00000000000E+00  0.00000000000E+00  0.89139621792E+02  0.89148668376E+02  0.12699999809E+01 0. -1.
       -4   -1    0    0    0  501  0.00000000000E+00  0.00000000000E+00 -0.69895604766E+03  0.69895720145E+03  0.12699999809E+01 0.  1.
    10030    2    1    2    0    0  0.00000000000E+00  0.00000000000E+00 -0.60981642587E+03  0.78810586983E+03  0.49923420235E+03 0.  0.
        3    1    3    3  502    0 -0.23574540907E+03 -0.77047343692E+02 -0.34946070599E+03  0.42852652928E+03  0.10100000352E+00 0. -1.
       -3    1    3    3    0  502  0.23574540907E+03  0.77047343692E+02 -0.26035571988E+03  0.35957934054E+03  0.10100000352E+00 0.  1.
</event>
<event>
 5   0  0.5038436E-02  0.5069134E+03  0.7818609E-02  0.1011990E+00
       -1   -1    0    0    0  501  0.00000000000E+00  0.00000000000E+00  0.28458455520E+03  0.28458455524E+03  0.50400001928E-02 0.  1.
        1   -1    0    0  501    0  0.00000000000E+00  0.00000000000E+00 -0.22573361821E+03  0.22573361827E+03  0.50400001928E-02 0. -1.
    10030    2    1    2    0    0  0.00000000000E+00  0.00000000000E+00  0.58850936986E+02  0.51031817351E+03  0.50691341019E+03 0.  0.
        1    1    3    3  502    0 -0.55268826264E+02 -0.15190716617E+03 -0.16710323717E+03  0.23249499390E+03  0.50400001928E-02 0. -1.
       -1    1    3    3    0  502  0.55268826264E+02  0.15190716617E+03  0.22595417415E+03  0.27782317962E+03  0.50400001928E-02 0.  1.
</event>
<event>
 5   0  0.7881060E-02  0.4977252E+03  0.7818609E-02  0.1014374E+00
        2   -1    0    0  501    0  0.00000000000E+00  0.00000000000E+00  0.87801851299E+03  0.87801851299E+03  0.25500000920E-02 0. -1.
       -2   -1    0    0    0  501  0.00000000000E+00  0.00000000000E+00 -0.70536782604E+02  0.70536782650E+02  0.25500000920E-02 0.  1.
    10030    2    1    2    0    0  0.00000000000E+00  0.00000000000E+00  0.80748173038E+03  0.94855529564E+03  0.49772522940E+03 0.  0.
        1    1    3    3  502    0  0.24115813887E+03  0.59428318593E+02  0.37399431712E+03  0.44895514504E+03  0.50400001928E-02 0.  1.
       -1    1    3    3    0  502 -0.24115813887E+03 -0.59428318593E+02  0.43348741326E+03  0.49960015060E+03  0.50400001928E-02 0. -1.
</event>
<event>
 5   0  0.4803890E-02  0.4990190E+03  0.7818609E-02  0.1014035E+00
       -1   -1    0    0    0  501  0.00000000000E+00  0.00000000000E+00  0.17646940399E+03  0.17646940406E+03  0.50400001928E-02 0.  1.
        1   -1    0    0  501    0  0.00000000000E+00  0.00000000000E+00 -0.35278063452E+03  0.35278063456E+03  0.50400001928E-02 0. -1.
    10030    2    1    2    0    0  0.00000000000E+00  0.00000000000E+00 -0.17631123054E+03  0.52925003862E+03  0.49901899099E+03 0.  0.
        5    1    3    3  502    0  0.42671932433E+02  0.17494197353E+02 -0.34817311921E+03  0.35124571413E+03  0.46999998093E+01 0. -1.
       -5    1    3    3    0  502 -0.42671932433E+02 -0.17494197353E+02  0.17186188867E+03  0.17800432448E+03  0.46999998093E+01 0.  1.
</event>
<event>
 5   0  0.4803890E-02  0.4986347E+03  0.7818609E-02  0.1014136E+00
        1   -1    0    0  501    0  0.00000000000E+00  0.00000000000E+00  0.44558553552E+03  0.44558553555E+03  0.50400001928E-02 0.  1.
       -1   -1    0    0    0  501  0.00000000000E+00  0.00000000000E+00 -0.13949991156E+03  0.13949991166E+03  0.50400001928E-02 0. -1.
    10030    2    1    2    0    0  0.00000000000E+00  0.00000000000E+00  0.30608562395E+03  0.58508544720E+03  0.49863470731E+03 0.  0.
        5    1    3    3  502    0  0.42183282615E+02 -0.13270274751E+03 -0.89558241408E+02  0.16562674039E+03  0.46999998093E+01 0. -1.
       -5    1    3    3    0  502 -0.42183282615E+02  0.13270274751E+03  0.39564386536E+03  0.41945870682E+03  0.46999998093E+01 0.  1.
</event>
<event>
 5   0  0.7698747E-02  0.4909260E+03  0.7818609E-02  0.1016175E+00
        2   -1    0    0  501    0  0.00000000000E+00  0.00000000000E+00  0.56436447911E+03  0.56436447912E+03  0.25500000920E-02 0.  1.
       -2   -1    0    0    0  501  0.00000000000E+00  0.00000000000E+00 -0.10676094034E+03  0.10676094037E+03  0.25500000920E-02 0. -1.
    10030    2    1    2    0    0  0.00000000000E+00  0.00000000000E+00  0.45760353877E+03  0.67112541949E+03  0.49092599237E+03 0.  0.
        2    1    3    3  502    0 -0.30153519617E+02 -0.15932234876E+03 -0.23120536753E+02  0.16379073473E+03  0.25500000920E-02 0. -1.
       -2    1    3    3    0  502  0.30153519617E+02  0.15932234876E+03  0.48072407552E+03  0.50733468475E+03  0.25500000920E-02 0.  1.
</event>
<event>
 5   0  0.7698747E-02  0.5048596E+03  0.7818609E-02  0.1012518E+00
       -2   -1    0    0    0  501  0.00000000000E+00  0.00000000000E+00  0.52247491907E+02  0.52247491969E+02  0.25500000920E-02 0. -1.
        2   -1    0    0  501    0  0.00000000000E+00  0.00000000000E+00 -0.12195955541E+04  0.12195955541E+04  0.25500000920E-02 0.  1.
    10030    2    1    2    0    0  0.00000000000E+00  0.00000000000E+00 -0.11673480622E+04  0.12718430461E+04  0.50485961964E+03 0.  0.
        2    1    3    3  502    0 -0.16528540717E+03 -0.19062738251E+03 -0.56371914230E+03  0.61760613354E+03  0.25500000920E-02 0. -1.
       -2    1    3    3    0  502  0.16528540717E+03  0.19062738251E+03 -0.60362891993E+03  0.65423691257E+03  0.25500000920E-02 0.  1.
</event>
<event>
 5   0  0.5038436E-02  0.4999912E+03  0.7818609E-02  0.1013781E+00
       -1   -1    0    0    0  501  0.00000000000E+00  0.00000000000E+00  0.81903820533E+02  0.81903820688E+02  0.50400001928E-02 0. -1.
        1   -1    0    0  501    0  0.00000000000E+00  0.00000000000E+00 -0.76306343215E+03  0.76306343216E+03  0.50400001928E-02 0.  1.
    10030    2    1    2    0    0  0.00000000000E+00  0.00000000000E+00 -0.68115961161E+03  0.84496725285E+03  0.49999124182E+03 0.  0.
        1    1    3    3  502    0  0.59857609507E+02 -0.16455227916E+03 -0.39038754464E+02  0.17940014038E+03  0.50400001928E-02 0. -1.
       -1    1    3    3    0  502 -0.59857609507E+02  0.16455227916E+03 -0.64212085715E+03  0.66556711247E+03  0.50400001928E-02 0.  1.
</event>
<event>
 5   0  0.7933103E-02  0.4994740E+03  0.7818609E-02  0.1013916E+00
        2   -1    0    0  501    0  0.00000000000E+00  0.00000000000E+00  0.11905168973E+04  0.11905168973E+04  0.25500000920E-02 0.  1.
       -2   -1    0    0    0  501  0.00000000000E+00  0.00000000000E+00 -0.52387807628E+02  0.52387807690E+02  0.25500000920E-02 0. -1.
    10030    2    1    2    0    0  0.00000000000E+00  0.00000000000E+00  0.11381290897E+04  0.12429047050E+04  0.49947400427E+03 0.  0.
        5    1    3    3  502    0  0.34027870672E+01  0.13244246138E+02 -0.51345281584E+02  0.53342449838E+02  0.46999998093E+01 0. -1.
       -5    1    3    3    0  502 -0.34027870672E+01 -0.13244246138E+02  0.11894743713E+04  0.11895622552E+04  0.46999998093E+01 0.  1.
</event>
<event>
 5   0  0.5191358E-02  0.4979118E+03  0.7818609E-02  0.1014325E+00
       -1   -1    0    0    0  501  0.00000000000E+00  0.00000000000E+00  0.11440647307E+04  0.11440647308E+04  0.50400001928E-02 0.  1.
        1   -1    0    0  501    0  0.00000000000E+00  0.00000000000E+00 -0.54174415667E+02  0.54174415902E+02  0.50400001928E-02 0. -1.
    10030    2    1    2    0    0  0.00000000000E+00  0.00000000000E+00  0.10898903151E+04  0.11982391467E+04  0.49791179308E+03 0.  0.
        4    1    3    3  502    0  0.18600253214E+03 -0.14386583074E+03  0.34821077078E+03  0.42017457444E+03  0.12699999809E+01 0. -1.
       -4    1    3    3    0  502 -0.18600253214E+03  0.14386583074E+03  0.74167954430E+03  0.77806457222E+03  0.12699999809E+01 0.  1.
</event>
<event>
 5   0  0.7698747E-02  0.4974469E+03  0.7818609E-02  0.1014447E+00
       -2   -1    0    0    0  501  0.00000000000E+00  0.00000000000E+00  0.16371978376E+03  0.16371978378E+03  0.25500000920E-02 0.  1.
        2   -1    0    0  501    0  0.00000000000E+00  0.00000000000E+00 -0.37786121184E+03  0.37786121185E+03  0.25500000920E-02 0. -1.
    10030    2    1    2    0    0  0.00000000000E+00  0.00000000000E+00 -0.21414142808E+03  0.54158099562E+03  0.49744690531E+03 0.  0.
        2    1    3    3  502    0 -0.34330137135E+02 -0.39461616422E+02 -0.37180593781E+03  0.37546695311E+03  0.25500000920E-02 0. -1.
       -2    1    3    3    0  502  0.34330137135E+02  0.39461616422E+02  0.15766450972E+03  0.16611404251E+03  0.25500000920E-02 0.  1.
</event>
<event>
 5   0  0.4884478E-02  0.4995650E+03  0.7818609E-02  0.1013893E+00
       -1   -1    0    0    0  501  0.00000000000E+00  0.00000000000E+00  0.88529642148E+02  0.88529642292E+02  0.50400001928E-02 0.  1.
        1   -1    0    0  501    0  0.00000000000E+00  0.00000000000E+00 -0.70475024074E+03  0.70475024076E+03  0.50400001928E-02 0. -1.
    10030    2    1    2    0    0  0.00000000000E+00  0.00000000000E+00 -0.61622059859E+03  0.79327988305E+03  0.49956495746E+03 0.  0.
        3    1    3    3  502    0 -0.20413489865E+03  0.12402348092E+03 -0.42413216904E+03  0.48676584481E+03  0.10100000352E+00 0. -1.
       -3    1    3    3    0  502  0.20413489865E+03 -0.12402348092E+03 -0.19208842955E+03  0.30651403823E+03  0.10100000352E+00 0.  1.
</event>
<event>
 5   0  0.4803890E-02  0.4994292E+03  0.7818609E-02  0.1013928E+00
       -1   -1    0    0    0  501  0.00000000000E+00  0.00000000000E+00  0.12276516285E+03  0.12276516295E+03  0.50400001928E-02 0. -1.
        1   -1    0    0  501    0  0.00000000000E+00  0.00000000000E+00 -0.50794045713E+03  0.50794045716E+03  0.50400001928E-02 0.  1.
    10030    2    1    2    0    0  0.00000000000E+00  0.00000000000E+00 -0.38517529428E+03  0.63070562011E+03  0.49942924616E+03 0.  0.
        5    1    3    3  502    0 -0.10157774203E+03 -0.52506474314E+02 -0.47287365168E+03  0.48652497158E+03  0.46999998093E+01 0.  1.
       -5    1    3    3    0  502  0.10157774203E+03  0.52506474314E+02  0.87698357401E+02  0.14418064853E+03  0.46999998093E+01 0. -1.
</event>
<event>
 5   0  0.3210875E-02  0.5005971E+03  0.7818609E-02  0.1013623E+00
       -4   -1    0    0    0  501  0.00000000000E+00  0.00000000000E+00  0.53421570007E+03  0.53421720967E+03  0.12699999809E+01 0. -1.
        4   -1    0    0  501    0  0.00000000000E+00  0.00000000000E+00 -0.11726840352E+03  0.11727528028E+03  0.12699999809E+01 0.  1.
    10030    2    1    2    0    0  0.00000000000E+00  0.00000000000E+00  0.41694729655E+03  0.65149248994E+03  0.50059705987E+03 0.  0.
        3    1    3    3  502    0  0.15884283384E+03 -0.64538510570E+02 -0.28847832320E+02  0.17386337406E+03  0.10100000352E+00 0.  1.
       -3    1    3    3    0  502 -0.15884283384E+03  0.64538510570E+02  0.44579512887E+03  0.47762911588E+03  0.10100000352E+00 0. -1.
</event>
<event>
 5   0  0.4803890E-02  0.4978963E+03  0.7818609E-02  0.1014329E+00
       -1   -1    0    0    0  501  0.00000000000E+00  0.00000000000E+00  0.16537281120E+03  0.16537281128E+03  0.50400001928E-02 0. -1.
        1   -1    0    0  501    0  0.00000000000E+00  0.00000000000E+00 -0.37476037728E+03  0.37476037732E+03  0.50400001928E-02 0.  1.
    10030    2    1    2    0    0  0.00000000000E+00  0.00000000000E+00 -0.20938756608E+03  0.54013318859E+03  0.49789628296E+03 0.  0.
        5    1    3    3  502    0 -0.97091418951E+02 -0.13510219413E+03  0.96142757725E+02  0.19221047410E+03  0.46999998093E+01 0. -1.
       -5    1    3    3    0  502  0.97091418951E+02  0.13510219413E+03 -0.30553032381E+03  0.34792271449E+03  0.46999998093E+01 0.  1.
</event>
<event>
 5   0  0.7698747E-02  0.4987819E+03  0.7818609E-02  0.1014097E+00
       -2   -1    0    0    0  501  0.00000000000E+00  0.00000000000E+00  0.11369757125E+03  0.11369757128E+03  0.25500000920E-02 0. -1.
        2   -1    0    0  501    0  0.00000000000E+00  0.00000000000E+00 -0.54702874304E+03  0.54702874304E+03  0.25500000920E-02 0.  1.
    10030    2    1    2    0    0  0.00000000000E+00  0.00000000000E+00 -0.43333117179E+03  0.66072631432E+03  0.49878187417E+03 0.  0.
        2    1    3    3  502    0 -0.11969569992E+03 -0.14192939342E+03 -0.43723503420E+03  0.47502156629E+03  0.25500000920E-02 0.  1.
       -2    1    3    3    0  502  0.11969569992E+03  0.14192939342E+03  0.39038624189E+01  0.18570474804E+03  0.25500000920E-02 0. -1.
</event>
<event>
 5   0  0.7698747E-02  0.4979445E+03  0.7818609E-02  0.1014317E+00
        2   -1    0    0  501    0  0.00000000000E+00  0.00000000000E+00  0.51661984986E+03  0.51661984986E+03  0.25500000920E-02 0.  1.
       -2   -1    0    0    0  501  0.00000000000E+00  0.00000000000E+00 -0.11998607507E+03  0.11998607510E+03  0.25500000920E-02 0. -1.
    10030    2    1    2    0    0  0.00000000000E+00  0.00000000000E+00  0.39663377479E+03  0.63660592496E+03  0.49794452743E+03 0.  0.
        2    1    3    3  502    0 -0.34245969079E+02 -0.44427571869E+02  0.50843578497E+03  0.51152081383E+03  0.25500000920E-02 0.  1.
       -2    1    3    3    0  502  0.34245969079E+02  0.44427571869E+02 -0.11180201018E+03  0.12508511113E+03  0.25500000920E-02 0. -1.
</event>
<event>
 5   0  0.4865501E-02  0.5039476E+03  0.7818609E-02  0.1012754E+00
       -1   -1    0    0    0  501  0.00000000000E+00  0.00000000000E+00  0.44646899472E+02  0.44646899757E+02  0.50400001928E-02 0. -1.
        1   -1    0    0  501    0  0.00000000000E+00  0.00000000000E+00 -0.14220650615E+04  0.14220650615E+04  0.50400001928E-02 0.  1.
    10030    2    1    2    0    0  0.00000000000E+00  0.00000000000E+00 -0.13774181620E+04  0.14667119612E+04  0.50394760068E+03 0.  0.
        2    1    3    3  502    0 -0.20296210917E+03 -0.29758510366E+02 -0.11145860039E+04  0.11333054076E+04  0.25500000920E-02 0.  1.
       -2    1    3    3    0  502  0.20296210917E+03  0.29758510366E+02 -0.26283215808E+03  0.33340655366E+03  0.25500000920E-02 0. -1.
</event>
<event>
 5   0  0.7776070E-02  0.5203841E+03  0.7818609E-02  0.1008591E+00
       -2   -1    0    0    0  501  0.00000000000E+00  0.00000000000E+00  0.24745627670E+03  0.24745627672E+03  0.25500000920E-02 0.  1.
        2   -1    0    0  501    0  0.00000000000E+00  0.00000000000E+00 -0.27358324254E+03  0.27358324255E+03  0.25500000920E-02 0. -1.
    10030    2    1    2    0    0  0.00000000000E+00  0.00000000000E+00 -0.26126965840E+02  0.52103951927E+03  0.52038405269E+03 0.  0.
        4    1    3    3  502    0 -0.24994374159E+03  0.46900162973E+02  0.42021979627E+02  0.25775755841E+03  0.12699999809E+01 0.  1.
       -4    1    3    3    0  502  0.24994374159E+03 -0.46900162973E+02 -0.68148945467E+02  0.26328196086E+03  0.12699999809E+01 0. -1.
</event>
<event>
 5   0  0.4803890E-02  0.5087046E+03  0.7818609E-02  0.1011532E+00
        1   -1    0    0  501    0  0.00000000000E+00  0.00000000000E+00  0.42053526966E+03  0.42053526969E+03  0.50400001928E-02 0. -1.
       -1   -1    0    0    0  501  0.00000000000E+00  0.00000000000E+00 -0.15383987233E+03  0.15383987241E+03  0.50400001928E-02 0.  1.
    10030    2    1    2    0    0  0.00000000000E+00  0.00000000000E+00  0.26669539733E+03  0.57437514210E+03  0.50870459886E+03 0.  0.
        5    1    3    3  502    0  0.17549915495E+03 -0.26929991043E+02  0.33891663430E+03  0.38263788732E+03  0.46999998093E+01 0.  1.
       -5    1    3    3    0  502 -0.17549915495E+03  0.26929991043E+02 -0.72221236971E+02  0.19173725478E+03  0.46999998093E+01 0. -1.
</event>
<event>
 5   0  0.4803890E-02  0.5010607E+03  0.7818609E-02  0.1013502E+00
        1   -1    0    0  501    0  0.00000000000E+00  0.00000000000E+00  0.17394104274E+03  0.17394104281E+03  0.50400001928E-02 0.  1.
       -1   -1    0    0    0  501  0.00000000000E+00  0.00000000000E+00 -0.36084324105E+03  0.36084324109E+03  0.50400001928E-02 0. -1.
    10030    2    1    2    0    0  0.00000000000E+00  0.00000000000E+00 -0.18690219831E+03  0.53478428390E+03  0.50106067354E+03 0.  0.
        5    1    3    3  502    0 -0.10531697279E+03  0.91419637107E+02  0.12862555253E+03  0.18977839068E+03  0.46999998093E+01 0.  1.
       -5    1    3    3    0  502  0.10531697279E+03 -0.91419637107E+02 -0.31552775084E+03  0.34500589322E+03  0.46999998093E+01 0. -1.
</event>
<event>
 5   0  0.4884478E-02  0.4991088E+03  0.7818609E-02  0.1014012E+00
       -1   -1    0    0    0  501  0.00000000000E+00  0.00000000000E+00  0.95129393124E+02  0.95129393257E+02  0.50400001928E-02 0.  1.
        1   -1    0    0  501    0  0.00000000000E+00  0.00000000000E+00 -0.65466001293E+03  0.65466001295E+03  0.50400001928E-02 0. -1.
    10030    2    1    2    0    0  0.00000000000E+00  0.00000000000E+00 -0.55953061981E+03  0.74978940621E+03  0.49910884500E+03 0.  0.
        3    1    3    3  502    0  0.23955443744E+03 -0.41960857883E+02 -0.36381594564E+03  0.43761752090E+03  0.10100000352E+00 0. -1.
       -3    1    3    3    0  502 -0.23955443744E+03  0.41960857883E+02 -0.19571467416E+03  0.31217188531E+03  0.10100000352E+00 0.  1.
</event>
<event>
 5   0  0.7698747E-02  0.5008867E+03  0.7818609E-02  0.1013548E+00
        2   -1    0    0  501    0  0.00000000000E+00  0.00000000000E+00  0.13320136108E+04  0.13320136108E+04  0.25500000920E-02 0. -1.
       -2   -1    0    0    0  501  0.00000000000E+00  0.00000000000E+00 -0.47088010837E+02  0.47088010906E+02  0.25500000920E-02 0.  1.
    10030    2    1    2    0    0  0.00000000000E+00  0.00000000000E+00  0.12849256000E+04  0.13791016217E+04  0.50088669933E+03 0.  0.
        2    1    3    3  502    0 -0.62998217708E+02  0.10851811480E+03  0.12392218513E+04  0.12455584103E+04  0.25500000920E-02 0. -1.
       -2    1    3    3    0  502  0.62998217708E+02 -0.10851811480E+03  0.45703748683E+02  0.13354321145E+03  0.25500000920E-02 0.  1.
</event>
<event>
 5   0  0.5191358E-02  0.4993441E+03  0.7818609E-02  0.1013950E+00
        1   -1    0    0  501    0  0.00000000000E+00  0.00000000000E+00  0.12259369123E+03  0.12259369133E+03  0.50400001928E-02 0.  1.
       -1   -1    0    0    0  501  0.00000000000E+00  0.00000000000E+00 -0.50847739227E+03  0.50847739229E+03  0.50400001928E-02 0. -1.
    10030    2    1    2    0    0  0.00000000000E+00  0.00000000000E+00 -0.38588370104E+03  0.63107108363E+03  0.49934405160E+03 0.  0.
        4    1    3    3  502    0  0.25777344754E+02 -0.48821449282E+02 -0.50066226881E+03  0.50369864574E+03  0.12699999809E+01 0. -1.
       -4    1    3    3    0  502 -0.25777344754E+02  0.48821449282E+02  0.11477856777E+03  0.12737243788E+03  0.12699999809E+01 0.  1.
</event>
<event>
 5   0  0.7698747E-02  0.5005603E+03  0.7818609E-02  0.1013633E+00
        2   -1    0    0  501    0  0.00000000000E+00  0.00000000000E+00  0.38716953414E+03  0.38716953415E+03  0.25500000920E-02 0.  1.
       -2   -1    0    0    0  501  0.00000000000E+00  0.00000000000E+00 -0.16179000008E+03  0.16179000010E+03  0.25500000920E-02 0. -1.
    10030    2    1    2    0    0  0.00000000000E+00  0.00000000000E+00  0.22537953406E+03  0.54895953425E+03  0.50056032191E+03 0.  0.
        2    1    3    3  502    0  0.24368857485E+03 -0.32671914693E+02  0.16399544906E+03  0.29554370716E+03  0.25500000920E-02 0.  1.
       -2    1    3    3    0  502 -0.24368857485E+03  0.32671914693E+02  0.61384084999E+02  0.25341582709E+03  0.25500000920E-02 0. -1.
</event>
<event>
 5   0  0.7698747E-02  0.4975314E+03  0.7818609E-02  0.1014425E+00
        2   -1    0    0  501    0  0.00000000000E+00  0.00000000000E+00  0.53874276419E+03  0.53874276419E+03  0.25500000920E-02 0. -1.
       -2   -1    0    0    0  501  0.00000000000E+00  0.00000000000E+00 -0.11486813051E+03  0.11486813054E+03  0.25500000920E-02 0.  1.
    10030    2    1    2    0    0  0.00000000000E+00  0.00000000000E+00  0.42387463367E+03  0.65361089473E+03  0.49753140267E+03 0.  0.
        2    1    3    3  502    0 -0.15374091671E+03  0.15651875807E+02 -0.44162006903E+02  0.16072191371E+03  0.25500000920E-02 0.  1.
       -2    1    3    3    0  502  0.15374091671E+03 -0.15651875807E+02  0.46803664058E+03  0.49288898102E+03  0.25500000920E-02 0. -1.
</event>
<event>
 5   0  0.4884478E-02  0.5048783E+03  0.7818609E-02  0.1012513E+00
        1   -1    0    0  501    0  0.00000000000E+00  0.00000000000E+00  0.44220027803E+03  0.44220027806E+03  0.50400001928E-02 0.  1.
       -1   -1    0    0    0  501  0.00000000000E+00  0.00000000000E+00 -0.14411010261E+03  0.14411010270E+03  0.50400001928E-02 0. -1.
    10030    2    1    2    0    0  0.00000000000E+00  0.00000000000E+00  0.29809017542E+03  0.58631038076E+03  0.50487831198E+03 0.  0.
        3    1    3    3  502    0 -0.18110547285E+03 -0.15968669802E+03  0.23459116700E+03  0.33664827291E+03  0.10100000352E+00 0.  1.
       -3    1    3    3    0  502  0.18110547285E+03  0.15968669802E+03  0.63499008419E+02  0.24966210784E+03  0.10100000352E+00 0. -1.
</event>
<event>
 5   0  0.5038436E-02  0.4974775E+03  0.7818609E-02  0.1014439E+00
        1   -1    0    0  501    0  0.00000000000E+00  0.00000000000E+00  0.25387608807E+03  0.25387608812E+03  0.50400001928E-02 0. -1.
       -1   -1    0    0    0  501  0.00000000000E+00  0.00000000000E+00 -0.24370541223E+03  0.24370541229E+03  0.50400001928E-02 0.  1.
    10030    2    1    2    0    0  0.00000000000E+00  0.00000000000E+00  0.10170675838E+02  0.49758150041E+03  0.49747754412E+03 0.  0.
        1    1    3    3  502    0 -0.23009898141E+03  0.63476646859E+01 -0.89195393919E+02  0.24686363121E+03  0.50400001928E-02 0.  1.
       -1    1    3    3    0  502  0.23009898141E+03 -0.63476646859E+01  0.99366069758E+02  0.25071786920E+03  0.50400001928E-02 0. -1.
</event>
<event>
 5   0  0.4884478E-02  0.5014959E+03  0.7818609E-02  0.1013389E+00
       -1   -1    0    0    0  501  0.00000000000E+00  0.00000000000E+00  0.19994880440E+03  0.19994880446E+03  0.50400001928E-02 0.  1.
        1   -1    0    0  501    0  0.00000000000E+00  0.00000000000E+00 -0.31445317281E+03  0.31445317285E+03  0.50400001928E-02 0. -1.
    10030    2    1    2    0    0  0.00000000000E+00  0.00000000000E+00 -0.11450436841E+03  0.51440197731E+03  0.50149590614E+03 0.  0.
        3    1    3    3  502    0 -0.78115902414E+02 -0.13743807289E+03 -0.25689726310E+03  0.30164139650E+03  0.10100000352E+00 0. -1.
       -3    1    3    3    0  502  0.78115902414E+02  0.13743807289E+03  0.14239289469E+03  0.21276058082E+03  0.10100000352E+00 0.  1.
</event>
<event>
 5   0  0.4803890E-02  0.4969823E+03  0.7818609E-02  0.1014570E+00
        1   -1    0    0  501    0  0.00000000000E+00  0.00000000000E+00  0.14678135469E+04  0.14678135469E+04  0.50400001928E-02 0.  1.
       -1   -1    0    0    0  501  0.00000000000E+00  0.00000000000E+00 -0.42067918851E+02  0.42067919153E+02  0.50400001928E-02 0. -1.
    10030    2    1    2    0    0  0.00000000000E+00  0.00000000000E+00  0.14257456280E+04  0.15098814660E+04  0.49698233937E+03 0.  0.
        5    1    3    3  502    0 -0.10240284054E+03 -0.20825605372E+03  0.98237197299E+03  0.10094224631E+04  0.46999998093E+01 0.  1.
       -5    1    3    3    0  502  0.10240284054E+03  0.20825605372E+03  0.44337365503E+03  0.50045900295E+03  0.46999998093E+01 0. -1.
</event>
<event>
 5   0  0.5191358E-02  0.5005627E+03  0.7818609E-02  0.1013632E+00
       -1   -1    0    0    0  501  0.00000000000E+00  0.00000000000E+00  0.95490559788E+02  0.95490559921E+02  0.50400001928E-02 0.  1.
        1   -1    0    0  501    0  0.00000000000E+00  0.00000000000E+00 -0.65598895432E+03  0.65598895434E+03  0.50400001928E-02 0. -1.
    10030    2    1    2    0    0  0.00000000000E+00  0.00000000000E+00 -0.56049839453E+03  0.75147951426E+03  0.50056269345E+03 0.  0.
        4    1    3    3  502    0 -0.29635394458E+02  0.56607401449E+02  0.83034716054E+02  0.10478087361E+03  0.12699999809E+01 0.  1.
       -4    1    3    3    0  502  0.29635394458E+02 -0.56607401449E+02 -0.64353311058E+03  0.64669864065E+03  0.12699999809E+01 0. -1.
</event>
<event>
 5   0  0.5191358E-02  0.4933286E+03  0.7818609E-02  0.1015535E+00
        1   -1    0    0  501    0  0.00000000000E+00  0.00000000000E+00  0.82817457520E+03  0.82817457522E+03  0.50400001928E-02 0.  1.
       -1   -1    0    0    0  501  0.00000000000E+00  0.00000000000E+00 -0.73466728138E+02  0.73466728311E+02  0.50400001928E-02 0. -1.
    10030    2    1    2    0    0  0.00000000000E+00  0.00000000000E+00  0.75470784706E+03  0.90164130353E+03  0.49332859820E+03 0.  0.
        4    1    3    3  502    0  0.10676226744E+03 -0.19080282597E+03  0.58604268128E+03  0.62550102904E+03  0.12699999809E+01 0.  1.
       -4    1    3    3    0  502 -0.10676226744E+03  0.19080282597E+03  0.16866516578E+03  0.27614027448E+03  0.12699999809E+01 0. -1.
</event>
<event>
 5   0  0.7881060E-02  0.4979317E+03  0.7818609E-02  0.1014320E+00
        2   -1    0    0  501    0  0.00000000000E+00  0.00000000000E+00  0.22326386673E+04  0.22326386673E+04  0.25500000920E-02 0.  1.
       -2   -1    0    0    0  501  0.00000000000E+00  0.00000000000E+00 -0.27762665847E+02  0.27762665964E+02  0.25500000920E-02 0. -1.
    10030    2    1    2    0    0  0.00000000000E+00  0.00000000000E+00  0.22048760014E+04  0.22604013333E+04  0.49793172790E+03 0.  0.
        1    1    3    3  502    0  0.43948127022E+02  0.18209805016E+03  0.18468858500E+04  0.18563616245E+04  0.50400001928E-02 0.  1.
       -1    1    3    3    0  502 -0.43948127022E+02 -0.18209805016E+03  0.35799015140E+03  0.40403970877E+03  0.50400001928E-02 0. -1.
</event>
<event>
 5   0  0.8208720E-02  0.5032048E+03  0.7818609E-02  0.1012946E+00
       -2   -1    0    0    0  501  0.00000000000E+00  0.00000000000E+00  0.74430079643E+02  0.74430079686E+02  0.25500000920E-02 0.  1.
        2   -1    0    0  501    0  0.00000000000E+00  0.00000000000E+00 -0.85051335111E+03  0.85051335112E+03  0.25500000920E-02 0. -1.
    10030    2    1    2    0    0  0.00000000000E+00  0.00000000000E+00 -0.77608327147E+03  0.92494343080E+03  0.50320483496E+03 0.  0.
        3    1    3    3  502    0  0.15116150468E+03 -0.20028034785E+02 -0.75590542864E+03  0.77113160350E+03  0.10100000352E+00 0. -1.
       -3    1    3    3    0  502 -0.15116150468E+03  0.20028034785E+02 -0.20177842832E+02  0.15381182730E+03  0.10100000352E+00 0.  1.
</event>
<event>
 5   0  0.4803890E-02  0.5022471E+03  0.7818609E-02  0.1013194E+00
        1   -1    0    0  501    0  0.00000000000E+00  0.00000000000E+00  0.26012786163E+03  0.26012786168E+03  0.50400001928E-02 0.  1.
       -1   -1    0    0    0  501  0.00000000000E+00  0.00000000000E+00 -0.24243095270E+03  0.24243095275E+03  0.50400001928E-02 0. -1.
    10030    2    1    2    0    0  0.00000000000E+00  0.00000000000E+00  0.17696908930E+02  0.50255881443E+03  0.50224713177E+03 0.  0.
        5    1    3    3  502    0  0.16163161905E+03 -0.11620897512E+03  0.16195206518E+03  0.25667073770E+03  0.46999998093E+01 0.  1.
       -5    1    3    3    0  502 -0.16163161905E+03  0.11620897512E+03 -0.14425515626E+03  0.24588807673E+03  0.46999998093E+01 0. -1.
</event>
<event>
 5   0  0.7698747E-02  0.5222158E+03  0.7818609E-02  0.1008138E+00
       -2   -1    0    0    0  501  0.00000000000E+00  0.00000000000E+00  0.12456392649E+03  0.12456392652E+03  0.25500000920E-02 0.  1.
        2   -1    0    0  501    0  0.00000000000E+00  0.00000000000E+00 -0.54732804326E+03  0.54732804327E+03  0.25500000920E-02 0. -1.
    10030    2    1    2    0    0  0.00000000000E+00  0.00000000000E+00 -0.42276411677E+03  0.67189196979E+03  0.52221577976E+03 0.  0.
        2    1    3    3  502    0  0.10883202779E+03 -0.23155508347E+03 -0.14433998627E+03  0.29376214630E+03  0.25500000920E-02 0. -1.
       -2    1    3    3    0  502 -0.10883202779E+03  0.23155508347E+03 -0.27842413050E+03  0.37812982349E+03  0.25500000920E-02 0.  1.
</event>
<event>
 5   0  0.7776070E-02  0.5034664E+03  0.7818609E-02  0.1012878E+00
        2   -1    0    0  501    0  0.00000000000E+00  0.00000000000E+00  0.49111056027E+03  0.49111056028E+03  0.25500000920E-02 0.  1.
       -2   -1    0    0    0  501  0.00000000000E+00  0.00000000000E+00 -0.12903329283E+03  0.12903329285E+03  0.25500000920E-02 0. -1.
    10030    2    1    2    0    0  0.00000000000E+00  0.00000000000E+00  0.36207726745E+03  0.62014385313E+03  0.50346643480E+03 0.  0.
        4    1    3    3  502    0  0.21191838226E+03 -0.13581599280E+03  0.18541354329E+03  0.31262626181E+03  0.12699999809E+01 0. -1.
       -4    1    3    3    0  502 -0.21191838226E+03  0.13581599280E+03  0.17666372416E+03  0.30751759132E+03  0.12699999809E+01 0.  1.
</event>
<event>
 5   0  0.5191358E-02  0.5003081E+03  0.7818609E-02  0.1013699E+00
        1   -1    0    0  501    0  0.00000000000E+00  0.00000000000E+00  0.14427868118E+03  0.14427868127E+03  0.50400001928E-02 0.  1.
       -1   -1    0    0    0  501  0.00000000000E+00  0.00000000000E+00 -0.43372346108E+03  0.43372346111E+03  0.50400001928E-02 0. -1.
    10030    2    1    2    0    0  0.00000000000E+00  0.00000000000E+00 -0.28944477990E+03  0.57800214238E+03  0.50030810106E+03 0.  0.
        4    1    3    3  502    0  0.18014387266E+02 -0.24635370677E+03 -0.19036403016E+03  0.31185692852E+03  0.12699999809E+01 0. -1.
       -4    1    3    3    0  502 -0.18014387266E+02  0.24635370677E+03 -0.99080749740E+02  0.26614521386E+03  0.12699999809E+01 0.  1.
</event>
<event>
 5   0  0.7933103E-02  0.4989643E+03  0.7818609E-02  0.1014050E+00
       -2   -1    0    0    0  501  0.00000000000E+00  0.00000000000E+00  0.11072762988E+03  0.11072762991E+03  0.25500000920E-02 0. -1.
        2   -1    0    0  501    0  0.00000000000E+00  0.00000000000E+00 -0.56211217824E+03  0.56211217825E+03  0.25500000920E-02 0.  1.
    10030    2    1    2    0    0  0.00000000000E+00  0.00000000000E+00 -0.45138454836E+03  0.67283980816E+03  0.49896432432E+03 0.  0.
        5    1    3    3  502    0 -0.20375312316E+03  0.11631749102E+03 -0.33990851801E+03  0.41304356251E+03  0.46999998093E+01 0.  1.
       -5    1    3    3    0  502  0.20375312316E+03 -0.11631749102E+03 -0.11147603036E+03  0.25979624565E+03  0.46999998093E+01 0. -1.
</event>
<event>
 5   0  0.7881060E-02  0.4968423E+03  0.7818609E-02  0.1014606E+00
        2   -1    0    0  501    0  0.00000000000E+00  0.00000000000E+00  0.65651879982E+03  0.65651879982E+03  0.25500000920E-02 0. -1.
       -2   -1    0    0    0  501  0.00000000000E+00  0.00000000000E+00 -0.94000475071E+02  0.94000475105E+02  0.25500000920E-02 0.  1.
    10030    2    1    2    0    0  0.00000000000E+00  0.00000000000E+00  0.56251832475E+03  0.75051927493E+03  0.49684234558E+03 0.  0.
        1    1    3    3  502    0  0.17584856331E+03 -0.85150378299E+02  0.51302232036E+03  0.54896739917E+03  0.50400001928E-02 0. -1.
       -1    1    3    3    0  502 -0.17584856331E+03  0.85150378299E+02  0.49496004388E+02  0.20155187575E+03  0.50400001928E-02 0.  1.
</event>
<event>
 5   0  0.5191358E-02  0.5011076E+03  0.7818609E-02  0.1013490E+00
        1   -1    0    0  501    0  0.00000000000E+00  0.00000000000E+00  0.59490365226E+03  0.59490365228E+03  0.50400001928E-02 0.  1.
       -1   -1    0    0    0  501  0.00000000000E+00  0.00000000000E+00 -0.10552501343E+03  0.10552501355E+03  0.50400001928E-02 0. -1.
    10030    2    1    2    0    0  0.00000000000E+00  0.00000000000E+00  0.48937863883E+03  0.70042866584E+03  0.50110763692E+03 0.  0.
        4    1    3    3  502    0  0.11839327190E+02  0.18682272644E+03  0.47746037972E+03  0.51284786036E+03  0.12699999809E+01 0.  1.
       -4    1    3    3    0  502 -0.11839327190E+02 -0.18682272644E+03  0.11918259111E+02  0.18758080547E+03  0.12699999809E+01 0. -1.
</event>
<event>
 5   0  0.3210875E-02  0.4983164E+03  0.7818609E-02  0.1014219E+00
       -3   -1    0    0    0  501  0.00000000000E+00  0.00000000000E+00  0.32745582481E+03  0.32745584038E+03  0.10100000352E+00 0. -1.
        3   -1    0    0  501    0  0.00000000000E+00  0.00000000000E+00 -0.18958219778E+03  0.18958222469E+03  0.10100000352E+00 0.  1.
    10030    2    1    2    0    0  0.00000000000E+00  0.00000000000E+00  0.13787362702E+03  0.51703806507E+03  0.49831638916E+03 0.  0.
        4    1    3    3  502    0 -0.33834702116E+02 -0.12987313742E+03  0.28674339834E+03  0.31659944454E+03  0.12699999809E+01 0. -1.
       -4    1    3    3    0  502  0.33834702116E+02  0.12987313742E+03 -0.14886977131E+03  0.20043862054E+03  0.12699999809E+01 0.  1.
</event>
<event>
 5   0  0.5038436E-02  0.5014240E+03  0.7818609E-02  0.1013408E+00
       -1   -1    0    0    0  501  0.00000000000E+00  0.00000000000E+00  0.65568915033E+02  0.65568915227E+02  0.50400001928E-02 0.  1.
        1   -1    0    0  501    0  0.00000000000E+00  0.00000000000E+00 -0.95863283021E+03  0.95863283022E+03  0.50400001928E-02 0. -1.
    10030    2    1    2    0    0  0.00000000000E+00  0.00000000000E+00 -0.89306391518E+03  0.10242017454E+04  0.50142403093E+03 0.  0.
        1    1    3    3  502    0  0.17698661142E+03 -0.14652738495E+02 -0.80800362843E+03  0.82729005008E+03  0.50400001928E-02 0. -1.
       -1    1    3    3    0  502 -0.17698661142E+03  0.14652738495E+02 -0.85060286743E+02  0.19691169537E+03  0.50400001928E-02 0.  1.
</event>
<event>
 5   0  0.7776070E-02  0.5008026E+03  0.7818609E-02  0.1013570E+00
        2   -1    0    0  501    0  0.00000000000E+00  0.00000000000E+00  0.36420156515E+03  0.36420156516E+03  0.25500000920E-02 0.  1.
       -2   -1    0    0    0  501  0.00000000000E+00  0.00000000000E+00 -0.17215966889E+03  0.17215966891E+03  0.25500000920E-02 0. -1.
    10030    2    1    2    0    0  0.00000000000E+00  0.00000000000E+00  0.19204189626E+03  0.53636123407E+03  0.50080263927E+03 0.  0.
        4    1    3    3  502    0 -0.20956435232E+03 -0.30916478452E+02  0.23901556605E+03  0.31937924184E+03  0.12699999809E+01 0.  1.
       -4    1    3    3    0  502  0.20956435232E+03  0.30916478452E+02 -0.46973669793E+02  0.21698199224E+03  0.12699999809E+01 0. -1.
</event>
<event>
 5   0  0.8208720E-02  0.4969205E+03  0.7818609E-02  0.1014586E+00
        2   -1    0    0  501    0  0.00000000000E+00  0.00000000000E+00  0.50022590590E+03  0.50022590591E+03  0.25500000920E-02 0. -1.
       -2   -1    0    0    0  501  0.00000000000E+00  0.00000000000E+00 -0.12340922589E+03  0.12340922591E+03  0.25500000920E-02 0.  1.
    10030    2    1    2    0    0  0.00000000000E+00  0.00000000000E+00  0.37681668002E+03  0.62363513182E+03  0.49692048388E+03 0.  0.
        3    1    3    3  502    0 -0.79491579142E+01 -0.14142287784E+03  0.44459086031E+03  0.46660975425E+03  0.10100000352E+00 0. -1.
       -3    1    3    3    0  502  0.79491579142E+01  0.14142287784E+03 -0.67774180291E+02  0.15702537757E+03  0.10100000352E+00 0.  1.
</event>
<event>
 5   0  0.7698747E-02  0.5045860E+03  0.7818609E-02  0.1012589E+00
        2   -1    0    0  501    0  0.00000000000E+00  0.00000000000E+00  0.54646564636E+03  0.54646564637E+03  0.25500000920E-02 0. -1.
       -2   -1    0    0    0  501  0.00000000000E+00  0.00000000000E+00 -0.11647895395E+03  0.11647895398E+03  0.25500000920E-02 0.  1.
    10030    2    1    2    0    0  0.00000000000E+00  0.00000000000E+00  0.42998669241E+03  0.66294460035E+03  0.50458595649E+03 0.  0.
        2    1    3    3  502    0  0.50644533482E+02 -0.19814308979E+03  0.40909582636E+03  0.45736741024E+03  0.25500000920E-02 0. -1.
       -2    1    3    3    0  502 -0.50644533482E+02  0.19814308979E+03  0.20890866055E+02  0.20557719011E+03  0.25500000920E-02 0.  1.
</event>
<event>
 5   0  0.7698747E-02  0.4983986E+03  0.7818609E-02  0.1014198E+00
        2   -1    0    0  501    0  0.00000000000E+00  0.00000000000E+00  0.13573326755E+04  0.13573326755E+04  0.25500000920E-02 0.  1.
       -2   -1    0    0    0  501  0.00000000000E+00  0.00000000000E+00 -0.45751703488E+02  0.45751703559E+02  0.25500000920E-02 0. -1.
    10030    2    1    2    0    0  0.00000000000E+00  0.00000000000E+00  0.13115809721E+04  0.14030843791E+04  0.49839856403E+03 0.  0.
        2    1    3    3  502    0  0.34451460008E+02 -0.22236354776E+03  0.35431801397E+03  0.41973051533E+03  0.25500000920E-02 0. -1.
       -2    1    3    3    0  502 -0.34451460008E+02  0.22236354776E+03  0.95726295809E+03  0.98335386378E+03  0.25500000920E-02 0.  1.
</event>
<event>
 5   0  0.7776070E-02  0.5004996E+03  0.7818609E-02  0.1013649E+00
        2   -1    0    0  501    0  0.00000000000E+00  0.00000000000E+00  0.48332710334E+03  0.48332710334E+03  0.25500000920E-02 0.  1.
       -2   -1    0    0    0  501  0.00000000000E+00  0.00000000000E+00 -0.12957057765E+03  0.12957057767E+03  0.25500000920E-02 0. -1.
    10030    2    1    2    0    0  0.00000000000E+00  0.00000000000E+00  0.35375652569E+03  0.61289768102E+03  0.50049963829E+03 0.  0.
        4    1    3    3  502    0 -0.12553446640E+03  0.13407596106E+03  0.38501255995E+03  0.42658123471E+03  0.12699999809E+01 0.  1.
       -4    1    3    3    0  502  0.12553446640E+03 -0.13407596106E+03 -0.31256034261E+02  0.18631644631E+03  0.12699999809E+01 0. -1.
</event>
<event>
 5   0  0.7933103E-02  0.5046512E+03  0.7818609E-02  0.1012572E+00
       -2   -1    0    0    0  501  0.00000000000E+00  0.00000000000E+00  0.11609317734E+03  0.11609317737E+03  0.25500000920E-02 0.  1.
        2   -1    0    0  501    0  0.00000000000E+00  0.00000000000E+00 -0.54842342267E+03  0.54842342268E+03  0.25500000920E-02 0. -1.
    10030    2    1    2    0    0  0.00000000000E+00  0.00000000000E+00 -0.43233024533E+03  0.66451660004E+03  0.50465123670E+03 0.  0.
        5    1    3    3  502    0 -0.95206935728E+02  0.23134259552E+03 -0.25908441050E+03  0.36018131389E+03  0.46999998093E+01 0. -1.
       -5    1    3    3    0  502  0.95206935728E+02 -0.23134259552E+03 -0.17324583483E+03  0.30433528615E+03  0.46999998093E+01 0.  1.
</event>
<event>
 5   0  0.7933103E-02  0.4968151E+03  0.7818609E-02  0.1014614E+00
        2   -1    0    0  501    0  0.00000000000E+00  0.00000000000E+00  0.51706009106E+03  0.51706009107E+03  0.25500000920E-02 0. -1.
       -2   -1    0    0    0  501  0.00000000000E+00  0.00000000000E+00 -0.11934069172E+03  0.11934069175E+03  0.25500000920E-02 0.  1.
    10030    2    1    2    0    0  0.00000000000E+00  0.00000000000E+00  0.39771939934E+03  0.63640078282E+03  0.49681509212E+03 0.  0.
        5    1    3    3  502    0  0.53249215716E+02 -0.15876910402E+03  0.43380734327E+03  0.46503119082E+03  0.46999998093E+01 0. -1.
       -5    1    3    3    0  502 -0.53249215716E+02  0.15876910402E+03 -0.36087943927E+02  0.17136959199E+03  0.46999998093E+01 0.  1.
</event>
<event>
 5   0  0.8208720E-02  0.5021832E+03  0.7818609E-02  0.1013211E+00
        2   -1    0    0  501    0  0.00000000000E+00  0.00000000000E+00  0.46294297076E+03  0.46294297077E+03  0.25500000920E-02 0.  1.
       -2   -1    0    0    0  501  0.00000000000E+00  0.00000000000E+00 -0.13618739016E+03  0.13618739018E+03  0.25500000920E-02 0. -1.
    10030    2    1    2    0    0  0.00000000000E+00  0.00000000000E+00  0.32675558060E+03  0.59913036095E+03  0.50218321354E+03 0.  0.
        3    1    3    3  502    0 -0.67115824234E+02  0.42150046059E+02  0.44762918995E+03  0.45459109333E+03  0.10100000352E+00 0.  1.
       -3    1    3    3    0  502  0.67115824234E+02 -0.42150046059E+02 -0.12087360935E+03  0.14453926762E+03  0.10100000352E+00 0. -1.
</event>
<event>
 5   0  0.5191358E-02  0.4757235E+03  0.7818609E-02  0.1020317E+00
       -1   -1    0    0    0  501  0.00000000000E+00  0.00000000000E+00  0.78706079571E+03  0.78706079572E+03  0.50400001928E-02 0. -1.
        1   -1    0    0  501    0  0.00000000000E+00  0.00000000000E+00 -0.71885448853E+02  0.71885449030E+02  0.50400001928E-02 0.  1.
    10030    2    1    2    0    0  0.00000000000E+00  0.00000000000E+00  0.71517534686E+03  0.85894624475E+03  0.47572352751E+03 0.  0.
        4    1    3    3  502    0  0.16970089045E+03 -0.15205833600E+03  0.23437935261E+03  0.32688747850E+03  0.12699999809E+01 0. -1.
       -4    1    3    3    0  502 -0.16970089045E+03  0.15205833600E+03  0.48079599424E+03  0.53205876625E+03  0.12699999809E+01 0.  1.
</event>
<event>
 5   0  0.5038436E-02  0.5026731E+03  0.7818609E-02  0.1013084E+00
       -1   -1    0    0    0  501  0.00000000000E+00  0.00000000000E+00  0.40405081952E+03  0.40405081955E+03  0.50400001928E-02 0. -1.
        1   -1    0    0  501    0  0.00000000000E+00  0.00000000000E+00 -0.15634188565E+03  0.15634188573E+03  0.50400001928E-02 0.  1.
    10030    2    1    2    0    0  0.00000000000E+00  0.00000000000E+00  0.24770893388E+03  0.56039270528E+03  0.50267312262E+03 0.  0.
        1    1    3    3  502    0 -0.14124540529E+03  0.50632658031E+01 -0.10784196963E+03  0.17778017779E+03  0.50400001928E-02 0.  1.
       -1    1    3    3    0  502  0.14124540529E+03 -0.50632658031E+01  0.35555090351E+03  0.38261252749E+03  0.50400001928E-02 0. -1.
</event>
<event>
 5   0  0.7698747E-02  0.5050800E+03  0.7818609E-02  0.1012461E+00
       -2   -1    0    0    0  501  0.00000000000E+00  0.00000000000E+00  0.40221298648E+02  0.40221298728E+02  0.25500000920E-02 0.  1.
        2   -1    0    0  501    0  0.00000000000E+00  0.00000000000E+00 -0.15856387269E+04  0.15856387269E+04  0.25500000920E-02 0. -1.
    10030    2    1    2    0    0  0.00000000000E+00  0.00000000000E+00 -0.15454174283E+04  0.16258600257E+04  0.50507998911E+03 0.  0.
        2    1    3    3  502    0 -0.28803505912E+02  0.18918330574E+03 -0.24224002004E+03  0.30870729250E+03  0.25500000920E-02 0.  1.
       -2    1    3    3    0  502  0.28803505912E+02 -0.18918330574E+03 -0.13031774082E+04  0.13171527332E+04  0.25500000920E-02 0. -1.
</event>
<event>
 5   0  0.7776070E-02  0.5007010E+03  0.7818609E-02  0.1013596E+00
       -2   -1    0    0    0  501  0.00000000000E+00  0.00000000000E+00  0.48516632635E+02  0.48516632702E+02  0.25500000920E-02 0. -1.
        2   -1    0    0  501    0  0.00000000000E+00  0.00000000000E+00 -0.12918328655E+04  0.12918328655E+04  0.25500000920E-02 0.  1.
    10030    2    1    2    0    0  0.00000000000E+00  0.00000000000E+00 -0.12433162328E+04  0.13403494982E+04  0.50070103098E+03 0.  0.
        4    1    3    3  502    0  0.88643497725E+02 -0.14475907604E+03 -0.12906439751E+03  0.21324186125E+03  0.12699999809E+01 0. -1.
       -4    1    3    3    0  502 -0.88643497725E+02  0.14475907604E+03 -0.11142518353E+04  0.11271076369E+04  0.12699999809E+01 0.  1.
</event>
<event>
 5   0  0.4803890E-02  0.5007417E+03  0.7818609E-02  0.1013586E+00
       -1   -1    0    0    0  501  0.00000000000E+00  0.00000000000E+00  0.30364833484E+03  0.30364833488E+03  0.50400001928E-02 0.  1.
        1   -1    0    0  501    0  0.00000000000E+00  0.00000000000E+00 -0.20644127998E+03  0.20644128004E+03  0.50400001928E-02 0. -1.
    10030    2    1    2    0    0  0.00000000000E+00  0.00000000000E+00  0.97207054864E+02  0.51008961492E+03  0.50074165369E+03 0.  0.
        5    1    3    3  502    0 -0.15348299442E+03 -0.35545137797E+02 -0.14956076239E+03  0.21728091965E+03  0.46999998093E+01 0. -1.
       -5    1    3    3    0  502  0.15348299442E+03  0.35545137797E+02  0.24676781725E+03  0.29280869527E+03  0.46999998093E+01 0.  1.
</event>
<event>
 5   0  0.3210875E-02  0.4928523E+03  0.7818609E-02  0.1015662E+00
        3   -1    0    0  501    0  0.00000000000E+00  0.00000000000E+00  0.79423754578E+03  0.79423755220E+03  0.10100000352E+00 0. -1.
       -3   -1    0    0    0  501  0.00000000000E+00  0.00000000000E+00 -0.76458012904E+02  0.76458079613E+02  0.10100000352E+00 0.  1.
    10030    2    1    2    0    0  0.00000000000E+00  0.00000000000E+00  0.71777953288E+03  0.87069563182E+03  0.49285233635E+03 0.  0.
        2    1    3    3  502    0  0.13519187617E+03 -0.93718932098E+02  0.34741388578E+02  0.16812806340E+03  0.25500000920E-02 0.  1.
       -2    1    3    3    0  502 -0.13519187617E+03  0.93718932098E+02  0.68303814430E+03  0.70256756842E+03  0.25500000920E-02 0. -1.
</event>
<event>
 5   0  0.7776070E-02  0.4858432E+03  0.7818609E-02  0.1017542E+00
       -2   -1    0    0    0  501  0.00000000000E+00  0.00000000000E+00  0.32747615208E+02  0.32747615307E+02  0.25500000920E-02 0. -1.
        2   -1    0    0  501    0  0.00000000000E+00  0.00000000000E+00 -0.18019906809E+04  0.18019906809E+04  0.25500000920E-02 0.  1.
    10030    2    1    2    0    0  0.00000000000E+00  0.00000000000E+00 -0.17692430657E+04  0.18347382962E+04  0.48584317437E+03 0.  0.
        4    1    3    3  502    0  0.87399193923E+02 -0.16167911463E+03 -0.14844695148E+04  0.14958041678E+04  0.12699999809E+01 0.  1.
       -4    1    3    3    0  502 -0.87399193923E+02  0.16167911463E+03 -0.28477355097E+03  0.33893412846E+03  0.12699999809E+01 0. -1.
</event>
<event>
 5   0  0.3210875E-02  0.5003439E+03  0.7818609E-02  0.1013689E+00
        3   -1    0    0  501    0  0.00000000000E+00  0.00000000000E+00  0.69614012889E+02  0.69614086157E+02  0.10100000352E+00 0. -1.
       -3   -1    0    0    0  501  0.00000000000E+00  0.00000000000E+00 -0.89904280814E+03  0.89904281382E+03  0.10100000352E+00 0.  1.
    10030    2    1    2    0    0  0.00000000000E+00  0.00000000000E+00 -0.82942879525E+03  0.96865689997E+03  0.50034394517E+03 0.  0.
        5    1    3    3  502    0 -0.20283204643E+03 -0.12968389927E+03 -0.54609289986E+03  0.59682350663E+03  0.46999998093E+01 0.  1.
       -5    1    3    3    0  502  0.20283204643E+03  0.12968389927E+03 -0.28333589539E+03  0.37183339334E+03  0.46999998093E+01 0. -1.
</event>
<event>
 5   0  0.4803890E-02  0.4990899E+03  0.7818609E-02  0.1014017E+00
        1   -1    0    0  501    0  0.00000000000E+00  0.00000000000E+00  0.13655492300E+04  0.13655492300E+04  0.50400001928E-02 0. -1.
       -1   -1    0    0    0  501  0.00000000000E+00  0.00000000000E+00 -0.45602669039E+02  0.45602669318E+02  0.50400001928E-02 0.  1.
    10030    2    1    2    0    0  0.00000000000E+00  0.00000000000E+00  0.13199465609E+04  0.14111518993E+04  0.49908993095E+03 0.  0.
        5    1    3    3  502    0 -0.49204475764E+02 -0.15875385621E+03  0.11861125439E+04  0.11977098664E+04  0.46999998093E+01 0. -1.
       -5    1    3    3    0  502  0.49204475764E+02  0.15875385621E+03  0.13383401707E+03  0.21344203292E+03  0.46999998093E+01 0.  1.
</event>
<event>
 5   0  0.5191358E-02  0.4938225E+03  0.7818609E-02  0.1015404E+00
        1   -1    0    0  501    0  0.00000000000E+00  0.00000000000E+00  0.28846531470E+03  0.28846531474E+03  0.50400001928E-02 0. -1.
       -1   -1    0    0    0  501  0.00000000000E+00  0.00000000000E+00 -0.21134317441E+03  0.21134317447E+03  0.50400001928E-02 0.  1.
    10030    2    1    2    0    0  0.00000000000E+00  0.00000000000E+00  0.77122140285E+02  0.49980848921E+03  0.49382254036E+03 0.  0.
        4    1    3    3  502    0 -0.20301600179E+03  0.65549474793E+01  0.18063749492E+03  0.27182711747E+03  0.12699999809E+01 0. -1.
       -4    1    3    3    0  502  0.20301600179E+03 -0.65549474793E+01 -0.10351535464E+03  0.22798137175E+03  0.12699999809E+01 0.  1.
</event>
<event>
 5   0  0.5191358E-02  0.5012030E+03  0.7818609E-02  0.1013465E+00
       -1   -1    0    0    0  501  0.00000000000E+00  0.00000000000E+00  0.54834280867E+03  0.54834280869E+03  0.50400001928E-02 0. -1.
        1   -1    0    0  501    0  0.00000000000E+00  0.00000000000E+00 -0.11452892783E+03  0.11452892795E+03  0.50400001928E-02 0.  1.
    10030    2    1    2    0    0  0.00000000000E+00  0.00000000000E+00  0.43381388084E+03  0.66287173664E+03  0.50120300880E+03 0.  0.
        4    1    3    3  502    0  0.86245160762E+02  0.46513180715E+02 -0.88137179635E+02  0.13180090694E+03  0.12699999809E+01 0.  1.
       -4    1    3    3    0  502 -0.86245160762E+02 -0.46513180715E+02  0.52195106047E+03  0.53107082970E+03  0.12699999809E+01 0. -1.
</event>
<event>
 5   0  0.5038436E-02  0.4975085E+03  0.7818609E-02  0.1014431E+00
       -1   -1    0    0    0  501  0.00000000000E+00  0.00000000000E+00  0.28187824141E+03  0.28187824146E+03  0.50400001928E-02 0.  1.
        1   -1    0    0  501    0  0.00000000000E+00  0.00000000000E+00 -0.21952267422E+03  0.21952267427E+03  0.50400001928E-02 0. -1.
    10030    2    1    2    0    0  0.00000000000E+00  0.00000000000E+00  0.62355567195E+02  0.50140091573E+03  0.49750845373E+03 0.  0.
        1    1    3    3  502    0 -0.24386259897E+03  0.39628082495E+01 -0.18133489709E+02  0.24456797522E+03  0.50400001928E-02 0. -1.
       -1    1    3    3    0  502  0.24386259897E+03 -0.39628082495E+01  0.80489056904E+02  0.25683294051E+03  0.50400001928E-02 0.  1.
</event>
<event>
 5   0  0.5038436E-02  0.4973545E+03  0.7818609E-02  0.1014472E+00
        1   -1    0    0  501    0  0.00000000000E+00  0.00000000000E+00  0.49145293518E+03  0.49145293521E+03  0.50400001928E-02 0. -1.
       -1   -1    0    0    0  501  0.00000000000E+00  0.00000000000E+00 -0.12583172396E+03  0.12583172406E+03  0.50400001928E-02 0.  1.
    10030    2    1    2    0    0  0.00000000000E+00  0.00000000000E+00  0.36562121123E+03  0.61728465927E+03  0.49735448170E+03 0.  0.
        1    1    3    3  502    0  0.24654347276E+03 -0.21234531688E+02  0.15226299831E+03  0.29054880825E+03  0.50400001928E-02 0.  1.
       -1    1    3    3    0  502 -0.24654347276E+03  0.21234531688E+02  0.21335821292E+03  0.32673585102E+03  0.50400001928E-02 0. -1.
</event>
<event>
 5   0  0.3210875E-02  0.5008094E+03  0.7818609E-02  0.1013568E+00
       -4   -1    0    0    0  501  0.00000000000E+00  0.00000000000E+00  0.35035654166E+03  0.35035884345E+03  0.12699999809E+01 0. -1.
        4   -1    0    0  501    0  0.00000000000E+00  0.00000000000E+00 -0.17896254850E+03  0.17896705470E+03  0.12699999809E+01 0.  1.
    10030    2    1    2    0    0  0.00000000000E+00  0.00000000000E+00  0.17139399315E+03  0.52932589814E+03  0.50080935051E+03 0.  0.
        4    1    3    3  502    0 -0.27332093865E+02  0.13248497577E+03 -0.13701822928E+03  0.19254848796E+03  0.12699999809E+01 0.  1.
       -4    1    3    3    0  502  0.27332093865E+02 -0.13248497577E+03  0.30841222244E+03  0.33677741018E+03  0.12699999809E+01 0. -1.
</event>
<event>
 5   0  0.4803890E-02  0.4996734E+03  0.7818609E-02  0.1013864E+00
        1   -1    0    0  501    0  0.00000000000E+00  0.00000000000E+00  0.23495559717E+03  0.23495559722E+03  0.50400001928E-02 0. -1.
       -1   -1    0    0    0  501  0.00000000000E+00  0.00000000000E+00 -0.26566031066E+03  0.26566031071E+03  0.50400001928E-02 0.  1.
    10030    2    1    2    0    0  0.00000000000E+00  0.00000000000E+00 -0.30704713491E+02  0.50061590793E+03  0.49967340118E+03 0.  0.
        5    1    3    3  502    0  0.10035455404E+03 -0.15864141737E+03 -0.18046050813E+03  0.26043467668E+03  0.46999998093E+01 0.  1.
       -5    1    3    3    0  502 -0.10035455404E+03  0.15864141737E+03  0.14975579464E+03  0.24018123126E+03  0.46999998093E+01 0. -1.
</event>
<event>
 5   0  0.8208720E-02  0.4935565E+03  0.7818609E-02  0.1015475E+00
       -2   -1    0    0    0  501  0.00000000000E+00  0.00000000000E+00  0.25359309965E+03  0.25359309966E+03  0.25500000920E-02 0.  1.
        2   -1    0    0  501    0  0.00000000000E+00  0.00000000000E+00 -0.24014651346E+03  0.24014651347E+03  0.25500000920E-02 0. -1.
    10030    2    1    2    0    0  0.00000000000E+00  0.00000000000E+00  0.13446586187E+02  0.49373961313E+03  0.49355647589E+03 0.  0.
        3    1    3    3  502    0 -0.15931314228E+03 -0.15660863329E+03  0.11160754559E+03  0.24972624163E+03  0.10100000352E+00 0.  1.
       -3    1    3    3    0  502  0.15931314228E+03  0.15660863329E+03 -0.98160959398E+02  0.24401337151E+03  0.10100000352E+00 0. -1.
</event>
<event>
 5   0  0.4884478E-02  0.5047489E+03  0.7818609E-02  0.1012547E+00
        1   -1    0    0  501    0  0.00000000000E+00  0.00000000000E+00  0.46826049110E+03  0.46826049112E+03  0.50400001928E-02 0. -1.
       -1   -1    0    0    0  501  0.00000000000E+00  0.00000000000E+00 -0.13602017140E+03  0.13602017150E+03  0.50400001928E-02 0.  1.
    10030    2    1    2    0    0  0.00000000000E+00  0.00000000000E+00  0.33224031970E+03  0.60428066262E+03  0.50474893679E+03 0.  0.
        3    1    3    3  502    0  0.12024698201E+03  0.21912896029E+03  0.12437228349E+03  0.27918687831E+03  0.10100000352E+00 0.  1.
       -3    1    3    3    0  502 -0.12024698201E+03 -0.21912896029E+03  0.20786803621E+03  0.32509378431E+03  0.10100000352E+00 0. -1.
</event>
<event>
 5   0  0.3210875E-02  0.5005064E+03  0.7818609E-02  0.1013647E+00
       -3   -1    0    0    0  501  0.00000000000E+00  0.00000000000E+00  0.12418889880E+03  0.12418893987E+03  0.10100000352E+00 0.  1.
        3   -1    0    0  501    0  0.00000000000E+00  0.00000000000E+00 -0.50428532202E+03  0.50428533214E+03  0.10100000352E+00 0. -1.
    10030    2    1    2    0    0  0.00000000000E+00  0.00000000000E+00 -0.38009642322E+03  0.62847427201E+03  0.50050636322E+03 0.  0.
        3    1    3    3  502    0  0.14605155241E+03 -0.19540102898E+03 -0.26011933184E+03  0.35661561251E+03  0.10100000352E+00 0.  1.
       -3    1    3    3    0  502 -0.14605155241E+03  0.19540102898E+03 -0.11997709139E+03  0.27185865950E+03  0.10100000352E+00 0. -1.
</event>
<event>
 5   0  0.3210875E-02  0.4996482E+03  0.7818609E-02  0.1013871E+00
        4   -1    0    0  501    0  0.00000000000E+00  0.00000000000E+00  0.20177404273E+03  0.20177803949E+03  0.12699999809E+01 0.  1.
       -4   -1    0    0    0  501  0.00000000000E+00  0.00000000000E+00 -0.30930831273E+03  0.30931091998E+03  0.12699999809E+01 0. -1.
    10030    2    1    2    0    0  0.00000000000E+00  0.00000000000E+00 -0.10753427000E+03  0.51108895947E+03  0.49964818149E+03 0.  0.
        3    1    3    3  502    0 -0.16471229240E+03 -0.18645123296E+03 -0.77044846992E+02  0.26044216285E+03  0.10100000352E+00 0. -1.
       -3    1    3    3    0  502  0.16471229240E+03  0.18645123296E+03 -0.30489423006E+02  0.25064679662E+03  0.10100000352E+00 0.  1.
</event>
<event>
 5   0  0.7933103E-02  0.4994637E+03  0.7818609E-02  0.1013919E+00
       -2   -1    0    0    0  501  0.00000000000E+00  0.00000000000E+00  0.18565176115E+03  0.18565176116E+03  0.25500000920E-02 0. -1.
        2   -1    0    0  501    0  0.00000000000E+00  0.00000000000E+00 -0.33593004258E+03  0.33593004259E+03  0.25500000920E-02 0.  1.
    10030    2    1    2    0    0  0.00000000000E+00  0.00000000000E+00 -0.15027828144E+03  0.52158180376E+03  0.49946372855E+03 0.  0.
        5    1    3    3  502    0  0.50997999791E+02  0.20405235153E+03  0.65377192180E+02  0.22030530045E+03  0.46999998093E+01 0. -1.
       -5    1    3    3    0  502 -0.50997999791E+02 -0.20405235153E+03 -0.21565547362E+03  0.30127650331E+03  0.46999998093E+01 0.  1.
</event>
<event>
 5   0  0.8208720E-02  0.5099641E+03  0.7818609E-02  0.1011210E+00
        2   -1    0    0  501    0  0.00000000000E+00  0.00000000000E+00  0.12204533898E+04  0.12204533898E+04  0.25500000920E-02 0. -1.
       -2   -1    0    0    0  501  0.00000000000E+00  0.00000000000E+00 -0.53271881284E+02  0.53271881345E+02  0.25500000920E-02 0.  1.
    10030    2    1    2    0    0  0.00000000000E+00  0.00000000000E+00  0.11671815085E+04  0.12737252712E+04  0.50996410907E+03 0.  0.
        3    1    3    3  502    0 -0.13033602615E+03  0.20915129009E+03  0.74707117794E+03  0.78666835259E+03  0.10100000352E+00 0. -1.
       -3    1    3    3    0  502  0.13033602615E+03 -0.20915129009E+03  0.42011033061E+03  0.48705691859E+03  0.10100000352E+00 0.  1.
</event>
<event>
 5   0  0.5038436E-02  0.4991883E+03  0.7818609E-02  0.1013991E+00
       -1   -1    0    0    0  501  0.00000000000E+00  0.00000000000E+00  0.10936823872E+03  0.10936823884E+03  0.50400001928E-02 0. -1.
        1   -1    0    0  501    0  0.00000000000E+00  0.00000000000E+00 -0.56960988383E+03  0.56960988385E+03  0.50400001928E-02 0.  1.
    10030    2    1    2    0    0  0.00000000000E+00  0.00000000000E+00 -0.46024164511E+03  0.67897812269E+03  0.49918826027E+03 0.  0.
        1    1    3    3  502    0  0.60183466089E+02  0.12079249196E+03 -0.51570468224E+03  0.53307053475E+03  0.50400001928E-02 0.  1.
       -1    1    3    3    0  502 -0.60183466089E+02 -0.12079249196E+03  0.55463037133E+02  0.14590758794E+03  0.50400001928E-02 0. -1.
</event>
<event>
 5   0  0.7776070E-02  0.4914810E+03  0.7818609E-02  0.1016027E+00
       -2   -1    0    0    0  501  0.00000000000E+00  0.00000000000E+00  0.15184761961E+03  0.15184761963E+03  0.25500000920E-02 0.  1.
        2   -1    0    0  501    0  0.00000000000E+00  0.00000000000E+00 -0.39769079303E+03  0.39769079304E+03  0.25500000920E-02 0. -1.
    10030    2    1    2    0    0  0.00000000000E+00  0.00000000000E+00 -0.24584317342E+03  0.54953841267E+03  0.49148102820E+03 0.  0.
        4    1    3    3  502    0 -0.17729154813E+03 -0.16813959687E+03 -0.15215522626E+03  0.28784725612E+03  0.12699999809E+01 0.  1.
       -4    1    3    3    0  502  0.17729154813E+03  0.16813959687E+03 -0.93687947159E+02  0.26169115655E+03  0.12699999809E+01 0. -1.
</event>
<event>
 5   0  0.7881060E-02  0.5009633E+03  0.7818609E-02  0.1013528E+00
       -2   -1    0    0    0  501  0.00000000000E+00  0.00000000000E+00  0.14258426707E+03  0.14258426709E+03  0.25500000920E-02 0.  1.
        2   -1    0    0  501    0  0.00000000000E+00  0.00000000000E+00 -0.44002796959E+03  0.44002796960E+03  0.25500000920E-02 0. -1.
    10030    2    1    2    0    0  0.00000000000E+00  0.00000000000E+00 -0.29744370252E+03  0.58261223669E+03  0.50096333416E+03 0.  0.
        1    1    3    3  502    0  0.12945225380E+03  0.20974422259E+03 -0.96834777244E+02  0.26481597201E+03  0.50400001928E-02 0.  1.
       -1    1    3    3    0  502 -0.12945225380E+03 -0.20974422259E+03 -0.20060892528E+03  0.31779626468E+03  0.50400001928E-02 0. -1.
</event>
<event>
 5   0  0.8208720E-02  0.4982521E+03  0.7818609E-02  0.1014236E+00
       -2   -1    0    0    0  501  0.00000000000E+00  0.00000000000E+00  0.11585482896E+03  0.11585482898E+03  0.25500000920E-02 0. -1.
        2   -1    0    0  501    0  0.00000000000E+00  0.00000000000E+00 -0.53570311730E+03  0.53570311731E+03  0.25500000920E-02 0.  1.
    10030    2    1    2    0    0  0.00000000000E+00  0.00000000000E+00 -0.41984828835E+03  0.65155794629E+03  0.49825211706E+03 0.  0.
        3    1    3    3  502    0  0.22909819422E+03 -0.96082713965E+02 -0.18560283735E+03  0.31010690730E+03  0.10100000352E+00 0.  1.
       -3    1    3    3    0  502 -0.22909819422E+03  0.96082713965E+02 -0.23424545099E+03  0.34145103900E+03  0.10100000352E+00 0. -1.
</event>
<event>
 5   0  0.4803890E-02  0.4992955E+03  0.7818609E-02  0.1013963E+00
        1   -1    0    0  501    0  0.00000000000E+00  0.00000000000E+00  0.25974030553E+03  0.25974030558E+03  0.50400001928E-02 0. -1.
       -1   -1    0    0    0  501  0.00000000000E+00  0.00000000000E+00 -0.23994736809E+03  0.23994736815E+03  0.50400001928E-02 0.  1.
    10030    2    1    2    0    0  0.00000000000E+00  0.00000000000E+00  0.19792937441E+02  0.49968767373E+03  0.49929551460E+03 0.  0.
        5    1    3    3  502    0 -0.68001759214E+02  0.33994672757E+02 -0.22803389544E+03  0.24041926816E+03  0.46999998093E+01 0.  1.
       -5    1    3    3    0  502  0.68001759214E+02 -0.33994672757E+02  0.24782683288E+03  0.25926840557E+03  0.46999998093E+01 0. -1.
</event>
<event>
 5   0  0.4865501E-02  0.5025950E+03  0.7818609E-02  0.1013104E+00
       -1   -1    0    0    0  501  0.00000000000E+00  0.00000000000E+00  0.10668435161E+03  0.10668435173E+03  0.50400001928E-02 0. -1.
        1   -1    0    0  501    0  0.00000000000E+00  0.00000000000E+00 -0.59193718921E+03  0.59193718923E+03  0.50400001928E-02 0.  1.
    10030    2    1    2    0    0  0.00000000000E+00  0.00000000000E+00 -0.48525283760E+03  0.69862154096E+03  0.50259500704E+03 0.  0.
        2    1    3    3  502    0 -0.23352134082E+03 -0.92742939338E+02 -0.24835189562E+03  0.35328760731E+03  0.25500000920E-02 0.  1.
       -2    1    3    3    0  502  0.23352134082E+03  0.92742939338E+02 -0.23690094198E+03  0.34533393365E+03  0.25500000920E-02 0. -1.
</event>
<event>
 5   0  0.5038436E-02  0.5010261E+03  0.7818609E-02  0.1013511E+00
       -1   -1    0    0    0  501  0.00000000000E+00  0.00000000000E+00  0.44649052272E+03  0.44649052274E+03  0.50400001928E-02 0. -1.
        1   -1    0    0  501    0  0.00000000000E+00  0.00000000000E+00 -0.14055567628E+03  0.14055567637E+03  0.50400001928E-02 0.  1.
    10030    2    1    2    0    0  0.00000000000E+00  0.00000000000E+00  0.30593484644E+03  0.58704619911E+03  0.50102605684E+03 0.  0.
        1    1    3    3  502    0  0.24452429845E+03 -0.54264759697E+02  0.14773000368E+03  0.29079365655E+03  0.50400001928E-02 0.  1.
       -1    1    3    3    0  502 -0.24452429845E+03  0.54264759697E+02  0.15820484276E+03  0.29625254256E+03  0.50400001928E-02 0. -1.
</event>
<event>
 5   0  0.7698747E-02  0.4980630E+03  0.7818609E-02  0.1014286E+00
        2   -1    0    0  501    0  0.00000000000E+00  0.00000000000E+00  0.86437343708E+03  0.86437343708E+03  0.25500000920E-02 0. -1.
       -2   -1    0    0    0  501  0.00000000000E+00  0.00000000000E+00 -0.71747567617E+02  0.71747567663E+02  0.25500000920E-02 0.  1.
    10030    2    1    2    0    0  0.00000000000E+00  0.00000000000E+00  0.79262586946E+03  0.93612100475E+03  0.49806301467E+03 0.  0.
        2    1    3    3  502    0  0.46072261625E+02 -0.12451047762E+03  0.79231371216E+03  0.80335952774E+03  0.25500000920E-02 0. -1.
       -2    1    3    3    0  502 -0.46072261625E+02  0.12451047762E+03  0.31215730830E+00  0.13276147701E+03  0.25500000920E-02 0.  1.
</event>
<event>
 5   0  0.7776070E-02  0.4997155E+03  0.7818609E-02  0.1013853E+00
       -2   -1    0    0    0  501  0.00000000000E+00  0.00000000000E+00  0.21326282090E+03  0.21326282091E+03  0.25500000920E-02 0. -1.
        2   -1    0    0  501    0  0.00000000000E+00  0.00000000000E+00 -0.29273223443E+03  0.29273223444E+03  0.25500000920E-02 0.  1.
    10030    2    1    2    0    0  0.00000000000E+00  0.00000000000E+00 -0.79469413534E+02  0.50599505536E+03  0.49971552743E+03 0.  0.
        4    1    3    3  502    0 -0.16723206212E+03 -0.11076433813E+03  0.11110703304E+03  0.22930697088E+03  0.12699999809E+01 0. -1.
       -4    1    3    3    0  502  0.16723206212E+03  0.11076433813E+03 -0.19057644658E+03  0.27668808448E+03  0.12699999809E+01 0.  1.
</event>
<event>
 5   0  0.4865501E-02  0.4997339E+03  0.7818609E-02  0.1013848E+00
       -1   -1    0    0    0  501  0.00000000000E+00  0.00000000000E+00  0.12400166331E+03  0.12400166341E+03  0.50400001928E-02 0.  1.
        1   -1    0    0  501    0  0.00000000000E+00  0.00000000000E+00 -0.50348913759E+03  0.50348913761E+03  0.50400001928E-02 0. -1.
    10030    2    1    2    0    0  0.00000000000E+00  0.00000000000E+00 -0.37948747428E+03  0.62749080103E+03  0.49973389143E+03 0.  0.
        2    1    3    3  502    0  0.19995987555E+03  0.12783300486E+03 -0.91607958295E+02  0.25439584704E+03  0.25500000920E-02 0.  1.
       -2    1    3    3    0  502 -0.19995987555E+03 -0.12783300486E+03 -0.28787951598E+03  0.37309495399E+03  0.25500000920E-02 0. -1.
</event>
<event>
 5   0  0.3210875E-02  0.4988159E+03  0.7818609E-02  0.1014088E+00
        3   -1    0    0  501    0  0.00000000000E+00  0.00000000000E+00  0.44478512655E+03  0.44478513802E+03  0.10100000352E+00 0.  1.
       -3   -1    0    0    0  501  0.00000000000E+00  0.00000000000E+00 -0.13985251848E+03  0.13985255495E+03  0.10100000352E+00 0. -1.
    10030    2    1    2    0    0  0.00000000000E+00  0.00000000000E+00  0.30493260807E+03  0.58463769297E+03  0.49881593456E+03 0.  0.
        1    1    3    3  502    0 -0.70134714344E+02 -0.23640486550E+03  0.10864044394E+03  0.26946035826E+03  0.50400001928E-02 0.  1.
       -1    1    3    3    0  502  0.70134714344E+02  0.23640486550E+03  0.19629216413E+03  0.31517733471E+03  0.50400001928E-02 0. -1.
</event>
<event>
 5   0  0.4803890E-02  0.5034094E+03  0.7818609E-02  0.1012893E+00
       -1   -1    0    0    0  501  0.00000000000E+00  0.00000000000E+00  0.52094934424E+02  0.52094934668E+02  0.50400001928E-02 0. -1.
        1   -1    0    0  501    0  0.00000000000E+00  0.00000000000E+00 -0.12161501843E+04  0.12161501843E+04  0.50400001928E-02 0.  1.
    10030    2    1    2    0    0  0.00000000000E+00  0.00000000000E+00 -0.11640552499E+04  0.12682451190E+04  0.50340943281E+03 0.  0.
        5    1    3    3  502    0  0.11382502077E+03 -0.17107830773E+03 -0.94805896174E+03  0.97008340242E+03  0.46999998093E+01 0.  1.
       -5    1    3    3    0  502 -0.11382502077E+03  0.17107830773E+03 -0.21599628813E+03  0.29816171654E+03  0.46999998093E+01 0. -1.
</event>
<event>
 5   0  0.3210875E-02  0.4977812E+03  0.7818609E-02  0.1014360E+00
       -4   -1    0    0    0  501  0.00000000000E+00  0.00000000000E+00  0.35450896651E+03  0.35451124134E+03  0.12699999809E+01 0. -1.
        4   -1    0    0  501    0  0.00000000000E+00  0.00000000000E+00 -0.17473380897E+03  0.17473842421E+03  0.12699999809E+01 0.  1.
    10030    2    1    2    0    0  0.00000000000E+00  0.00000000000E+00  0.17977515754E+03  0.52924966555E+03  0.49778117805E+03 0.  0.
        5    1    3    3  502    0  0.28657803443E+02  0.23440562087E+03  0.64594098968E+01  0.23628601052E+03  0.46999998093E+01 0.  1.
       -5    1    3    3    0  502 -0.28657803443E+02 -0.23440562087E+03  0.17331574765E+03  0.29296365504E+03  0.46999998093E+01 0. -1.
</event>
<event>
 5   0  0.3210875E-02  0.5005357E+03  0.7818609E-02  0.1013639E+00
       -3   -1    0    0    0  501  0.00000000000E+00  0.00000000000E+00  0.54177899133E+02  0.54177993276E+02  0.10100000352E+00 0. -1.
        3   -1    0    0  501    0  0.00000000000E+00  0.00000000000E+00 -0.11560790480E+04  0.11560790524E+04  0.10100000352E+00 0.  1.
    10030    2    1    2    0    0  0.00000000000E+00  0.00000000000E+00 -0.11019011488E+04  0.12102570456E+04  0.50053568779E+03 0.  0.
        2    1    3    3  502    0  0.22355154592E+03 -0.77067310488E+02 -0.74915143960E+03  0.78558420522E+03  0.25500000920E-02 0.  1.
       -2    1    3    3    0  502 -0.22355154592E+03  0.77067310488E+02 -0.35274970922E+03  0.42467284042E+03  0.25500000920E-02 0. -1.
</event>
<event>
 5   0  0.7698747E-02  0.5005698E+03  0.7818609E-02  0.1013630E+00
       -2   -1    0    0    0  501  0.00000000000E+00  0.00000000000E+00  0.28061028126E+02  0.28061028241E+02  0.25500000920E-02 0. -1.
        2   -1    0    0  501    0  0.00000000000E+00  0.00000000000E+00 -0.22323680003E+04  0.22323680003E+04  0.25500000920E-02 0.  1.
    10030    2    1    2    0    0  0.00000000000E+00  0.00000000000E+00 -0.22043069721E+04  0.22604290285E+04  0.50056984078E+03 0.  0.
        2    1    3    3  502    0  0.92925038291E+02  0.26206883408E+02 -0.21448886684E+04  0.21470606100E+04  0.25500000920E-02 0.  1.
       -2    1    3    3    0  502 -0.92925038291E+02 -0.26206883408E+02 -0.59418303797E+02  0.11336841849E+03  0.25500000920E-02 0. -1.
</event>
<event>
 5   0  0.8208720E-02  0.5001826E+03  0.7818609E-02  0.1013731E+00
        2   -1    0    0  501    0  0.00000000000E+00  0.00000000000E+00  0.10718630816E+04  0.10718630816E+04  0.25500000920E-02 0. -1.
       -2   -1    0    0    0  501  0.00000000000E+00  0.00000000000E+00 -0.58352292032E+02  0.58352292088E+02  0.25500000920E-02 0.  1.
    10030    2    1    2    0    0  0.00000000000E+00  0.00000000000E+00  0.10135107896E+04  0.11302153737E+04  0.50018263701E+03 0.  0.
        3    1    3    3  502    0 -0.18197990641E+03 -0.43242205611E+02  0.88187086704E+03  0.90148921847E+03  0.10100000352E+00 0. -1.
       -3    1    3    3    0  502  0.18197990641E+03  0.43242205611E+02  0.13163992256E+03  0.22872615525E+03  0.10100000352E+00 0.  1.
</event>
<event>
 5   0  0.7698747E-02  0.4881749E+03  0.7818609E-02  0.1016912E+00
       -2   -1    0    0    0  501  0.00000000000E+00  0.00000000000E+00  0.21346306467E+03  0.21346306469E+03  0.25500000920E-02 0. -1.
        2   -1    0    0  501    0  0.00000000000E+00  0.00000000000E+00 -0.27910529378E+03  0.27910529379E+03  0.25500000920E-02 0.  1.
    10030    2    1    2    0    0  0.00000000000E+00  0.00000000000E+00 -0.65642229109E+02  0.49256835848E+03  0.48817485139E+03 0.  0.
        2    1    3    3  502    0  0.19195173308E+02  0.72788601502E+02  0.20145821633E+03  0.21506289340E+03  0.25500000920E-02 0. -1.
       -2    1    3    3    0  502 -0.19195173308E+02 -0.72788601502E+02 -0.26710044544E+03  0.27750546507E+03  0.25500000920E-02 0.  1.
</event>
<event>
 5   0  0.4884478E-02  0.5033021E+03  0.7818609E-02  0.1012921E+00
       -1   -1    0    0    0  501  0.00000000000E+00  0.00000000000E+00  0.50836500367E+02  0.50836500617E+02  0.50400001928E-02 0.  1.
        1   -1    0    0  501    0  0.00000000000E+00  0.00000000000E+00 -0.12457239816E+04  0.12457239816E+04  0.50400001928E-02 0. -1.
    10030    2    1    2    0    0  0.00000000000E+00  0.00000000000E+00 -0.11948874812E+04  0.12965604822E+04  0.50330208748E+03 0.  0.
        3    1    3    3  502    0  0.23947323787E+03  0.39541529281E+02 -0.76865849610E+03  0.80606876755E+03  0.10100000352E+00 0.  1.
       -3    1    3    3    0  502 -0.23947323787E+03 -0.39541529281E+02 -0.42622898513E+03  0.49049171467E+03  0.10100000352E+00 0. -1.
</event>
<event>
 5   0  0.4803890E-02  0.4686620E+03  0.7818609E-02  0.1022299E+00
        1   -1    0    0  501    0  0.00000000000E+00  0.00000000000E+00  0.11272837179E+03  0.11272837191E+03  0.50400001928E-02 0.  1.
       -1   -1    0    0    0  501  0.00000000000E+00  0.00000000000E+00 -0.48710903927E+03  0.48710903929E+03  0.50400001928E-02 0. -1.
    10030    2    1    2    0    0  0.00000000000E+00  0.00000000000E+00 -0.37438066747E+03  0.59983741120E+03  0.46866196314E+03 0.  0.
        5    1    3    3  502    0  0.19805734627E+02  0.22200017591E+03 -0.27959628570E+03  0.35759267079E+03  0.46999998093E+01 0. -1.
       -5    1    3    3    0  502 -0.19805734627E+02 -0.22200017591E+03 -0.94784381775E+02  0.24224474041E+03  0.46999998093E+01 0.  1.
</event>
<event>
 5   0  0.7933103E-02  0.5031239E+03  0.7818609E-02  0.1012967E+00
        2   -1    0    0  501    0  0.00000000000E+00  0.00000000000E+00  0.14004522632E+03  0.14004522634E+03  0.25500000920E-02 0.  1.
       -2   -1    0    0    0  501  0.00000000000E+00  0.00000000000E+00 -0.45187837113E+03  0.45187837113E+03  0.25500000920E-02 0. -1.
    10030    2    1    2    0    0  0.00000000000E+00  0.00000000000E+00 -0.31183314481E+03  0.59192359747E+03  0.50312387644E+03 0.  0.
        5    1    3    3  502    0  0.23165250853E+03 -0.58457590243E+02 -0.63420101400E+02  0.24723343994E+03  0.46999998093E+01 0.  1.
       -5    1    3    3    0  502 -0.23165250853E+03  0.58457590243E+02 -0.24841304341E+03  0.34469015753E+03  0.46999998093E+01 0. -1.
</event>
<event>
 5   0  0.4803890E-02  0.4679625E+03  0.7818609E-02  0.1022497E+00
        1   -1    0    0  501    0  0.00000000000E+00  0.00000000000E+00  0.35874387061E+03  0.35874387065E+03  0.50400001928E-02 0. -1.
       -1   -1    0    0    0  501  0.00000000000E+00  0.00000000000E+00 -0.15260813303E+03  0.15260813311E+03  0.50400001928E-02 0.  1.
    10030    2    1    2    0    0  0.00000000000E+00  0.00000000000E+00  0.20613573758E+03  0.51135200376E+03  0.46796252995E+03 0.  0.
        5    1    3    3  502    0 -0.13898484120E+03  0.64472499490E+01  0.30856544274E+03  0.33851599012E+03  0.46999998093E+01 0. -1.
       -5    1    3    3    0  502  0.13898484120E+03 -0.64472499490E+01 -0.10242970515E+03  0.17283601364E+03  0.46999998093E+01 0.  1.
</event>
<event>
 5   0  0.4865501E-02  0.4966917E+03  0.7818609E-02  0.1014646E+00
        1   -1    0    0  501    0  0.00000000000E+00  0.00000000000E+00  0.20553790641E+03  0.20553790647E+03  0.50400001928E-02 0. -1.
       -1   -1    0    0    0  501  0.00000000000E+00  0.00000000000E+00 -0.30006954276E+03  0.30006954281E+03  0.50400001928E-02 0.  1.
    10030    2    1    2    0    0  0.00000000000E+00  0.00000000000E+00 -0.94531636352E+02  0.50560744928E+03  0.49669171777E+03 0.  0.
        2    1    3    3  502    0 -0.84021141889E+01 -0.14774092247E+03  0.15575768845E+03  0.21484513774E+03  0.25500000920E-02 0. -1.
       -2    1    3    3    0  502  0.84021141889E+01  0.14774092247E+03 -0.25028932480E+03  0.29076231154E+03  0.25500000920E-02 0.  1.
</event>
<event>
 5   0  0.7933103E-02  0.5002018E+03  0.7818609E-02  0.1013726E+00
        2   -1    0    0  501    0  0.00000000000E+00  0.00000000000E+00  0.56756184430E+02  0.56756184487E+02  0.25500000920E-02 0. -1.
       -2   -1    0    0    0  501  0.00000000000E+00  0.00000000000E+00 -0.11020906504E+04  0.11020906504E+04  0.25500000920E-02 0.  1.
    10030    2    1    2    0    0  0.00000000000E+00  0.00000000000E+00 -0.10453344659E+04  0.11588468348E+04  0.50020180025E+03 0.  0.
        5    1    3    3  502    0 -0.66780979825E+02 -0.15760230838E+03 -0.10034187640E+03  0.19846603999E+03  0.46999998093E+01 0. -1.
       -5    1    3    3    0  502  0.66780979825E+02  0.15760230838E+03 -0.94499258952E+03  0.96038079485E+03  0.46999998093E+01 0.  1.
</event>
<event>
 5   0  0.5038436E-02  0.5005696E+03  0.7818609E-02  0.1013630E+00
       -1   -1    0    0    0  501  0.00000000000E+00  0.00000000000E+00  0.28475181466E+03  0.28475181471E+03  0.50400001928E-02 0.  1.
        1   -1    0    0  501    0  0.00000000000E+00  0.00000000000E+00 -0.21998976530E+03  0.21998976535E+03  0.50400001928E-02 0. -1.
    10030    2    1    2    0    0  0.00000000000E+00  0.00000000000E+00  0.64762049367E+02  0.50474158006E+03  0.50056961514E+03 0.  0.
        1    1    3    3  502    0 -0.12627626016E+03  0.65375076935E+02 -0.17530378162E+03  0.22572330504E+03  0.50400001928E-02 0. -1.
       -1    1    3    3    0  502  0.12627626016E+03 -0.65375076935E+02  0.24006583098E+03  0.27901827502E+03  0.50400001928E-02 0.  1.
</event>
<event>
 5   0  0.8208720E-02  0.5017747E+03  0.7818609E-02  0.1013317E+00
        2   -1    0    0  501    0  0.00000000000E+00  0.00000000000E+00  0.12698013788E+04  0.12698013788E+04  0.25500000920E-02 0.  1.
       -2   -1    0    0    0  501  0.00000000000E+00  0.00000000000E+00 -0.49570327668E+02  0.49570327734E+02  0.25500000920E-02 0. -1.
    10030    2    1    2    0    0  0.00000000000E+00  0.00000000000E+00  0.12202310511E+04  0.13193717065E+04  0.50177473218E+03 0.  0.
        3    1    3    3  502    0  0.70538966538E+02 -0.22871495037E+03  0.41232887027E+03  0.47676134678E+03  0.10100000352E+00 0. -1.
       -3    1    3    3    0  502 -0.70538966538E+02  0.22871495037E+03  0.80790218083E+03  0.84261035973E+03  0.10100000352E+00 0.  1.
</event>
<event>
 5   0  0.7776070E-02  0.4966697E+03  0.7818609E-02  0.1014652E+00
        2   -1    0    0  501    0  0.00000000000E+00  0.00000000000E+00  0.21642256537E+03  0.21642256539E+03  0.25500000920E-02 0. -1.
       -2   -1    0    0    0  501  0.00000000000E+00  0.00000000000E+00 -0.28495273451E+03  0.28495273452E+03  0.25500000920E-02 0.  1.
    10030    2    1    2    0    0  0.00000000000E+00  0.00000000000E+00 -0.68530169136E+02  0.50137529990E+03  0.49666971648E+03 0.  0.
        4    1    3    3  502    0 -0.77629205725E+02 -0.23065894223E+03  0.15586468334E+02  0.24387372164E+03  0.12699999809E+01 0. -1.
       -4    1    3    3    0  502  0.77629205725E+02  0.23065894223E+03 -0.84116637469E+02  0.25750157827E+03  0.12699999809E+01 0.  1.
</event>
<event>
 5   0  0.8208720E-02  0.5015488E+03  0.7818609E-02  0.1013375E+00
       -2   -1    0    0    0  501  0.00000000000E+00  0.00000000000E+00  0.99864123224E+02  0.99864123257E+02  0.25500000920E-02 0.  1.
        2   -1    0    0  501    0  0.00000000000E+00  0.00000000000E+00 -0.62973365586E+03  0.62973365586E+03  0.25500000920E-02 0. -1.
    10030    2    1    2    0    0  0.00000000000E+00  0.00000000000E+00 -0.52986953264E+03  0.72959777912E+03  0.50154879891E+03 0.  0.
        3    1    3    3  502    0 -0.86009099832E+02 -0.22169404737E+03 -0.38078115881E+03  0.44893219644E+03  0.10100000352E+00 0. -1.
       -3    1    3    3    0  502  0.86009099832E+02  0.22169404737E+03 -0.14908837382E+03  0.28066558268E+03  0.10100000352E+00 0.  1.
</event>
<event>
 5   0  0.3210875E-02  0.5008856E+03  0.7818609E-02  0.1013548E+00
       -4   -1    0    0    0  501  0.00000000000E+00  0.00000000000E+00  0.82552396826E+02  0.82562165195E+02  0.12699999809E+01 0. -1.
        4   -1    0    0  501    0  0.00000000000E+00  0.00000000000E+00 -0.75972391503E+03  0.75972497653E+03  0.12699999809E+01 0.  1.
    10030    2    1    2    0    0  0.00000000000E+00  0.00000000000E+00 -0.67717151820E+03  0.84228714173E+03  0.50088557980E+03 0.  0.
        4    1    3    3  502    0 -0.16076587875E+02 -0.14771701229E+03 -0.67758984604E+03  0.69369185144E+03  0.12699999809E+01 0.  1.
       -4    1    3    3    0  502  0.16076587875E+02  0.14771701229E+03  0.41832784002E+00  0.14859529028E+03  0.12699999809E+01 0. -1.
</event>
<event>
 5   0  0.7776070E-02  0.5103511E+03  0.7818609E-02  0.1011112E+00
        2   -1    0    0  501    0  0.00000000000E+00  0.00000000000E+00  0.33396855912E+03  0.33396855913E+03  0.25500000920E-02 0. -1.
       -2   -1    0    0    0  501  0.00000000000E+00  0.00000000000E+00 -0.19497212039E+03  0.19497212041E+03  0.25500000920E-02 0.  1.
    10030    2    1    2    0    0  0.00000000000E+00  0.00000000000E+00  0.13899643873E+03  0.52894067954E+03  0.51035108748E+03 0.  0.
        4    1    3    3  502    0 -0.14495915442E+03 -0.23164911952E+01 -0.14813728917E+03  0.20727950194E+03  0.12699999809E+01 0.  1.
       -4    1    3    3    0  502  0.14495915442E+03  0.23164911952E+01  0.28713372789E+03  0.32166117760E+03  0.12699999809E+01 0. -1.
</event>
<event>
 5   0  0.4803890E-02  0.5019865E+03  0.7818609E-02  0.1013262E+00
        1   -1    0    0  501    0  0.00000000000E+00  0.00000000000E+00  0.13996068891E+03  0.13996068900E+03  0.50400001928E-02 0. -1.
       -1   -1    0    0    0  501  0.00000000000E+00  0.00000000000E+00 -0.45010934218E+03  0.45010934221E+03  0.50400001928E-02 0.  1.
    10030    2    1    2    0    0  0.00000000000E+00  0.00000000000E+00 -0.31014865327E+03  0.59007003121E+03  0.50198650839E+03 0.  0.
        5    1    3    3  502    0 -0.24333293687E+03  0.61160537679E+02 -0.16083222395E+03  0.29806144298E+03  0.46999998093E+01 0.  1.
       -5    1    3    3    0  502  0.24333293687E+03 -0.61160537679E+02 -0.14931642932E+03  0.29200858823E+03  0.46999998093E+01 0. -1.
</event>
<event>
 5   0  0.3210875E-02  0.5006839E+03  0.7818609E-02  0.1013601E+00
       -4   -1    0    0    0  501  0.00000000000E+00  0.00000000000E+00  0.54828383313E+02  0.54843089963E+02  0.12699999809E+01 0.  1.
        4   -1    0    0  501    0  0.00000000000E+00  0.00000000000E+00 -0.11428724835E+04  0.11428731891E+04  0.12699999809E+01 0. -1.
    10030    2    1    2    0    0  0.00000000000E+00  0.00000000000E+00 -0.10880441002E+04  0.11977162791E+04  0.50068385361E+03 0.  0.
        2    1    3    3  502    0 -0.95817043899E+02  0.13097637524E+03 -0.10000118428E+04  0.10130939751E+04  0.25500000920E-02 0. -1.
       -2    1    3    3    0  502  0.95817043899E+02 -0.13097637524E+03 -0.88032257448E+02  0.18462230399E+03  0.25500000920E-02 0.  1.
</event>
<event>
 5   0  0.3210875E-02  0.5012594E+03  0.7818609E-02  0.1013451E+00
        3   -1    0    0  501    0  0.00000000000E+00  0.00000000000E+00  0.83341824889E+02  0.83341886089E+02  0.10100000352E+00 0.  1.
       -3   -1    0    0    0  501  0.00000000000E+00  0.00000000000E+00 -0.75370589576E+03  0.75370590253E+03  0.10100000352E+00 0. -1.
    10030    2    1    2    0    0  0.00000000000E+00  0.00000000000E+00 -0.67036407087E+03  0.83704778861E+03  0.50125942676E+03 0.  0.
        4    1    3    3  502    0  0.19452249681E+02 -0.13260137375E+03  0.18472487729E+02  0.13529360680E+03  0.12699999809E+01 0.  1.
       -4    1    3    3    0  502 -0.19452249681E+02  0.13260137375E+03 -0.68883655860E+03  0.70175418182E+03  0.12699999809E+01 0. -1.
</event>
<event>
 5   0  0.3210875E-02  0.5026493E+03  0.7818609E-02  0.1013090E+00
        3   -1    0    0  501    0  0.00000000000E+00  0.00000000000E+00  0.88898100438E+03  0.88898101012E+03  0.10100000352E+00 0. -1.
       -3   -1    0    0    0  501  0.00000000000E+00  0.00000000000E+00 -0.71052176293E+02  0.71052248079E+02  0.10100000352E+00 0.  1.
    10030    2    1    2    0    0  0.00000000000E+00  0.00000000000E+00  0.81792882809E+03  0.96003325820E+03  0.50264927039E+03 0.  0.
        4    1    3    3  502    0  0.16652759200E+03 -0.16187171969E+03  0.59244425401E+03  0.63633772443E+03  0.12699999809E+01 0. -1.
       -4    1    3    3    0  502 -0.16652759200E+03  0.16187171969E+03  0.22548457408E+03  0.32369553376E+03  0.12699999809E+01 0.  1.
</event>
<event>
 5   0  0.4803890E-02  0.5027204E+03  0.7818609E-02  0.1013071E+00
       -1   -1    0    0    0  501  0.00000000000E+00  0.00000000000E+00  0.57646934484E+03  0.57646934486E+03  0.50400001928E-02 0. -1.
        1   -1    0    0  501    0  0.00000000000E+00  0.00000000000E+00 -0.10960156818E+03  0.10960156829E+03  0.50400001928E-02 0.  1.
    10030    2    1    2    0    0  0.00000000000E+00  0.00000000000E+00  0.46686777666E+03  0.68607091316E+03  0.50272037655E+03 0.  0.
        5    1    3    3  502    0  0.13046927131E+03  0.18853917234E+02  0.52543911578E+03  0.54174353281E+03  0.46999998093E+01 0. -1.
       -5    1    3    3    0  502 -0.13046927131E+03 -0.18853917234E+02 -0.58571339122E+02  0.14432738034E+03  0.46999998093E+01 0.  1.
</event>
<event>
 5   0  0.3210875E-02  0.4988903E+03  0.7818609E-02  0.1014069E+00
        4   -1    0    0  501    0  0.00000000000E+00  0.00000000000E+00  0.51296217019E+03  0.51296374233E+03  0.12699999809E+01 0. -1.
       -4   -1    0    0    0  501  0.00000000000E+00  0.00000000000E+00 -0.12129602078E+03  0.12130266921E+03  0.12699999809E+01 0.  1.
    10030    2    1    2    0    0  0.00000000000E+00  0.00000000000E+00  0.39166614941E+03  0.63426641153E+03  0.49889027672E+03 0.  0.
        1    1    3    3  502    0  0.19711705354E+03  0.10026147643E+01  0.14914955297E+01  0.19712524602E+03  0.50400001928E-02 0.  1.
       -1    1    3    3    0  502 -0.19711705354E+03 -0.10026147643E+01  0.39017465388E+03  0.43714116552E+03  0.50400001928E-02 0. -1.
</event>
<event>
 5   0  0.4884478E-02  0.4983944E+03  0.7818609E-02  0.1014199E+00
       -1   -1    0    0    0  501  0.00000000000E+00  0.00000000000E+00  0.30040429145E+03  0.30040429149E+03  0.50400001928E-02 0.  1.
        1   -1    0    0  501    0  0.00000000000E+00  0.00000000000E+00 -0.20671891698E+03  0.20671891704E+03  0.50400001928E-02 0. -1.
    10030    2    1    2    0    0  0.00000000000E+00  0.00000000000E+00  0.93685374463E+02  0.50712320853E+03  0.49839442136E+03 0.  0.
        3    1    3    3  502    0 -0.29636360721E+02  0.16637820181E+02  0.29803490416E+03  0.29996657353E+03  0.10100000352E+00 0.  1.
       -3    1    3    3    0  502  0.29636360721E+02 -0.16637820181E+02 -0.20434952970E+03  0.20715663500E+03  0.10100000352E+00 0. -1.
</event>
<event>
 5   0  0.4803890E-02  0.5002102E+03  0.7818609E-02  0.1013724E+00
        1   -1    0    0  501    0  0.00000000000E+00  0.00000000000E+00  0.56374912766E+02  0.56374912992E+02  0.50400001928E-02 0. -1.
       -1   -1    0    0    0  501  0.00000000000E+00  0.00000000000E+00 -0.11095812899E+04  0.11095812899E+04  0.50400001928E-02 0.  1.
    10030    2    1    2    0    0  0.00000000000E+00  0.00000000000E+00 -0.10532063771E+04  0.11659562029E+04  0.50021015009E+03 0.  0.
        5    1    3    3  502    0 -0.62384853030E+02  0.22169235773E+03 -0.75368780734E+03  0.78810327515E+03  0.46999998093E+01 0.  1.
       -5    1    3    3    0  502  0.62384853030E+02 -0.22169235773E+03 -0.29951856979E+03  0.37785292775E+03  0.46999998093E+01 0. -1.
</event>
<event>
 5   0  0.7933103E-02  0.5010106E+03  0.7818609E-02  0.1013515E+00
        2   -1    0    0  501    0  0.00000000000E+00  0.00000000000E+00  0.32977098901E+03  0.32977098902E+03  0.25500000920E-02 0. -1.
       -2   -1    0    0    0  501  0.00000000000E+00  0.00000000000E+00 -0.19029236791E+03  0.19029236793E+03  0.25500000920E-02 0.  1.
    10030    2    1    2    0    0  0.00000000000E+00  0.00000000000E+00  0.13947862110E+03  0.52006335694E+03  0.50101058821E+03 0.  0.
        5    1    3    3  502    0  0.10280935645E+03  0.14529118022E+03 -0.11317630955E+03  0.21097454317E+03  0.46999998093E+01 0. -1.
       -5    1    3    3    0  502 -0.10280935645E+03 -0.14529118022E+03  0.25265493065E+03  0.30908881378E+03  0.46999998093E+01 0.  1.
</event>
<event>
 5   0  0.5038436E-02  0.5044440E+03  0.7818609E-02  0.1012625E+00
       -1   -1    0    0    0  501  0.00000000000E+00  0.00000000000E+00  0.43750266210E+02  0.43750266500E+02  0.50400001928E-02 0.  1.
        1   -1    0    0  501    0  0.00000000000E+00  0.00000000000E+00 -0.14540697561E+04  0.14540697561E+04  0.50400001928E-02 0. -1.
    10030    2    1    2    0    0  0.00000000000E+00  0.00000000000E+00 -0.14103194899E+04  0.14978200226E+04  0.50444400737E+03 0.  0.
        1    1    3    3  502    0  0.20773526833E+03  0.14035793260E+03 -0.62321447984E+03  0.67175187298E+03  0.50400001928E-02 0.  1.
       -1    1    3    3    0  502 -0.20773526833E+03 -0.14035793260E+03 -0.78710501009E+03  0.82606814967E+03  0.50400001928E-02 0. -1.
</event>
<event>
 5   0  0.4803890E-02  0.4994664E+03  0.7818609E-02  0.1013918E+00
        1   -1    0    0  501    0  0.00000000000E+00  0.00000000000E+00  0.17871860610E+03  0.17871860617E+03  0.50400001928E-02 0. -1.
       -1   -1    0    0    0  501  0.00000000000E+00  0.00000000000E+00 -0.34896578003E+03  0.34896578007E+03  0.50400001928E-02 0.  1.
    10030    2    1    2    0    0  0.00000000000E+00  0.00000000000E+00 -0.17024717393E+03  0.52768438624E+03  0.49946642655E+03 0.  0.
        5    1    3    3  502    0  0.66595051000E+02  0.23749102032E+03 -0.44100745714E+02  0.25060696583E+03  0.46999998093E+01 0. -1.
       -5    1    3    3    0  502 -0.66595051000E+02 -0.23749102032E+03 -0.12614642822E+03  0.27707742041E+03  0.46999998093E+01 0.  1.
</event>
<event>
 5   0  0.5191358E-02  0.5005956E+03  0.7818609E-02  0.1013624E+00
        1   -1    0    0  501    0  0.00000000000E+00  0.00000000000E+00  0.20661873961E+03  0.20661873967E+03  0.50400001928E-02 0. -1.
       -1   -1    0    0    0  501  0.00000000000E+00  0.00000000000E+00 -0.30321061196E+03  0.30321061200E+03  0.50400001928E-02 0.  1.
    10030    2    1    2    0    0  0.00000000000E+00  0.00000000000E+00 -0.96591872354E+02  0.50982935167E+03  0.50059562325E+03 0.  0.
        4    1    3    3  502    0 -0.10608042098E+03 -0.21793128386E+03 -0.11190013082E+03  0.26696507707E+03  0.12699999809E+01 0. -1.
       -4    1    3    3    0  502  0.10608042098E+03  0.21793128386E+03  0.15308258462E+02  0.24286427460E+03  0.12699999809E+01 0.  1.
</event>
<event>
 5   0  0.4865501E-02  0.4983116E+03  0.7818609E-02  0.1014221E+00
       -1   -1    0    0    0  501  0.00000000000E+00  0.00000000000E+00  0.72411961245E+02  0.72411961420E+02  0.50400001928E-02 0.  1.
        1   -1    0    0  501    0  0.00000000000E+00  0.00000000000E+00 -0.85729782484E+03  0.85729782485E+03  0.50400001928E-02 0. -1.
    10030    2    1    2    0    0  0.00000000000E+00  0.00000000000E+00 -0.78488586359E+03  0.92970978627E+03  0.49831161719E+03 0.  0.
        2    1    3    3  502    0 -0.17495562748E+03 -0.42929552971E+02 -0.71310360211E+02  0.19374618857E+03  0.25500000920E-02 0.  1.
       -2    1    3    3    0  502  0.17495562748E+03  0.42929552971E+02 -0.71357550338E+03  0.73596359770E+03  0.25500000920E-02 0. -1.
</event>
<event>
 5   0  0.7698747E-02  0.5064386E+03  0.7818609E-02  0.1012112E+00
        2   -1    0    0  501    0  0.00000000000E+00  0.00000000000E+00  0.76821680785E+03  0.76821680785E+03  0.25500000920E-02 0.  1.
       -2   -1    0    0    0  501  0.00000000000E+00  0.00000000000E+00 -0.83466048582E+02  0.83466048621E+02  0.25500000920E-02 0. -1.
    10030    2    1    2    0    0  0.00000000000E+00  0.00000000000E+00  0.68475075927E+03  0.85168285648E+03  0.50643862974E+03 0.  0.
        2    1    3    3  502    0 -0.14704957675E+03  0.20232956976E+03  0.40878032217E+03  0.47923082604E+03  0.25500000920E-02 0.  1.
       -2    1    3    3    0  502  0.14704957675E+03 -0.20232956976E+03  0.27597043710E+03  0.37245203044E+03  0.25500000920E-02 0. -1.
</event>
<event>
 5   0  0.8208720E-02  0.4970202E+03  0.7818609E-02  0.1014560E+00
       -2   -1    0    0    0  501  0.00000000000E+00  0.00000000000E+00  0.73209894003E+02  0.73209894048E+02  0.25500000920E-02 0.  1.
        2   -1    0    0  501    0  0.00000000000E+00  0.00000000000E+00 -0.84356443833E+03  0.84356443834E+03  0.25500000920E-02 0. -1.
    10030    2    1    2    0    0  0.00000000000E+00  0.00000000000E+00 -0.77035454433E+03  0.91677433239E+03  0.49702017318E+03 0.  0.
        3    1    3    3  502    0 -0.14897324640E+02  0.20954707773E+03 -0.14029505940E+03  0.25261556159E+03  0.10100000352E+00 0.  1.
       -3    1    3    3    0  502  0.14897324640E+02 -0.20954707773E+03 -0.63005948493E+03  0.66415877079E+03  0.10100000352E+00 0. -1.
</event>
<event>
 5   0  0.7776070E-02  0.4986729E+03  0.7818609E-02  0.1014126E+00
        2   -1    0    0  501    0  0.00000000000E+00  0.00000000000E+00  0.62002436157E+03  0.62002436157E+03  0.25500000920E-02 0. -1.
       -2   -1    0    0    0  501  0.00000000000E+00  0.00000000000E+00 -0.10026811962E+03  0.10026811965E+03  0.25500000920E-02 0.  1.
    10030    2    1    2    0    0  0.00000000000E+00  0.00000000000E+00  0.51975624195E+03  0.72029248122E+03  0.49867294639E+03 0.  0.
        4    1    3    3  502    0 -0.51128829993E+02  0.12974687075E+03  0.55841766494E+03  0.57556955196E+03  0.12699999809E+01 0. -1.
       -4    1    3    3    0  502  0.51128829993E+02 -0.12974687075E+03 -0.38661422996E+02  0.14472292926E+03  0.12699999809E+01 0.  1.
</event>
<event>
 5   0  0.4884478E-02  0.5151289E+03  0.7818609E-02  0.1009904E+00
        1   -1    0    0  501    0  0.00000000000E+00  0.00000000000E+00  0.20202789819E+03  0.20202789825E+03  0.50400001928E-02 0. -1.
       -1   -1    0    0    0  501  0.00000000000E+00  0.00000000000E+00 -0.32836780058E+03  0.32836780062E+03  0.50400001928E-02 0.  1.
    10030    2    1    2    0    0  0.00000000000E+00  0.00000000000E+00 -0.12633990240E+03  0.53039569887E+03  0.51512894157E+03 0.  0.
        3    1    3    3  502    0  0.23995974427E+01 -0.14460196117E+03 -0.28261538319E+03  0.31746960526E+03  0.10100000352E+00 0.  1.
       -3    1    3    3    0  502 -0.23995974427E+01  0.14460196117E+03  0.15627548080E+03  0.21292609361E+03  0.10100000352E+00 0. -1.
</event>
<event>
 5   0  0.7881060E-02  0.5001101E+03  0.7818609E-02  0.1013750E+00
        2   -1    0    0  501    0  0.00000000000E+00  0.00000000000E+00  0.55587511623E+03  0.55587511623E+03  0.25500000920E-02 0. -1.
       -2   -1    0    0    0  501  0.00000000000E+00  0.00000000000E+00 -0.11248485090E+03  0.11248485093E+03  0.25500000920E-02 0.  1.
    10030    2    1    2    0    0  0.00000000000E+00  0.00000000000E+00  0.44339026532E+03  0.66835996717E+03  0.50011010621E+03 0.  0.
        1    1    3    3  502    0  0.93887952107E+02 -0.20472537011E+03  0.76521504392E+02  0.23787174144E+03  0.50400001928E-02 0. -1.
       -1    1    3    3    0  502 -0.93887952107E+02  0.20472537011E+03  0.36686876093E+03  0.43048822573E+03  0.50400001928E-02 0.  1.
</event>
<event>
 5   0  0.7933103E-02  0.5002788E+03  0.7818609E-02  0.1013706E+00
        2   -1    0    0  501    0  0.00000000000E+00  0.00000000000E+00  0.13049907826E+04  0.13049907826E+04  0.25500000920E-02 0. -1.
       -2   -1    0    0    0  501  0.00000000000E+00  0.00000000000E+00 -0.47946484845E+02  0.47946484912E+02  0.25500000920E-02 0.  1.
    10030    2    1    2    0    0  0.00000000000E+00  0.00000000000E+00  0.12570442978E+04  0.13529372676E+04  0.50027880559E+03 0.  0.
        5    1    3    3  502    0  0.24059735061E+03  0.44155601807E+02  0.48771763416E+03  0.54564400753E+03  0.46999998093E+01 0.  1.
       -5    1    3    3    0  502 -0.24059735061E+03 -0.44155601807E+02  0.76932666364E+03  0.80729326002E+03  0.46999998093E+01 0. -1.
</event>
<event>
 5   0  0.5191358E-02  0.4985856E+03  0.7818609E-02  0.1014149E+00
        1   -1    0    0  501    0  0.00000000000E+00  0.00000000000E+00  0.16946992744E+03  0.16946992752E+03  0.50400001928E-02 0. -1.
       -1   -1    0    0    0  501  0.00000000000E+00  0.00000000000E+00 -0.36671346204E+03  0.36671346207E+03  0.50400001928E-02 0.  1.
    10030    2    1    2    0    0  0.00000000000E+00  0.00000000000E+00 -0.19724353460E+03  0.53618338959E+03  0.49858561484E+03 0.  0.
        4    1    3    3  502    0  0.23947306240E+03  0.57597741571E+02 -0.13999977044E+03  0.28331324726E+03  0.12699999809E+01 0. -1.
       -4    1    3    3    0  502 -0.23947306240E+03 -0.57597741571E+02 -0.57243764154E+02  0.25287014233E+03  0.12699999809E+01 0.  1.
</event>
<event>
 5   0  0.4865501E-02  0.5005595E+03  0.7818609E-02  0.1013633E+00
       -1   -1    0    0    0  501  0.00000000000E+00  0.00000000000E+00  0.24470441562E+02  0.24470442081E+02  0.50400001928E-02 0. -1.
        1   -1    0    0  501    0  0.00000000000E+00  0.00000000000E+00 -0.25598211536E+04  0.25598211536E+04  0.50400001928E-02 0.  1.
    10030    2    1    2    0    0  0.00000000000E+00  0.00000000000E+00 -0.25353507121E+04  0.25842915957E+04  0.50055950546E+03 0.  0.
        2    1    3    3  502    0  0.12011735122E+03 -0.21661179647E+03 -0.14531851245E+04  0.14741424133E+04  0.25500000920E-02 0. -1.
       -2    1    3    3    0  502 -0.12011735122E+03  0.21661179647E+03 -0.10821655875E+04  0.11101491825E+04  0.25500000920E-02 0.  1.
</event>
<event>
 5   0  0.3210875E-02  0.5016373E+03  0.7818609E-02  0.1013352E+00
       -4   -1    0    0    0  501  0.00000000000E+00  0.00000000000E+00  0.33527094171E+03  0.33527334706E+03  0.12699999809E+01 0. -1.
        4   -1    0    0  501    0  0.00000000000E+00  0.00000000000E+00 -0.18763404502E+03  0.18763834297E+03  0.12699999809E+01 0.  1.
    10030    2    1    2    0    0  0.00000000000E+00  0.00000000000E+00  0.14763689668E+03  0.52291169003E+03  0.50163730155E+03 0.  0.
        5    1    3    3  502    0 -0.11783264458E+03  0.18588286342E+03 -0.51491772316E+02  0.22607623417E+03  0.46999998093E+01 0.  1.
       -5    1    3    3    0  502  0.11783264458E+03 -0.18588286342E+03  0.19912866900E+03  0.29683545586E+03  0.46999998093E+01 0. -1.
</event>
<event>
 5   0  0.4884478E-02  0.4810812E+03  0.7818609E-02  0.1018838E+00
       -1   -1    0    0    0  501  0.00000000000E+00  0.00000000000E+00  0.64878948142E+02  0.64878948337E+02  0.50400001928E-02 0. -1.
        1   -1    0    0  501    0  0.00000000000E+00  0.00000000000E+00 -0.89181118213E+03  0.89181118214E+03  0.50400001928E-02 0.  1.
    10030    2    1    2    0    0  0.00000000000E+00  0.00000000000E+00 -0.82693223399E+03  0.95669013048E+03  0.48108116379E+03 0.  0.
        3    1    3    3  502    0 -0.15456286434E+03  0.18407070330E+03 -0.39480496045E+03  0.46221496065E+03  0.10100000352E+00 0. -1.
       -3    1    3    3    0  502  0.15456286434E+03 -0.18407070330E+03 -0.43212727353E+03  0.49447516983E+03  0.10100000352E+00 0.  1.
</event>
<event>
 5   0  0.4865501E-02  0.4992508E+03  0.7818609E-02  0.1013975E+00
        1   -1    0    0  501    0  0.00000000000E+00  0.00000000000E+00  0.53235137764E+03  0.53235137766E+03  0.50400001928E-02 0. -1.
       -1   -1    0    0    0  501  0.00000000000E+00  0.00000000000E+00 -0.11705210039E+03  0.11705210050E+03  0.50400001928E-02 0.  1.
    10030    2    1    2    0    0  0.00000000000E+00  0.00000000000E+00  0.41529927724E+03  0.64940347816E+03  0.49925082651E+03 0.  0.
        2    1    3    3  502    0  0.42162705674E+02  0.48220358957E+02 -0.10618034314E+03  0.12400468557E+03  0.25500000920E-02 0.  1.
       -2    1    3    3    0  502 -0.42162705674E+02 -0.48220358957E+02  0.52147962039E+03  0.52539879259E+03  0.25500000920E-02 0. -1.
</event>
<event>
 5   0  0.7698747E-02  0.4987198E+03  0.7818609E-02  0.1014114E+00
       -2   -1    0    0    0  501  0.00000000000E+00  0.00000000000E+00  0.30564529363E+03  0.30564529364E+03  0.25500000920E-02 0.  1.
        2   -1    0    0  501    0  0.00000000000E+00  0.00000000000E+00 -0.20343964146E+03  0.20343964148E+03  0.25500000920E-02 0. -1.
    10030    2    1    2    0    0  0.00000000000E+00  0.00000000000E+00  0.10220565216E+03  0.50908493512E+03  0.49871983701E+03 0.  0.
        2    1    3    3  502    0 -0.61425690020E+02 -0.12190988181E+03 -0.16190909947E+03  0.21177745672E+03  0.25500000920E-02 0. -1.
       -2    1    3    3    0  502  0.61425690020E+02  0.12190988181E+03  0.26411475163E+03  0.29730747840E+03  0.25500000920E-02 0.  1.
</event>
<event>
 5   0  0.7698747E-02  0.5144419E+03  0.7818609E-02  0.1010077E+00
       -2   -1    0    0    0  501  0.00000000000E+00  0.00000000000E+00  0.78476102218E+02  0.78476102260E+02  0.25500000920E-02 0.  1.
        2   -1    0    0  501    0  0.00000000000E+00  0.00000000000E+00 -0.84309266857E+03  0.84309266857E+03  0.25500000920E-02 0. -1.
    10030    2    1    2    0    0  0.00000000000E+00  0.00000000000E+00 -0.76461656635E+03  0.92156877083E+03  0.51444193631E+03 0.  0.
        2    1    3    3  502    0 -0.16849963004E+03 -0.18772535450E+03 -0.47240837709E+03  0.53553954924E+03  0.25500000920E-02 0.  1.
       -2    1    3    3    0  502  0.16849963004E+03  0.18772535450E+03 -0.29220818926E+03  0.38602922160E+03  0.25500000920E-02 0. -1.
</event>
<event>
 5   0  0.8208720E-02  0.4852317E+03  0.7818609E-02  0.1017707E+00
        2   -1    0    0  501    0  0.00000000000E+00  0.00000000000E+00  0.36208735337E+03  0.36208735338E+03  0.25500000920E-02 0. -1.
       -2   -1    0    0    0  501  0.00000000000E+00  0.00000000000E+00 -0.16256424223E+03  0.16256424225E+03  0.25500000920E-02 0.  1.
    10030    2    1    2    0    0  0.00000000000E+00  0.00000000000E+00  0.19952311114E+03  0.52465159563E+03  0.48523172291E+03 0.  0.
        3    1    3    3  502    0 -0.14842916772E+03  0.92530415247E+02 -0.82032520410E+02  0.19319016585E+03  0.10100000352E+00 0.  1.
       -3    1    3    3    0  502  0.14842916772E+03 -0.92530415247E+02  0.28155563155E+03  0.33146142978E+03  0.10100000352E+00 0. -1.
</event>
<event>
 5   0  0.3210875E-02  0.4958147E+03  0.7818609E-02  0.1014877E+00
       -3   -1    0    0    0  501  0.00000000000E+00  0.00000000000E+00  0.18042042193E+03  0.18042045020E+03  0.10100000352E+00 0.  1.
        3   -1    0    0  501    0  0.00000000000E+00  0.00000000000E+00 -0.34063800548E+03  0.34063802045E+03  0.10100000352E+00 0. -1.
    10030    2    1    2    0    0  0.00000000000E+00  0.00000000000E+00 -0.16021758355E+03  0.52105847065E+03  0.49581473936E+03 0.  0.
        4    1    3    3  502    0  0.15769802301E+03  0.58913701612E+02 -0.27135474812E+03  0.31933446874E+03  0.12699999809E+01 0. -1.
       -4    1    3    3    0  502 -0.15769802301E+03 -0.58913701612E+02  0.11113716457E+03  0.20172400191E+03  0.12699999809E+01 0.  1.
</event>
<event>
 5   0  0.5191358E-02  0.4933626E+03  0.7818609E-02  0.1015526E+00
       -1   -1    0    0    0  501  0.00000000000E+00  0.00000000000E+00  0.10724833913E+03  0.10724833924E+03  0.50400001928E-02 0.  1.
        1   -1    0    0  501    0  0.00000000000E+00  0.00000000000E+00 -0.56739037517E+03  0.56739037519E+03  0.50400001928E-02 0. -1.
    10030    2    1    2    0    0  0.00000000000E+00  0.00000000000E+00 -0.46014203605E+03  0.67463871444E+03  0.49336264723E+03 0.  0.
        4    1    3    3  502    0  0.10381111542E+03  0.20626889255E+03 -0.34870260454E+03  0.41823285742E+03  0.12699999809E+01 0. -1.
       -4    1    3    3    0  502 -0.10381111542E+03 -0.20626889255E+03 -0.11143943151E+03  0.25640585702E+03  0.12699999809E+01 0.  1.
</event>
<event>
 5   0  0.4865501E-02  0.5002307E+03  0.7818609E-02  0.1013719E+00
       -1   -1    0    0    0  501  0.00000000000E+00  0.00000000000E+00  0.41953393897E+03  0.41953393900E+03  0.50400001928E-02 0.  1.
        1   -1    0    0  501    0  0.00000000000E+00  0.00000000000E+00 -0.14911235459E+03  0.14911235467E+03  0.50400001928E-02 0. -1.
    10030    2    1    2    0    0  0.00000000000E+00  0.00000000000E+00  0.27042158438E+03  0.56864629367E+03  0.50023072077E+03 0.  0.
        2    1    3    3  502    0 -0.10345438452E+03  0.22547976789E+03  0.99016589012E+02  0.26711087643E+03  0.25500000920E-02 0.  1.
       -2    1    3    3    0  502  0.10345438452E+03 -0.22547976789E+03  0.17140499537E+03  0.30153541723E+03  0.25500000920E-02 0. -1.
</event>
<event>
 5   0  0.3210875E-02  0.4993265E+03  0.7818609E-02  0.1013955E+00
        3   -1    0    0  501    0  0.00000000000E+00  0.00000000000E+00  0.56993971549E+03  0.56993972444E+03  0.10100000352E+00 0.  1.
       -3   -1    0    0    0  501  0.00000000000E+00  0.00000000000E+00 -0.10936545606E+03  0.10936550270E+03  0.10100000352E+00 0. -1.
    10030    2    1    2    0    0  0.00000000000E+00  0.00000000000E+00  0.46057425943E+03  0.67930522714E+03  0.49932648955E+03 0.  0.
        3    1    3    3  502    0 -0.53774491357E+02 -0.10693230129E+03  0.52836237222E+03  0.54174996037E+03  0.10100000352E+00 0.  1.
       -3    1    3    3    0  502  0.53774491357E+02  0.10693230129E+03 -0.67788112790E+02  0.13755526677E+03  0.10100000352E+00 0. -1.
</event>
<event>
 5   0  0.4865501E-02  0.5013204E+03  0.7818609E-02  0.1013435E+00
       -1   -1    0    0    0  501  0.00000000000E+00  0.00000000000E+00  0.52326597262E+02  0.52326597505E+02  0.50400001928E-02 0.  1.
        1   -1    0    0  501    0  0.00000000000E+00  0.00000000000E+00 -0.12007381904E+04  0.12007381904E+04  0.50400001928E-02 0. -1.
    10030    2    1    2    0    0  0.00000000000E+00  0.00000000000E+00 -0.11484115931E+04  0.12530647879E+04  0.50132043191E+03 0.  0.
        2    1    3    3  502    0  0.52110568256E+02 -0.14057921327E+03 -0.10763095146E+04  0.10867015219E+04  0.25500000920E-02 0. -1.
       -2    1    3    3    0  502 -0.52110568256E+02  0.14057921327E+03 -0.72102078489E+02  0.16636326594E+03  0.25500000920E-02 0.  1.
</event>
<event>
 5   0  0.8208720E-02  0.5011534E+03  0.7818609E-02  0.1013478E+00
       -2   -1    0    0    0  501  0.00000000000E+00  0.00000000000E+00  0.15377324282E+03  0.15377324284E+03  0.25500000920E-02 0.  1.
        2   -1    0    0  501    0  0.00000000000E+00  0.00000000000E+00 -0.40831995682E+03  0.40831995683E+03  0.25500000920E-02 0. -1.
    10030    2    1    2    0    0  0.00000000000E+00  0.00000000000E+00 -0.25454671400E+03  0.56209319967E+03  0.50115340517E+03 0.  0.
        3    1    3    3  502    0 -0.82697977203E+02  0.22633540913E+03 -0.50200639044E+02  0.24614383441E+03  0.10100000352E+00 0.  1.
       -3    1    3    3    0  502  0.82697977203E+02 -0.22633540913E+03 -0.20434607496E+03  0.31594936526E+03  0.10100000352E+00 0. -1.
</event>
<event>
 5   0  0.7698747E-02  0.4878581E+03  0.7818609E-02  0.1016998E+00
       -2   -1    0    0    0  501  0.00000000000E+00  0.00000000000E+00  0.94643987408E+03  0.94643987408E+03  0.25500000920E-02 0.  1.
        2   -1    0    0  501    0  0.00000000000E+00  0.00000000000E+00 -0.62868631499E+02  0.62868631551E+02  0.25500000920E-02 0. -1.
    10030    2    1    2    0    0  0.00000000000E+00  0.00000000000E+00  0.88357124258E+03  0.10093085056E+04  0.48785809292E+03 0.  0.
        2    1    3    3  502    0 -0.16420664899E+02 -0.71931983525E+02 -0.39229271952E+02  0.83563055676E+02  0.25500000920E-02 0. -1.
       -2    1    3    3    0  502  0.16420664899E+02  0.71931983525E+02  0.92280051453E+03  0.92574544995E+03  0.25500000920E-02 0.  1.
</event>
<event>
 5   0  0.7698747E-02  0.4984758E+03  0.7818609E-02  0.1014178E+00
       -2   -1    0    0    0  501  0.00000000000E+00  0.00000000000E+00  0.17515161906E+03  0.17515161907E+03  0.25500000920E-02 0.  1.
        2   -1    0    0  501    0  0.00000000000E+00  0.00000000000E+00 -0.35466142848E+03  0.35466142849E+03  0.25500000920E-02 0. -1.
    10030    2    1    2    0    0  0.00000000000E+00  0.00000000000E+00 -0.17950980942E+03  0.52981304756E+03  0.49847577041E+03 0.  0.
        2    1    3    3  502    0  0.20018620932E+03 -0.78494140027E+02 -0.22370841292E+03  0.31029228549E+03  0.25500000920E-02 0. -1.
       -2    1    3    3    0  502 -0.20018620932E+03  0.78494140027E+02  0.44198603497E+02  0.21952076207E+03  0.25500000920E-02 0.  1.
</event>
<event>
 5   0  0.4865501E-02  0.4973794E+03  0.7818609E-02  0.1014465E+00
        1   -1    0    0  501    0  0.00000000000E+00  0.00000000000E+00  0.77575233502E+03  0.77575233504E+03  0.50400001928E-02 0. -1.
       -1   -1    0    0    0  501  0.00000000000E+00  0.00000000000E+00 -0.79724642533E+02  0.79724642692E+02  0.50400001928E-02 0.  1.
    10030    2    1    2    0    0  0.00000000000E+00  0.00000000000E+00  0.69602769249E+03  0.85547697773E+03  0.49737944340E+03 0.  0.
        2    1    3    3  502    0 -0.16529605371E+03  0.16638600447E+03  0.20577037302E+03  0.31200726638E+03  0.25500000920E-02 0.  1.
       -2    1    3    3    0  502  0.16529605371E+03 -0.16638600447E+03  0.49025731947E+03  0.54346971135E+03  0.25500000920E-02 0. -1.
</event>
<event>
 5   0  0.4803890E-02  0.5116916E+03  0.7818609E-02  0.1010771E+00
       -1   -1    0    0    0  501  0.00000000000E+00  0.00000000000E+00  0.66263724850E+03  0.66263724852E+03  0.50400001928E-02 0.  1.
        1   -1    0    0  501    0  0.00000000000E+00  0.00000000000E+00 -0.98782679423E+02  0.98782679552E+02  0.50400001928E-02 0. -1.
    10030    2    1    2    0    0  0.00000000000E+00  0.00000000000E+00  0.56385456908E+03  0.76141992807E+03  0.51169163741E+03 0.  0.
        5    1    3    3  502    0 -0.10380571243E+03 -0.22833888969E+03  0.35663717361E+03  0.43603490466E+03  0.46999998093E+01 0.  1.
       -5    1    3    3    0  502  0.10380571243E+03  0.22833888969E+03  0.20721739547E+03  0.32538502341E+03  0.46999998093E+01 0. -1.
</event>
<event>
 5   0  0.3210875E-02  0.4994656E+03  0.7818609E-02  0.1013918E+00
       -3   -1    0    0    0  501  0.00000000000E+00  0.00000000000E+00  0.13161734868E+04  0.13161734907E+04  0.10100000352E+00 0.  1.
        3   -1    0    0  501    0  0.00000000000E+00  0.00000000000E+00 -0.47384630286E+02  0.47384737926E+02  0.10100000352E+00 0. -1.
    10030    2    1    2    0    0  0.00000000000E+00  0.00000000000E+00  0.12687888565E+04  0.13635582286E+04  0.49946559479E+03 0.  0.
        5    1    3    3  502    0 -0.64958376987E+02 -0.24106216502E+03  0.62424473830E+03  0.67233484325E+03  0.46999998093E+01 0.  1.
       -5    1    3    3    0  502  0.64958376987E+02  0.24106216502E+03  0.64454411823E+03  0.69122338538E+03  0.46999998093E+01 0. -1.
</event>
<event>
 5   0  0.7881060E-02  0.4958543E+03  0.7818609E-02  0.1014867E+00
        2   -1    0    0  501    0  0.00000000000E+00  0.00000000000E+00  0.13666636107E+04  0.13666636107E+04  0.25500000920E-02 0. -1.
       -2   -1    0    0    0  501  0.00000000000E+00  0.00000000000E+00 -0.44976597198E+02  0.44976597270E+02  0.25500000920E-02 0.  1.
    10030    2    1    2    0    0  0.00000000000E+00  0.00000000000E+00  0.13216870135E+04  0.14116402080E+04  0.49585432852E+03 0.  0.
        1    1    3    3  502    0  0.14314034178E+03  0.19544295671E+03  0.81096836163E+03  0.84637863298E+03  0.50400001928E-02 0.  1.
       -1    1    3    3    0  502 -0.14314034178E+03 -0.19544295671E+03  0.51071865190E+03  0.56526157502E+03  0.50400001928E-02 0. -1.
</event>
<event>
 5   0  0.8208720E-02  0.4998594E+03  0.7818609E-02  0.1013816E+00
        2   -1    0    0  501    0  0.00000000000E+00  0.00000000000E+00  0.55828742699E+03  0.55828742700E+03  0.25500000920E-02 0.  1.
       -2   -1    0    0    0  501  0.00000000000E+00  0.00000000000E+00 -0.11188657058E+03  0.11188657061E+03  0.25500000920E-02 0. -1.
    10030    2    1    2    0    0  0.00000000000E+00  0.00000000000E+00  0.44640085642E+03  0.67017399761E+03  0.49985944270E+03 0.  0.
        3    1    3    3  502    0 -0.69535570754E+02 -0.23760467504E+03  0.17726855111E+03  0.30449191552E+03  0.10100000352E+00 0.  1.
       -3    1    3    3    0  502  0.69535570754E+02  0.23760467504E+03  0.26913230531E+03  0.36568208209E+03  0.10100000352E+00 0. -1.
</event>
<event>
 5   0  0.3210875E-02  0.5000249E+03  0.7818609E-02  0.1013772E+00
        4   -1    0    0  501    0  0.00000000000E+00  0.00000000000E+00  0.12325141137E+03  0.12325795433E+03  0.12699999809E+01 0.  1.
       -4   -1    0    0    0  501  0.00000000000E+00  0.00000000000E+00 -0.50712335022E+03  0.50712494047E+03  0.12699999809E+01 0. -1.
    10030    2    1    2    0    0  0.00000000000E+00  0.00000000000E+00 -0.38387193885E+03  0.63038289480E+03  0.50002492800E+03 0.  0.
        4    1    3    3  502    0  0.13293748420E+03  0.20786346635E+03 -0.14111503556E+03  0.28424401755E+03  0.12699999809E+01 0. -1.
       -4    1    3    3    0  502 -0.13293748420E+03 -0.20786346635E+03 -0.24275690328E+03  0.34613887725E+03  0.12699999809E+01 0.  1.
</event>
<event>
 5   0  0.8208720E-02  0.4999493E+03  0.7818609E-02  0.1013792E+00
       -2   -1    0    0    0  501  0.00000000000E+00  0.00000000000E+00  0.12136379975E+03  0.12136379978E+03  0.25500000920E-02 0. -1.
        2   -1    0    0  501    0  0.00000000000E+00  0.00000000000E+00 -0.51487614239E+03  0.51487614240E+03  0.25500000920E-02 0.  1.
    10030    2    1    2    0    0  0.00000000000E+00  0.00000000000E+00 -0.39351234264E+03  0.63623994218E+03  0.49994929764E+03 0.  0.
        3    1    3    3  502    0  0.12675157582E+03 -0.13257563158E+03  0.19381591300E+02  0.18443946526E+03  0.10100000352E+00 0. -1.
       -3    1    3    3    0  502 -0.12675157582E+03  0.13257563158E+03 -0.41289393394E+03  0.45180047692E+03  0.10100000352E+00 0.  1.
</event>
<event>
 5   0  0.7698747E-02  0.4997816E+03  0.7818609E-02  0.1013836E+00
       -2   -1    0    0    0  501  0.00000000000E+00  0.00000000000E+00  0.20895486031E+03  0.20895486033E+03  0.25500000920E-02 0. -1.
        2   -1    0    0  501    0  0.00000000000E+00  0.00000000000E+00 -0.29884645619E+03  0.29884645620E+03  0.25500000920E-02 0.  1.
    10030    2    1    2    0    0  0.00000000000E+00  0.00000000000E+00 -0.89891595882E+02  0.50780131653E+03  0.49978163037E+03 0.  0.
        2    1    3    3  502    0 -0.66756597940E+02 -0.69986834682E+02 -0.27905756661E+03  0.29534340332E+03  0.25500000920E-02 0.  1.
       -2    1    3    3    0  502  0.66756597940E+02  0.69986834682E+02  0.18916597073E+03  0.21245791321E+03  0.25500000920E-02 0. -1.
</event>
<event>
 5   0  0.8208720E-02  0.4973829E+03  0.7818609E-02  0.1014464E+00
        2   -1    0    0  501    0  0.00000000000E+00  0.00000000000E+00  0.18499264842E+03  0.18499264844E+03  0.25500000920E-02 0. -1.
       -2   -1    0    0    0  501  0.00000000000E+00  0.00000000000E+00 -0.33432378583E+03  0.33432378584E+03  0.25500000920E-02 0.  1.
    10030    2    1    2    0    0  0.00000000000E+00  0.00000000000E+00 -0.14933113741E+03  0.51931643428E+03  0.49738292121E+03 0.  0.
        3    1    3    3  502    0 -0.13969966377E+03 -0.50299227153E+02 -0.28296616029E+03  0.31955573282E+03  0.10100000352E+00 0.  1.
       -3    1    3    3    0  502  0.13969966377E+03  0.50299227153E+02  0.13363502288E+03  0.19976070146E+03  0.10100000352E+00 0. -1.
</event>
<event>
 5   0  0.4884478E-02  0.4985444E+03  0.7818609E-02  0.1014160E+00
        1   -1    0    0  501    0  0.00000000000E+00  0.00000000000E+00  0.21017207291E+03  0.21017207297E+03  0.50400001928E-02 0. -1.
       -1   -1    0    0    0  501  0.00000000000E+00  0.00000000000E+00 -0.29564651742E+03  0.29564651746E+03  0.50400001928E-02 0.  1.
    10030    2    1    2    0    0  0.00000000000E+00  0.00000000000E+00 -0.85474444508E+02  0.50581859043E+03  0.49854444712E+03 0.  0.
        3    1    3    3  502    0 -0.22674443484E+03  0.64512459364E+02  0.39449233145E+02  0.23902122990E+03  0.10100000352E+00 0. -1.
       -3    1    3    3    0  502  0.22674443484E+03 -0.64512459364E+02 -0.12492367765E+03  0.26679736053E+03  0.10100000352E+00 0.  1.
</event>
<event>
 5   0  0.4803890E-02  0.4985371E+03  0.7818609E-02  0.1014161E+00
       -1   -1    0    0    0  501  0.00000000000E+00  0.00000000000E+00  0.16045223800E+03  0.16045223807E+03  0.50400001928E-02 0.  1.
        1   -1    0    0  501    0  0.00000000000E+00  0.00000000000E+00 -0.38724797830E+03  0.38724797833E+03  0.50400001928E-02 0. -1.
    10030    2    1    2    0    0  0.00000000000E+00  0.00000000000E+00 -0.22679574031E+03  0.54770021641E+03  0.49853707909E+03 0.  0.
        5    1    3    3  502    0  0.11863999307E+03 -0.10917506118E+03 -0.32218692707E+03  0.36030701896E+03  0.46999998093E+01 0. -1.
       -5    1    3    3    0  502 -0.11863999307E+03  0.10917506118E+03  0.95391186763E+02  0.18739319745E+03  0.46999998093E+01 0.  1.
</event>
<event>
 5   0  0.7881060E-02  0.5015408E+03  0.7818609E-02  0.1013378E+00
       -2   -1    0    0    0  501  0.00000000000E+00  0.00000000000E+00  0.78411141229E+02  0.78411141271E+02  0.25500000920E-02 0.  1.
        2   -1    0    0  501    0  0.00000000000E+00  0.00000000000E+00 -0.80200071733E+03  0.80200071734E+03  0.25500000920E-02 0. -1.
    10030    2    1    2    0    0  0.00000000000E+00  0.00000000000E+00 -0.72358957611E+03  0.88041185861E+03  0.50154079209E+03 0.  0.
        1    1    3    3  502    0  0.79096826548E+02 -0.10494711658E+03 -0.73671275431E+03  0.74834209265E+03  0.50400001928E-02 0. -1.
       -1    1    3    3    0  502 -0.79096826548E+02  0.10494711658E+03  0.13123178199E+02  0.13206976596E+03  0.50400001928E-02 0.  1.
</event>
<event>
 5   0  0.4865501E-02  0.4986280E+03  0.7818609E-02  0.1014138E+00
        1   -1    0    0  501    0  0.00000000000E+00  0.00000000000E+00  0.18964206274E+03  0.18964206281E+03  0.50400001928E-02 0.  1.
       -1   -1    0    0    0  501  0.00000000000E+00  0.00000000000E+00 -0.32776201405E+03  0.32776201409E+03  0.50400001928E-02 0. -1.
    10030    2    1    2    0    0  0.00000000000E+00  0.00000000000E+00 -0.13811995131E+03  0.51740407689E+03  0.49862797539E+03 0.  0.
        2    1    3    3  502    0  0.22455419525E+02 -0.16311328596E+03 -0.26331860981E+03  0.31055898022E+03  0.25500000920E-02 0. -1.
       -2    1    3    3    0  502 -0.22455419525E+02  0.16311328596E+03  0.12519865850E+03  0.20684509667E+03  0.25500000920E-02 0.  1.
</event>
<event>
 5   0  0.7698747E-02  0.4983136E+03  0.7818609E-02  0.1014220E+00
       -2   -1    0    0    0  501  0.00000000000E+00  0.00000000000E+00  0.45734020429E+02  0.45734020501E+02  0.25500000920E-02 0.  1.
        2   -1    0    0  501    0  0.00000000000E+00  0.00000000000E+00 -0.13573944667E+04  0.13573944667E+04  0.25500000920E-02 0. -1.
    10030    2    1    2    0    0  0.00000000000E+00  0.00000000000E+00 -0.13116604462E+04  0.14031284872E+04  0.49831358128E+03 0.  0.
        2    1    3    3  502    0  0.12985913424E+03 -0.20091409157E+02 -0.59767299152E+02  0.14435785231E+03  0.25500000920E-02 0.  1.
       -2    1    3    3    0  502 -0.12985913424E+03  0.20091409157E+02 -0.12518931471E+04  0.12587706349E+04  0.25500000920E-02 0. -1.
</event>
<event>
 5   0  0.5038436E-02  0.5005782E+03  0.7818609E-02  0.1013628E+00
        1   -1    0    0  501    0  0.00000000000E+00  0.00000000000E+00  0.22100388919E+03  0.22100388925E+03  0.50400001928E-02 0.  1.
       -1   -1    0    0    0  501  0.00000000000E+00  0.00000000000E+00 -0.28345488590E+03  0.28345488594E+03  0.50400001928E-02 0. -1.
    10030    2    1    2    0    0  0.00000000000E+00  0.00000000000E+00 -0.62450996708E+02  0.50445877519E+03  0.50057819457E+03 0.  0.
        1    1    3    3  502    0 -0.11064353845E+02  0.24763965894E+03 -0.66088650121E+02  0.25654537670E+03  0.50400001928E-02 0.  1.
       -1    1    3    3    0  502  0.11064353845E+02 -0.24763965894E+03  0.36376534133E+01  0.24791339849E+03  0.50400001928E-02 0. -1.
</event>
<event>
 5   0  0.7776070E-02  0.5007088E+03  0.7818609E-02  0.1013594E+00
        2   -1    0    0  501    0  0.00000000000E+00  0.00000000000E+00  0.19128863607E+04  0.19128863607E+04  0.25500000920E-02 0. -1.
       -2   -1    0    0    0  501  0.00000000000E+00  0.00000000000E+00 -0.32765832095E+02  0.32765832194E+02  0.25500000920E-02 0.  1.
    10030    2    1    2    0    0  0.00000000000E+00  0.00000000000E+00  0.18801205286E+04  0.19456521929E+04  0.50070875131E+03 0.  0.
        4    1    3    3  502    0  0.16071407154E+03  0.91171444425E+02  0.15964545933E+04  0.16071123565E+04  0.12699999809E+01 0. -1.
       -4    1    3    3    0  502 -0.16071407154E+03 -0.91171444425E+02  0.28366593529E+03  0.33853983638E+03  0.12699999809E+01 0.  1.
</event>
<event>
 5   0  0.5191358E-02  0.4982473E+03  0.7818609E-02  0.1014237E+00
        1   -1    0    0  501    0  0.00000000000E+00  0.00000000000E+00  0.57045116680E+03  0.57045116683E+03  0.50400001928E-02 0.  1.
       -1   -1    0    0    0  501  0.00000000000E+00  0.00000000000E+00 -0.10879564004E+03  0.10879564016E+03  0.50400001928E-02 0. -1.
    10030    2    1    2    0    0  0.00000000000E+00  0.00000000000E+00  0.46165552676E+03  0.67924680698E+03  0.49824732755E+03 0.  0.
        4    1    3    3  502    0  0.12880946805E+03 -0.30264455209E+02 -0.56926611860E+02  0.14404884014E+03  0.12699999809E+01 0. -1.
       -4    1    3    3    0  502 -0.12880946805E+03  0.30264455209E+02  0.51858213862E+03  0.53519796684E+03  0.12699999809E+01 0.  1.
</event>
<event>
 5   0  0.7933103E-02  0.4948199E+03  0.7818609E-02  0.1015140E+00
       -2   -1    0    0    0  501  0.00000000000E+00  0.00000000000E+00  0.45699158128E+03  0.45699158129E+03  0.25500000920E-02 0.  1.
        2   -1    0    0  501    0  0.00000000000E+00  0.00000000000E+00 -0.13394487764E+03  0.13394487766E+03  0.25500000920E-02 0. -1.
    10030    2    1    2    0    0  0.00000000000E+00  0.00000000000E+00  0.32304670364E+03  0.59093645895E+03  0.49481989226E+03 0.  0.
        5    1    3    3  502    0  0.17803252731E+03  0.16033903246E+03  0.23500008348E+03  0.33563568842E+03  0.46999998093E+01 0.  1.
       -5    1    3    3    0  502 -0.17803252731E+03 -0.16033903246E+03  0.88046620168E+02  0.25530077053E+03  0.46999998093E+01 0. -1.
</event>
<event>
 5   0  0.4865501E-02  0.5070316E+03  0.7818609E-02  0.1011960E+00
        1   -1    0    0  501    0  0.00000000000E+00  0.00000000000E+00  0.13006615307E+03  0.13006615317E+03  0.50400001928E-02 0. -1.
       -1   -1    0    0    0  501  0.00000000000E+00  0.00000000000E+00 -0.49413520166E+03  0.49413520168E+03  0.50400001928E-02 0.  1.
    10030    2    1    2    0    0  0.00000000000E+00  0.00000000000E+00 -0.36406904859E+03  0.62420135485E+03  0.50703161564E+03 0.  0.
        2    1    3    3  502    0  0.11200793935E+03  0.21408149661E+03 -0.27654500308E+03  0.36722446052E+03  0.25500000920E-02 0. -1.
       -2    1    3    3    0  502 -0.11200793935E+03 -0.21408149661E+03 -0.87524045511E+02  0.25697689433E+03  0.25500000920E-02 0.  1.
</event>
<event>
 5   0  0.4884478E-02  0.5006507E+03  0.7818609E-02  0.1013609E+00
        1   -1    0    0  501    0  0.00000000000E+00  0.00000000000E+00  0.24181758740E+03  0.24181758745E+03  0.50400001928E-02 0. -1.
       -1   -1    0    0    0  501  0.00000000000E+00  0.00000000000E+00 -0.25913244907E+03  0.25913244912E+03  0.50400001928E-02 0.  1.
    10030    2    1    2    0    0  0.00000000000E+00  0.00000000000E+00 -0.17314861673E+02  0.50095003657E+03  0.50065071128E+03 0.  0.
        3    1    3    3  502    0  0.21299926146E+02  0.17264178886E+03  0.17146102392E+03  0.24424939516E+03  0.10100000352E+00 0. -1.
       -3    1    3    3    0  502 -0.21299926146E+02 -0.17264178886E+03 -0.18877588559E+03  0.25670064140E+03  0.10100000352E+00 0.  1.
</event>
<event>
 5   0  0.7881060E-02  0.4985916E+03  0.7818609E-02  0.1014147E+00
       -2   -1    0    0    0  501  0.00000000000E+00  0.00000000000E+00  0.58351191807E+02  0.58351191863E+02  0.25500000920E-02 0. -1.
        2   -1    0    0  501    0  0.00000000000E+00  0.00000000000E+00 -0.10650751561E+04  0.10650751561E+04  0.25500000920E-02 0.  1.
    10030    2    1    2    0    0  0.00000000000E+00  0.00000000000E+00 -0.10067239643E+04  0.11234263480E+04  0.49859163554E+03 0.  0.
        1    1    3    3  502    0  0.11523304182E+03 -0.22084810517E+03 -0.48130072703E+03  0.54194365883E+03  0.50400001928E-02 0. -1.
       -1    1    3    3    0  502 -0.11523304182E+03  0.22084810517E+03 -0.52542323731E+03  0.58148268918E+03  0.50400001928E-02 0.  1.
</event>
<event>
 5   0  0.4884478E-02  0.4976783E+03  0.7818609E-02  0.1014387E+00
       -1   -1    0    0    0  501  0.00000000000E+00  0.00000000000E+00  0.19840141560E+03  0.19840141566E+03  0.50400001928E-02 0.  1.
        1   -1    0    0  501    0  0.00000000000E+00  0.00000000000E+00 -0.31209918161E+03  0.31209918165E+03  0.50400001928E-02 0. -1.
    10030    2    1    2    0    0  0.00000000000E+00  0.00000000000E+00 -0.11369776601E+03  0.51050059731E+03  0.49767828751E+03 0.  0.
        3    1    3    3  502    0  0.27684979162E+02 -0.75728153056E+02  0.18463026681E+03  0.20146850091E+03  0.10100000352E+00 0.  1.
       -3    1    3    3    0  502 -0.27684979162E+02  0.75728153056E+02 -0.29832803282E+03  0.30903209640E+03  0.10100000352E+00 0. -1.
</event>
<event>
 5   0  0.7881060E-02  0.4996933E+03  0.7818609E-02  0.1013859E+00
        2   -1    0    0  501    0  0.00000000000E+00  0.00000000000E+00  0.97995589294E+03  0.97995589294E+03  0.25500000920E-02 0. -1.
       -2   -1    0    0    0  501  0.00000000000E+00  0.00000000000E+00 -0.63700168918E+02  0.63700168969E+02  0.25500000920E-02 0.  1.
    10030    2    1    2    0    0  0.00000000000E+00  0.00000000000E+00  0.91625572402E+03  0.10436560619E+04  0.49969332972E+03 0.  0.
        1    1    3    3  502    0  0.16812451604E+03  0.18039327619E+03  0.37417345971E+03  0.44812204249E+03  0.50400001928E-02 0.  1.
       -1    1    3    3    0  502 -0.16812451604E+03 -0.18039327619E+03  0.54208226431E+03  0.59553401942E+03  0.50400001928E-02 0. -1.
</event>
<event>
 5   0  0.4884478E-02  0.4936123E+03  0.7818609E-02  0.1015460E+00
       -1   -1    0    0    0  501  0.00000000000E+00  0.00000000000E+00  0.22382003972E+03  0.22382003978E+03  0.50400001928E-02 0. -1.
        1   -1    0    0  501    0  0.00000000000E+00  0.00000000000E+00 -0.27215293576E+03  0.27215293581E+03  0.50400001928E-02 0.  1.
    10030    2    1    2    0    0  0.00000000000E+00  0.00000000000E+00 -0.48332896034E+02  0.49597297559E+03  0.49361232123E+03 0.  0.
        3    1    3    3  502    0 -0.21212462665E+03 -0.55900364493E+02  0.89474232120E+02  0.23691212800E+03  0.10100000352E+00 0. -1.
       -3    1    3    3    0  502  0.21212462665E+03  0.55900364493E+02 -0.13780712815E+03  0.25906084758E+03  0.10100000352E+00 0.  1.
</event>
<event>
 5   0  0.4803890E-02  0.5035771E+03  0.7818609E-02  0.1012849E+00
       -1   -1    0    0    0  501  0.00000000000E+00  0.00000000000E+00  0.12267544951E+03  0.12267544961E+03  0.50400001928E-02 0.  1.
        1   -1    0    0  501    0  0.00000000000E+00  0.00000000000E+00 -0.51679015798E+03  0.51679015800E+03  0.50400001928E-02 0. -1.
    10030    2    1    2    0    0  0.00000000000E+00  0.00000000000E+00 -0.39411470847E+03  0.63946560762E+03  0.50357706450E+03 0.  0.
        5    1    3    3  502    0  0.77062020355E+01  0.44307442422E+02 -0.51159206923E+03  0.51358647792E+03  0.46999998093E+01 0. -1.
       -5    1    3    3    0  502 -0.77062020355E+01 -0.44307442422E+02  0.11747736076E+03  0.12587912970E+03  0.46999998093E+01 0.  1.
</event>
<event>
 5   0  0.7776070E-02  0.5031374E+03  0.7818609E-02  0.1012963E+00
        2   -1    0    0  501    0  0.00000000000E+00  0.00000000000E+00  0.14039015052E+04  0.14039015052E+04  0.25500000920E-02 0. -1.
       -2   -1    0    0    0  501  0.00000000000E+00  0.00000000000E+00 -0.45079237097E+02  0.45079237169E+02  0.25500000920E-02 0.  1.
    10030    2    1    2    0    0  0.00000000000E+00  0.00000000000E+00  0.13588222681E+04  0.14489807424E+04  0.50313739225E+03 0.  0.
        4    1    3    3  502    0 -0.16641093073E+02  0.15906890219E+03  0.12386244862E+04  0.12489083522E+04  0.12699999809E+01 0. -1.
       -4    1    3    3    0  502  0.16641093073E+02 -0.15906890219E+03  0.12019778196E+03  0.20007239018E+03  0.12699999809E+01 0.  1.
</event>
<event>
 5   0  0.7698747E-02  0.4974811E+03  0.7818609E-02  0.1014438E+00
        2   -1    0    0  501    0  0.00000000000E+00  0.00000000000E+00  0.57766801408E+03  0.57766801408E+03  0.25500000920E-02 0. -1.
       -2   -1    0    0    0  501  0.00000000000E+00  0.00000000000E+00 -0.10710625983E+03  0.10710625986E+03  0.25500000920E-02 0.  1.
    10030    2    1    2    0    0  0.00000000000E+00  0.00000000000E+00  0.47056175424E+03  0.68477427395E+03  0.49748109683E+03 0.  0.
        2    1    3    3  502    0 -0.51414785289E+02  0.22289250173E+03  0.36977751624E+03  0.43481025632E+03  0.25500000920E-02 0. -1.
       -2    1    3    3    0  502  0.51414785289E+02 -0.22289250173E+03  0.10078423800E+03  0.24996401763E+03  0.25500000920E-02 0.  1.
</event>
<event>
 5   0  0.5191358E-02  0.4994552E+03  0.7818609E-02  0.1013921E+00
        1   -1    0    0  501    0  0.00000000000E+00  0.00000000000E+00  0.27174188317E+03  0.27174188321E+03  0.50400001928E-02 0.  1.
       -1   -1    0    0    0  501  0.00000000000E+00  0.00000000000E+00 -0.22949672705E+03  0.22949672711E+03  0.50400001928E-02 0. -1.
    10030    2    1    2    0    0  0.00000000000E+00  0.00000000000E+00  0.42245156114E+02  0.50123861032E+03  0.49945519445E+03 0.  0.
        4    1    3    3  502    0 -0.19387803488E+03  0.14686214015E+03 -0.35692992516E+02  0.24583080204E+03  0.12699999809E+01 0. -1.
       -4    1    3    3    0  502  0.19387803488E+03 -0.14686214015E+03  0.77938148630E+02  0.25540780828E+03  0.12699999809E+01 0.  1.
</event>
<event>
 5   0  0.3210875E-02  0.5005383E+03  0.7818609E-02  0.1013639E+00
       -3   -1    0    0    0  501  0.00000000000E+00  0.00000000000E+00  0.74893285275E+02  0.74893353379E+02  0.10100000352E+00 0.  1.
        3   -1    0    0  501    0  0.00000000000E+00  0.00000000000E+00 -0.83631806306E+03  0.83631806915E+03  0.10100000352E+00 0. -1.
    10030    2    1    2    0    0  0.00000000000E+00  0.00000000000E+00 -0.76142477778E+03  0.91121142253E+03  0.50053827460E+03 0.  0.
        4    1    3    3  502    0 -0.80212777281E+02 -0.29655742318E+02 -0.80888697822E+03  0.81339615756E+03  0.12699999809E+01 0. -1.
       -4    1    3    3    0  502  0.80212777281E+02  0.29655742318E+02  0.47462200442E+02  0.97815264976E+02  0.12699999809E+01 0.  1.
</event>
<event>
 5   0  0.7933103E-02  0.5037602E+03  0.7818609E-02  0.1012802E+00
        2   -1    0    0  501    0  0.00000000000E+00  0.00000000000E+00  0.34209570178E+03  0.34209570179E+03  0.25500000920E-02 0.  1.
       -2   -1    0    0    0  501  0.00000000000E+00  0.00000000000E+00 -0.18545562982E+03  0.18545562984E+03  0.25500000920E-02 0. -1.
    10030    2    1    2    0    0  0.00000000000E+00  0.00000000000E+00  0.15664007196E+03  0.52755133163E+03  0.50376015658E+03 0.  0.
        5    1    3    3  502    0 -0.21320174972E+03 -0.15834947969E+02  0.21770653389E+03  0.30516218074E+03  0.46999998093E+01 0. -1.
       -5    1    3    3    0  502  0.21320174972E+03  0.15834947969E+02 -0.61066461923E+02  0.22238915088E+03  0.46999998093E+01 0.  1.
</event>
<event>
 5   0  0.5191358E-02  0.4541190E+03  0.7818609E-02  0.1026501E+00
       -1   -1    0    0    0  501  0.00000000000E+00  0.00000000000E+00  0.10309523230E+03  0.10309523242E+03  0.50400001928E-02 0.  1.
        1   -1    0    0  501    0  0.00000000000E+00  0.00000000000E+00 -0.50008141674E+03  0.50008141676E+03  0.50400001928E-02 0. -1.
    10030    2    1    2    0    0  0.00000000000E+00  0.00000000000E+00 -0.39698618444E+03  0.60317664918E+03  0.45411897063E+03 0.  0.
        4    1    3    3  502    0  0.20928680924E+03 -0.86873978332E+02 -0.17941359417E+03  0.28903097983E+03  0.12699999809E+01 0. -1.
       -4    1    3    3    0  502 -0.20928680924E+03  0.86873978332E+02 -0.21757259027E+03  0.31414566935E+03  0.12699999809E+01 0.  1.
</event>
<event>
 5   0  0.7776070E-02  0.5026362E+03  0.7818609E-02  0.1013093E+00
        2   -1    0    0  501    0  0.00000000000E+00  0.00000000000E+00  0.10770685893E+04  0.10770685893E+04  0.25500000920E-02 0. -1.
       -2   -1    0    0    0  501  0.00000000000E+00  0.00000000000E+00 -0.58641368958E+02  0.58641369013E+02  0.25500000920E-02 0.  1.
    10030    2    1    2    0    0  0.00000000000E+00  0.00000000000E+00  0.10184272204E+04  0.11357099583E+04  0.50263615697E+03 0.  0.
        4    1    3    3  502    0 -0.61202588358E+02  0.38744110033E+01  0.10598958442E+04  0.10616692429E+04  0.12699999809E+01 0. -1.
       -4    1    3    3    0  502  0.61202588358E+02 -0.38744110033E+01 -0.41468623820E+02  0.74040715447E+02  0.12699999809E+01 0.  1.
</event>
<event>
 5   0  0.4865501E-02  0.4978439E+03  0.7818609E-02  0.1014343E+00
        1   -1    0    0  501    0  0.00000000000E+00  0.00000000000E+00  0.82359243138E+03  0.82359243139E+03  0.50400001928E-02 0. -1.
       -1   -1    0    0    0  501  0.00000000000E+00  0.00000000000E+00 -0.75233982555E+02  0.75233982723E+02  0.50400001928E-02 0.  1.
    10030    2    1    2    0    0  0.00000000000E+00  0.00000000000E+00  0.74835844882E+03  0.89882641412E+03  0.49784390605E+03 0.  0.
        2    1    3    3  502    0  0.16545414371E+03 -0.10860000841E+03  0.64675318184E+03  0.67635694254E+03  0.25500000920E-02 0.  1.
       -2    1    3    3    0  502 -0.16545414371E+03  0.10860000841E+03  0.10160526698E+03  0.22246947158E+03  0.25500000920E-02 0. -1.
</event>
<event>
 5   0  0.4865501E-02  0.5005885E+03  0.7818609E-02  0.1013625E+00
       -1   -1    0    0    0  501  0.00000000000E+00  0.00000000000E+00  0.79782740720E+02  0.79782740879E+02  0.50400001928E-02 0. -1.
        1   -1    0    0  501    0  0.00000000000E+00  0.00000000000E+00 -0.78522248891E+03  0.78522248892E+03  0.50400001928E-02 0.  1.
    10030    2    1    2    0    0  0.00000000000E+00  0.00000000000E+00 -0.70543974819E+03  0.86500522980E+03  0.50058846297E+03 0.  0.
        2    1    3    3  502    0 -0.21793288683E+03 -0.12111897454E+03 -0.31475731591E+03  0.40154292060E+03  0.25500000920E-02 0. -1.
       -2    1    3    3    0  502  0.21793288683E+03  0.12111897454E+03 -0.39068243228E+03  0.46346230920E+03  0.25500000920E-02 0.  1.
</event>
<event>
 5   0  0.7698747E-02  0.5029043E+03  0.7818609E-02  0.1013024E+00
        2   -1    0    0  501    0  0.00000000000E+00  0.00000000000E+00  0.11139155498E+04  0.11139155498E+04  0.25500000920E-02 0. -1.
       -2   -1    0    0    0  501  0.00000000000E+00  0.00000000000E+00 -0.56762105688E+02  0.56762105745E+02  0.25500000920E-02 0.  1.
    10030    2    1    2    0    0  0.00000000000E+00  0.00000000000E+00  0.10571534441E+04  0.11706776556E+04  0.50290433365E+03 0.  0.
        2    1    3    3  502    0  0.17847444343E+03  0.16097302453E+03  0.70062789522E+03  0.74070566972E+03  0.25500000920E-02 0.  1.
       -2    1    3    3    0  502 -0.17847444343E+03 -0.16097302453E+03  0.35652554893E+03  0.42997198587E+03  0.25500000920E-02 0. -1.
</event>
<event>
 5   0  0.4803890E-02  0.5001584E+03  0.7818609E-02  0.1013738E+00
        1   -1    0    0  501    0  0.00000000000E+00  0.00000000000E+00  0.75619873277E+03  0.75619873278E+03  0.50400001928E-02 0.  1.
       -1   -1    0    0    0  501  0.00000000000E+00  0.00000000000E+00 -0.82702593690E+02  0.82702593843E+02  0.50400001928E-02 0. -1.
    10030    2    1    2    0    0  0.00000000000E+00  0.00000000000E+00  0.67349613908E+03  0.83890132663E+03  0.50015836139E+03 0.  0.
        5    1    3    3  502    0  0.62340749727E+02  0.20729656194E+03  0.12685932743E+03  0.25094543754E+03  0.46999998093E+01 0. -1.
       -5    1    3    3    0  502 -0.62340749727E+02 -0.20729656194E+03  0.54663681164E+03  0.58795588909E+03  0.46999998093E+01 0.  1.
</event>
<event>
 5   0  0.5191358E-02  0.5028098E+03  0.7818609E-02  0.1013048E+00
       -1   -1    0    0    0  501  0.00000000000E+00  0.00000000000E+00  0.40463987732E+03  0.40463987735E+03  0.50400001928E-02 0. -1.
        1   -1    0    0  501    0  0.00000000000E+00  0.00000000000E+00 -0.15619921803E+03  0.15619921812E+03  0.50400001928E-02 0.  1.
    10030    2    1    2    0    0  0.00000000000E+00  0.00000000000E+00  0.24844065928E+03  0.56083909547E+03  0.50280983465E+03 0.  0.
        4    1    3    3  502    0  0.47688799164E+02 -0.22058595376E+02  0.39844339966E+03  0.40189495995E+03  0.12699999809E+01 0. -1.
       -4    1    3    3    0  502 -0.47688799164E+02  0.22058595376E+02 -0.15000274038E+03  0.15894413552E+03  0.12699999809E+01 0.  1.
</event>
<event>
 5   0  0.4803890E-02  0.5012027E+03  0.7818609E-02  0.1013465E+00
       -1   -1    0    0    0  501  0.00000000000E+00  0.00000000000E+00  0.12904697191E+03  0.12904697200E+03  0.50400001928E-02 0.  1.
        1   -1    0    0  501    0  0.00000000000E+00  0.00000000000E+00 -0.48665253554E+03  0.48665253556E+03  0.50400001928E-02 0. -1.
    10030    2    1    2    0    0  0.00000000000E+00  0.00000000000E+00 -0.35760556363E+03  0.61569950757E+03  0.50120269800E+03 0.  0.
        5    1    3    3  502    0 -0.14456113795E+03 -0.67715402664E+02 -0.41604090702E+03  0.44564046571E+03  0.46999998093E+01 0. -1.
       -5    1    3    3    0  502  0.14456113795E+03  0.67715402664E+02  0.58435343384E+02  0.17005904186E+03  0.46999998093E+01 0.  1.
</event>
<event>
 5   0  0.7698747E-02  0.5008943E+03  0.7818609E-02  0.1013546E+00
        2   -1    0    0  501    0  0.00000000000E+00  0.00000000000E+00  0.70077460149E+03  0.70077460149E+03  0.25500000920E-02 0. -1.
       -2   -1    0    0    0  501  0.00000000000E+00  0.00000000000E+00 -0.89506360848E+02  0.89506360884E+02  0.25500000920E-02 0.  1.
    10030    2    1    2    0    0  0.00000000000E+00  0.00000000000E+00  0.61126824064E+03  0.79028096238E+03  0.50089433764E+03 0.  0.
        2    1    3    3  502    0  0.12714714562E+03  0.64020033432E+02  0.63073591989E+03  0.64660092945E+03  0.25500000920E-02 0. -1.
       -2    1    3    3    0  502 -0.12714714562E+03 -0.64020033432E+02 -0.19467679251E+02  0.14368003293E+03  0.25500000920E-02 0.  1.
</event>
<event>
 5   0  0.7698747E-02  0.5012922E+03  0.7818609E-02  0.1013442E+00
        2   -1    0    0  501    0  0.00000000000E+00  0.00000000000E+00  0.65206032944E+03  0.65206032945E+03  0.25500000920E-02 0.  1.
       -2   -1    0    0    0  501  0.00000000000E+00  0.00000000000E+00 -0.96346091041E+02  0.96346091075E+02  0.25500000920E-02 0. -1.
    10030    2    1    2    0    0  0.00000000000E+00  0.00000000000E+00  0.55571423840E+03  0.74840642052E+03  0.50129218577E+03 0.  0.
        2    1    3    3  502    0  0.20814253323E+03  0.12724067996E+03  0.36375014128E+03  0.43798135812E+03  0.25500000920E-02 0.  1.
       -2    1    3    3    0  502 -0.20814253323E+03 -0.12724067996E+03  0.19196409712E+03  0.31042506240E+03  0.25500000920E-02 0. -1.
</event>
<event>
 5   0  0.5191358E-02  0.5004288E+03  0.7818609E-02  0.1013667E+00
       -1   -1    0    0    0  501  0.00000000000E+00  0.00000000000E+00  0.63338788544E+03  0.63338788546E+03  0.50400001928E-02 0. -1.
        1   -1    0    0  501    0  0.00000000000E+00  0.00000000000E+00 -0.98845048603E+02  0.98845048732E+02  0.50400001928E-02 0.  1.
    10030    2    1    2    0    0  0.00000000000E+00  0.00000000000E+00  0.53454283683E+03  0.73223293419E+03  0.50042884160E+03 0.  0.
        4    1    3    3  502    0 -0.13881629393E+03  0.14115341165E+03  0.49115413472E+03  0.52955476207E+03  0.12699999809E+01 0. -1.
       -4    1    3    3    0  502  0.13881629393E+03 -0.14115341165E+03  0.43388702114E+02  0.20267817212E+03  0.12699999809E+01 0.  1.
</event>
<event>
 5   0  0.8208720E-02  0.5023769E+03  0.7818609E-02  0.1013160E+00
        2   -1    0    0  501    0  0.00000000000E+00  0.00000000000E+00  0.69169583511E+03  0.69169583512E+03  0.25500000920E-02 0. -1.
       -2   -1    0    0    0  501  0.00000000000E+00  0.00000000000E+00 -0.91218756435E+02  0.91218756471E+02  0.25500000920E-02 0.  1.
    10030    2    1    2    0    0  0.00000000000E+00  0.00000000000E+00  0.60047707868E+03  0.78291459159E+03  0.50237688612E+03 0.  0.
        3    1    3    3  502    0  0.44709885243E+01  0.11661703161E+03  0.64688157187E+03  0.65732434918E+03  0.10100000352E+00 0. -1.
       -3    1    3    3    0  502 -0.44709885243E+01 -0.11661703161E+03 -0.46404493190E+02  0.12559024241E+03  0.10100000352E+00 0.  1.
</event>
<event>
 5   0  0.8208720E-02  0.4998661E+03  0.7818609E-02  0.1013814E+00
       -2   -1    0    0    0  501  0.00000000000E+00  0.00000000000E+00  0.35902126138E+03  0.35902126139E+03  0.25500000920E-02 0.  1.
        2   -1    0    0  501    0  0.00000000000E+00  0.00000000000E+00 -0.17399115151E+03  0.17399115153E+03  0.25500000920E-02 0. -1.
    10030    2    1    2    0    0  0.00000000000E+00  0.00000000000E+00  0.18503010987E+03  0.53301241291E+03  0.49986607282E+03 0.  0.
        3    1    3    3  502    0 -0.79589509437E+02 -0.12269895190E+03  0.30862908718E+03  0.34152810494E+03  0.10100000352E+00 0.  1.
       -3    1    3    3    0  502  0.79589509437E+02  0.12269895190E+03 -0.12359897730E+03  0.19148430798E+03  0.10100000352E+00 0. -1.
</event>
<event>
 5   0  0.7776070E-02  0.5014835E+03  0.7818609E-02  0.1013392E+00
        2   -1    0    0  501    0  0.00000000000E+00  0.00000000000E+00  0.96950168579E+02  0.96950168613E+02  0.25500000920E-02 0.  1.
       -2   -1    0    0    0  501  0.00000000000E+00  0.00000000000E+00 -0.64849224327E+03  0.64849224328E+03  0.25500000920E-02 0. -1.
    10030    2    1    2    0    0  0.00000000000E+00  0.00000000000E+00 -0.55154207469E+03  0.74544241189E+03  0.50148352843E+03 0.  0.
        4    1    3    3  502    0  0.18590938675E+02  0.22378572075E+03 -0.44159221775E+03  0.49540990249E+03  0.12699999809E+01 0. -1.
       -4    1    3    3    0  502 -0.18590938675E+02 -0.22378572075E+03 -0.10994985694E+03  0.25003250939E+03  0.12699999809E+01 0.  1.
</event>
<event>
 5   0  0.4865501E-02  0.4698569E+03  0.7818609E-02  0.1021961E+00
        1   -1    0    0  501    0  0.00000000000E+00  0.00000000000E+00  0.38567010933E+03  0.38567010936E+03  0.50400001928E-02 0.  1.
       -1   -1    0    0    0  501  0.00000000000E+00  0.00000000000E+00 -0.14310513801E+03  0.14310513810E+03  0.50400001928E-02 0. -1.
    10030    2    1    2    0    0  0.00000000000E+00  0.00000000000E+00  0.24256497132E+03  0.52877524746E+03  0.46985688994E+03 0.  0.
        2    1    3    3  502    0 -0.26671114608E+02  0.23331001685E+03  0.12895352405E+03  0.26790655775E+03  0.25500000920E-02 0.  1.
       -2    1    3    3    0  502  0.26671114608E+02 -0.23331001685E+03  0.11361144727E+03  0.26086868971E+03  0.25500000920E-02 0. -1.
</event>
<event>
 5   0  0.5191358E-02  0.5051357E+03  0.7818609E-02  0.1012447E+00
       -1   -1    0    0    0  501  0.00000000000E+00  0.00000000000E+00  0.45400236173E+02  0.45400236453E+02  0.50400001928E-02 0.  1.
        1   -1    0    0  501    0  0.00000000000E+00  0.00000000000E+00 -0.14050702907E+04  0.14050702907E+04  0.50400001928E-02 0. -1.
    10030    2    1    2    0    0  0.00000000000E+00  0.00000000000E+00 -0.13596700546E+04  0.14504705272E+04  0.50513571740E+03 0.  0.
        4    1    3    3  502    0  0.16031229583E+03  0.67224191534E+02 -0.12059432850E+04  0.12184087753E+04  0.12699999809E+01 0. -1.
       -4    1    3    3    0  502 -0.16031229583E+03 -0.67224191534E+02 -0.15372676952E+03  0.23206175188E+03  0.12699999809E+01 0.  1.
</event>
<event>
 5   0  0.7933103E-02  0.5010825E+03  0.7818609E-02  0.1013497E+00
       -2   -1    0    0    0  501  0.00000000000E+00  0.00000000000E+00  0.18327758704E+03  0.18327758705E+03  0.25500000920E-02 0.  1.
        2   -1    0    0  501    0  0.00000000000E+00  0.00000000000E+00 -0.34249090416E+03  0.34249090417E+03  0.25500000920E-02 0. -1.
    10030    2    1    2    0    0  0.00000000000E+00  0.00000000000E+00 -0.15921331712E+03  0.52576849122E+03  0.50108245431E+03 0.  0.
        5    1    3    3  502    0 -0.21912991691E+03 -0.67918977817E+02  0.25936656986E+02  0.23092359820E+03  0.46999998093E+01 0. -1.
       -5    1    3    3    0  502  0.21912991691E+03  0.67918977817E+02 -0.18514997411E+03  0.29484489302E+03  0.46999998093E+01 0.  1.
</event>
<event>
 5   0  0.5191358E-02  0.4962675E+03  0.7818609E-02  0.1014758E+00
       -1   -1    0    0    0  501  0.00000000000E+00  0.00000000000E+00  0.12559730493E+03  0.12559730504E+03  0.50400001928E-02 0.  1.
        1   -1    0    0  501    0  0.00000000000E+00  0.00000000000E+00 -0.49022040947E+03  0.49022040949E+03  0.50400001928E-02 0. -1.
    10030    2    1    2    0    0  0.00000000000E+00  0.00000000000E+00 -0.36462310453E+03  0.61581771453E+03  0.49626751774E+03 0.  0.
        4    1    3    3  502    0 -0.17141105777E+03  0.11130632726E+03 -0.35691221688E+03  0.41128918375E+03  0.12699999809E+01 0. -1.
       -4    1    3    3    0  502  0.17141105777E+03 -0.11130632726E+03 -0.77108876546E+01  0.20452853078E+03  0.12699999809E+01 0.  1.
</event>
<event>
 5   0  0.8208720E-02  0.4969891E+03  0.7818609E-02  0.1014568E+00
        2   -1    0    0  501    0  0.00000000000E+00  0.00000000000E+00  0.41787528425E+03  0.41787528425E+03  0.25500000920E-02 0. -1.
       -2   -1    0    0    0  501  0.00000000000E+00  0.00000000000E+00 -0.14777028205E+03  0.14777028207E+03  0.25500000920E-02 0.  1.
    10030    2    1    2    0    0  0.00000000000E+00  0.00000000000E+00  0.27010500220E+03  0.56564556632E+03  0.49698912914E+03 0.  0.
        3    1    3    3  502    0 -0.15162573252E+03  0.19676933243E+03  0.12776433258E+03  0.27934256358E+03  0.10100000352E+00 0. -1.
       -3    1    3    3    0  502  0.15162573252E+03 -0.19676933243E+03  0.14234066962E+03  0.28630300274E+03  0.10100000352E+00 0.  1.
</event>
<event>
 5   0  0.8208720E-02  0.5012049E+03  0.7818609E-02  0.1013465E+00
       -2   -1    0    0    0  501  0.00000000000E+00  0.00000000000E+00  0.10720965072E+03  0.10720965075E+03  0.25500000920E-02 0. -1.
        2   -1    0    0  501    0  0.00000000000E+00  0.00000000000E+00 -0.58578285780E+03  0.58578285780E+03  0.25500000920E-02 0.  1.
    10030    2    1    2    0    0  0.00000000000E+00  0.00000000000E+00 -0.47857320708E+03  0.69299250855E+03  0.50120485071E+03 0.  0.
        3    1    3    3  502    0  0.15995458807E+03 -0.76277082103E+02 -0.48428519547E+03  0.51568965886E+03  0.10100000352E+00 0.  1.
       -3    1    3    3    0  502 -0.15995458807E+03  0.76277082103E+02  0.57119883959E+01  0.17730284970E+03  0.10100000352E+00 0. -1.
</event>
<event>
 5   0  0.5191358E-02  0.5040609E+03  0.7818609E-02  0.1012724E+00
        1   -1    0    0  501    0  0.00000000000E+00  0.00000000000E+00  0.45356675808E+03  0.45356675811E+03  0.50400001928E-02 0.  1.
       -1   -1    0    0    0  501  0.00000000000E+00  0.00000000000E+00 -0.14004407323E+03  0.14004407332E+03  0.50400001928E-02 0. -1.
    10030    2    1    2    0    0  0.00000000000E+00  0.00000000000E+00  0.31352268485E+03  0.59361083144E+03  0.50406085474E+03 0.  0.
        4    1    3    3  502    0 -0.48266248443E+02 -0.92585772578E+02 -0.11337164725E+03  0.15413143522E+03  0.12699999809E+01 0. -1.
       -4    1    3    3    0  502  0.48266248443E+02  0.92585772578E+02  0.42689433210E+03  0.43947939622E+03  0.12699999809E+01 0.  1.
</event>
<event>
 5   0  0.4884478E-02  0.4967442E+03  0.7818609E-02  0.1014632E+00
        1   -1    0    0  501    0  0.00000000000E+00  0.00000000000E+00  0.18262427178E+03  0.18262427185E+03  0.50400001928E-02 0. -1.
       -1   -1    0    0    0  501  0.00000000000E+00  0.00000000000E+00 -0.33779030185E+03  0.33779030189E+03  0.50400001928E-02 0.  1.
    10030    2    1    2    0    0  0.00000000000E+00  0.00000000000E+00 -0.15516603007E+03  0.52041457374E+03  0.49674423164E+03 0.  0.
        3    1    3    3  502    0  0.16417114092E+03 -0.73945304104E+02 -0.25681593765E+03  0.31364710670E+03  0.10100000352E+00 0.  1.
       -3    1    3    3    0  502 -0.16417114092E+03  0.73945304104E+02  0.10164990759E+03  0.20676746703E+03  0.10100000352E+00 0. -1.
</event>
<event>
 5   0  0.4865501E-02  0.4992178E+03  0.7818609E-02  0.1013983E+00
        1   -1    0    0  501    0  0.00000000000E+00  0.00000000000E+00  0.53703619703E+03  0.53703619706E+03  0.50400001928E-02 0. -1.
       -1   -1    0    0    0  501  0.00000000000E+00  0.00000000000E+00 -0.11601563060E+03  0.11601563071E+03  0.50400001928E-02 0.  1.
    10030    2    1    2    0    0  0.00000000000E+00  0.00000000000E+00  0.42102056643E+03  0.65305182777E+03  0.49921776049E+03 0.  0.
        2    1    3    3  502    0  0.12562274651E+03  0.10247435146E+03 -0.37771412582E+02  0.16645944480E+03  0.25500000920E-02 0.  1.
       -2    1    3    3    0  502 -0.12562274651E+03 -0.10247435146E+03  0.45879197902E+03  0.48659238297E+03  0.25500000920E-02 0. -1.
</event>
<event>
 5   0  0.7933103E-02  0.4983327E+03  0.7818609E-02  0.1014215E+00
        2   -1    0    0  501    0  0.00000000000E+00  0.00000000000E+00  0.17379505231E+04  0.17379505231E+04  0.25500000920E-02 0.  1.
       -2   -1    0    0    0  501  0.00000000000E+00  0.00000000000E+00 -0.35722464615E+02  0.35722464706E+02  0.25500000920E-02 0. -1.
    10030    2    1    2    0    0  0.00000000000E+00  0.00000000000E+00  0.17022280585E+04  0.17736729878E+04  0.49833272478E+03 0.  0.
        5    1    3    3  502    0  0.12464049584E+03  0.32390745274E+02  0.92096462801E+02  0.15839274618E+03  0.46999998093E+01 0. -1.
       -5    1    3    3    0  502 -0.12464049584E+03 -0.32390745274E+02  0.16101315957E+04  0.16152802417E+04  0.46999998093E+01 0.  1.
</event>
<event>
 5   0  0.5191358E-02  0.5016918E+03  0.7818609E-02  0.1013338E+00
        1   -1    0    0  501    0  0.00000000000E+00  0.00000000000E+00  0.88841962837E+03  0.88841962838E+03  0.50400001928E-02 0. -1.
       -1   -1    0    0    0  501  0.00000000000E+00  0.00000000000E+00 -0.70826522886E+02  0.70826523066E+02  0.50400001928E-02 0.  1.
    10030    2    1    2    0    0  0.00000000000E+00  0.00000000000E+00  0.81759310548E+03  0.95924615145E+03  0.50169183065E+03 0.  0.
        4    1    3    3  502    0 -0.11958906894E+03  0.19572959651E+03  0.21464912750E+03  0.31414563692E+03  0.12699999809E+01 0.  1.
       -4    1    3    3    0  502  0.11958906894E+03 -0.19572959651E+03  0.60294397799E+03  0.64510051453E+03  0.12699999809E+01 0. -1.
</event>
<event>
 5   0  0.3210875E-02  0.4578193E+03  0.7818609E-02  0.1025416E+00
       -3   -1    0    0    0  501  0.00000000000E+00  0.00000000000E+00  0.13322096811E+03  0.13322100640E+03  0.10100000352E+00 0. -1.
        3   -1    0    0  501    0  0.00000000000E+00  0.00000000000E+00 -0.39332863538E+03  0.39332864835E+03  0.10100000352E+00 0.  1.
    10030    2    1    2    0    0  0.00000000000E+00  0.00000000000E+00 -0.26010766727E+03  0.52654965475E+03  0.45781933155E+03 0.  0.
        2    1    3    3  502    0 -0.35737676159E+02  0.19160849180E+03  0.80026134401E+01  0.19507700391E+03  0.25500000920E-02 0. -1.
       -2    1    3    3    0  502  0.35737676159E+02 -0.19160849180E+03 -0.26811028071E+03  0.33147265084E+03  0.25500000920E-02 0.  1.
</event>
<event>
 5   0  0.4865501E-02  0.4959606E+03  0.7818609E-02  0.1014839E+00
       -1   -1    0    0    0  501  0.00000000000E+00  0.00000000000E+00  0.70132284745E+02  0.70132284926E+02  0.50400001928E-02 0. -1.
        1   -1    0    0  501    0  0.00000000000E+00  0.00000000000E+00 -0.87683178921E+03  0.87683178922E+03  0.50400001928E-02 0.  1.
    10030    2    1    2    0    0  0.00000000000E+00  0.00000000000E+00 -0.80669950446E+03  0.94696407415E+03  0.49596055007E+03 0.  0.
        2    1    3    3  502    0 -0.17659658100E+03  0.17384707236E+03 -0.42095931507E+03  0.48848326680E+03  0.25500000920E-02 0.  1.
       -2    1    3    3    0  502  0.17659658100E+03 -0.17384707236E+03 -0.38574018939E+03  0.45848080735E+03  0.25500000920E-02 0. -1.
</event>
<event>
 5   0  0.4803890E-02  0.5000975E+03  0.7818609E-02  0.1013753E+00
       -1   -1    0    0    0  501  0.00000000000E+00  0.00000000000E+00  0.23954836401E+03  0.23954836406E+03  0.50400001928E-02 0.  1.
        1   -1    0    0  501    0  0.00000000000E+00  0.00000000000E+00 -0.26100943354E+03  0.26100943359E+03  0.50400001928E-02 0. -1.
    10030    2    1    2    0    0  0.00000000000E+00  0.00000000000E+00 -0.21461069534E+02  0.50055779766E+03  0.50009752178E+03 0.  0.
        5    1    3    3  502    0  0.55509378692E+02 -0.13168966518E+03  0.19458952224E+03  0.24147594332E+03  0.46999998093E+01 0.  1.
       -5    1    3    3    0  502 -0.55509378692E+02  0.13168966518E+03 -0.21605059178E+03  0.25908185433E+03  0.46999998093E+01 0. -1.
</event>
<event>
 5   0  0.7698747E-02  0.4966585E+03  0.7818609E-02  0.1014655E+00
       -2   -1    0    0    0  501  0.00000000000E+00  0.00000000000E+00  0.20273975174E+03  0.20273975175E+03  0.25500000920E-02 0.  1.
        2   -1    0    0  501    0  0.00000000000E+00  0.00000000000E+00 -0.30417038463E+03  0.30417038464E+03  0.25500000920E-02 0. -1.
    10030    2    1    2    0    0  0.00000000000E+00  0.00000000000E+00 -0.10143063289E+03  0.50691013639E+03  0.49665854778E+03 0.  0.
        2    1    3    3  502    0 -0.19506388533E+03  0.11720116084E+03 -0.15217236658E+03  0.27375620654E+03  0.25500000920E-02 0. -1.
       -2    1    3    3    0  502  0.19506388533E+03 -0.11720116084E+03  0.50741733693E+02  0.23315392985E+03  0.25500000920E-02 0.  1.
</event>
<event>
 5   0  0.7776070E-02  0.4970888E+03  0.7818609E-02  0.1014542E+00
        2   -1    0    0  501    0  0.00000000000E+00  0.00000000000E+00  0.48590559948E+03  0.48590559949E+03  0.25500000920E-02 0.  1.
       -2   -1    0    0    0  501  0.00000000000E+00  0.00000000000E+00 -0.12713236295E+03  0.12713236298E+03  0.25500000920E-02 0. -1.
    10030    2    1    2    0    0  0.00000000000E+00  0.00000000000E+00  0.35877323653E+03  0.61303796247E+03  0.49708883328E+03 0.  0.
        4    1    3    3  502    0 -0.16556470454E+03  0.18357333545E+03  0.14765875817E+03  0.28795062536E+03  0.12699999809E+01 0. -1.
       -4    1    3    3    0  502  0.16556470454E+03 -0.18357333545E+03  0.21111447835E+03  0.32508733711E+03  0.12699999809E+01 0.  1.
</event>
<event>
 5   0  0.8208720E-02  0.5020801E+03  0.7818609E-02  0.1013237E+00
       -2   -1    0    0    0  501  0.00000000000E+00  0.00000000000E+00  0.41533723458E+02  0.41533723537E+02  0.25500000920E-02 0.  1.
        2   -1    0    0  501    0  0.00000000000E+00  0.00000000000E+00 -0.15173479834E+04  0.15173479834E+04  0.25500000920E-02 0. -1.
    10030    2    1    2    0    0  0.00000000000E+00  0.00000000000E+00 -0.14758142599E+04  0.15588817069E+04  0.50208011948E+03 0.  0.
        3    1    3    3  502    0  0.12874838079E+03  0.41322007478E+01 -0.68901818728E+02  0.14608453534E+03  0.10100000352E+00 0.  1.
       -3    1    3    3    0  502 -0.12874838079E+03 -0.41322007478E+01 -0.14069124412E+04  0.14127971716E+04  0.10100000352E+00 0. -1.
</event>
<event>
 5   0  0.5191358E-02  0.4981503E+03  0.7818609E-02  0.1014263E+00
       -1   -1    0    0    0  501  0.00000000000E+00  0.00000000000E+00  0.13547925575E+03  0.13547925585E+03  0.50400001928E-02 0. -1.
        1   -1    0    0  501    0  0.00000000000E+00  0.00000000000E+00 -0.45791833250E+03  0.45791833253E+03  0.50400001928E-02 0.  1.
    10030    2    1    2    0    0  0.00000000000E+00  0.00000000000E+00 -0.32243907675E+03  0.59339758837E+03  0.49815031835E+03 0.  0.
        4    1    3    3  502    0 -0.18828052411E+03  0.83569768853E+01 -0.35519690417E+03  0.40210178868E+03  0.12699999809E+01 0.  1.
       -4    1    3    3    0  502  0.18828052411E+03 -0.83569768853E+01  0.32757827425E+02  0.19129579970E+03  0.12699999809E+01 0. -1.
</event>
<event>
 5   0  0.4884478E-02  0.4975784E+03  0.7818609E-02  0.1014413E+00
       -1   -1    0    0    0  501  0.00000000000E+00  0.00000000000E+00  0.14592041145E+03  0.14592041154E+03  0.50400001928E-02 0. -1.
        1   -1    0    0  501    0  0.00000000000E+00  0.00000000000E+00 -0.42417691956E+03  0.42417691959E+03  0.50400001928E-02 0.  1.
    10030    2    1    2    0    0  0.00000000000E+00  0.00000000000E+00 -0.27825650811E+03  0.57009733113E+03  0.49757841860E+03 0.  0.
        3    1    3    3  502    0  0.15046591058E+03 -0.19096157359E+02  0.86822762688E+02  0.17476514468E+03  0.10100000352E+00 0. -1.
       -3    1    3    3    0  502 -0.15046591058E+03  0.19096157359E+02 -0.36507927079E+03  0.39533218644E+03  0.10100000352E+00 0.  1.
</event>
<event>
 5   0  0.4803890E-02  0.4964092E+03  0.7818609E-02  0.1014720E+00
        1   -1    0    0  501    0  0.00000000000E+00  0.00000000000E+00  0.21856980017E+03  0.21856980023E+03  0.50400001928E-02 0. -1.
       -1   -1    0    0    0  501  0.00000000000E+00  0.00000000000E+00 -0.28185743284E+03  0.28185743289E+03  0.50400001928E-02 0.  1.
    10030    2    1    2    0    0  0.00000000000E+00  0.00000000000E+00 -0.63287632673E+02  0.50042723311E+03  0.49640919733E+03 0.  0.
        5    1    3    3  502    0 -0.17724959567E+03 -0.27023863917E+02  0.14131331784E+03  0.22834021149E+03  0.46999998093E+01 0. -1.
       -5    1    3    3    0  502  0.17724959567E+03  0.27023863917E+02 -0.20460095051E+03  0.27208702162E+03  0.46999998093E+01 0.  1.
</event>
<event>
 5   0  0.4803890E-02  0.5118051E+03  0.7818609E-02  0.1010743E+00
       -1   -1    0    0    0  501  0.00000000000E+00  0.00000000000E+00  0.21744931718E+03  0.21744931724E+03  0.50400001928E-02 0.  1.
        1   -1    0    0  501    0  0.00000000000E+00  0.00000000000E+00 -0.30115579273E+03  0.30115579277E+03  0.50400001928E-02 0. -1.
    10030    2    1    2    0    0  0.00000000000E+00  0.00000000000E+00 -0.83706475553E+02  0.51860511001E+03  0.51180512510E+03 0.  0.
        5    1    3    3  502    0 -0.38537925518E+02 -0.25196066400E+03 -0.19316247169E+02  0.25566492781E+03  0.46999998093E+01 0. -1.
       -5    1    3    3    0  502  0.38537925518E+02  0.25196066400E+03 -0.64390228383E+02  0.26294018220E+03  0.46999998093E+01 0.  1.
</event>
<event>
 5   0  0.7698747E-02  0.4992536E+03  0.7818609E-02  0.1013974E+00
       -2   -1    0    0    0  501  0.00000000000E+00  0.00000000000E+00  0.48189215363E+02  0.48189215430E+02  0.25500000920E-02 0. -1.
        2   -1    0    0  501    0  0.00000000000E+00  0.00000000000E+00 -0.12931012559E+04  0.12931012559E+04  0.25500000920E-02 0.  1.
    10030    2    1    2    0    0  0.00000000000E+00  0.00000000000E+00 -0.12449120405E+04  0.13412904713E+04  0.49925358267E+03 0.  0.
        2    1    3    3  502    0 -0.14969705527E+03 -0.19919393067E+03 -0.58205834987E+03  0.63315034000E+03  0.25500000920E-02 0. -1.
       -2    1    3    3    0  502  0.14969705527E+03  0.19919393067E+03 -0.66285369065E+03  0.70814013132E+03  0.25500000920E-02 0.  1.
</event>
<event>
 5   0  0.7698747E-02  0.5005653E+03  0.7818609E-02  0.1013631E+00
       -2   -1    0    0    0  501  0.00000000000E+00  0.00000000000E+00  0.76885471528E+02  0.76885471570E+02  0.25500000920E-02 0. -1.
        2   -1    0    0  501    0  0.00000000000E+00  0.00000000000E+00 -0.81473655319E+03  0.81473655320E+03  0.25500000920E-02 0.  1.
    10030    2    1    2    0    0  0.00000000000E+00  0.00000000000E+00 -0.73785108167E+03  0.89162202477E+03  0.50056529677E+03 0.  0.
        2    1    3    3  502    0  0.21434946339E+03  0.11325306218E+03 -0.25812420910E+03  0.35411870309E+03  0.25500000920E-02 0. -1.
       -2    1    3    3    0  502 -0.21434946339E+03 -0.11325306218E+03 -0.47972687257E+03  0.53750332168E+03  0.25500000920E-02 0.  1.
</event>
<event>
 5   0  0.5038436E-02  0.5013156E+03  0.7818609E-02  0.1013436E+00
        1   -1    0    0  501    0  0.00000000000E+00  0.00000000000E+00  0.12279002997E+03  0.12279003007E+03  0.50400001928E-02 0. -1.
       -1   -1    0    0    0  501  0.00000000000E+00  0.00000000000E+00 -0.51168111278E+03  0.51168111280E+03  0.50400001928E-02 0.  1.
    10030    2    1    2    0    0  0.00000000000E+00  0.00000000000E+00 -0.38889108281E+03  0.63447114288E+03  0.50131562598E+03 0.  0.
        1    1    3    3  502    0  0.14840744667E+03 -0.17846967651E+03 -0.74691988865E+02  0.24383414217E+03  0.50400001928E-02 0. -1.
       -1    1    3    3    0  502 -0.14840744667E+03  0.17846967651E+03 -0.31419909394E+03  0.39063700071E+03  0.50400001928E-02 0.  1.
</event>
<event>
 5   0  0.5191358E-02  0.4865774E+03  0.7818609E-02  0.1017343E+00
       -1   -1    0    0    0  501  0.00000000000E+00  0.00000000000E+00  0.12405547156E+03  0.12405547166E+03  0.50400001928E-02 0.  1.
        1   -1    0    0  501    0  0.00000000000E+00  0.00000000000E+00 -0.47712030027E+03  0.47712030030E+03  0.50400001928E-02 0. -1.
    10030    2    1    2    0    0  0.00000000000E+00  0.00000000000E+00 -0.35306482872E+03  0.60117577196E+03  0.48657736848E+03 0.  0.
        4    1    3    3  502    0 -0.14834656464E+02  0.23923065620E+03 -0.12504820023E+03  0.27035169535E+03  0.12699999809E+01 0.  1.
       -4    1    3    3    0  502  0.14834656464E+02 -0.23923065620E+03 -0.22801662849E+03  0.33082407661E+03  0.12699999809E+01 0. -1.
</event>
<event>
 5   0  0.7881060E-02  0.5057818E+03  0.7818609E-02  0.1012281E+00
       -2   -1    0    0    0  501  0.00000000000E+00  0.00000000000E+00  0.14183942030E+03  0.14183942032E+03  0.25500000920E-02 0.  1.
        2   -1    0    0  501    0  0.00000000000E+00  0.00000000000E+00 -0.45088872530E+03  0.45088872530E+03  0.25500000920E-02 0. -1.
    10030    2    1    2    0    0  0.00000000000E+00  0.00000000000E+00 -0.30904930500E+03  0.59272814563E+03  0.50578175303E+03 0.  0.
        1    1    3    3  502    0  0.21667374766E+02  0.17104909137E+03  0.62282606843E+02  0.18332045693E+03  0.50400001928E-02 0.  1.
       -1    1    3    3    0  502 -0.21667374766E+02 -0.17104909137E+03 -0.37133191184E+03  0.40940768870E+03  0.50400001928E-02 0. -1.
</event>
<event>
 5   0  0.7933103E-02  0.4969054E+03  0.7818609E-02  0.1014590E+00
       -2   -1    0    0    0  501  0.00000000000E+00  0.00000000000E+00  0.45211788014E+02  0.45211788086E+02  0.25500000920E-02 0.  1.
        2   -1    0    0  501    0  0.00000000000E+00  0.00000000000E+00 -0.13653239622E+04  0.13653239622E+04  0.25500000920E-02 0. -1.
    10030    2    1    2    0    0  0.00000000000E+00  0.00000000000E+00 -0.13201121742E+04  0.14105357503E+04  0.49690537369E+03 0.  0.
        5    1    3    3  502    0 -0.16316512383E+03  0.70450386515E+02 -0.11527097668E+04  0.11663395779E+04  0.46999998093E+01 0. -1.
       -5    1    3    3    0  502  0.16316512383E+03 -0.70450386515E+02 -0.16740240740E+03  0.24419617236E+03  0.46999998093E+01 0.  1.
</event>
<event>
 5   0  0.4865501E-02  0.5106240E+03  0.7818609E-02  0.1011043E+00
       -1   -1    0    0    0  501  0.00000000000E+00  0.00000000000E+00  0.27378936905E+03  0.27378936910E+03  0.50400001928E-02 0.  1.
        1   -1    0    0  501    0  0.00000000000E+00  0.00000000000E+00 -0.23808161572E+03  0.23808161578E+03  0.50400001928E-02 0. -1.
    10030    2    1    2    0    0  0.00000000000E+00  0.00000000000E+00  0.35707753329E+02  0.51187098487E+03  0.51062399230E+03 0.  0.
        2    1    3    3  502    0 -0.23460299501E+03  0.94721323688E+02 -0.16486473391E+02  0.25353993421E+03  0.25500000920E-02 0.  1.
       -2    1    3    3    0  502  0.23460299501E+03 -0.94721323688E+02  0.52194226720E+02  0.25833105066E+03  0.25500000920E-02 0. -1.
</event>
<event>
 5   0  0.4865501E-02  0.5431591E+03  0.7818609E-02  0.1003090E+00
       -1   -1    0    0    0  501  0.00000000000E+00  0.00000000000E+00  0.15295891342E+03  0.15295891350E+03  0.50400001928E-02 0. -1.
        1   -1    0    0  501    0  0.00000000000E+00  0.00000000000E+00 -0.48219133596E+03  0.48219133598E+03  0.50400001928E-02 0.  1.
    10030    2    1    2    0    0  0.00000000000E+00  0.00000000000E+00 -0.32923242253E+03  0.63515024949E+03  0.54315914001E+03 0.  0.
        2    1    3    3  502    0 -0.23220899571E+03  0.64776926510E+02 -0.31084923811E+03  0.39337554161E+03  0.25500000920E-02 0.  1.
       -2    1    3    3    0  502  0.23220899571E+03 -0.64776926510E+02 -0.18383184426E+02  0.24177470788E+03  0.25500000920E-02 0. -1.
</event>
<event>
 5   0  0.4884478E-02  0.5017746E+03  0.7818609E-02  0.1013317E+00
       -1   -1    0    0    0  501  0.00000000000E+00  0.00000000000E+00  0.16330141171E+03  0.16330141179E+03  0.50400001928E-02 0.  1.
        1   -1    0    0  501    0  0.00000000000E+00  0.00000000000E+00 -0.38544949493E+03  0.38544949497E+03  0.50400001928E-02 0. -1.
    10030    2    1    2    0    0  0.00000000000E+00  0.00000000000E+00 -0.22214808322E+03  0.54875090676E+03  0.50177463745E+03 0.  0.
        3    1    3    3  502    0  0.11446227516E+03 -0.19594145209E+03  0.59472677672E+01  0.22700230236E+03  0.10100000352E+00 0.  1.
       -3    1    3    3    0  502 -0.11446227516E+03  0.19594145209E+03 -0.22809535099E+03  0.32174860439E+03  0.10100000352E+00 0. -1.
</event>
<event>
 5   0  0.8208720E-02  0.4976629E+03  0.7818609E-02  0.1014391E+00
        2   -1    0    0  501    0  0.00000000000E+00  0.00000000000E+00  0.26526906077E+03  0.26526906078E+03  0.25500000920E-02 0.  1.
       -2   -1    0    0    0  501  0.00000000000E+00  0.00000000000E+00 -0.23341240493E+03  0.23341240494E+03  0.25500000920E-02 0. -1.
    10030    2    1    2    0    0  0.00000000000E+00  0.00000000000E+00  0.31856655839E+02  0.49868146572E+03  0.49766289568E+03 0.  0.
        3    1    3    3  502    0  0.14012065780E+03 -0.20499398275E+03  0.32109056119E+02  0.25037438646E+03  0.10100000352E+00 0.  1.
       -3    1    3    3    0  502 -0.14012065780E+03  0.20499398275E+03 -0.25240027967E+00  0.24830707927E+03  0.10100000352E+00 0. -1.
</event>
<event>
 5   0  0.4803890E-02  0.4988598E+03  0.7818609E-02  0.1014077E+00
       -1   -1    0    0    0  501  0.00000000000E+00  0.00000000000E+00  0.43966318614E+03  0.43966318616E+03  0.50400001928E-02 0. -1.
        1   -1    0    0  501    0  0.00000000000E+00  0.00000000000E+00 -0.14150669367E+03  0.14150669376E+03  0.50400001928E-02 0.  1.
    10030    2    1    2    0    0  0.00000000000E+00  0.00000000000E+00  0.29815649247E+03  0.58116987992E+03  0.49885983535E+03 0.  0.
        5    1    3    3  502    0 -0.69221318099E+02 -0.22973773941E+02  0.42690925478E+03  0.43312006070E+03  0.46999998093E+01 0. -1.
       -5    1    3    3    0  502  0.69221318099E+02  0.22973773941E+02 -0.12875276231E+03  0.14804981922E+03  0.46999998093E+01 0.  1.
</event>
<event>
 5   0  0.4865501E-02  0.5014974E+03  0.7818609E-02  0.1013389E+00
        1   -1    0    0  501    0  0.00000000000E+00  0.00000000000E+00  0.18138197790E+03  0.18138197797E+03  0.50400001928E-02 0.  1.
       -1   -1    0    0    0  501  0.00000000000E+00  0.00000000000E+00 -0.34664367053E+03  0.34664367056E+03  0.50400001928E-02 0. -1.
    10030    2    1    2    0    0  0.00000000000E+00  0.00000000000E+00 -0.16526169262E+03  0.52802564854E+03  0.50149741621E+03 0.  0.
        2    1    3    3  502    0 -0.24674739262E+03  0.22862176450E+02 -0.42290149972E+02  0.25138697593E+03  0.25500000920E-02 0.  1.
       -2    1    3    3    0  502  0.24674739262E+03 -0.22862176450E+02 -0.12297154265E+03  0.27663867261E+03  0.25500000920E-02 0. -1.
</event>
<event>
 5   0  0.8208720E-02  0.5021320E+03  0.7818609E-02  0.1013224E+00
       -2   -1    0    0    0  501  0.00000000000E+00  0.00000000000E+00  0.25747922821E+03  0.25747922823E+03  0.25500000920E-02 0.  1.
        2   -1    0    0  501    0  0.00000000000E+00  0.00000000000E+00 -0.24481248407E+03  0.24481248408E+03  0.25500000920E-02 0. -1.
    10030    2    1    2    0    0  0.00000000000E+00  0.00000000000E+00  0.12666744147E+02  0.50229171231E+03  0.50213197254E+03 0.  0.
        3    1    3    3  502    0 -0.20983637236E+03 -0.28918219477E+02  0.14115960436E+03  0.25454589113E+03  0.10100000352E+00 0.  1.
       -3    1    3    3    0  502  0.20983637236E+03  0.28918219477E+02 -0.12849286022E+03  0.24774582118E+03  0.10100000352E+00 0. -1.
</event>
<event>
 5   0  0.7933103E-02  0.4944671E+03  0.7818609E-02  0.1015233E+00
        2   -1    0    0  501    0  0.00000000000E+00  0.00000000000E+00  0.78000731460E+03  0.78000731461E+03  0.25500000920E-02 0. -1.
       -2   -1    0    0    0  501  0.00000000000E+00  0.00000000000E+00 -0.78363902490E+02  0.78363902531E+02  0.25500000920E-02 0.  1.
    10030    2    1    2    0    0  0.00000000000E+00  0.00000000000E+00  0.70164341211E+03  0.85837121714E+03  0.49446705517E+03 0.  0.
        5    1    3    3  502    0 -0.13689026504E+03  0.18158662866E+03  0.51903609924E+03  0.56668616595E+03  0.46999998093E+01 0. -1.
       -5    1    3    3    0  502  0.13689026504E+03 -0.18158662866E+03  0.18260731288E+03  0.29168505119E+03  0.46999998093E+01 0.  1.
</event>
<event>
 5   0  0.7933103E-02  0.5004337E+03  0.7818609E-02  0.1013666E+00
       -2   -1    0    0    0  501  0.00000000000E+00  0.00000000000E+00  0.22145910824E+03  0.22145910826E+03  0.25500000920E-02 0.  1.
        2   -1    0    0  501    0  0.00000000000E+00  0.00000000000E+00 -0.28270890137E+03  0.28270890138E+03  0.25500000920E-02 0. -1.
    10030    2    1    2    0    0  0.00000000000E+00  0.00000000000E+00 -0.61249793128E+02  0.50416800964E+03  0.50043365673E+03 0.  0.
        5    1    3    3  502    0 -0.33167567874E+02  0.24649829682E+03 -0.57749277078E+02  0.25537926089E+03  0.46999998093E+01 0.  1.
       -5    1    3    3    0  502  0.33167567874E+02 -0.24649829682E+03 -0.35005160504E+01  0.24878874875E+03  0.46999998093E+01 0. -1.
</event>
<event>
 5   0  0.7933103E-02  0.4763510E+03  0.7818609E-02  0.1020143E+00
       -2   -1    0    0    0  501  0.00000000000E+00  0.00000000000E+00  0.12970459373E+03  0.12970459375E+03  0.25500000920E-02 0. -1.
        2   -1    0    0  501    0  0.00000000000E+00  0.00000000000E+00 -0.43735976397E+03  0.43735976397E+03  0.25500000920E-02 0.  1.
    10030    2    1    2    0    0  0.00000000000E+00  0.00000000000E+00 -0.30765517024E+03  0.56706435773E+03  0.47635100717E+03 0.  0.
        5    1    3    3  502    0 -0.11496205766E+03 -0.39605481924E+02 -0.39756324208E+03  0.41576855382E+03  0.46999998093E+01 0.  1.
       -5    1    3    3    0  502  0.11496205766E+03  0.39605481924E+02  0.89908071839E+02  0.15129580390E+03  0.46999998093E+01 0. -1.
</event>
<event>
 5   0  0.7698747E-02  0.4995745E+03  0.7818609E-02  0.1013890E+00
        2   -1    0    0  501    0  0.00000000000E+00  0.00000000000E+00  0.20234028258E+03  0.20234028259E+03  0.25500000920E-02 0.  1.
       -2   -1    0    0    0  501  0.00000000000E+00  0.00000000000E+00 -0.30836008724E+03  0.30836008725E+03  0.25500000920E-02 0. -1.
    10030    2    1    2    0    0  0.00000000000E+00  0.00000000000E+00 -0.10601980466E+03  0.51070036984E+03  0.49957448771E+03 0.  0.
        2    1    3    3  502    0 -0.18636206593E+03  0.11798310747E+03 -0.17285052856E+03  0.28022872532E+03  0.25500000920E-02 0.  1.
       -2    1    3    3    0  502  0.18636206593E+03 -0.11798310747E+03  0.66830723900E+02  0.23047164452E+03  0.25500000920E-02 0. -1.
</event>
<event>
 5   0  0.7776070E-02  0.5004961E+03  0.7818609E-02  0.1013649E+00
        2   -1    0    0  501    0  0.00000000000E+00  0.00000000000E+00  0.27907955059E+03  0.27907955060E+03  0.25500000920E-02 0. -1.
       -2   -1    0    0    0  501  0.00000000000E+00  0.00000000000E+00 -0.22439515084E+03  0.22439515086E+03  0.25500000920E-02 0.  1.
    10030    2    1    2    0    0  0.00000000000E+00  0.00000000000E+00  0.54684399750E+02  0.50347470146E+03  0.50049614528E+03 0.  0.
        4    1    3    3  502    0  0.90791150519E+02  0.87187442042E+02 -0.19022670275E+03  0.22810632258E+03  0.12699999809E+01 0.  1.
       -4    1    3    3    0  502 -0.90791150519E+02 -0.87187442042E+02  0.24491110250E+03  0.27536837888E+03  0.12699999809E+01 0. -1.
</event>
<event>
 5   0  0.8208720E-02  0.4656829E+03  0.7818609E-02  0.1023146E+00
        2   -1    0    0  501    0  0.00000000000E+00  0.00000000000E+00  0.59871099137E+03  0.59871099138E+03  0.25500000920E-02 0.  1.
       -2   -1    0    0    0  501  0.00000000000E+00  0.00000000000E+00 -0.90553096829E+02  0.90553096865E+02  0.25500000920E-02 0. -1.
    10030    2    1    2    0    0  0.00000000000E+00  0.00000000000E+00  0.50815789455E+03  0.68926408824E+03  0.46568287230E+03 0.  0.
        3    1    3    3  502    0  0.83831612271E+02  0.60723574992E+02  0.56278146884E+03  0.57222205799E+03  0.10100000352E+00 0.  1.
       -3    1    3    3    0  502 -0.83831612271E+02 -0.60723574992E+02 -0.54623574299E+02  0.11704203025E+03  0.10100000352E+00 0. -1.
</event>
<event>
 5   0  0.7933103E-02  0.5213388E+03  0.7818609E-02  0.1008355E+00
        2   -1    0    0  501    0  0.00000000000E+00  0.00000000000E+00  0.27885708299E+03  0.27885708300E+03  0.25500000920E-02 0. -1.
       -2   -1    0    0    0  501  0.00000000000E+00  0.00000000000E+00 -0.24366794776E+03  0.24366794777E+03  0.25500000920E-02 0.  1.
    10030    2    1    2    0    0  0.00000000000E+00  0.00000000000E+00  0.35189135230E+02  0.52252503077E+03  0.52133878864E+03 0.  0.
        5    1    3    3  502    0 -0.11493771827E+03  0.20263913371E+03  0.13470711318E+03  0.26914938962E+03  0.46999998093E+01 0. -1.
       -5    1    3    3    0  502  0.11493771827E+03 -0.20263913371E+03 -0.99517977951E+02  0.25337564115E+03  0.46999998093E+01 0.  1.
</event>
<event>
 5   0  0.7776070E-02  0.5019867E+03  0.7818609E-02  0.1013262E+00
       -2   -1    0    0    0  501  0.00000000000E+00  0.00000000000E+00  0.44985301023E+02  0.44985301095E+02  0.25500000920E-02 0.  1.
        2   -1    0    0  501    0  0.00000000000E+00  0.00000000000E+00 -0.14004056357E+04  0.14004056357E+04  0.25500000920E-02 0. -1.
    10030    2    1    2    0    0  0.00000000000E+00  0.00000000000E+00 -0.13554203347E+04  0.14453909368E+04  0.50198672943E+03 0.  0.
        4    1    3    3  502    0 -0.15845597547E+03 -0.10402409557E+03 -0.11514186129E+04  0.11669171965E+04  0.12699999809E+01 0. -1.
       -4    1    3    3    0  502  0.15845597547E+03  0.10402409557E+03 -0.20400172185E+03  0.27847374030E+03  0.12699999809E+01 0.  1.
</event>
<event>
 5   0  0.4803890E-02  0.4993813E+03  0.7818609E-02  0.1013941E+00
       -1   -1    0    0    0  501  0.00000000000E+00  0.00000000000E+00  0.39446308548E+02  0.39446308870E+02  0.50400001928E-02 0. -1.
        1   -1    0    0  501    0  0.00000000000E+00  0.00000000000E+00 -0.15805135214E+04  0.15805135214E+04  0.50400001928E-02 0.  1.
    10030    2    1    2    0    0  0.00000000000E+00  0.00000000000E+00 -0.15410672128E+04  0.16199598302E+04  0.49938131441E+03 0.  0.
        5    1    3    3  502    0  0.87487395628E+02 -0.62922660568E+02 -0.15010313614E+04  0.15049021708E+04  0.46999998093E+01 0.  1.
       -5    1    3    3    0  502 -0.87487395628E+02  0.62922660568E+02 -0.40035851381E+02  0.11505765946E+03  0.46999998093E+01 0. -1.
</event>
<event>
 5   0  0.7881060E-02  0.4992110E+03  0.7818609E-02  0.1013985E+00
       -2   -1    0    0    0  501  0.00000000000E+00  0.00000000000E+00  0.13333395468E+03  0.13333395471E+03  0.25500000920E-02 0. -1.
        2   -1    0    0  501    0  0.00000000000E+00  0.00000000000E+00 -0.46726968509E+03  0.46726968509E+03  0.25500000920E-02 0.  1.
    10030    2    1    2    0    0  0.00000000000E+00  0.00000000000E+00 -0.33393573040E+03  0.60060363980E+03  0.49921103764E+03 0.  0.
        1    1    3    3  502    0 -0.14498483299E+03  0.20285289185E+03 -0.18084366801E+03  0.30801676873E+03  0.50400001928E-02 0.  1.
       -1    1    3    3    0  502  0.14498483299E+03 -0.20285289185E+03 -0.15309206239E+03  0.29258687107E+03  0.50400001928E-02 0. -1.
</event>
<event>
 5   0  0.4865501E-02  0.5072836E+03  0.7818609E-02  0.1011895E+00
        1   -1    0    0  501    0  0.00000000000E+00  0.00000000000E+00  0.15274803706E+04  0.15274803706E+04  0.50400001928E-02 0. -1.
       -1   -1    0    0    0  501  0.00000000000E+00  0.00000000000E+00 -0.42117830245E+02  0.42117830547E+02  0.50400001928E-02 0.  1.
    10030    2    1    2    0    0  0.00000000000E+00  0.00000000000E+00  0.14853625404E+04  0.15695982012E+04  0.50728358615E+03 0.  0.
        2    1    3    3  502    0 -0.10033256661E+03  0.23104308671E+03  0.83481279177E+03  0.87198619780E+03  0.25500000920E-02 0. -1.
       -2    1    3    3    0  502  0.10033256661E+03 -0.23104308671E+03  0.65054974860E+03  0.69761200337E+03  0.25500000920E-02 0.  1.
</event>
<event>
 5   0  0.8208720E-02  0.4993942E+03  0.7818609E-02  0.1013937E+00
       -2   -1    0    0    0  501  0.00000000000E+00  0.00000000000E+00  0.32535166498E+02  0.32535166598E+02  0.25500000920E-02 0. -1.
        2   -1    0    0  501    0  0.00000000000E+00  0.00000000000E+00 -0.19163462728E+04  0.19163462728E+04  0.25500000920E-02 0.  1.
    10030    2    1    2    0    0  0.00000000000E+00  0.00000000000E+00 -0.18838111063E+04  0.19488814394E+04  0.49939421363E+03 0.  0.
        3    1    3    3  502    0 -0.22530989533E+03 -0.28192891934E+00 -0.13619268489E+04  0.13804381118E+04  0.10100000352E+00 0.  1.
       -3    1    3    3    0  502  0.22530989533E+03  0.28192891934E+00 -0.52188425731E+03  0.56844332756E+03  0.10100000352E+00 0. -1.
</event>
<event>
 5   0  0.5191358E-02  0.5015230E+03  0.7818609E-02  0.1013382E+00
        1   -1    0    0  501    0  0.00000000000E+00  0.00000000000E+00  0.20819091188E+03  0.20819091195E+03  0.50400001928E-02 0. -1.
       -1   -1    0    0    0  501  0.00000000000E+00  0.00000000000E+00 -0.30203689373E+03  0.30203689378E+03  0.50400001928E-02 0.  1.
    10030    2    1    2    0    0  0.00000000000E+00  0.00000000000E+00 -0.93845981850E+02  0.51022780572E+03  0.50152302581E+03 0.  0.
        4    1    3    3  502    0 -0.11677148752E+02  0.13231958601E+03 -0.26329946415E+03  0.29491193494E+03  0.12699999809E+01 0.  1.
       -4    1    3    3    0  502  0.11677148752E+02 -0.13231958601E+03  0.16945348230E+03  0.21531587078E+03  0.12699999809E+01 0. -1.
</event>
<event>
 5   0  0.5038436E-02  0.4993493E+03  0.7818609E-02  0.1013949E+00
        1   -1    0    0  501    0  0.00000000000E+00  0.00000000000E+00  0.24065979193E+03  0.24065979199E+03  0.50400001928E-02 0.  1.
       -1   -1    0    0    0  501  0.00000000000E+00  0.00000000000E+00 -0.25902719344E+03  0.25902719349E+03  0.50400001928E-02 0. -1.
    10030    2    1    2    0    0  0.00000000000E+00  0.00000000000E+00 -0.18367401507E+02  0.49968698547E+03  0.49934929860E+03 0.  0.
        1    1    3    3  502    0 -0.72697236085E+02 -0.13159413322E+03 -0.20865622322E+03  0.25717566671E+03  0.50400001928E-02 0. -1.
       -1    1    3    3    0  502  0.72697236085E+02  0.13159413322E+03  0.19028882172E+03  0.24251131876E+03  0.50400001928E-02 0.  1.
</event>
<event>
 5   0  0.4803890E-02  0.5006640E+03  0.7818609E-02  0.1013606E+00
        1   -1    0    0  501    0  0.00000000000E+00  0.00000000000E+00  0.61556070477E+02  0.61556070683E+02  0.50400001928E-02 0. -1.
       -1   -1    0    0    0  501  0.00000000000E+00  0.00000000000E+00 -0.10180329641E+04  0.10180329642E+04  0.50400001928E-02 0.  1.
    10030    2    1    2    0    0  0.00000000000E+00  0.00000000000E+00 -0.95647689367E+03  0.10795890348E+04  0.50066399514E+03 0.  0.
        5    1    3    3  502    0 -0.38200985831E+02  0.69767406346E+02  0.33481893906E+02  0.86428777178E+02  0.46999998093E+01 0. -1.
       -5    1    3    3    0  502  0.38200985831E+02 -0.69767406346E+02 -0.98995878758E+03  0.99316025767E+03  0.46999998093E+01 0.  1.
</event>
<event>
 5   0  0.7776070E-02  0.5040397E+03  0.7818609E-02  0.1012730E+00
        2   -1    0    0  501    0  0.00000000000E+00  0.00000000000E+00  0.10425899579E+04  0.10425899579E+04  0.25500000920E-02 0. -1.
       -2   -1    0    0    0  501  0.00000000000E+00  0.00000000000E+00 -0.60919458338E+02  0.60919458391E+02  0.25500000920E-02 0.  1.
    10030    2    1    2    0    0  0.00000000000E+00  0.00000000000E+00  0.98167049956E+03  0.11035094163E+04  0.50403974262E+03 0.  0.
        4    1    3    3  502    0 -0.26008663101E+02  0.81311297933E+02 -0.28291936590E+02  0.89944562392E+02  0.12699999809E+01 0.  1.
       -4    1    3    3    0  502  0.26008663101E+02 -0.81311297933E+02  0.10099624362E+04  0.10135648539E+04  0.12699999809E+01 0. -1.
</event>
<event>
 5   0  0.4865501E-02  0.5030441E+03  0.7818609E-02  0.1012987E+00
       -1   -1    0    0    0  501  0.00000000000E+00  0.00000000000E+00  0.13527458473E+03  0.13527458483E+03  0.50400001928E-02 0. -1.
        1   -1    0    0  501    0  0.00000000000E+00  0.00000000000E+00 -0.46766621800E+03  0.46766621802E+03  0.50400001928E-02 0.  1.
    10030    2    1    2    0    0  0.00000000000E+00  0.00000000000E+00 -0.33239163326E+03  0.60294080285E+03  0.50304414705E+03 0.  0.
        2    1    3    3  502    0  0.21040683367E+03 -0.47699939683E+01 -0.33127688093E+03  0.39247695518E+03  0.25500000920E-02 0.  1.
       -2    1    3    3    0  502 -0.21040683367E+03  0.47699939683E+01 -0.11147523305E+01  0.21046384768E+03  0.25500000920E-02 0. -1.
</event>
<event>
 5   0  0.7698747E-02  0.4952196E+03  0.7818609E-02  0.1015034E+00
        2   -1    0    0  501    0  0.00000000000E+00  0.00000000000E+00  0.88670777194E+03  0.88670777194E+03  0.25500000920E-02 0.  1.
       -2   -1    0    0    0  501  0.00000000000E+00  0.00000000000E+00 -0.69144114837E+02  0.69144114884E+02  0.25500000920E-02 0. -1.
    10030    2    1    2    0    0  0.00000000000E+00  0.00000000000E+00  0.81756365710E+03  0.95585188682E+03  0.49521964433E+03 0.  0.
        2    1    3    3  502    0 -0.21756793186E+02  0.22563839718E+03  0.21649532629E+03  0.31345856289E+03  0.25500000920E-02 0. -1.
       -2    1    3    3    0  502  0.21756793186E+02 -0.22563839718E+03  0.60106833081E+03  0.64239332394E+03  0.25500000920E-02 0.  1.
</event>
<event>
 5   0  0.3210875E-02  0.4937922E+03  0.7818609E-02  0.1015412E+00
        3   -1    0    0  501    0  0.00000000000E+00  0.00000000000E+00  0.41957955560E+03  0.41957956775E+03  0.10100000352E+00 0.  1.
       -3   -1    0    0    0  501  0.00000000000E+00  0.00000000000E+00 -0.14528276682E+03  0.14528280193E+03  0.10100000352E+00 0. -1.
    10030    2    1    2    0    0  0.00000000000E+00  0.00000000000E+00  0.27429678877E+03  0.56486236968E+03  0.49379223197E+03 0.  0.
        1    1    3    3  502    0  0.12454646707E+03 -0.21316650398E+03  0.13436717274E+03  0.28108062547E+03  0.50400001928E-02 0. -1.
       -1    1    3    3    0  502 -0.12454646707E+03  0.21316650398E+03  0.13992961603E+03  0.28378174421E+03  0.50400001928E-02 0.  1.
</event>
<event>
 5   0  0.3210875E-02  0.5002471E+03  0.7818609E-02  0.1013714E+00
        3   -1    0    0  501    0  0.00000000000E+00  0.00000000000E+00  0.27151056154E+03  0.27151058033E+03  0.10100000352E+00 0.  1.
       -3   -1    0    0    0  501  0.00000000000E+00  0.00000000000E+00 -0.23042113039E+03  0.23042115253E+03  0.10100000352E+00 0. -1.
    10030    2    1    2    0    0  0.00000000000E+00  0.00000000000E+00  0.41089431150E+02  0.50193173286E+03  0.50024706206E+03 0.  0.
        5    1    3    3  502    0 -0.21080126734E+03  0.68816922315E+02  0.13654872005E+03  0.26046225457E+03  0.46999998093E+01 0.  1.
       -5    1    3    3    0  502  0.21080126734E+03 -0.68816922315E+02 -0.95459288903E+02  0.24146947829E+03  0.46999998093E+01 0. -1.
</event>
<event>
 5   0  0.7881060E-02  0.4903175E+03  0.7818609E-02  0.1016338E+00
        2   -1    0    0  501    0  0.00000000000E+00  0.00000000000E+00  0.11121551976E+04  0.11121551976E+04  0.25500000920E-02 0.  1.
       -2   -1    0    0    0  501  0.00000000000E+00  0.00000000000E+00 -0.54041750587E+02  0.54041750647E+02  0.25500000920E-02 0. -1.
    10030    2    1    2    0    0  0.00000000000E+00  0.00000000000E+00  0.10581134470E+04  0.11661969482E+04  0.49031750463E+03 0.  0.
        1    1    3    3  502    0 -0.47270416191E+02  0.20368599925E+03  0.22464883975E+03  0.30690320911E+03  0.50400001928E-02 0. -1.
       -1    1    3    3    0  502  0.47270416191E+02 -0.20368599925E+03  0.83346460723E+03  0.85929373911E+03  0.50400001928E-02 0.  1.
</event>
<event>
 5   0  0.7933103E-02  0.4958946E+03  0.7818609E-02  0.1014856E+00
        2   -1    0    0  501    0  0.00000000000E+00  0.00000000000E+00  0.91489847446E+03  0.91489847446E+03  0.25500000920E-02 0.  1.
       -2   -1    0    0    0  501  0.00000000000E+00  0.00000000000E+00 -0.67196366351E+02  0.67196366399E+02  0.25500000920E-02 0. -1.
    10030    2    1    2    0    0  0.00000000000E+00  0.00000000000E+00  0.84770210811E+03  0.98209484086E+03  0.49589455770E+03 0.  0.
        5    1    3    3  502    0  0.17874867226E+02  0.12877597435E+03  0.84187635392E+03  0.85186891465E+03  0.46999998093E+01 0.  1.
       -5    1    3    3    0  502 -0.17874867226E+02 -0.12877597435E+03  0.58257541866E+01  0.13022592622E+03  0.46999998093E+01 0. -1.
</event>
<event>
 5   0  0.3210875E-02  0.4951058E+03  0.7818609E-02  0.1015064E+00
       -4   -1    0    0    0  501  0.00000000000E+00  0.00000000000E+00  0.40573227216E+03  0.40573425980E+03  0.12699999809E+01 0.  1.
        4   -1    0    0  501    0  0.00000000000E+00  0.00000000000E+00 -0.15103652301E+03  0.15104186235E+03  0.12699999809E+01 0. -1.
    10030    2    1    2    0    0  0.00000000000E+00  0.00000000000E+00  0.25469574916E+03  0.55677612215E+03  0.49510577209E+03 0.  0.
        5    1    3    3  502    0 -0.88780797992E+02 -0.12354987974E+03 -0.92197042856E+02  0.17795782530E+03  0.46999998093E+01 0. -1.
       -5    1    3    3    0  502  0.88780797992E+02  0.12354987974E+03  0.34689279201E+03  0.37881829685E+03  0.46999998093E+01 0.  1.
</event>
<event>
 5   0  0.5191358E-02  0.4985717E+03  0.7818609E-02  0.1014152E+00
       -1   -1    0    0    0  501  0.00000000000E+00  0.00000000000E+00  0.56060945334E+02  0.56060945561E+02  0.50400001928E-02 0.  1.
        1   -1    0    0  501    0  0.00000000000E+00  0.00000000000E+00 -0.11084979747E+04  0.11084979747E+04  0.50400001928E-02 0. -1.
    10030    2    1    2    0    0  0.00000000000E+00  0.00000000000E+00 -0.10524370294E+04  0.11645589203E+04  0.49857173808E+03 0.  0.
        4    1    3    3  502    0  0.27414184227E+02  0.16646202764E+03 -0.97547337612E+02  0.19488006598E+03  0.12699999809E+01 0. -1.
       -4    1    3    3    0  502 -0.27414184227E+02 -0.16646202764E+03 -0.95488969176E+03  0.96967885429E+03  0.12699999809E+01 0.  1.
</event>
<event>
 5   0  0.7776070E-02  0.5106339E+03  0.7818609E-02  0.1011040E+00
       -2   -1    0    0    0  501  0.00000000000E+00  0.00000000000E+00  0.45511291270E+03  0.45511291271E+03  0.25500000920E-02 0. -1.
        2   -1    0    0  501    0  0.00000000000E+00  0.00000000000E+00 -0.14323200889E+03  0.14323200891E+03  0.25500000920E-02 0.  1.
    10030    2    1    2    0    0  0.00000000000E+00  0.00000000000E+00  0.31188090381E+03  0.59834492162E+03  0.51063386792E+03 0.  0.
        4    1    3    3  502    0 -0.18479471121E+03 -0.17330968027E+03  0.19299121053E+03  0.31848477327E+03  0.12699999809E+01 0. -1.
       -4    1    3    3    0  502  0.18479471121E+03  0.17330968027E+03  0.11888969328E+03  0.27986014835E+03  0.12699999809E+01 0.  1.
</event>
<event>
 5   0  0.8208720E-02  0.5008496E+03  0.7818609E-02  0.1013557E+00
       -2   -1    0    0    0  501  0.00000000000E+00  0.00000000000E+00  0.70171074484E+02  0.70171074530E+02  0.25500000920E-02 0.  1.
        2   -1    0    0  501    0  0.00000000000E+00  0.00000000000E+00 -0.89370970940E+03  0.89370970941E+03  0.25500000920E-02 0. -1.
    10030    2    1    2    0    0  0.00000000000E+00  0.00000000000E+00 -0.82353863492E+03  0.96388078394E+03  0.50084956069E+03 0.  0.
        3    1    3    3  502    0  0.34306093956E+02 -0.35952099949E+02  0.60586944070E+02  0.78359744550E+02  0.10100000352E+00 0.  1.
       -3    1    3    3    0  502 -0.34306093956E+02  0.35952099949E+02 -0.88412557899E+03  0.88552103939E+03  0.10100000352E+00 0. -1.
</event>
<event>
 5   0  0.5038436E-02  0.5018602E+03  0.7818609E-02  0.1013295E+00
       -1   -1    0    0    0  501  0.00000000000E+00  0.00000000000E+00  0.32585578916E+02  0.32585579306E+02  0.50400001928E-02 0.  1.
        1   -1    0    0  501    0  0.00000000000E+00  0.00000000000E+00 -0.19323242765E+04  0.19323242765E+04  0.50400001928E-02 0. -1.
    10030    2    1    2    0    0  0.00000000000E+00  0.00000000000E+00 -0.18997386976E+04  0.19649098558E+04  0.50186016217E+03 0.  0.
        1    1    3    3  502    0 -0.21879895488E+03 -0.87792954460E+02 -0.12863379704E+04  0.13077637247E+04  0.50400001928E-02 0.  1.
       -1    1    3    3    0  502  0.21879895488E+03  0.87792954460E+02 -0.61340072722E+03  0.65714613115E+03  0.50400001928E-02 0. -1.
</event>
<event>
 5   0  0.5038436E-02  0.5035739E+03  0.7818609E-02  0.1012850E+00
        1   -1    0    0  501    0  0.00000000000E+00  0.00000000000E+00  0.11991150261E+04  0.11991150261E+04  0.50400001928E-02 0. -1.
       -1   -1    0    0    0  501  0.00000000000E+00  0.00000000000E+00 -0.52869553575E+02  0.52869553815E+02  0.50400001928E-02 0.  1.
    10030    2    1    2    0    0  0.00000000000E+00  0.00000000000E+00  0.11462454725E+04  0.12519845799E+04  0.50357393210E+03 0.  0.
        1    1    3    3  502    0  0.15948504880E+03 -0.17307914869E+03  0.35068365949E+03  0.42233979396E+03  0.50400001928E-02 0.  1.
       -1    1    3    3    0  502 -0.15948504880E+03  0.17307914869E+03  0.79556181303E+03  0.82964478597E+03  0.50400001928E-02 0. -1.
</event>
<event>
 5   0  0.4865501E-02  0.4981800E+03  0.7818609E-02  0.1014255E+00
        1   -1    0    0  501    0  0.00000000000E+00  0.00000000000E+00  0.34066392839E+03  0.34066392843E+03  0.50400001928E-02 0.  1.
       -1   -1    0    0    0  501  0.00000000000E+00  0.00000000000E+00 -0.18213210581E+03  0.18213210587E+03  0.50400001928E-02 0. -1.
    10030    2    1    2    0    0  0.00000000000E+00  0.00000000000E+00  0.15853182259E+03  0.52279603431E+03  0.49818004247E+03 0.  0.
        2    1    3    3  502    0 -0.14041238806E+02 -0.20659136271E+03  0.22455807423E+03  0.30545617729E+03  0.25500000920E-02 0.  1.
       -2    1    3    3    0  502  0.14041238806E+02  0.20659136271E+03 -0.66026251643E+02  0.21733985702E+03  0.25500000920E-02 0. -1.
</event>
<event>
 5   0  0.4865501E-02  0.5080109E+03  0.7818609E-02  0.1011709E+00
       -1   -1    0    0    0  501  0.00000000000E+00  0.00000000000E+00  0.24274534346E+03  0.24274534351E+03  0.50400001928E-02 0.  1.
        1   -1    0    0  501    0  0.00000000000E+00  0.00000000000E+00 -0.26578782889E+03  0.26578782894E+03  0.50400001928E-02 0. -1.
    10030    2    1    2    0    0  0.00000000000E+00  0.00000000000E+00 -0.23042485427E+02  0.50853317245E+03  0.50801085751E+03 0.  0.
        2    1    3    3  502    0  0.24853030114E+03 -0.50377434173E+02 -0.26150006983E+02  0.25492943991E+03  0.25500000920E-02 0. -1.
       -2    1    3    3    0  502 -0.24853030114E+03  0.50377434173E+02  0.31075215555E+01  0.25360373254E+03  0.25500000920E-02 0.  1.
</event>
<event>
 5   0  0.7933103E-02  0.4961514E+03  0.7818609E-02  0.1014788E+00
       -2   -1    0    0    0  501  0.00000000000E+00  0.00000000000E+00  0.54691829720E+02  0.54691829780E+02  0.25500000920E-02 0.  1.
        2   -1    0    0  501    0  0.00000000000E+00  0.00000000000E+00 -0.11252423631E+04  0.11252423631E+04  0.25500000920E-02 0. -1.
    10030    2    1    2    0    0  0.00000000000E+00  0.00000000000E+00 -0.10705505333E+04  0.11799341928E+04  0.49615144362E+03 0.  0.
        5    1    3    3  502    0  0.14914167761E+03  0.41816791925E+02 -0.99597595686E+03  0.10079593646E+04  0.46999998093E+01 0. -1.
       -5    1    3    3    0  502 -0.14914167761E+03 -0.41816791925E+02 -0.74574576478E+02  0.17197482822E+03  0.46999998093E+01 0.  1.
</event>
<event>
 5   0  0.4803890E-02  0.5002330E+03  0.7818609E-02  0.1013718E+00
        1   -1    0    0  501    0  0.00000000000E+00  0.00000000000E+00  0.56599686566E+02  0.56599686791E+02  0.50400001928E-02 0. -1.
       -1   -1    0    0    0  501  0.00000000000E+00  0.00000000000E+00 -0.11052758374E+04  0.11052758375E+04  0.50400001928E-02 0.  1.
    10030    2    1    2    0    0  0.00000000000E+00  0.00000000000E+00 -0.10486761509E+04  0.11618755242E+04  0.50023301013E+03 0.  0.
        5    1    3    3  502    0 -0.13955861209E+03 -0.10102917469E+03 -0.94532889905E+03  0.96091223206E+03  0.46999998093E+01 0.  1.
       -5    1    3    3    0  502  0.13955861209E+03  0.10102917469E+03 -0.10334725183E+03  0.20096329219E+03  0.46999998093E+01 0. -1.
</event>
<event>
 5   0  0.4884478E-02  0.4997612E+03  0.7818609E-02  0.1013841E+00
        1   -1    0    0  501    0  0.00000000000E+00  0.00000000000E+00  0.17909457789E+03  0.17909457796E+03  0.50400001928E-02 0.  1.
       -1   -1    0    0    0  501  0.00000000000E+00  0.00000000000E+00 -0.34864432793E+03  0.34864432797E+03  0.50400001928E-02 0. -1.
    10030    2    1    2    0    0  0.00000000000E+00  0.00000000000E+00 -0.16954975004E+03  0.52773890593E+03  0.49976117806E+03 0.  0.
        3    1    3    3  502    0 -0.22767606335E+03 -0.28237915307E+01  0.23924297372E+02  0.22894703716E+03  0.10100000352E+00 0.  1.
       -3    1    3    3    0  502  0.22767606335E+03  0.28237915307E+01 -0.19347404741E+03  0.29879186877E+03  0.10100000352E+00 0. -1.
</event>
<event>
 5   0  0.4884478E-02  0.5045103E+03  0.7818609E-02  0.1012608E+00
       -1   -1    0    0    0  501  0.00000000000E+00  0.00000000000E+00  0.29166492461E+03  0.29166492465E+03  0.50400001928E-02 0. -1.
        1   -1    0    0  501    0  0.00000000000E+00  0.00000000000E+00 -0.21817039995E+03  0.21817040001E+03  0.50400001928E-02 0.  1.
    10030    2    1    2    0    0  0.00000000000E+00  0.00000000000E+00  0.73494524662E+02  0.50983532466E+03  0.50451027058E+03 0.  0.
        3    1    3    3  502    0  0.13282390158E+03  0.20166781704E+03 -0.36964705395E+02  0.24429182734E+03  0.10100000352E+00 0. -1.
       -3    1    3    3    0  502 -0.13282390158E+03 -0.20166781704E+03  0.11045923006E+03  0.26554349732E+03  0.10100000352E+00 0.  1.
</event>
<event>
 5   0  0.5191358E-02  0.4989054E+03  0.7818609E-02  0.1014065E+00
        1   -1    0    0  501    0  0.00000000000E+00  0.00000000000E+00  0.33358173155E+03  0.33358173158E+03  0.50400001928E-02 0.  1.
       -1   -1    0    0    0  501  0.00000000000E+00  0.00000000000E+00 -0.18654095970E+03  0.18654095977E+03  0.50400001928E-02 0. -1.
    10030    2    1    2    0    0  0.00000000000E+00  0.00000000000E+00  0.14704077184E+03  0.52012269136E+03  0.49890542739E+03 0.  0.
        4    1    3    3  502    0 -0.29908847661E+02 -0.87451243404E+02 -0.16802852802E+03  0.19177449849E+03  0.12699999809E+01 0. -1.
       -4    1    3    3    0  502  0.29908847661E+02  0.87451243404E+02  0.31506929987E+03  0.32834819287E+03  0.12699999809E+01 0.  1.
</event>
<event>
 5   0  0.7698747E-02  0.5011859E+03  0.7818609E-02  0.1013470E+00
        2   -1    0    0  501    0  0.00000000000E+00  0.00000000000E+00  0.66581845909E+03  0.66581845909E+03  0.25500000920E-02 0.  1.
       -2   -1    0    0    0  501  0.00000000000E+00  0.00000000000E+00 -0.94315230139E+02  0.94315230174E+02  0.25500000920E-02 0. -1.
    10030    2    1    2    0    0  0.00000000000E+00  0.00000000000E+00  0.57150322895E+03  0.76013368926E+03  0.50118587855E+03 0.  0.
        2    1    3    3  502    0 -0.14117131957E+02  0.20145063313E+03  0.60715521597E+02  0.21087443082E+03  0.25500000920E-02 0. -1.
       -2    1    3    3    0  502  0.14117131957E+02 -0.20145063313E+03  0.51078770735E+03  0.54925925845E+03  0.25500000920E-02 0.  1.
</event>
<event>
 5   0  0.7881060E-02  0.4992089E+03  0.7818609E-02  0.1013986E+00
        2   -1    0    0  501    0  0.00000000000E+00  0.00000000000E+00  0.79611155602E+03  0.79611155602E+03  0.25500000920E-02 0. -1.
       -2   -1    0    0    0  501  0.00000000000E+00  0.00000000000E+00 -0.78258350927E+02  0.78258350969E+02  0.25500000920E-02 0.  1.
    10030    2    1    2    0    0  0.00000000000E+00  0.00000000000E+00  0.71785320509E+03  0.87436990699E+03  0.49920888433E+03 0.  0.
        1    1    3    3  502    0 -0.19929741763E+03 -0.13879205230E+03  0.25801032834E+03  0.35433321042E+03  0.50400001928E-02 0.  1.
       -1    1    3    3    0  502  0.19929741763E+03  0.13879205230E+03  0.45984287676E+03  0.52003669657E+03  0.50400001928E-02 0. -1.
</event>
<event>
 5   0  0.4803890E-02  0.4943771E+03  0.7818609E-02  0.1015257E+00
       -1   -1    0    0    0  501  0.00000000000E+00  0.00000000000E+00  0.23439630419E+03  0.23439630424E+03  0.50400001928E-02 0.  1.
        1   -1    0    0  501    0  0.00000000000E+00  0.00000000000E+00 -0.26067896638E+03  0.26067896643E+03  0.50400001928E-02 0. -1.
    10030    2    1    2    0    0  0.00000000000E+00  0.00000000000E+00 -0.26282662193E+02  0.49507527067E+03  0.49437712861E+03 0.  0.
        5    1    3    3  502    0  0.16549862886E+02 -0.23404869054E+03  0.64604692790E+02  0.24341023774E+03  0.46999998093E+01 0.  1.
       -5    1    3    3    0  502 -0.16549862886E+02  0.23404869054E+03 -0.90887354983E+02  0.25166503293E+03  0.46999998093E+01 0. -1.
</event>
<event>
 5   0  0.4865501E-02  0.4993019E+03  0.7818609E-02  0.1013961E+00
       -1   -1    0    0    0  501  0.00000000000E+00  0.00000000000E+00  0.17552923876E+03  0.17552923883E+03  0.50400001928E-02 0. -1.
        1   -1    0    0  501    0  0.00000000000E+00  0.00000000000E+00 -0.35507248453E+03  0.35507248457E+03  0.50400001928E-02 0.  1.
    10030    2    1    2    0    0  0.00000000000E+00  0.00000000000E+00 -0.17954324577E+03  0.53060172340E+03  0.49930192446E+03 0.  0.
        2    1    3    3  502    0 -0.22912217649E+03 -0.96204437610E+02 -0.64326149337E+02  0.25669070702E+03  0.25500000920E-02 0. -1.
       -2    1    3    3    0  502  0.22912217649E+03  0.96204437610E+02 -0.11521709644E+03  0.27391101638E+03  0.25500000920E-02 0.  1.
</event>
<event>
 5   0  0.4884478E-02  0.4960986E+03  0.7818609E-02  0.1014802E+00
       -1   -1    0    0    0  501  0.00000000000E+00  0.00000000000E+00  0.12426244983E+03  0.12426244993E+03  0.50400001928E-02 0. -1.
        1   -1    0    0  501    0  0.00000000000E+00  0.00000000000E+00 -0.49514923790E+03  0.49514923793E+03  0.50400001928E-02 0.  1.
    10030    2    1    2    0    0  0.00000000000E+00  0.00000000000E+00 -0.37088678807E+03  0.61941168786E+03  0.49609860863E+03 0.  0.
        3    1    3    3  502    0  0.12542927520E+03 -0.15996309099E+03 -0.79548176697E+01  0.20343053576E+03  0.10100000352E+00 0. -1.
       -3    1    3    3    0  502 -0.12542927520E+03  0.15996309099E+03 -0.36293197040E+03  0.41598115209E+03  0.10100000352E+00 0.  1.
</event>
<event>
 5   0  0.7698747E-02  0.5068281E+03  0.7818609E-02  0.1012012E+00
       -2   -1    0    0    0  501  0.00000000000E+00  0.00000000000E+00  0.20682638529E+03  0.20682638530E+03  0.25500000920E-02 0.  1.
        2   -1    0    0  501    0  0.00000000000E+00  0.00000000000E+00 -0.31049561504E+03  0.31049561505E+03  0.25500000920E-02 0. -1.
    10030    2    1    2    0    0  0.00000000000E+00  0.00000000000E+00 -0.10366922975E+03  0.51732200035E+03  0.50682811963E+03 0.  0.
        2    1    3    3  502    0  0.18655165635E+03 -0.46191856108E+02 -0.22043171835E+03  0.29244717560E+03  0.25500000920E-02 0. -1.
       -2    1    3    3    0  502 -0.18655165635E+03  0.46191856108E+02  0.11676248860E+03  0.22487482475E+03  0.25500000920E-02 0.  1.
</event>
<event>
 5   0  0.7881060E-02  0.5009192E+03  0.7818609E-02  0.1013539E+00
       -2   -1    0    0    0  501  0.00000000000E+00  0.00000000000E+00  0.51396532981E+03  0.51396532982E+03  0.25500000920E-02 0. -1.
        2   -1    0    0  501    0  0.00000000000E+00  0.00000000000E+00 -0.12205107906E+03  0.12205107909E+03  0.25500000920E-02 0.  1.
    10030    2    1    2    0    0  0.00000000000E+00  0.00000000000E+00  0.39191425075E+03  0.63601640891E+03  0.50091924744E+03 0.  0.
        1    1    3    3  502    0 -0.18121413770E+03 -0.16646680837E+03  0.13667075624E+03  0.28147585621E+03  0.50400001928E-02 0.  1.
       -1    1    3    3    0  502  0.18121413770E+03  0.16646680837E+03  0.25524349450E+03  0.35454055269E+03  0.50400001928E-02 0. -1.
</event>
<event>
 5   0  0.5038436E-02  0.4971724E+03  0.7818609E-02  0.1014520E+00
        1   -1    0    0  501    0  0.00000000000E+00  0.00000000000E+00  0.35442859627E+03  0.35442859630E+03  0.50400001928E-02 0. -1.
       -1   -1    0    0    0  501  0.00000000000E+00  0.00000000000E+00 -0.17435134592E+03  0.17435134599E+03  0.50400001928E-02 0.  1.
    10030    2    1    2    0    0  0.00000000000E+00  0.00000000000E+00  0.18007725035E+03  0.52877994229E+03  0.49717241605E+03 0.  0.
        1    1    3    3  502    0  0.12402952980E+03  0.75524920832E+02  0.30462719065E+03  0.33746861074E+03  0.50400001928E-02 0. -1.
       -1    1    3    3    0  502 -0.12402952980E+03 -0.75524920832E+02 -0.12454994029E+03  0.19131133155E+03  0.50400001928E-02 0.  1.
</event>
<event>
 5   0  0.7698747E-02  0.5002247E+03  0.7818609E-02  0.1013720E+00
       -2   -1    0    0    0  501  0.00000000000E+00  0.00000000000E+00  0.27652968731E+03  0.27652968732E+03  0.25500000920E-02 0. -1.
        2   -1    0    0  501    0  0.00000000000E+00  0.00000000000E+00 -0.22621867139E+03  0.22621867140E+03  0.25500000920E-02 0.  1.
    10030    2    1    2    0    0  0.00000000000E+00  0.00000000000E+00  0.50311015925E+02  0.50274835872E+03  0.50022466340E+03 0.  0.
        2    1    3    3  502    0  0.52052883845E+02 -0.15468317176E+03 -0.16532584542E+03  0.23231233612E+03  0.25500000920E-02 0.  1.
       -2    1    3    3    0  502 -0.52052883845E+02  0.15468317176E+03  0.21563686135E+03  0.27043602260E+03  0.25500000920E-02 0. -1.
</event>
<event>
 5   0  0.4865501E-02  0.4998046E+03  0.7818609E-02  0.1013830E+00
       -1   -1    0    0    0  501  0.00000000000E+00  0.00000000000E+00  0.16638580779E+03  0.16638580787E+03  0.50400001928E-02 0.  1.
        1   -1    0    0  501    0  0.00000000000E+00  0.00000000000E+00 -0.37533944515E+03  0.37533944518E+03  0.50400001928E-02 0. -1.
    10030    2    1    2    0    0  0.00000000000E+00  0.00000000000E+00 -0.20895363736E+03  0.54172525305E+03  0.49980458904E+03 0.  0.
        2    1    3    3  502    0 -0.18189888145E+03 -0.11206023354E+03  0.36036320456E+02  0.21666406120E+03  0.25500000920E-02 0.  1.
       -2    1    3    3    0  502  0.18189888145E+03  0.11206023354E+03 -0.24498995781E+03  0.32506119186E+03  0.25500000920E-02 0. -1.
</event>
<event>
 5   0  0.3210875E-02  0.4889165E+03  0.7818609E-02  0.1016713E+00
       -3   -1    0    0    0  501  0.00000000000E+00  0.00000000000E+00  0.49687522662E+02  0.49687625313E+02  0.10100000352E+00 0.  1.
        3   -1    0    0  501    0  0.00000000000E+00  0.00000000000E+00 -0.12027115483E+04  0.12027115525E+04  0.10100000352E+00 0. -1.
    10030    2    1    2    0    0  0.00000000000E+00  0.00000000000E+00 -0.11530240256E+04  0.12523991778E+04  0.48891645195E+03 0.  0.
        2    1    3    3  502    0  0.18752772620E+02 -0.85671505783E+02  0.80032660109E+01  0.88064326815E+02  0.25500000920E-02 0.  1.
       -2    1    3    3    0  502 -0.18752772620E+02  0.85671505783E+02 -0.11610272916E+04  0.11643348510E+04  0.25500000920E-02 0. -1.
</event>
<event>
 5   0  0.4884478E-02  0.5011569E+03  0.7818609E-02  0.1013477E+00
        1   -1    0    0  501    0  0.00000000000E+00  0.00000000000E+00  0.37833800856E+03  0.37833800860E+03  0.50400001928E-02 0.  1.
       -1   -1    0    0    0  501  0.00000000000E+00  0.00000000000E+00 -0.16596153976E+03  0.16596153984E+03  0.50400001928E-02 0. -1.
    10030    2    1    2    0    0  0.00000000000E+00  0.00000000000E+00  0.21237646880E+03  0.54429954843E+03  0.50115689552E+03 0.  0.
        3    1    3    3  502    0 -0.17564563041E+03  0.16615155883E+03  0.17767069272E+03  0.30004101925E+03  0.10100000352E+00 0.  1.
       -3    1    3    3    0  502  0.17564563041E+03 -0.16615155883E+03  0.34705776083E+02  0.24425852918E+03  0.10100000352E+00 0. -1.
</event>
<event>
 5   0  0.7933103E-02  0.5105932E+03  0.7818609E-02  0.1011050E+00
       -2   -1    0    0    0  501  0.00000000000E+00  0.00000000000E+00  0.81171257327E+02  0.81171257367E+02  0.25500000920E-02 0. -1.
        2   -1    0    0  501    0  0.00000000000E+00  0.00000000000E+00 -0.80294856019E+03  0.80294856020E+03  0.25500000920E-02 0.  1.
    10030    2    1    2    0    0  0.00000000000E+00  0.00000000000E+00 -0.72177730286E+03  0.88411981756E+03  0.51059316180E+03 0.  0.
        5    1    3    3  502    0 -0.21900686638E+03  0.13085661663E+03 -0.37504007910E+03  0.45361284436E+03  0.46999998093E+01 0.  1.
       -5    1    3    3    0  502  0.21900686638E+03 -0.13085661663E+03 -0.34673722377E+03  0.43050697321E+03  0.46999998093E+01 0. -1.
</event>
<event>
 5   0  0.7698747E-02  0.4990901E+03  0.7818609E-02  0.1014017E+00
       -2   -1    0    0    0  501  0.00000000000E+00  0.00000000000E+00  0.11753003115E+03  0.11753003118E+03  0.25500000920E-02 0. -1.
        2   -1    0    0  501    0  0.00000000000E+00  0.00000000000E+00 -0.52984520109E+03  0.52984520110E+03  0.25500000920E-02 0.  1.
    10030    2    1    2    0    0  0.00000000000E+00  0.00000000000E+00 -0.41231516994E+03  0.64737523228E+03  0.49909006402E+03 0.  0.
        2    1    3    3  502    0 -0.70027667672E+02  0.70569244649E+02  0.90733056161E+02  0.13459710256E+03  0.25500000920E-02 0. -1.
       -2    1    3    3    0  502  0.70027667672E+02 -0.70569244649E+02 -0.50304822610E+03  0.51277812972E+03  0.25500000920E-02 0.  1.
</event>
<event>
 5   0  0.4803890E-02  0.5015911E+03  0.7818609E-02  0.1013364E+00
       -1   -1    0    0    0  501  0.00000000000E+00  0.00000000000E+00  0.86084336796E+02  0.86084336944E+02  0.50400001928E-02 0. -1.
        1   -1    0    0  501    0  0.00000000000E+00  0.00000000000E+00 -0.73066042535E+03  0.73066042536E+03  0.50400001928E-02 0.  1.
    10030    2    1    2    0    0  0.00000000000E+00  0.00000000000E+00 -0.64457608855E+03  0.81674476231E+03  0.50159114110E+03 0.  0.
        5    1    3    3  502    0  0.43241116526E-01 -0.21691513904E+03 -0.52711951319E+03  0.57002565785E+03  0.46999998093E+01 0.  1.
       -5    1    3    3    0  502 -0.43241116526E-01  0.21691513904E+03 -0.11745657536E+03  0.24671910446E+03  0.46999998093E+01 0. -1.
</event>
<event>
 5   0  0.3210875E-02  0.4996940E+03  0.7818609E-02  0.1013859E+00
       -3   -1    0    0    0  501  0.00000000000E+00  0.00000000000E+00  0.12054415573E+04  0.12054415616E+04  0.10100000352E+00 0.  1.
        3   -1    0    0  501    0  0.00000000000E+00  0.00000000000E+00 -0.51784718013E+02  0.51784816508E+02  0.10100000352E+00 0. -1.
    10030    2    1    2    0    0  0.00000000000E+00  0.00000000000E+00  0.11536568393E+04  0.12572263781E+04  0.49969396916E+03 0.  0.
        5    1    3    3  502    0  0.27926616734E+02  0.60666705006E+01 -0.47547119749E+02  0.55673324023E+02  0.46999998093E+01 0. -1.
       -5    1    3    3    0  502 -0.27926616734E+02 -0.60666705006E+01  0.12012039591E+04  0.12015530541E+04  0.46999998093E+01 0.  1.
</event>
<event>
 5   0  0.4803890E-02  0.5020629E+03  0.7818609E-02  0.1013242E+00
        1   -1    0    0  501    0  0.00000000000E+00  0.00000000000E+00  0.53349269657E+03  0.53349269660E+03  0.50400001928E-02 0. -1.
       -1   -1    0    0    0  501  0.00000000000E+00  0.00000000000E+00 -0.11812117610E+03  0.11812117621E+03  0.50400001928E-02 0.  1.
    10030    2    1    2    0    0  0.00000000000E+00  0.00000000000E+00  0.41537152047E+03  0.65161387280E+03  0.50206288372E+03 0.  0.
        5    1    3    3  502    0  0.11573040217E+03 -0.20053299217E+03  0.81934737379E+02  0.24564689724E+03  0.46999998093E+01 0.  1.
       -5    1    3    3    0  502 -0.11573040217E+03  0.20053299217E+03  0.33343678309E+03  0.40596697557E+03  0.46999998093E+01 0. -1.
</event>
<event>
 5   0  0.3210875E-02  0.5017888E+03  0.7818609E-02  0.1013313E+00
        4   -1    0    0  501    0  0.00000000000E+00  0.00000000000E+00  0.18989964714E+03  0.18990389381E+03  0.12699999809E+01 0.  1.
       -4   -1    0    0    0  501  0.00000000000E+00  0.00000000000E+00 -0.33147110892E+03  0.33147354185E+03  0.12699999809E+01 0. -1.
    10030    2    1    2    0    0  0.00000000000E+00  0.00000000000E+00 -0.14157146178E+03  0.52137743566E+03  0.50178875199E+03 0.  0.
        5    1    3    3  502    0 -0.23754343773E+03  0.73758985880E+02 -0.10459240165E+03  0.26986836288E+03  0.46999998093E+01 0.  1.
       -5    1    3    3    0  502  0.23754343773E+03 -0.73758985880E+02 -0.36979060133E+02  0.25150907278E+03  0.46999998093E+01 0. -1.
</event>
<event>
 5   0  0.5038436E-02  0.4988179E+03  0.7818609E-02  0.1014088E+00
        1   -1    0    0  501    0  0.00000000000E+00  0.00000000000E+00  0.11936307033E+04  0.11936307033E+04  0.50400001928E-02 0.  1.
       -1   -1    0    0    0  501  0.00000000000E+00  0.00000000000E+00 -0.52113952385E+02  0.52113952628E+02  0.50400001928E-02 0. -1.
    10030    2    1    2    0    0  0.00000000000E+00  0.00000000000E+00  0.11415167509E+04  0.12457446559E+04  0.49881785771E+03 0.  0.
        1    1    3    3  502    0 -0.75259979111E+02  0.13930250038E+03  0.10520208994E+04  0.10638689882E+04  0.50400001928E-02 0.  1.
       -1    1    3    3    0  502  0.75259979111E+02 -0.13930250038E+03  0.89495851434E+02  0.18187566775E+03  0.50400001928E-02 0. -1.
</event>
<event>
 5   0  0.7698747E-02  0.5044274E+03  0.7818609E-02  0.1012630E+00
       -2   -1    0    0    0  501  0.00000000000E+00  0.00000000000E+00  0.56917302922E+02  0.56917302979E+02  0.25500000920E-02 0.  1.
        2   -1    0    0  501    0  0.00000000000E+00  0.00000000000E+00 -0.11176173105E+04  0.11176173105E+04  0.25500000920E-02 0. -1.
    10030    2    1    2    0    0  0.00000000000E+00  0.00000000000E+00 -0.10607000075E+04  0.11745346134E+04  0.50442744987E+03 0.  0.
        2    1    3    3  502    0 -0.16245127271E+02 -0.25158182983E+03 -0.54753040363E+03  0.60278260108E+03  0.25500000920E-02 0.  1.
       -2    1    3    3    0  502  0.16245127271E+02  0.25158182983E+03 -0.51316960392E+03  0.57175201237E+03  0.25500000920E-02 0. -1.
</event>
<event>
 5   0  0.5038436E-02  0.4951084E+03  0.7818609E-02  0.1015064E+00
       -1   -1    0    0    0  501  0.00000000000E+00  0.00000000000E+00  0.11125600169E+04  0.11125600169E+04  0.50400001928E-02 0.  1.
        1   -1    0    0  501    0  0.00000000000E+00  0.00000000000E+00 -0.55082941610E+02  0.55082941841E+02  0.50400001928E-02 0. -1.
    10030    2    1    2    0    0  0.00000000000E+00  0.00000000000E+00  0.10574770753E+04  0.11676429587E+04  0.49510838647E+03 0.  0.
        1    1    3    3  502    0 -0.82696081618E+01 -0.14929458539E+03  0.63443242709E+02  0.16242630549E+03  0.50400001928E-02 0. -1.
       -1    1    3    3    0  502  0.82696081618E+01  0.14929458539E+03  0.99403383256E+03  0.10052166532E+04  0.50400001928E-02 0.  1.
</event>
<event>
 5   0  0.3210875E-02  0.4978759E+03  0.7818609E-02  0.1014335E+00
       -3   -1    0    0    0  501  0.00000000000E+00  0.00000000000E+00  0.60515100952E+02  0.60515185236E+02  0.10100000352E+00 0. -1.
        3   -1    0    0  501    0  0.00000000000E+00  0.00000000000E+00 -0.10240427853E+04  0.10240427902E+04  0.10100000352E+00 0.  1.
    10030    2    1    2    0    0  0.00000000000E+00  0.00000000000E+00 -0.96352768431E+03  0.10845579755E+04  0.49787589191E+03 0.  0.
        1    1    3    3  502    0  0.46125021380E+01 -0.24465766007E+03 -0.58138600081E+03  0.63078389942E+03  0.50400001928E-02 0. -1.
       -1    1    3    3    0  502 -0.46125021380E+01  0.24465766007E+03 -0.38214168350E+03  0.45377407605E+03  0.50400001928E-02 0.  1.
</event>
<event>
 5   0  0.3210875E-02  0.4986283E+03  0.7818609E-02  0.1014138E+00
       -3   -1    0    0    0  501  0.00000000000E+00  0.00000000000E+00  0.92737418889E+03  0.92737419439E+03  0.10100000352E+00 0.  1.
        3   -1    0    0  501    0  0.00000000000E+00  0.00000000000E+00 -0.67025277014E+02  0.67025353113E+02  0.10100000352E+00 0. -1.
    10030    2    1    2    0    0  0.00000000000E+00  0.00000000000E+00  0.86034891188E+03  0.99439954751E+03  0.49862832843E+03 0.  0.
        5    1    3    3  502    0 -0.20691708865E+03 -0.12589932436E+03  0.54765272323E+03  0.59884131179E+03  0.46999998093E+01 0.  1.
       -5    1    3    3    0  502  0.20691708865E+03  0.12589932436E+03  0.31269618865E+03  0.39555823572E+03  0.46999998093E+01 0. -1.
</event>
<event>
 5   0  0.7933103E-02  0.5023398E+03  0.7818609E-02  0.1013170E+00
        2   -1    0    0  501    0  0.00000000000E+00  0.00000000000E+00  0.33794908754E+03  0.33794908755E+03  0.25500000920E-02 0.  1.
       -2   -1    0    0    0  501  0.00000000000E+00  0.00000000000E+00 -0.18667406428E+03  0.18667406430E+03  0.25500000920E-02 0. -1.
    10030    2    1    2    0    0  0.00000000000E+00  0.00000000000E+00  0.15127502326E+03  0.52462315185E+03  0.50233984392E+03 0.  0.
        5    1    3    3  502    0 -0.87207686139E+02  0.23192517602E+03  0.11831299031E+03  0.27461704511E+03  0.46999998093E+01 0.  1.
       -5    1    3    3    0  502  0.87207686139E+02 -0.23192517602E+03  0.32962032949E+02  0.25000610674E+03  0.46999998093E+01 0. -1.
</event>
<event>
 5   0  0.4884478E-02  0.5005654E+03  0.7818609E-02  0.1013631E+00
       -1   -1    0    0    0  501  0.00000000000E+00  0.00000000000E+00  0.78296385603E+02  0.78296385765E+02  0.50400001928E-02 0.  1.
        1   -1    0    0  501    0  0.00000000000E+00  0.00000000000E+00 -0.80005517953E+03  0.80005517955E+03  0.50400001928E-02 0. -1.
    10030    2    1    2    0    0  0.00000000000E+00  0.00000000000E+00 -0.72175879393E+03  0.87835156531E+03  0.50056539600E+03 0.  0.
        3    1    3    3  502    0 -0.17196455732E+03 -0.76098448468E+02 -0.65069307624E+03  0.67732139528E+03  0.10100000352E+00 0. -1.
       -3    1    3    3    0  502  0.17196455732E+03  0.76098448468E+02 -0.71065717691E+02  0.20103017004E+03  0.10100000352E+00 0.  1.
</event>
<event>
 5   0  0.4803890E-02  0.5003913E+03  0.7818609E-02  0.1013677E+00
       -1   -1    0    0    0  501  0.00000000000E+00  0.00000000000E+00  0.47015919595E+03  0.47015919598E+03  0.50400001928E-02 0. -1.
        1   -1    0    0  501    0  0.00000000000E+00  0.00000000000E+00 -0.13314183141E+03  0.13314183150E+03  0.50400001928E-02 0.  1.
    10030    2    1    2    0    0  0.00000000000E+00  0.00000000000E+00  0.33701736454E+03  0.60330102748E+03  0.50039127266E+03 0.  0.
        5    1    3    3  502    0 -0.14854106547E+03  0.41487075892E+01  0.41112513517E+03  0.43718145737E+03  0.46999998093E+01 0. -1.
       -5    1    3    3    0  502  0.14854106547E+03 -0.41487075892E+01 -0.74107770625E+02  0.16611957010E+03  0.46999998093E+01 0.  1.
</event>
<event>
 5   0  0.4803890E-02  0.5003579E+03  0.7818609E-02  0.1013686E+00
        1   -1    0    0  501    0  0.00000000000E+00  0.00000000000E+00  0.11468472712E+04  0.11468472712E+04  0.50400001928E-02 0.  1.
       -1   -1    0    0    0  501  0.00000000000E+00  0.00000000000E+00 -0.54575276479E+02  0.54575276712E+02  0.50400001928E-02 0. -1.
    10030    2    1    2    0    0  0.00000000000E+00  0.00000000000E+00  0.10922719947E+04  0.12014225479E+04  0.50035790011E+03 0.  0.
        5    1    3    3  502    0 -0.19631143030E+02 -0.11411788949E+03  0.13761593379E+02  0.11670366716E+03  0.46999998093E+01 0. -1.
       -5    1    3    3    0  502  0.19631143030E+02  0.11411788949E+03  0.10785104013E+04  0.10847188807E+04  0.46999998093E+01 0.  1.
</event>
<event>
 5   0  0.7698747E-02  0.4993261E+03  0.7818609E-02  0.1013955E+00
       -2   -1    0    0    0  501  0.00000000000E+00  0.00000000000E+00  0.33187536823E+03  0.33187536824E+03  0.25500000920E-02 0. -1.
        2   -1    0    0  501    0  0.00000000000E+00  0.00000000000E+00 -0.18781642972E+03  0.18781642973E+03  0.25500000920E-02 0.  1.
    10030    2    1    2    0    0  0.00000000000E+00  0.00000000000E+00  0.14405893851E+03  0.51969179797E+03  0.49932613302E+03 0.  0.
        2    1    3    3  502    0  0.20037448310E+03  0.11755807029E+03 -0.23143101935E+02  0.23346399411E+03  0.25500000920E-02 0. -1.
       -2    1    3    3    0  502 -0.20037448310E+03 -0.11755807029E+03  0.16720204044E+03  0.28622780386E+03  0.25500000920E-02 0.  1.
</event>
<event>
 5   0  0.4803890E-02  0.4993017E+03  0.7818609E-02  0.1013961E+00
        1   -1    0    0  501    0  0.00000000000E+00  0.00000000000E+00  0.34838644277E+03  0.34838644281E+03  0.50400001928E-02 0.  1.
       -1   -1    0    0    0  501  0.00000000000E+00  0.00000000000E+00 -0.17889772114E+03  0.17889772121E+03  0.50400001928E-02 0. -1.
    10030    2    1    2    0    0  0.00000000000E+00  0.00000000000E+00  0.16948872164E+03  0.52728416402E+03  0.49930167521E+03 0.  0.
        5    1    3    3  502    0  0.24563979335E+03 -0.11395599134E+02  0.12997807182E+03  0.27818187739E+03  0.46999998093E+01 0.  1.
       -5    1    3    3    0  502 -0.24563979335E+03  0.11395599134E+02  0.39510649818E+02  0.24910228663E+03  0.46999998093E+01 0. -1.
</event>
<event>
 5   0  0.5038436E-02  0.5003135E+03  0.7818609E-02  0.1013697E+00
       -1   -1    0    0    0  501  0.00000000000E+00  0.00000000000E+00  0.37783779464E+02  0.37783779800E+02  0.50400001928E-02 0. -1.
        1   -1    0    0  501    0  0.00000000000E+00  0.00000000000E+00 -0.16562238896E+04  0.16562238896E+04  0.50400001928E-02 0.  1.
    10030    2    1    2    0    0  0.00000000000E+00  0.00000000000E+00 -0.16184401101E+04  0.16940076694E+04  0.50031349563E+03 0.  0.
        1    1    3    3  502    0 -0.57862306259E+02 -0.84495280949E+02 -0.15819968679E+04  0.15853080424E+04  0.50400001928E-02 0.  1.
       -1    1    3    3    0  502  0.57862306259E+02  0.84495280949E+02 -0.36443242168E+02  0.10869962702E+03  0.50400001928E-02 0. -1.
</event>
<event>
 5   0  0.7698747E-02  0.5089229E+03  0.7818609E-02  0.1011476E+00
        2   -1    0    0  501    0  0.00000000000E+00  0.00000000000E+00  0.60730399687E+03  0.60730399688E+03  0.25500000920E-02 0. -1.
       -2   -1    0    0    0  501  0.00000000000E+00  0.00000000000E+00 -0.10661981682E+03  0.10661981685E+03  0.25500000920E-02 0.  1.
    10030    2    1    2    0    0  0.00000000000E+00  0.00000000000E+00  0.50068418005E+03  0.71392381373E+03  0.50892294472E+03 0.  0.
        2    1    3    3  502    0 -0.10903156278E+03  0.19785611260E+03  0.86052854127E+02  0.24174370041E+03  0.25500000920E-02 0.  1.
       -2    1    3    3    0  502  0.10903156278E+03 -0.19785611260E+03  0.41463132592E+03  0.47218011332E+03  0.25500000920E-02 0. -1.
</event>
<event>
 5   0  0.3210875E-02  0.5025040E+03  0.7818609E-02  0.1013127E+00
       -4   -1    0    0    0  501  0.00000000000E+00  0.00000000000E+00  0.16246792003E+03  0.16247288370E+03  0.12699999809E+01 0. -1.
        4   -1    0    0  501    0  0.00000000000E+00  0.00000000000E+00 -0.38854204988E+03  0.38854412545E+03  0.12699999809E+01 0.  1.
    10030    2    1    2    0    0  0.00000000000E+00  0.00000000000E+00 -0.22607412985E+03  0.55101700916E+03  0.50250396236E+03 0.  0.
        1    1    3    3  502    0 -0.27702221295E+02 -0.24427493147E+03 -0.16990845049E+03  0.29884199300E+03  0.50400001928E-02 0.  1.
       -1    1    3    3    0  502  0.27702221295E+02  0.24427493147E+03 -0.56165679366E+02  0.25217501615E+03  0.50400001928E-02 0. -1.
</event>
<event>
 5   0  0.4865501E-02  0.5009372E+03  0.7818609E-02  0.1013535E+00
       -1   -1    0    0    0  501  0.00000000000E+00  0.00000000000E+00  0.15412428487E+03  0.15412428495E+03  0.50400001928E-02 0.  1.
        1   -1    0    0  501    0  0.00000000000E+00  0.00000000000E+00 -0.40703843780E+03  0.40703843783E+03  0.50400001928E-02 0. -1.
    10030    2    1    2    0    0  0.00000000000E+00  0.00000000000E+00 -0.25291415293E+03  0.56116272278E+03  0.50093715443E+03 0.  0.
        2    1    3    3  502    0 -0.22273832115E+02  0.10128546413E+03  0.12894369231E+03  0.16547309338E+03  0.25500000920E-02 0.  1.
       -2    1    3    3    0  502  0.22273832115E+02 -0.10128546413E+03 -0.38185784523E+03  0.39568962940E+03  0.25500000920E-02 0. -1.
</event>
<event>
 5   0  0.4865501E-02  0.4867611E+03  0.7818609E-02  0.1017293E+00
       -1   -1    0    0    0  501  0.00000000000E+00  0.00000000000E+00  0.21809623200E+03  0.21809623206E+03  0.50400001928E-02 0. -1.
        1   -1    0    0  501    0  0.00000000000E+00  0.00000000000E+00 -0.27159613066E+03  0.27159613070E+03  0.50400001928E-02 0.  1.
    10030    2    1    2    0    0  0.00000000000E+00  0.00000000000E+00 -0.53499898659E+02  0.48969236276E+03  0.48676110258E+03 0.  0.
        2    1    3    3  502    0  0.10536475951E+03 -0.49755071628E+02  0.18821129441E+03  0.22136122301E+03  0.25500000920E-02 0. -1.
       -2    1    3    3    0  502 -0.10536475951E+03  0.49755071628E+02 -0.24171119307E+03  0.26833113976E+03  0.25500000920E-02 0.  1.
</event>
<event>
 5   0  0.5191358E-02  0.4994548E+03  0.7818609E-02  0.1013921E+00
        1   -1    0    0  501    0  0.00000000000E+00  0.00000000000E+00  0.14101655890E+03  0.14101655899E+03  0.50400001928E-02 0. -1.
       -1   -1    0    0    0  501  0.00000000000E+00  0.00000000000E+00 -0.44224427466E+03  0.44224427469E+03  0.50400001928E-02 0.  1.
    10030    2    1    2    0    0  0.00000000000E+00  0.00000000000E+00 -0.30122771576E+03  0.58326083369E+03  0.49945476609E+03 0.  0.
        4    1    3    3  502    0 -0.26459719748E+02 -0.24830870820E+03 -0.15317812011E+03  0.29295474176E+03  0.12699999809E+01 0. -1.
       -4    1    3    3    0  502  0.26459719748E+02  0.24830870820E+03 -0.14804959565E+03  0.29030609193E+03  0.12699999809E+01 0.  1.
</event>
<event>
 5   0  0.4803890E-02  0.4953522E+03  0.7818609E-02  0.1014999E+00
       -1   -1    0    0    0  501  0.00000000000E+00  0.00000000000E+00  0.70672301414E+02  0.70672301594E+02  0.50400001928E-02 0.  1.
        1   -1    0    0  501    0  0.00000000000E+00  0.00000000000E+00 -0.86799852277E+03  0.86799852279E+03  0.50400001928E-02 0. -1.
    10030    2    1    2    0    0  0.00000000000E+00  0.00000000000E+00 -0.79732622136E+03  0.93867082438E+03  0.49535221134E+03 0.  0.
        5    1    3    3  502    0 -0.74896877363E+02 -0.43934633980E+02 -0.83811966621E+03  0.84261881013E+03  0.46999998093E+01 0. -1.
       -5    1    3    3    0  502  0.74896877363E+02  0.43934633980E+02  0.40793444846E+02  0.96052014255E+02  0.46999998093E+01 0.  1.
</event>
<event>
 5   0  0.4884478E-02  0.5026947E+03  0.7818609E-02  0.1013078E+00
        1   -1    0    0  501    0  0.00000000000E+00  0.00000000000E+00  0.10613182234E+03  0.10613182245E+03  0.50400001928E-02 0.  1.
       -1   -1    0    0    0  501  0.00000000000E+00  0.00000000000E+00 -0.59525486277E+03  0.59525486279E+03  0.50400001928E-02 0. -1.
    10030    2    1    2    0    0  0.00000000000E+00  0.00000000000E+00 -0.48912304044E+03  0.70138668525E+03  0.50269467230E+03 0.  0.
        3    1    3    3  502    0 -0.10388548255E+03 -0.21550210566E+03 -0.13700815023E+03  0.27568930784E+03  0.10100000352E+00 0. -1.
       -3    1    3    3    0  502  0.10388548255E+03  0.21550210566E+03 -0.35211489020E+03  0.42569737741E+03  0.10100000352E+00 0.  1.
</event>
<event>
 5   0  0.7933103E-02  0.5022732E+03  0.7818609E-02  0.1013187E+00
       -2   -1    0    0    0  501  0.00000000000E+00  0.00000000000E+00  0.57293896854E+02  0.57293896911E+02  0.25500000920E-02 0.  1.
        2   -1    0    0  501    0  0.00000000000E+00  0.00000000000E+00 -0.11008084150E+04  0.11008084150E+04  0.25500000920E-02 0. -1.
    10030    2    1    2    0    0  0.00000000000E+00  0.00000000000E+00 -0.10435145181E+04  0.11581023119E+04  0.50227324762E+03 0.  0.
        5    1    3    3  502    0 -0.91931822986E+02 -0.23274914900E+03 -0.47428584955E+03  0.53627677884E+03  0.46999998093E+01 0.  1.
       -5    1    3    3    0  502  0.91931822986E+02  0.23274914900E+03 -0.56922866855E+03  0.62182553304E+03  0.46999998093E+01 0. -1.
</event>
<event>
 5   0  0.4803890E-02  0.5005501E+03  0.7818609E-02  0.1013635E+00
       -1   -1    0    0    0  501  0.00000000000E+00  0.00000000000E+00  0.29637227970E+03  0.29637227974E+03  0.50400001928E-02 0. -1.
        1   -1    0    0  501    0  0.00000000000E+00  0.00000000000E+00 -0.21134774300E+03  0.21134774306E+03  0.50400001928E-02 0.  1.
    10030    2    1    2    0    0  0.00000000000E+00  0.00000000000E+00  0.85024536694E+02  0.50772002281E+03  0.50055014706E+03 0.  0.
        5    1    3    3  502    0 -0.78842175353E+02  0.13551110925E+03 -0.15530996705E+03  0.22073202126E+03  0.46999998093E+01 0.  1.
       -5    1    3    3    0  502  0.78842175353E+02 -0.13551110925E+03  0.24033450375E+03  0.28698800155E+03  0.46999998093E+01 0. -1.
</event>
<event>
 5   0  0.7881060E-02  0.5008285E+03  0.7818609E-02  0.1013563E+00
        2   -1    0    0  501    0  0.00000000000E+00  0.00000000000E+00  0.72073912761E+03  0.72073912762E+03  0.25500000920E-02 0. -1.
       -2   -1    0    0    0  501  0.00000000000E+00  0.00000000000E+00 -0.87004168022E+02  0.87004168059E+02  0.25500000920E-02 0.  1.
    10030    2    1    2    0    0  0.00000000000E+00  0.00000000000E+00  0.63373495959E+03  0.80774329567E+03  0.50082854621E+03 0.  0.
        1    1    3    3  502    0  0.14741328059E+03  0.47978162041E+02 -0.30677329581E+00  0.15502475113E+03  0.50400001928E-02 0.  1.
       -1    1    3    3    0  502 -0.14741328059E+03 -0.47978162041E+02  0.63404173289E+03  0.65271854455E+03  0.50400001928E-02 0. -1.
</event>
<event>
 5   0  0.4884478E-02  0.5022130E+03  0.7818609E-02  0.1013203E+00
        1   -1    0    0  501    0  0.00000000000E+00  0.00000000000E+00  0.72040275402E+03  0.72040275404E+03  0.50400001928E-02 0. -1.
       -1   -1    0    0    0  501  0.00000000000E+00  0.00000000000E+00 -0.87526681832E+02  0.87526681977E+02  0.50400001928E-02 0.  1.
    10030    2    1    2    0    0  0.00000000000E+00  0.00000000000E+00  0.63287607219E+03  0.80792943602E+03  0.50221295367E+03 0.  0.
        3    1    3    3  502    0  0.14196390930E+03 -0.20644326920E+03  0.28942858389E+03  0.38280738017E+03  0.10100000352E+00 0.  1.
       -3    1    3    3    0  502 -0.14196390930E+03  0.20644326920E+03  0.34344748830E+03  0.42512205584E+03  0.10100000352E+00 0. -1.
</event>
<event>
 5   0  0.4865501E-02  0.5023163E+03  0.7818609E-02  0.1013176E+00
        1   -1    0    0  501    0  0.00000000000E+00  0.00000000000E+00  0.79025474660E+02  0.79025474821E+02  0.50400001928E-02 0.  1.
       -1   -1    0    0    0  501  0.00000000000E+00  0.00000000000E+00 -0.79822874302E+03  0.79822874304E+03  0.50400001928E-02 0. -1.
    10030    2    1    2    0    0  0.00000000000E+00  0.00000000000E+00 -0.71920326836E+03  0.87725421786E+03  0.50231625649E+03 0.  0.
        2    1    3    3  502    0  0.24024685599E+03  0.11487218510E+02 -0.48589915189E+03  0.54217017053E+03  0.25500000920E-02 0. -1.
       -2    1    3    3    0  502 -0.24024685599E+03 -0.11487218510E+02 -0.23330411647E+03  0.33508404733E+03  0.25500000920E-02 0.  1.
</event>
<event>
 5   0  0.3210875E-02  0.4992615E+03  0.7818609E-02  0.1013972E+00
        3   -1    0    0  501    0  0.00000000000E+00  0.00000000000E+00  0.10264749982E+04  0.10264750031E+04  0.10100000352E+00 0. -1.
       -3   -1    0    0    0  501  0.00000000000E+00  0.00000000000E+00 -0.60708203670E+02  0.60708287686E+02  0.10100000352E+00 0.  1.
    10030    2    1    2    0    0  0.00000000000E+00  0.00000000000E+00  0.96576679450E+03  0.10871832908E+04  0.49926146105E+03 0.  0.
        2    1    3    3  502    0 -0.17316729636E+03 -0.16305162974E+03  0.31786404623E+03  0.39700163524E+03  0.25500000920E-02 0.  1.
       -2    1    3    3    0  502  0.17316729636E+03  0.16305162974E+03  0.64790274827E+03  0.69018165559E+03  0.25500000920E-02 0. -1.
</event>
<event>
 5   0  0.7881060E-02  0.5039794E+03  0.7818609E-02  0.1012745E+00
        2   -1    0    0  501    0  0.00000000000E+00  0.00000000000E+00  0.45523992959E+03  0.45523992960E+03  0.25500000920E-02 0. -1.
       -2   -1    0    0    0  501  0.00000000000E+00  0.00000000000E+00 -0.13948429543E+03  0.13948429545E+03  0.25500000920E-02 0.  1.
    10030    2    1    2    0    0  0.00000000000E+00  0.00000000000E+00  0.31575563416E+03  0.59472422505E+03  0.50397944736E+03 0.  0.
        1    1    3    3  502    0 -0.14074013648E+03  0.83453847529E+02  0.38402569456E+03  0.41743031130E+03  0.50400001928E-02 0. -1.
       -1    1    3    3    0  502  0.14074013648E+03 -0.83453847529E+02 -0.68270060398E+02  0.17729391376E+03  0.50400001928E-02 0.  1.
</event>
<event>
 5   0  0.8208720E-02  0.4994960E+03  0.7818609E-02  0.1013911E+00
       -2   -1    0    0    0  501  0.00000000000E+00  0.00000000000E+00  0.93155860937E+02  0.93155860972E+02  0.25500000920E-02 0.  1.
        2   -1    0    0  501    0  0.00000000000E+00  0.00000000000E+00 -0.66956668922E+03  0.66956668922E+03  0.25500000920E-02 0. -1.
    10030    2    1    2    0    0  0.00000000000E+00  0.00000000000E+00 -0.57641082828E+03  0.76272255019E+03  0.49949599159E+03 0.  0.
        3    1    3    3  502    0  0.19175902115E+03 -0.11711091764E+03 -0.12171816542E+03  0.25554219068E+03  0.10100000352E+00 0.  1.
       -3    1    3    3    0  502 -0.19175902115E+03  0.11711091764E+03 -0.45469266285E+03  0.50718035951E+03  0.10100000352E+00 0. -1.
</event>
<event>
 5   0  0.7881060E-02  0.4787147E+03  0.7818609E-02  0.1019489E+00
        2   -1    0    0  501    0  0.00000000000E+00  0.00000000000E+00  0.41515217458E+03  0.41515217459E+03  0.25500000920E-02 0.  1.
       -2   -1    0    0    0  501  0.00000000000E+00  0.00000000000E+00 -0.13800227385E+03  0.13800227387E+03  0.25500000920E-02 0. -1.
    10030    2    1    2    0    0  0.00000000000E+00  0.00000000000E+00  0.27714990073E+03  0.55315444845E+03  0.47871471292E+03 0.  0.
        1    1    3    3  502    0  0.16721594054E+03 -0.15605911465E+03  0.57062481569E+02  0.23573660060E+03  0.50400001928E-02 0. -1.
       -1    1    3    3    0  502 -0.16721594054E+03  0.15605911465E+03  0.22008741916E+03  0.31741784785E+03  0.50400001928E-02 0.  1.
</event>
<event>
 5   0  0.8208720E-02  0.5098076E+03  0.7818609E-02  0.1011250E+00
        2   -1    0    0  501    0  0.00000000000E+00  0.00000000000E+00  0.13694641892E+04  0.13694641892E+04  0.25500000920E-02 0. -1.
       -2   -1    0    0    0  501  0.00000000000E+00  0.00000000000E+00 -0.47446247026E+02  0.47446247095E+02  0.25500000920E-02 0.  1.
    10030    2    1    2    0    0  0.00000000000E+00  0.00000000000E+00  0.13220179421E+04  0.14169104363E+04  0.50980755688E+03 0.  0.
        3    1    3    3  502    0 -0.23633054666E+03  0.66283781091E+02  0.46985708069E+03  0.53010503997E+03  0.10100000352E+00 0.  1.
       -3    1    3    3    0  502  0.23633054666E+03 -0.66283781091E+02  0.85216086145E+03  0.88680539630E+03  0.10100000352E+00 0. -1.
</event>
<event>
 5   0  0.7698747E-02  0.5004201E+03  0.7818609E-02  0.1013669E+00
       -2   -1    0    0    0  501  0.00000000000E+00  0.00000000000E+00  0.67582814940E+02  0.67582814988E+02  0.25500000920E-02 0. -1.
        2   -1    0    0  501    0  0.00000000000E+00  0.00000000000E+00 -0.92634585427E+03  0.92634585428E+03  0.25500000920E-02 0.  1.
    10030    2    1    2    0    0  0.00000000000E+00  0.00000000000E+00 -0.85876303933E+03  0.99392866926E+03  0.50042006541E+03 0.  0.
        2    1    3    3  502    0 -0.22770163138E+03 -0.10354023566E+03 -0.41739061020E+03  0.48660408427E+03  0.25500000920E-02 0. -1.
       -2    1    3    3    0  502  0.22770163138E+03  0.10354023566E+03 -0.44137242913E+03  0.50732458500E+03  0.25500000920E-02 0.  1.
</event>
<event>
 5   0  0.7881060E-02  0.4955214E+03  0.7818609E-02  0.1014955E+00
        2   -1    0    0  501    0  0.00000000000E+00  0.00000000000E+00  0.50779596239E+03  0.50779596240E+03  0.25500000920E-02 0. -1.
       -2   -1    0    0    0  501  0.00000000000E+00  0.00000000000E+00 -0.12088587323E+03  0.12088587326E+03  0.25500000920E-02 0.  1.
    10030    2    1    2    0    0  0.00000000000E+00  0.00000000000E+00  0.38691008916E+03  0.62868183566E+03  0.49552137531E+03 0.  0.
        1    1    3    3  502    0  0.22224019858E+03 -0.10020488614E+03  0.13737736451E+03  0.27982899309E+03  0.50400001928E-02 0. -1.
       -1    1    3    3    0  502 -0.22224019858E+03  0.10020488614E+03  0.24953272465E+03  0.34885284257E+03  0.50400001928E-02 0.  1.
</event>
<event>
 5   0  0.4803890E-02  0.4930720E+03  0.7818609E-02  0.1015603E+00
       -1   -1    0    0    0  501  0.00000000000E+00  0.00000000000E+00  0.11610680590E+03  0.11610680600E+03  0.50400001928E-02 0. -1.
        1   -1    0    0  501    0  0.00000000000E+00  0.00000000000E+00 -0.52348346458E+03  0.52348346460E+03  0.50400001928E-02 0.  1.
    10030    2    1    2    0    0  0.00000000000E+00  0.00000000000E+00 -0.40737665868E+03  0.63959027061E+03  0.49307197468E+03 0.  0.
        5    1    3    3  502    0  0.29430728705E+02  0.20361998585E+03 -0.37978927914E+03  0.43195978166E+03  0.46999998093E+01 0.  1.
       -5    1    3    3    0  502 -0.29430728705E+02 -0.20361998585E+03 -0.27587379546E+02  0.20763048894E+03  0.46999998093E+01 0. -1.
</event>
<event>
 5   0  0.4884478E-02  0.4965518E+03  0.7818609E-02  0.1014683E+00
        1   -1    0    0  501    0  0.00000000000E+00  0.00000000000E+00  0.10108986813E+03  0.10108986826E+03  0.50400001928E-02 0.  1.
       -1   -1    0    0    0  501  0.00000000000E+00  0.00000000000E+00 -0.60976360397E+03  0.60976360399E+03  0.50400001928E-02 0. -1.
    10030    2    1    2    0    0  0.00000000000E+00  0.00000000000E+00 -0.50867373584E+03  0.71085347224E+03  0.49655179939E+03 0.  0.
        3    1    3    3  502    0 -0.49135613942E+02  0.67489647544E+02 -0.58906870512E+03  0.59495471310E+03  0.10100000352E+00 0. -1.
       -3    1    3    3    0  502  0.49135613942E+02 -0.67489647544E+02  0.80394969289E+02  0.11589875914E+03  0.10100000352E+00 0.  1.
</event>
<event>
 5   0  0.7698747E-02  0.5000321E+03  0.7818609E-02  0.1013771E+00
       -2   -1    0    0    0  501  0.00000000000E+00  0.00000000000E+00  0.78726241098E+02  0.78726241140E+02  0.25500000920E-02 0. -1.
        2   -1    0    0  501    0  0.00000000000E+00  0.00000000000E+00 -0.79399209087E+03  0.79399209088E+03  0.25500000920E-02 0.  1.
    10030    2    1    2    0    0  0.00000000000E+00  0.00000000000E+00 -0.71526584977E+03  0.87271833202E+03  0.50003205016E+03 0.  0.
        2    1    3    3  502    0 -0.13084860206E+03  0.19971036314E+00  0.14193421851E+02  0.13161629754E+03  0.25500000920E-02 0. -1.
       -2    1    3    3    0  502  0.13084860206E+03 -0.19971036314E+00 -0.72945927162E+03  0.74110203448E+03  0.25500000920E-02 0.  1.
</event>
<event>
 5   0  0.4884478E-02  0.5000809E+03  0.7818609E-02  0.1013758E+00
        1   -1    0    0  501    0  0.00000000000E+00  0.00000000000E+00  0.12801293527E+03  0.12801293537E+03  0.50400001928E-02 0.  1.
       -1   -1    0    0    0  501  0.00000000000E+00  0.00000000000E+00 -0.48838985757E+03  0.48838985759E+03  0.50400001928E-02 0. -1.
    10030    2    1    2    0    0  0.00000000000E+00  0.00000000000E+00 -0.36037692230E+03  0.61640279296E+03  0.50008087050E+03 0.  0.
        3    1    3    3  502    0  0.15638477940E+03  0.71525869283E+01  0.60131349884E+02  0.16769957712E+03  0.10100000352E+00 0.  1.
       -3    1    3    3    0  502 -0.15638477940E+03 -0.71525869283E+01 -0.42050827219E+03  0.44870321584E+03  0.10100000352E+00 0. -1.
</event>
<event>
 5   0  0.4884478E-02  0.5049458E+03  0.7818609E-02  0.1012496E+00
       -1   -1    0    0    0  501  0.00000000000E+00  0.00000000000E+00  0.74522955512E+02  0.74522955682E+02  0.50400001928E-02 0. -1.
        1   -1    0    0  501    0  0.00000000000E+00  0.00000000000E+00 -0.85534123448E+03  0.85534123449E+03  0.50400001928E-02 0.  1.
    10030    2    1    2    0    0  0.00000000000E+00  0.00000000000E+00 -0.78081827897E+03  0.92986419018E+03  0.50494576679E+03 0.  0.
        3    1    3    3  502    0 -0.31255321219E+02 -0.10158118396E+03 -0.81213939544E+03  0.81906412440E+03  0.10100000352E+00 0.  1.
       -3    1    3    3    0  502  0.31255321219E+02  0.10158118396E+03  0.31321116477E+02  0.11080006578E+03  0.10100000352E+00 0. -1.
</event>
<event>
 5   0  0.7933103E-02  0.5064834E+03  0.7818609E-02  0.1012100E+00
       -2   -1    0    0    0  501  0.00000000000E+00  0.00000000000E+00  0.71937731431E+02  0.71937731476E+02  0.25500000920E-02 0. -1.
        2   -1    0    0  501    0  0.00000000000E+00  0.00000000000E+00 -0.89148438589E+03  0.89148438590E+03  0.25500000920E-02 0.  1.
    10030    2    1    2    0    0  0.00000000000E+00  0.00000000000E+00 -0.81954665446E+03  0.96342211737E+03  0.50648342263E+03 0.  0.
        5    1    3    3  502    0 -0.22659174139E+03 -0.82787041876E+02 -0.55602804245E+03  0.60612439776E+03  0.46999998093E+01 0.  1.
       -5    1    3    3    0  502  0.22659174139E+03  0.82787041876E+02 -0.26351861201E+03  0.35729771961E+03  0.46999998093E+01 0. -1.
</event>
<event>
 5   0  0.8208720E-02  0.4995746E+03  0.7818609E-02  0.1013890E+00
       -2   -1    0    0    0  501  0.00000000000E+00  0.00000000000E+00  0.16144545224E+03  0.16144545226E+03  0.25500000920E-02 0. -1.
        2   -1    0    0  501    0  0.00000000000E+00  0.00000000000E+00 -0.38646926969E+03  0.38646926970E+03  0.25500000920E-02 0.  1.
    10030    2    1    2    0    0  0.00000000000E+00  0.00000000000E+00 -0.22502381745E+03  0.54791472196E+03  0.49957464319E+03 0.  0.
        3    1    3    3  502    0 -0.74529018453E+02 -0.99645523032E+02 -0.35005630765E+03  0.37151478245E+03  0.10100000352E+00 0.  1.
       -3    1    3    3    0  502  0.74529018453E+02  0.99645523032E+02  0.12503249020E+03  0.17639993951E+03  0.10100000352E+00 0. -1.
</event>
<event>
 5   0  0.4803890E-02  0.5016898E+03  0.7818609E-02  0.1013339E+00
       -1   -1    0    0    0  501  0.00000000000E+00  0.00000000000E+00  0.46441878811E+03  0.46441878814E+03  0.50400001928E-02 0. -1.
        1   -1    0    0  501    0  0.00000000000E+00  0.00000000000E+00 -0.13548800197E+03  0.13548800207E+03  0.50400001928E-02 0.  1.
    10030    2    1    2    0    0  0.00000000000E+00  0.00000000000E+00  0.32893078614E+03  0.59990679020E+03  0.50168983931E+03 0.  0.
        5    1    3    3  502    0 -0.13709917146E+03 -0.66292603572E+02 -0.73821120806E+02  0.16930014760E+03  0.46999998093E+01 0.  1.
       -5    1    3    3    0  502  0.13709917146E+03  0.66292603572E+02  0.40275190695E+03  0.43060664260E+03  0.46999998093E+01 0. -1.
</event>
<event>
 5   0  0.7698747E-02  0.4983695E+03  0.7818609E-02  0.1014205E+00
        2   -1    0    0  501    0  0.00000000000E+00  0.00000000000E+00  0.41862993462E+03  0.41862993463E+03  0.25500000920E-02 0. -1.
       -2   -1    0    0    0  501  0.00000000000E+00  0.00000000000E+00 -0.14832440537E+03  0.14832440539E+03  0.25500000920E-02 0.  1.
    10030    2    1    2    0    0  0.00000000000E+00  0.00000000000E+00  0.27030552925E+03  0.56695434002E+03  0.49836948595E+03 0.  0.
        2    1    3    3  502    0 -0.14472072548E+03  0.15759132779E+03 -0.10150649886E+02  0.21420119206E+03  0.25500000920E-02 0.  1.
       -2    1    3    3    0  502  0.14472072548E+03 -0.15759132779E+03  0.28045617914E+03  0.35275314797E+03  0.25500000920E-02 0. -1.
</event>
<event>
 5   0  0.5038436E-02  0.5016999E+03  0.7818609E-02  0.1013336E+00
        1   -1    0    0  501    0  0.00000000000E+00  0.00000000000E+00  0.24985902372E+03  0.24985902377E+03  0.50400001928E-02 0.  1.
       -1   -1    0    0    0  501  0.00000000000E+00  0.00000000000E+00 -0.25184483962E+03  0.25184483967E+03  0.50400001928E-02 0. -1.
    10030    2    1    2    0    0  0.00000000000E+00  0.00000000000E+00 -0.19858158975E+01  0.50170386344E+03  0.50169993335E+03 0.  0.
        1    1    3    3  502    0  0.15735252550E+03 -0.11525730181E+03  0.15674748852E+03  0.25022757259E+03  0.50400001928E-02 0.  1.
       -1    1    3    3    0  502 -0.15735252550E+03  0.11525730181E+03 -0.15873330442E+03  0.25147629085E+03  0.50400001928E-02 0. -1.
</event>
<event>
 5   0  0.3210875E-02  0.5013731E+03  0.7818609E-02  0.1013421E+00
       -3   -1    0    0    0  501  0.00000000000E+00  0.00000000000E+00  0.23696436953E+03  0.23696439106E+03  0.10100000352E+00 0. -1.
        3   -1    0    0  501    0  0.00000000000E+00  0.00000000000E+00 -0.26520334445E+03  0.26520336369E+03  0.10100000352E+00 0.  1.
    10030    2    1    2    0    0  0.00000000000E+00  0.00000000000E+00 -0.28238974918E+02  0.50216775474E+03  0.50137312872E+03 0.  0.
        2    1    3    3  502    0 -0.19659754262E+03 -0.61742150612E+02  0.12886904948E+03  0.24304303909E+03  0.25500000920E-02 0. -1.
       -2    1    3    3    0  502  0.19659754262E+03  0.61742150612E+02 -0.15710802440E+03  0.25912471566E+03  0.25500000920E-02 0.  1.
</event>
<event>
 5   0  0.7881060E-02  0.4978721E+03  0.7818609E-02  0.1014336E+00
       -2   -1    0    0    0  501  0.00000000000E+00  0.00000000000E+00  0.19095321954E+03  0.19095321956E+03  0.25500000920E-02 0. -1.
        2   -1    0    0  501    0  0.00000000000E+00  0.00000000000E+00 -0.32452531620E+03  0.32452531621E+03  0.25500000920E-02 0.  1.
    10030    2    1    2    0    0  0.00000000000E+00  0.00000000000E+00 -0.13357209665E+03  0.51547853576E+03  0.49787208782E+03 0.  0.
        1    1    3    3  502    0 -0.15149104724E+03  0.12212367509E+03 -0.22753575873E+03  0.29939313776E+03  0.50400001928E-02 0.  1.
       -1    1    3    3    0  502  0.15149104724E+03 -0.12212367509E+03  0.93963662077E+02  0.21608539800E+03  0.50400001928E-02 0. -1.
</event>
<event>
 5   0  0.3210875E-02  0.5024585E+03  0.7818609E-02  0.1013139E+00
        4   -1    0    0  501    0  0.00000000000E+00  0.00000000000E+00  0.44271669797E+03  0.44271851956E+03  0.12699999809E+01 0. -1.
       -4   -1    0    0    0  501  0.00000000000E+00  0.00000000000E+00 -0.14256059646E+03  0.14256625324E+03  0.12699999809E+01 0.  1.
    10030    2    1    2    0    0  0.00000000000E+00  0.00000000000E+00  0.30015610151E+03  0.58528477280E+03  0.50245853560E+03 0.  0.
        5    1    3    3  502    0  0.11532045256E+03  0.14106599590E+03  0.35148334105E+03  0.39593061389E+03  0.46999998093E+01 0. -1.
       -5    1    3    3    0  502 -0.11532045256E+03 -0.14106599590E+03 -0.51327239541E+02  0.18935415891E+03  0.46999998093E+01 0.  1.
</event>
<event>
 5   0  0.4884478E-02  0.4994344E+03  0.7818609E-02  0.1013927E+00
        1   -1    0    0  501    0  0.00000000000E+00  0.00000000000E+00  0.12252082499E+03  0.12252082510E+03  0.50400001928E-02 0.  1.
       -1   -1    0    0    0  501  0.00000000000E+00  0.00000000000E+00 -0.50896391465E+03  0.50896391468E+03  0.50400001928E-02 0. -1.
    10030    2    1    2    0    0  0.00000000000E+00  0.00000000000E+00 -0.38644308966E+03  0.63148473978E+03  0.49943439511E+03 0.  0.
        3    1    3    3  502    0 -0.65359554379E+02 -0.19926947399E+03 -0.21810368491E+02  0.21084567102E+03  0.10100000352E+00 0.  1.
       -3    1    3    3    0  502  0.65359554379E+02  0.19926947399E+03 -0.36463272117E+03  0.42063906875E+03  0.10100000352E+00 0. -1.
</event>
<event>
 5   0  0.4803890E-02  0.5065996E+03  0.7818609E-02  0.1012071E+00
        1   -1    0    0  501    0  0.00000000000E+00  0.00000000000E+00  0.16542750779E+04  0.16542750779E+04  0.50400001928E-02 0.  1.
       -1   -1    0    0    0  501  0.00000000000E+00  0.00000000000E+00 -0.38784829351E+02  0.38784829678E+02  0.50400001928E-02 0. -1.
    10030    2    1    2    0    0  0.00000000000E+00  0.00000000000E+00  0.16154902486E+04  0.16930599076E+04  0.50659955341E+03 0.  0.
        5    1    3    3  502    0  0.19961111163E+03 -0.48195024660E+02  0.31236827988E+03  0.37384941964E+03  0.46999998093E+01 0. -1.
       -5    1    3    3    0  502 -0.19961111163E+03  0.48195024660E+02  0.13031219687E+04  0.13192104879E+04  0.46999998093E+01 0.  1.
</event>
<event>
 5   0  0.4865501E-02  0.5005355E+03  0.7818609E-02  0.1013639E+00
       -1   -1    0    0    0  501  0.00000000000E+00  0.00000000000E+00  0.29345551799E+02  0.29345552231E+02  0.50400001928E-02 0. -1.
        1   -1    0    0  501    0  0.00000000000E+00  0.00000000000E+00 -0.21343591734E+04  0.21343591734E+04  0.50400001928E-02 0.  1.
    10030    2    1    2    0    0  0.00000000000E+00  0.00000000000E+00 -0.21050136216E+04  0.21637047256E+04  0.50053550585E+03 0.  0.
        2    1    3    3  502    0  0.30973215482E+02  0.21985347240E+03 -0.15517655737E+04  0.15675685903E+04  0.25500000920E-02 0.  1.
       -2    1    3    3    0  502 -0.30973215482E+02 -0.21985347240E+03 -0.55324804789E+03  0.59613613538E+03  0.25500000920E-02 0. -1.
</event>
<event>
 5   0  0.3210875E-02  0.5000470E+03  0.7818609E-02  0.1013767E+00
        3   -1    0    0  501    0  0.00000000000E+00  0.00000000000E+00  0.10670596641E+03  0.10670601421E+03  0.10100000352E+00 0.  1.
       -3   -1    0    0    0  501  0.00000000000E+00  0.00000000000E+00 -0.58583174514E+03  0.58583175384E+03  0.10100000352E+00 0. -1.
    10030    2    1    2    0    0  0.00000000000E+00  0.00000000000E+00 -0.47912577872E+03  0.69253776805E+03  0.50004704613E+03 0.  0.
        1    1    3    3  502    0 -0.10254509542E+02 -0.21395974694E+03 -0.41815013290E+03  0.46982279845E+03  0.50400001928E-02 0. -1.
       -1    1    3    3    0  502  0.10254509542E+02  0.21395974694E+03 -0.60975645826E+02  0.22271496960E+03  0.50400001928E-02 0.  1.
</event>
<event>
 5   0  0.7776070E-02  0.5008681E+03  0.7818609E-02  0.1013553E+00
       -2   -1    0    0    0  501  0.00000000000E+00  0.00000000000E+00  0.59962221338E+02  0.59962221392E+02  0.25500000920E-02 0.  1.
        2   -1    0    0  501    0  0.00000000000E+00  0.00000000000E+00 -0.10459455936E+04  0.10459455936E+04  0.25500000920E-02 0. -1.
    10030    2    1    2    0    0  0.00000000000E+00  0.00000000000E+00 -0.98598337221E+03  0.11059078149E+04  0.50086813123E+03 0.  0.
        4    1    3    3  502    0  0.13735422623E+03  0.13810899950E+03 -0.14545132860E+03  0.24310076326E+03  0.12699999809E+01 0.  1.
       -4    1    3    3    0  502 -0.13735422623E+03 -0.13810899950E+03 -0.84053204361E+03  0.86280705169E+03  0.12699999809E+01 0. -1.
</event>
<event>
 5   0  0.5191358E-02  0.5056656E+03  0.7818609E-02  0.1012311E+00
        1   -1    0    0  501    0  0.00000000000E+00  0.00000000000E+00  0.10296358127E+04  0.10296358127E+04  0.50400001928E-02 0. -1.
       -1   -1    0    0    0  501  0.00000000000E+00  0.00000000000E+00 -0.62084494182E+02  0.62084494386E+02  0.50400001928E-02 0.  1.
    10030    2    1    2    0    0  0.00000000000E+00  0.00000000000E+00  0.96755131854E+03  0.10917203071E+04  0.50566557622E+03 0.  0.
        4    1    3    3  502    0 -0.81456687944E+02 -0.23718020248E+03  0.55317141696E+03  0.60736304622E+03  0.12699999809E+01 0. -1.
       -4    1    3    3    0  502  0.81456687944E+02  0.23718020248E+03  0.41437990157E+03  0.48435726090E+03  0.12699999809E+01 0.  1.
</event>
<event>
 5   0  0.4884478E-02  0.4977158E+03  0.7818609E-02  0.1014377E+00
       -1   -1    0    0    0  501  0.00000000000E+00  0.00000000000E+00  0.74266638402E+02  0.74266638573E+02  0.50400001928E-02 0. -1.
        1   -1    0    0  501    0  0.00000000000E+00  0.00000000000E+00 -0.83389062606E+03  0.83389062607E+03  0.50400001928E-02 0.  1.
    10030    2    1    2    0    0  0.00000000000E+00  0.00000000000E+00 -0.75962398766E+03  0.90815726465E+03  0.49771579712E+03 0.  0.
        3    1    3    3  502    0  0.90915789231E+02  0.19257409390E+03 -0.14486546533E+03  0.25755868384E+03  0.10100000352E+00 0. -1.
       -3    1    3    3    0  502 -0.90915789231E+02 -0.19257409390E+03 -0.61475852233E+03  0.65059858081E+03  0.10100000352E+00 0.  1.
</event>
<event>
 5   0  0.3210875E-02  0.4992488E+03  0.7818609E-02  0.1013975E+00
       -4   -1    0    0    0  501  0.00000000000E+00  0.00000000000E+00  0.12368139519E+04  0.12368146039E+04  0.12699999809E+01 0. -1.
        4   -1    0    0  501    0  0.00000000000E+00  0.00000000000E+00 -0.50372676855E+02  0.50388683983E+02  0.12699999809E+01 0.  1.
    10030    2    1    2    0    0  0.00000000000E+00  0.00000000000E+00  0.11864412750E+04  0.12872032879E+04  0.49924884106E+03 0.  0.
        2    1    3    3  502    0 -0.18630664258E+03  0.11620223042E+03  0.89936603883E+03  0.92578204521E+03  0.25500000920E-02 0. -1.
       -2    1    3    3    0  502  0.18630664258E+03 -0.11620223042E+03  0.28707523618E+03  0.36142124267E+03  0.25500000920E-02 0.  1.
</event>
<event>
 5   0  0.7881060E-02  0.4942212E+03  0.7818609E-02  0.1015298E+00
       -2   -1    0    0    0  501  0.00000000000E+00  0.00000000000E+00  0.25897483633E+03  0.25897483634E+03  0.25500000920E-02 0. -1.
        2   -1    0    0  501    0  0.00000000000E+00  0.00000000000E+00 -0.23578990223E+03  0.23578990224E+03  0.25500000920E-02 0.  1.
    10030    2    1    2    0    0  0.00000000000E+00  0.00000000000E+00  0.23184934095E+02  0.49476473858E+03  0.49422121097E+03 0.  0.
        1    1    3    3  502    0 -0.63455992246E+01  0.24661571030E+03 -0.27087651915E+01  0.24671220608E+03  0.50400001928E-02 0. -1.
       -1    1    3    3    0  502  0.63455992246E+01 -0.24661571030E+03  0.25893699286E+02  0.24805253250E+03  0.50400001928E-02 0.  1.
</event>
<event>
 5   0  0.8208720E-02  0.4966584E+03  0.7818609E-02  0.1014655E+00
        2   -1    0    0  501    0  0.00000000000E+00  0.00000000000E+00  0.62053130324E+03  0.62053130325E+03  0.25500000920E-02 0. -1.
       -2   -1    0    0    0  501  0.00000000000E+00  0.00000000000E+00 -0.99378387439E+02  0.99378387471E+02  0.25500000920E-02 0.  1.
    10030    2    1    2    0    0  0.00000000000E+00  0.00000000000E+00  0.52115291580E+03  0.71990969072E+03  0.49665843508E+03 0.  0.
        3    1    3    3  502    0 -0.12628835327E+03 -0.10687924056E+03 -0.78581969324E+01  0.16563116161E+03  0.10100000352E+00 0.  1.
       -3    1    3    3    0  502  0.12628835327E+03  0.10687924056E+03  0.52901111274E+03  0.55427852911E+03  0.10100000352E+00 0. -1.
</event>
<event>
 5   0  0.8208720E-02  0.5014291E+03  0.7818609E-02  0.1013407E+00
       -2   -1    0    0    0  501  0.00000000000E+00  0.00000000000E+00  0.37299033216E+02  0.37299033303E+02  0.25500000920E-02 0.  1.
        2   -1    0    0  501    0  0.00000000000E+00  0.00000000000E+00 -0.16852388201E+04  0.16852388201E+04  0.25500000920E-02 0. -1.
    10030    2    1    2    0    0  0.00000000000E+00  0.00000000000E+00 -0.16479397869E+04  0.17225378534E+04  0.50142907297E+03 0.  0.
        3    1    3    3  502    0 -0.57268071496E+02 -0.16327858042E+03 -0.14472418388E+04  0.14575487906E+04  0.10100000352E+00 0. -1.
       -3    1    3    3    0  502  0.57268071496E+02  0.16327858042E+03 -0.20069794811E+03  0.26498906282E+03  0.10100000352E+00 0.  1.
</event>
<event>
 5   0  0.5191358E-02  0.5237062E+03  0.7818609E-02  0.1007770E+00
       -1   -1    0    0    0  501  0.00000000000E+00  0.00000000000E+00  0.74988894605E+02  0.74988894775E+02  0.50400001928E-02 0.  1.
        1   -1    0    0  501    0  0.00000000000E+00  0.00000000000E+00 -0.91436250210E+03  0.91436250212E+03  0.50400001928E-02 0. -1.
    10030    2    1    2    0    0  0.00000000000E+00  0.00000000000E+00 -0.83937360750E+03  0.98935139689E+03  0.52370615193E+03 0.  0.
        4    1    3    3  502    0 -0.11251191454E+03 -0.59667020674E+02 -0.85190798002E+03  0.86137558799E+03  0.12699999809E+01 0. -1.
       -4    1    3    3    0  502  0.11251191454E+03  0.59667020674E+02  0.12534372521E+02  0.12797580890E+03  0.12699999809E+01 0.  1.
</event>
<event>
 5   0  0.7881060E-02  0.5031217E+03  0.7818609E-02  0.1012967E+00
       -2   -1    0    0    0  501  0.00000000000E+00  0.00000000000E+00  0.96618114262E+02  0.96618114296E+02  0.25500000920E-02 0.  1.
        2   -1    0    0  501    0  0.00000000000E+00  0.00000000000E+00 -0.65497918453E+03  0.65497918454E+03  0.25500000920E-02 0. -1.
    10030    2    1    2    0    0  0.00000000000E+00  0.00000000000E+00 -0.55836107027E+03  0.75159729883E+03  0.50312167000E+03 0.  0.
        1    1    3    3  502    0  0.23569698863E+03 -0.43457039007E+02 -0.39335416020E+03  0.46061814995E+03  0.50400001928E-02 0. -1.
       -1    1    3    3    0  502 -0.23569698863E+03  0.43457039007E+02 -0.16500691007E+03  0.29097914888E+03  0.50400001928E-02 0.  1.
</event>
<event>
 5   0  0.4865501E-02  0.4945656E+03  0.7818609E-02  0.1015207E+00
       -1   -1    0    0    0  501  0.00000000000E+00  0.00000000000E+00  0.85216440308E+02  0.85216440457E+02  0.50400001928E-02 0.  1.
        1   -1    0    0  501    0  0.00000000000E+00  0.00000000000E+00 -0.71757040018E+03  0.71757040020E+03  0.50400001928E-02 0. -1.
    10030    2    1    2    0    0  0.00000000000E+00  0.00000000000E+00 -0.63235395987E+03  0.80278684065E+03  0.49456564879E+03 0.  0.
        2    1    3    3  502    0 -0.15984858059E+03 -0.12954669521E+03 -0.53882919820E+03  0.57677623026E+03  0.25500000920E-02 0. -1.
       -2    1    3    3    0  502  0.15984858059E+03  0.12954669521E+03 -0.93524761670E+02  0.22601061039E+03  0.25500000920E-02 0.  1.
</event>
<event>
 5   0  0.5038436E-02  0.5001762E+03  0.7818609E-02  0.1013733E+00
        1   -1    0    0  501    0  0.00000000000E+00  0.00000000000E+00  0.39026565247E+03  0.39026565250E+03  0.50400001928E-02 0.  1.
       -1   -1    0    0    0  501  0.00000000000E+00  0.00000000000E+00 -0.16026023458E+03  0.16026023466E+03  0.50400001928E-02 0. -1.
    10030    2    1    2    0    0  0.00000000000E+00  0.00000000000E+00  0.23000541789E+03  0.55052588716E+03  0.50017622912E+03 0.  0.
        1    1    3    3  502    0 -0.13082554498E+03 -0.21291667413E+03  0.10426169172E+03  0.27077543044E+03  0.50400001928E-02 0. -1.
       -1    1    3    3    0  502  0.13082554498E+03  0.21291667413E+03  0.12574372617E+03  0.27975045673E+03  0.50400001928E-02 0.  1.
</event>
<event>
 5   0  0.4803890E-02  0.5229782E+03  0.7818609E-02  0.1007949E+00
       -1   -1    0    0    0  501  0.00000000000E+00  0.00000000000E+00  0.36102985726E+03  0.36102985730E+03  0.50400001928E-02 0. -1.
        1   -1    0    0  501    0  0.00000000000E+00  0.00000000000E+00 -0.18939302657E+03  0.18939302663E+03  0.50400001928E-02 0.  1.
    10030    2    1    2    0    0  0.00000000000E+00  0.00000000000E+00  0.17163683070E+03  0.55042288393E+03  0.52297815394E+03 0.  0.
        5    1    3    3  502    0 -0.22742248997E+02 -0.29058259391E+02  0.35823100642E+03  0.36015709946E+03  0.46999998093E+01 0. -1.
       -5    1    3    3    0  502  0.22742248997E+02  0.29058259391E+02 -0.18659417573E+03  0.19026578447E+03  0.46999998093E+01 0.  1.
</event>
<event>
 5   0  0.7698747E-02  0.4996315E+03  0.7818609E-02  0.1013875E+00
       -2   -1    0    0    0  501  0.00000000000E+00  0.00000000000E+00  0.11076412323E+03  0.11076412326E+03  0.25500000920E-02 0.  1.
        2   -1    0    0  501    0  0.00000000000E+00  0.00000000000E+00 -0.56343077913E+03  0.56343077914E+03  0.25500000920E-02 0. -1.
    10030    2    1    2    0    0  0.00000000000E+00  0.00000000000E+00 -0.45266665590E+03  0.67419490239E+03  0.49963152928E+03 0.  0.
        2    1    3    3  502    0  0.96561162195E+02  0.21714041511E+03 -0.33027882456E+03  0.40688833834E+03  0.25500000920E-02 0.  1.
       -2    1    3    3    0  502 -0.96561162195E+02 -0.21714041511E+03 -0.12238783134E+03  0.26730656405E+03  0.25500000920E-02 0. -1.
</event>
<event>
 5   0  0.7881060E-02  0.5001745E+03  0.7818609E-02  0.1013733E+00
       -2   -1    0    0    0  501  0.00000000000E+00  0.00000000000E+00  0.15587566798E+03  0.15587566800E+03  0.25500000920E-02 0.  1.
        2   -1    0    0  501    0  0.00000000000E+00  0.00000000000E+00 -0.40124050984E+03  0.40124050985E+03  0.25500000920E-02 0. -1.
    10030    2    1    2    0    0  0.00000000000E+00  0.00000000000E+00 -0.24536484186E+03  0.55711617785E+03  0.50017449955E+03 0.  0.
        1    1    3    3  502    0  0.13183485273E+03  0.11093478422E+03 -0.32458229483E+03  0.36747873528E+03  0.50400001928E-02 0. -1.
       -1    1    3    3    0  502 -0.13183485273E+03 -0.11093478422E+03  0.79217452967E+02  0.18963744257E+03  0.50400001928E-02 0.  1.
</event>
<event>
 5   0  0.7933103E-02  0.4974741E+03  0.7818609E-02  0.1014440E+00
       -2   -1    0    0    0  501  0.00000000000E+00  0.00000000000E+00  0.13935419723E+03  0.13935419725E+03  0.25500000920E-02 0. -1.
        2   -1    0    0  501    0  0.00000000000E+00  0.00000000000E+00 -0.44397747075E+03  0.44397747075E+03  0.25500000920E-02 0.  1.
    10030    2    1    2    0    0  0.00000000000E+00  0.00000000000E+00 -0.30462327352E+03  0.58333166800E+03  0.49747411604E+03 0.  0.
        5    1    3    3  502    0 -0.15552859496E+03  0.18965251931E+03 -0.10409546353E+03  0.26648673036E+03  0.46999998093E+01 0.  1.
       -5    1    3    3    0  502  0.15552859496E+03 -0.18965251931E+03 -0.20052780998E+03  0.31684493764E+03  0.46999998093E+01 0. -1.
</event>
<event>
 5   0  0.4803890E-02  0.4993474E+03  0.7818609E-02  0.1013949E+00
        1   -1    0    0  501    0  0.00000000000E+00  0.00000000000E+00  0.10736120160E+03  0.10736120172E+03  0.50400001928E-02 0.  1.
       -1   -1    0    0    0  501  0.00000000000E+00  0.00000000000E+00 -0.58062835308E+03  0.58062835310E+03  0.50400001928E-02 0. -1.
    10030    2    1    2    0    0  0.00000000000E+00  0.00000000000E+00 -0.47326715148E+03  0.68798955482E+03  0.49934740499E+03 0.  0.
        5    1    3    3  502    0  0.90582355916E+02 -0.19781285468E+03 -0.40526237638E+03  0.45999431777E+03  0.46999998093E+01 0. -1.
       -5    1    3    3    0  502 -0.90582355916E+02  0.19781285468E+03 -0.68004775100E+02  0.22799523704E+03  0.46999998093E+01 0.  1.
</event>
<event>
 5   0  0.3210875E-02  0.5000046E+03  0.7818609E-02  0.1013778E+00
        4   -1    0    0  501    0  0.00000000000E+00  0.00000000000E+00  0.36405124691E+02  0.36427270056E+02  0.12699999809E+01 0.  1.
       -4   -1    0    0    0  501  0.00000000000E+00  0.00000000000E+00 -0.17162787248E+04  0.17162791947E+04  0.12699999809E+01 0. -1.
    10030    2    1    2    0    0  0.00000000000E+00  0.00000000000E+00 -0.16798736001E+04  0.17527064648E+04  0.50000463918E+03 0.  0.
        2    1    3    3  502    0 -0.19006428828E+03 -0.78320024241E+02 -0.34120234418E+03  0.39834344423E+03  0.25500000920E-02 0.  1.
       -2    1    3    3    0  502  0.19006428828E+03  0.78320024241E+02 -0.13386712559E+04  0.13543630205E+04  0.25500000920E-02 0. -1.
</event>
<event>
 5   0  0.7776070E-02  0.5072092E+03  0.7818609E-02  0.1011914E+00
        2   -1    0    0  501    0  0.00000000000E+00  0.00000000000E+00  0.11446693275E+03  0.11446693278E+03  0.25500000920E-02 0. -1.
       -2   -1    0    0    0  501  0.00000000000E+00  0.00000000000E+00 -0.56186797880E+03  0.56186797880E+03  0.25500000920E-02 0.  1.
    10030    2    1    2    0    0  0.00000000000E+00  0.00000000000E+00 -0.44740104605E+03  0.67633491158E+03  0.50720924342E+03 0.  0.
        4    1    3    3  502    0 -0.16962465874E+03 -0.17623667996E+03 -0.31296955712E+03  0.39721964806E+03  0.12699999809E+01 0.  1.
       -4    1    3    3    0  502  0.16962465874E+03  0.17623667996E+03 -0.13443148893E+03  0.27911526352E+03  0.12699999809E+01 0. -1.
</event>
<event>
 5   0  0.7881060E-02  0.5000768E+03  0.7818609E-02  0.1013759E+00
        2   -1    0    0  501    0  0.00000000000E+00  0.00000000000E+00  0.23330581211E+03  0.23330581212E+03  0.25500000920E-02 0.  1.
       -2   -1    0    0    0  501  0.00000000000E+00  0.00000000000E+00 -0.26797106137E+03  0.26797106138E+03  0.25500000920E-02 0. -1.
    10030    2    1    2    0    0  0.00000000000E+00  0.00000000000E+00 -0.34665249262E+02  0.50127687350E+03  0.50007681850E+03 0.  0.
        1    1    3    3  502    0  0.20362850929E+03 -0.12940841779E+03  0.48460985499E+02  0.24608855222E+03  0.50400001928E-02 0.  1.
       -1    1    3    3    0  502 -0.20362850929E+03  0.12940841779E+03 -0.83126234761E+02  0.25518832129E+03  0.50400001928E-02 0. -1.
</event>
<event>
 5   0  0.5191358E-02  0.4921919E+03  0.7818609E-02  0.1015837E+00
       -1   -1    0    0    0  501  0.00000000000E+00  0.00000000000E+00  0.33168736198E+02  0.33168736581E+02  0.50400001928E-02 0.  1.
        1   -1    0    0  501    0  0.00000000000E+00  0.00000000000E+00 -0.18259129611E+04  0.18259129611E+04  0.50400001928E-02 0. -1.
    10030    2    1    2    0    0  0.00000000000E+00  0.00000000000E+00 -0.17927442249E+04  0.18590816977E+04  0.49219193691E+03 0.  0.
        4    1    3    3  502    0 -0.23736735744E+03 -0.37323342645E+02 -0.10971415894E+04  0.11231462836E+04  0.12699999809E+01 0. -1.
       -4    1    3    3    0  502  0.23736735744E+03  0.37323342645E+02 -0.69560263553E+03  0.73593541411E+03  0.12699999809E+01 0.  1.
</event>
<event>
 5   0  0.4803890E-02  0.4981205E+03  0.7818609E-02  0.1014271E+00
        1   -1    0    0  501    0  0.00000000000E+00  0.00000000000E+00  0.12705268516E+04  0.12705268517E+04  0.50400001928E-02 0. -1.
       -1   -1    0    0    0  501  0.00000000000E+00  0.00000000000E+00 -0.48823062922E+02  0.48823063182E+02  0.50400001928E-02 0.  1.
    10030    2    1    2    0    0  0.00000000000E+00  0.00000000000E+00  0.12217037887E+04  0.13193499148E+04  0.49812051795E+03 0.  0.
        5    1    3    3  502    0  0.19677001429E+03 -0.11959838039E+03  0.86193989697E+03  0.89217973923E+03  0.46999998093E+01 0. -1.
       -5    1    3    3    0  502 -0.19677001429E+03  0.11959838039E+03  0.35976389176E+03  0.42717017561E+03  0.46999998093E+01 0.  1.
</event>
<event>
 5   0  0.7933103E-02  0.4958153E+03  0.7818609E-02  0.1014877E+00
        2   -1    0    0  501    0  0.00000000000E+00  0.00000000000E+00  0.28750036720E+03  0.28750036721E+03  0.25500000920E-02 0. -1.
       -2   -1    0    0    0  501  0.00000000000E+00  0.00000000000E+00 -0.21376735562E+03  0.21376735564E+03  0.25500000920E-02 0.  1.
    10030    2    1    2    0    0  0.00000000000E+00  0.00000000000E+00  0.73733011575E+02  0.50126772285E+03  0.49581526094E+03 0.  0.
        5    1    3    3  502    0  0.12904535526E+03 -0.11701303902E+02 -0.17675425535E+03  0.21921172644E+03  0.46999998093E+01 0.  1.
       -5    1    3    3    0  502 -0.12904535526E+03  0.11701303902E+02  0.25048726692E+03  0.28205599642E+03  0.46999998093E+01 0. -1.
</event>
<event>
 5   0  0.7933103E-02  0.4988324E+03  0.7818609E-02  0.1014084E+00
       -2   -1    0    0    0  501  0.00000000000E+00  0.00000000000E+00  0.86796809252E+02  0.86796809290E+02  0.25500000920E-02 0.  1.
        2   -1    0    0  501    0  0.00000000000E+00  0.00000000000E+00 -0.71671346762E+03  0.71671346762E+03  0.25500000920E-02 0. -1.
    10030    2    1    2    0    0  0.00000000000E+00  0.00000000000E+00 -0.62991665836E+03  0.80351027691E+03  0.49883240534E+03 0.  0.
        5    1    3    3  502    0  0.22497158846E+03 -0.93684101864E+02 -0.40015371022E+03  0.46854456390E+03  0.46999998093E+01 0. -1.
       -5    1    3    3    0  502 -0.22497158846E+03  0.93684101864E+02 -0.22976294814E+03  0.33496571301E+03  0.46999998093E+01 0.  1.
</event>
<event>
 5   0  0.7933103E-02  0.5066482E+03  0.7818609E-02  0.1012058E+00
       -2   -1    0    0    0  501  0.00000000000E+00  0.00000000000E+00  0.34214503212E+02  0.34214503307E+02  0.25500000920E-02 0.  1.
        2   -1    0    0  501    0  0.00000000000E+00  0.00000000000E+00 -0.18756110040E+04  0.18756110040E+04  0.25500000920E-02 0. -1.
    10030    2    1    2    0    0  0.00000000000E+00  0.00000000000E+00 -0.18413965008E+04  0.19098255073E+04  0.50664819673E+03 0.  0.
        5    1    3    3  502    0  0.18422115527E+03 -0.17033574887E+03 -0.10512409078E+04  0.10807780704E+04  0.46999998093E+01 0.  1.
       -5    1    3    3    0  502 -0.18422115527E+03  0.17033574887E+03 -0.79015559305E+03  0.82904743689E+03  0.46999998093E+01 0. -1.
</event>
<event>
 5   0  0.7776070E-02  0.5022869E+03  0.7818609E-02  0.1013184E+00
        2   -1    0    0  501    0  0.00000000000E+00  0.00000000000E+00  0.26975237572E+03  0.26975237573E+03  0.25500000920E-02 0. -1.
       -2   -1    0    0    0  501  0.00000000000E+00  0.00000000000E+00 -0.23381827770E+03  0.23381827771E+03  0.25500000920E-02 0.  1.
    10030    2    1    2    0    0  0.00000000000E+00  0.00000000000E+00  0.35934098024E+02  0.50357065345E+03  0.50228691364E+03 0.  0.
        4    1    3    3  502    0 -0.53982733426E+02  0.24036850287E+03  0.66879755070E+02  0.25527566907E+03  0.12699999809E+01 0. -1.
       -4    1    3    3    0  502  0.53982733426E+02 -0.24036850287E+03 -0.30945657046E+02  0.24829498438E+03  0.12699999809E+01 0.  1.
</event>
<event>
 5   0  0.7776070E-02  0.4962173E+03  0.7818609E-02  0.1014771E+00
       -2   -1    0    0    0  501  0.00000000000E+00  0.00000000000E+00  0.60566142874E+02  0.60566142928E+02  0.25500000920E-02 0. -1.
        2   -1    0    0  501    0  0.00000000000E+00  0.00000000000E+00 -0.10163747615E+04  0.10163747615E+04  0.25500000920E-02 0.  1.
    10030    2    1    2    0    0  0.00000000000E+00  0.00000000000E+00 -0.95580861867E+03  0.10769409045E+04  0.49621728729E+03 0.  0.
        4    1    3    3  502    0 -0.15318027005E+03 -0.62455429013E+02 -0.87921293125E+03  0.89464063575E+03  0.12699999809E+01 0.  1.
       -4    1    3    3    0  502  0.15318027005E+03  0.62455429013E+02 -0.76595687413E+02  0.18230026872E+03  0.12699999809E+01 0. -1.
</event>
<event>
 5   0  0.4803890E-02  0.5080691E+03  0.7818609E-02  0.1011694E+00
        1   -1    0    0  501    0  0.00000000000E+00  0.00000000000E+00  0.10716288065E+04  0.10716288065E+04  0.50400001928E-02 0.  1.
       -1   -1    0    0    0  501  0.00000000000E+00  0.00000000000E+00 -0.60220070815E+02  0.60220071026E+02  0.50400001928E-02 0. -1.
    10030    2    1    2    0    0  0.00000000000E+00  0.00000000000E+00  0.10114087356E+04  0.11318488775E+04  0.50806913994E+03 0.  0.
        5    1    3    3  502    0  0.10952494274E+03  0.10985680051E+03  0.57671278257E+02  0.16556659094E+03  0.46999998093E+01 0. -1.
       -5    1    3    3    0  502 -0.10952494274E+03 -0.10985680051E+03  0.95373745738E+03  0.96628228656E+03  0.46999998093E+01 0.  1.
</event>
<event>
 5   0  0.8208720E-02  0.5001690E+03  0.7818609E-02  0.1013735E+00
       -2   -1    0    0    0  501  0.00000000000E+00  0.00000000000E+00  0.62969921358E+02  0.62969921409E+02  0.25500000920E-02 0. -1.
        2   -1    0    0  501    0  0.00000000000E+00  0.00000000000E+00 -0.99320826774E+03  0.99320826775E+03  0.25500000920E-02 0.  1.
    10030    2    1    2    0    0  0.00000000000E+00  0.00000000000E+00 -0.93023834639E+03  0.10561781892E+04  0.50016895762E+03 0.  0.
        3    1    3    3  502    0 -0.94786082720E+02 -0.19654527865E+03 -0.72311827514E+03  0.75532410135E+03  0.10100000352E+00 0.  1.
       -3    1    3    3    0  502  0.94786082720E+02  0.19654527865E+03 -0.20712007125E+03  0.30085408781E+03  0.10100000352E+00 0. -1.
</event>
<event>
 5   0  0.7698747E-02  0.5002107E+03  0.7818609E-02  0.1013724E+00
       -2   -1    0    0    0  501  0.00000000000E+00  0.00000000000E+00  0.29829496072E+02  0.29829496181E+02  0.25500000920E-02 0. -1.
        2   -1    0    0  501    0  0.00000000000E+00  0.00000000000E+00 -0.20970078188E+04  0.20970078188E+04  0.25500000920E-02 0.  1.
    10030    2    1    2    0    0  0.00000000000E+00  0.00000000000E+00 -0.20671783227E+04  0.21268373150E+04  0.50021070205E+03 0.  0.
        2    1    3    3  502    0 -0.93019840413E+01  0.55720612417E+02 -0.20695259613E+04  0.20702968430E+04  0.25500000920E-02 0.  1.
       -2    1    3    3    0  502  0.93019840413E+01 -0.55720612417E+02  0.23476386194E+01  0.56540471954E+02  0.25500000920E-02 0. -1.
</event>
<event>
 5   0  0.5038436E-02  0.4997601E+03  0.7818609E-02  0.1013842E+00
       -1   -1    0    0    0  501  0.00000000000E+00  0.00000000000E+00  0.12964893741E+03  0.12964893751E+03  0.50400001928E-02 0. -1.
        1   -1    0    0  501    0  0.00000000000E+00  0.00000000000E+00 -0.48160857623E+03  0.48160857626E+03  0.50400001928E-02 0.  1.
    10030    2    1    2    0    0  0.00000000000E+00  0.00000000000E+00 -0.35195963882E+03  0.61125751376E+03  0.49976010322E+03 0.  0.
        1    1    3    3  502    0  0.12920317894E+03  0.12725521630E+03  0.34282343291E+02  0.18456064209E+03  0.50400001928E-02 0. -1.
       -1    1    3    3    0  502 -0.12920317894E+03 -0.12725521630E+03 -0.38624198211E+03  0.42669687167E+03  0.50400001928E-02 0.  1.
</event>
<event>
 5   0  0.7933103E-02  0.5037825E+03  0.7818609E-02  0.1012796E+00
        2   -1    0    0  501    0  0.00000000000E+00  0.00000000000E+00  0.84017804671E+03  0.84017804672E+03  0.25500000920E-02 0. -1.
       -2   -1    0    0    0  501  0.00000000000E+00  0.00000000000E+00 -0.75518743176E+02  0.75518743219E+02  0.25500000920E-02 0.  1.
    10030    2    1    2    0    0  0.00000000000E+00  0.00000000000E+00  0.76465930354E+03  0.91569678994E+03  0.50378245366E+03 0.  0.
        5    1    3    3  502    0 -0.40174533818E+02  0.13140696016E+03  0.76595711086E+03  0.77819931124E+03  0.46999998093E+01 0. -1.
       -5    1    3    3    0  502  0.40174533818E+02 -0.13140696016E+03 -0.12978073222E+01  0.13749747869E+03  0.46999998093E+01 0.  1.
</event>
<event>
 5   0  0.7698747E-02  0.5005169E+03  0.7818609E-02  0.1013644E+00
        2   -1    0    0  501    0  0.00000000000E+00  0.00000000000E+00  0.82910616103E+03  0.82910616104E+03  0.25500000920E-02 0. -1.
       -2   -1    0    0    0  501  0.00000000000E+00  0.00000000000E+00 -0.75538314769E+02  0.75538314812E+02  0.25500000920E-02 0.  1.
    10030    2    1    2    0    0  0.00000000000E+00  0.00000000000E+00  0.75356784626E+03  0.90464447585E+03  0.50051686161E+03 0.  0.
        2    1    3    3  502    0  0.10104329265E+03  0.18934989187E+03  0.14415159594E+03  0.25853976707E+03  0.25500000920E-02 0.  1.
       -2    1    3    3    0  502 -0.10104329265E+03 -0.18934989187E+03  0.60941625032E+03  0.64610470877E+03  0.25500000920E-02 0. -1.
</event>
<event>
 5   0  0.5038436E-02  0.4954692E+03  0.7818609E-02  0.1014968E+00
        1   -1    0    0  501    0  0.00000000000E+00  0.00000000000E+00  0.87282099377E+03  0.87282099379E+03  0.50400001928E-02 0.  1.
       -1   -1    0    0    0  501  0.00000000000E+00  0.00000000000E+00 -0.70315028450E+02  0.70315028631E+02  0.50400001928E-02 0. -1.
    10030    2    1    2    0    0  0.00000000000E+00  0.00000000000E+00  0.80250596532E+03  0.94313602242E+03  0.49546920429E+03 0.  0.
        1    1    3    3  502    0 -0.27415365802E+02  0.15507216807E+03  0.37220068783E+02  0.16181567643E+03  0.50400001928E-02 0. -1.
       -1    1    3    3    0  502  0.27415365802E+02 -0.15507216807E+03  0.76528589654E+03  0.78132034599E+03  0.50400001928E-02 0.  1.
</event>
<event>
 5   0  0.7933103E-02  0.4918579E+03  0.7818609E-02  0.1015926E+00
       -2   -1    0    0    0  501  0.00000000000E+00  0.00000000000E+00  0.29968408937E+03  0.29968408938E+03  0.25500000920E-02 0.  1.
        2   -1    0    0  501    0  0.00000000000E+00  0.00000000000E+00 -0.20181600520E+03  0.20181600522E+03  0.25500000920E-02 0. -1.
    10030    2    1    2    0    0  0.00000000000E+00  0.00000000000E+00  0.97868084171E+02  0.50150009460E+03  0.49185788901E+03 0.  0.
        5    1    3    3  502    0  0.49343625904E+02 -0.22515490952E+03  0.13622443541E+03  0.26778482686E+03  0.46999998093E+01 0.  1.
       -5    1    3    3    0  502 -0.49343625904E+02  0.22515490952E+03 -0.38356351235E+02  0.23371526774E+03  0.46999998093E+01 0. -1.
</event>
<event>
 5   0  0.7933103E-02  0.5002635E+03  0.7818609E-02  0.1013710E+00
        2   -1    0    0  501    0  0.00000000000E+00  0.00000000000E+00  0.45716019568E+03  0.45716019568E+03  0.25500000920E-02 0. -1.
       -2   -1    0    0    0  501  0.00000000000E+00  0.00000000000E+00 -0.13685767649E+03  0.13685767651E+03  0.25500000920E-02 0.  1.
    10030    2    1    2    0    0  0.00000000000E+00  0.00000000000E+00  0.32030251919E+03  0.59401787220E+03  0.50026345928E+03 0.  0.
        5    1    3    3  502    0  0.55113461597E+02 -0.23434418745E+03  0.24058986019E+03  0.34038252403E+03  0.46999998093E+01 0. -1.
       -5    1    3    3    0  502 -0.55113461597E+02  0.23434418745E+03  0.79712658996E+02  0.25363534817E+03  0.46999998093E+01 0.  1.
</event>
<event>
 5   0  0.8208720E-02  0.4962182E+03  0.7818609E-02  0.1014771E+00
        2   -1    0    0  501    0  0.00000000000E+00  0.00000000000E+00  0.30141485364E+03  0.30141485365E+03  0.25500000920E-02 0. -1.
       -2   -1    0    0    0  501  0.00000000000E+00  0.00000000000E+00 -0.20423054557E+03  0.20423054559E+03  0.25500000920E-02 0.  1.
    10030    2    1    2    0    0  0.00000000000E+00  0.00000000000E+00  0.97184308072E+02  0.50564539924E+03  0.49621817786E+03 0.  0.
        3    1    3    3  502    0  0.17237969629E+03 -0.14577414751E+02  0.22982162200E+03  0.28765473898E+03  0.10100000352E+00 0. -1.
       -3    1    3    3    0  502 -0.17237969629E+03  0.14577414751E+02 -0.13263731393E+03  0.21799066026E+03  0.10100000352E+00 0.  1.
</event>
<event>
 5   0  0.3210875E-02  0.4972332E+03  0.7818609E-02  0.1014504E+00
       -4   -1    0    0    0  501  0.00000000000E+00  0.00000000000E+00  0.84879288022E+02  0.84888788630E+02  0.12699999809E+01 0. -1.
        4   -1    0    0  501    0  0.00000000000E+00  0.00000000000E+00 -0.72816222484E+03  0.72816333235E+03  0.12699999809E+01 0.  1.
    10030    2    1    2    0    0  0.00000000000E+00  0.00000000000E+00 -0.64328293682E+03  0.81305212098E+03  0.49723315923E+03 0.  0.
        1    1    3    3  502    0  0.22082125141E+03 -0.10970219552E+03 -0.26958279780E+03  0.36533749010E+03  0.50400001928E-02 0.  1.
       -1    1    3    3    0  502 -0.22082125141E+03  0.10970219552E+03 -0.37370013902E+03  0.44771463088E+03  0.50400001928E-02 0. -1.
</event>
<event>
 5   0  0.4803890E-02  0.5379784E+03  0.7818609E-02  0.1004315E+00
       -1   -1    0    0    0  501  0.00000000000E+00  0.00000000000E+00  0.66403964292E+02  0.66403964483E+02  0.50400001928E-02 0. -1.
        1   -1    0    0  501    0  0.00000000000E+00  0.00000000000E+00 -0.10896217324E+04  0.10896217324E+04  0.50400001928E-02 0.  1.
    10030    2    1    2    0    0  0.00000000000E+00  0.00000000000E+00 -0.10232177681E+04  0.11560256969E+04  0.53797844838E+03 0.  0.
        5    1    3    3  502    0  0.24551312363E+02  0.17633135375E+03 -0.94478712441E+03  0.96142618734E+03  0.46999998093E+01 0.  1.
       -5    1    3    3    0  502 -0.24551312363E+02 -0.17633135375E+03 -0.78430643723E+02  0.19459950958E+03  0.46999998093E+01 0. -1.
</event>
<event>
 5   0  0.7698747E-02  0.5004320E+03  0.7818609E-02  0.1013666E+00
        2   -1    0    0  501    0  0.00000000000E+00  0.00000000000E+00  0.63492717092E+03  0.63492717093E+03  0.25500000920E-02 0.  1.
       -2   -1    0    0    0  501  0.00000000000E+00  0.00000000000E+00 -0.98606657298E+02  0.98606657331E+02  0.25500000920E-02 0. -1.
    10030    2    1    2    0    0  0.00000000000E+00  0.00000000000E+00  0.53632051362E+03  0.73353382826E+03  0.50043199724E+03 0.  0.
        2    1    3    3  502    0  0.19209323031E+03  0.11153566322E+03  0.99319090872E+02  0.24331932746E+03  0.25500000920E-02 0. -1.
       -2    1    3    3    0  502 -0.19209323031E+03 -0.11153566322E+03  0.43700142275E+03  0.49021450080E+03  0.25500000920E-02 0.  1.
</event>
<event>
 5   0  0.7881060E-02  0.5011529E+03  0.7818609E-02  0.1013478E+00
       -2   -1    0    0    0  501  0.00000000000E+00  0.00000000000E+00  0.85074710799E+02  0.85074710838E+02  0.25500000920E-02 0. -1.
        2   -1    0    0  501    0  0.00000000000E+00  0.00000000000E+00 -0.73804006591E+03  0.73804006591E+03  0.25500000920E-02 0.  1.
    10030    2    1    2    0    0  0.00000000000E+00  0.00000000000E+00 -0.65296535511E+03  0.82311477675E+03  0.50115285167E+03 0.  0.
        1    1    3    3  502    0 -0.19292106561E+03 -0.20264894217E+02 -0.65963421793E+02  0.20489113337E+03  0.50400001928E-02 0. -1.
       -1    1    3    3    0  502  0.19292106561E+03  0.20264894217E+02 -0.58700193332E+03  0.61822364338E+03  0.50400001928E-02 0.  1.
</event>
<event>
 5   0  0.4865501E-02  0.4990034E+03  0.7818609E-02  0.1014039E+00
       -1   -1    0    0    0  501  0.00000000000E+00  0.00000000000E+00  0.48775235826E+02  0.48775236086E+02  0.50400001928E-02 0.  1.
        1   -1    0    0  501    0  0.00000000000E+00  0.00000000000E+00 -0.12762850876E+04  0.12762850876E+04  0.50400001928E-02 0. -1.
    10030    2    1    2    0    0  0.00000000000E+00  0.00000000000E+00 -0.12275098518E+04  0.13250603237E+04  0.49900343208E+03 0.  0.
        2    1    3    3  502    0  0.15158892658E+03  0.14287871276E+03 -0.24910589541E+03  0.32472646390E+03  0.25500000920E-02 0.  1.
       -2    1    3    3    0  502 -0.15158892658E+03 -0.14287871276E+03 -0.97840395636E+03  0.10003338598E+04  0.25500000920E-02 0. -1.
</event>
<event>
 5   0  0.4884478E-02  0.4953896E+03  0.7818609E-02  0.1014989E+00
       -1   -1    0    0    0  501  0.00000000000E+00  0.00000000000E+00  0.90947479559E+02  0.90947479698E+02  0.50400001928E-02 0.  1.
        1   -1    0    0  501    0  0.00000000000E+00  0.00000000000E+00 -0.67459490289E+03  0.67459490291E+03  0.50400001928E-02 0. -1.
    10030    2    1    2    0    0  0.00000000000E+00  0.00000000000E+00 -0.58364742333E+03  0.76554238261E+03  0.49538956873E+03 0.  0.
        3    1    3    3  502    0  0.42251634264E+02 -0.82909173959E+02 -0.64655636709E+03  0.65321839973E+03  0.10100000352E+00 0. -1.
       -3    1    3    3    0  502 -0.42251634264E+02  0.82909173959E+02  0.62908943753E+02  0.11232398288E+03  0.10100000352E+00 0.  1.
</event>
<event>
 5   0  0.7698747E-02  0.5019591E+03  0.7818609E-02  0.1013269E+00
       -2   -1    0    0    0  501  0.00000000000E+00  0.00000000000E+00  0.12860542896E+03  0.12860542898E+03  0.25500000920E-02 0.  1.
        2   -1    0    0  501    0  0.00000000000E+00  0.00000000000E+00 -0.48979837861E+03  0.48979837862E+03  0.25500000920E-02 0. -1.
    10030    2    1    2    0    0  0.00000000000E+00  0.00000000000E+00 -0.36119294965E+03  0.61840380760E+03  0.50195908437E+03 0.  0.
        2    1    3    3  502    0  0.24571387105E+03 -0.46092758789E+02 -0.20789205181E+03  0.32514451257E+03  0.25500000920E-02 0.  1.
       -2    1    3    3    0  502 -0.24571387105E+03  0.46092758789E+02 -0.15330089784E+03  0.29325929503E+03  0.25500000920E-02 0. -1.
</event>
<event>
 5   0  0.5038436E-02  0.5062154E+03  0.7818609E-02  0.1012169E+00
        1   -1    0    0  501    0  0.00000000000E+00  0.00000000000E+00  0.24135819793E+03  0.24135819798E+03  0.50400001928E-02 0.  1.
       -1   -1    0    0    0  501  0.00000000000E+00  0.00000000000E+00 -0.26542912733E+03  0.26542912738E+03  0.50400001928E-02 0. -1.
    10030    2    1    2    0    0  0.00000000000E+00  0.00000000000E+00 -0.24070929408E+02  0.50678732536E+03  0.50621535289E+03 0.  0.
        1    1    3    3  502    0 -0.50025264864E+02  0.16267090712E+03  0.17552387663E+03  0.24448513747E+03  0.50400001928E-02 0.  1.
       -1    1    3    3    0  502  0.50025264864E+02 -0.16267090712E+03 -0.19959480604E+03  0.26230218789E+03  0.50400001928E-02 0. -1.
</event>
<event>
 5   0  0.5038436E-02  0.5037967E+03  0.7818609E-02  0.1012793E+00
        1   -1    0    0  501    0  0.00000000000E+00  0.00000000000E+00  0.10419186486E+04  0.10419186486E+04  0.50400001928E-02 0. -1.
       -1   -1    0    0    0  501  0.00000000000E+00  0.00000000000E+00 -0.60899946887E+02  0.60899947096E+02  0.50400001928E-02 0.  1.
    10030    2    1    2    0    0  0.00000000000E+00  0.00000000000E+00  0.98101870175E+03  0.11028185957E+04  0.50379674665E+03 0.  0.
        1    1    3    3  502    0 -0.22052964262E+03  0.91062770416E+02  0.31365863310E+03  0.39409071237E+03  0.50400001928E-02 0.  1.
       -1    1    3    3    0  502  0.22052964262E+03 -0.91062770416E+02  0.66736006864E+03  0.70872788338E+03  0.50400001928E-02 0. -1.
</event>
<event>
 5   0  0.4865501E-02  0.5151800E+03  0.7818609E-02  0.1009891E+00
        1   -1    0    0  501    0  0.00000000000E+00  0.00000000000E+00  0.56641752964E+03  0.56641752966E+03  0.50400001928E-02 0. -1.
       -1   -1    0    0    0  501  0.00000000000E+00  0.00000000000E+00 -0.11714433586E+03  0.11714433597E+03  0.50400001928E-02 0.  1.
    10030    2    1    2    0    0  0.00000000000E+00  0.00000000000E+00  0.44927319378E+03  0.68356186563E+03  0.51517998942E+03 0.  0.
        2    1    3    3  502    0 -0.10959399620E+02  0.75911749535E+02  0.55091511210E+03  0.55622851680E+03  0.25500000920E-02 0. -1.
       -2    1    3    3    0  502  0.10959399620E+02 -0.75911749535E+02 -0.10164191832E+03  0.12733334883E+03  0.25500000920E-02 0.  1.
</event>
<event>
 5   0  0.7776070E-02  0.4982263E+03  0.7818609E-02  0.1014243E+00
        2   -1    0    0  501    0  0.00000000000E+00  0.00000000000E+00  0.82255179133E+02  0.82255179172E+02  0.25500000920E-02 0. -1.
       -2   -1    0    0    0  501  0.00000000000E+00  0.00000000000E+00 -0.75444939027E+03  0.75444939027E+03  0.25500000920E-02 0.  1.
    10030    2    1    2    0    0  0.00000000000E+00  0.00000000000E+00 -0.67219421114E+03  0.83670456945E+03  0.49822633315E+03 0.  0.
        4    1    3    3  502    0 -0.11809894512E+02 -0.20027879429E+03 -0.88114967928E+02  0.21912765577E+03  0.12699999809E+01 0. -1.
       -4    1    3    3    0  502  0.11809894512E+02  0.20027879429E+03 -0.58407924321E+03  0.61757691367E+03  0.12699999809E+01 0.  1.
</event>
<event>
 5   0  0.7933103E-02  0.5015582E+03  0.7818609E-02  0.1013373E+00
       -2   -1    0    0    0  501  0.00000000000E+00  0.00000000000E+00  0.91946599192E+02  0.91946599227E+02  0.25500000920E-02 0. -1.
        2   -1    0    0  501    0  0.00000000000E+00  0.00000000000E+00 -0.68398567351E+03  0.68398567351E+03  0.25500000920E-02 0.  1.
    10030    2    1    2    0    0  0.00000000000E+00  0.00000000000E+00 -0.59203907431E+03  0.77593227274E+03  0.50155819838E+03 0.  0.
        5    1    3    3  502    0  0.22260093405E+03  0.10202979836E+03 -0.21261092803E+03  0.32432507197E+03  0.46999998093E+01 0. -1.
       -5    1    3    3    0  502 -0.22260093405E+03 -0.10202979836E+03 -0.37942814629E+03  0.45160720077E+03  0.46999998093E+01 0.  1.
</event>
<event>
 5   0  0.7776070E-02  0.5159760E+03  0.7818609E-02  0.1009691E+00
        2   -1    0    0  501    0  0.00000000000E+00  0.00000000000E+00  0.11395440574E+04  0.11395440574E+04  0.25500000920E-02 0.  1.
       -2   -1    0    0    0  501  0.00000000000E+00  0.00000000000E+00 -0.58407390977E+02  0.58407391032E+02  0.25500000920E-02 0. -1.
    10030    2    1    2    0    0  0.00000000000E+00  0.00000000000E+00  0.10811366665E+04  0.11979514485E+04  0.51597595034E+03 0.  0.
        4    1    3    3  502    0 -0.10136672376E+03  0.12158370454E+03  0.67607377575E+02  0.17213419271E+03  0.12699999809E+01 0. -1.
       -4    1    3    3    0  502  0.10136672376E+03 -0.12158370454E+03  0.10135292889E+04  0.10258172558E+04  0.12699999809E+01 0.  1.
</event>
<event>
 5   0  0.7881060E-02  0.4999077E+03  0.7818609E-02  0.1013803E+00
        2   -1    0    0  501    0  0.00000000000E+00  0.00000000000E+00  0.62463921690E+03  0.62463921690E+03  0.25500000920E-02 0.  1.
       -2   -1    0    0    0  501  0.00000000000E+00  0.00000000000E+00 -0.10002082139E+03  0.10002082142E+03  0.25500000920E-02 0. -1.
    10030    2    1    2    0    0  0.00000000000E+00  0.00000000000E+00  0.52461839550E+03  0.72466003832E+03  0.49990770172E+03 0.  0.
        1    1    3    3  502    0 -0.14243889912E+03  0.20240206460E+03  0.21164633074E+03  0.32565258340E+03  0.50400001928E-02 0. -1.
       -1    1    3    3    0  502  0.14243889912E+03 -0.20240206460E+03  0.31297206476E+03  0.39900745492E+03  0.50400001928E-02 0.  1.
</event>
<event>
 5   0  0.7933103E-02  0.4960608E+03  0.7818609E-02  0.1014812E+00
        2   -1    0    0  501    0  0.00000000000E+00  0.00000000000E+00  0.54929653565E+03  0.54929653566E+03  0.25500000920E-02 0. -1.
       -2   -1    0    0    0  501  0.00000000000E+00  0.00000000000E+00 -0.11199612755E+03  0.11199612758E+03  0.25500000920E-02 0.  1.
    10030    2    1    2    0    0  0.00000000000E+00  0.00000000000E+00  0.43730040810E+03  0.66129266324E+03  0.49606082241E+03 0.  0.
        5    1    3    3  502    0 -0.16046146969E+03 -0.10798028094E+03  0.11744958322E+02  0.19382378175E+03  0.46999998093E+01 0.  1.
       -5    1    3    3    0  502  0.16046146969E+03  0.10798028094E+03  0.42555544978E+03  0.46746888149E+03  0.46999998093E+01 0. -1.
</event>
<event>
 5   0  0.8208720E-02  0.4994832E+03  0.7818609E-02  0.1013914E+00
       -2   -1    0    0    0  501  0.00000000000E+00  0.00000000000E+00  0.31972100456E+02  0.31972100557E+02  0.25500000920E-02 0.  1.
        2   -1    0    0  501    0  0.00000000000E+00  0.00000000000E+00 -0.19507901200E+04  0.19507901200E+04  0.25500000920E-02 0. -1.
    10030    2    1    2    0    0  0.00000000000E+00  0.00000000000E+00 -0.19188180195E+04  0.19827622205E+04  0.49948316402E+03 0.  0.
        3    1    3    3  502    0 -0.90518885205E+02  0.22411760605E+03 -0.70996985630E+03  0.74998638452E+03  0.10100000352E+00 0.  1.
       -3    1    3    3    0  502  0.90518885205E+02 -0.22411760605E+03 -0.12088481632E+04  0.12327758360E+04  0.10100000352E+00 0. -1.
</event>
<event>
 5   0  0.7776070E-02  0.4923334E+03  0.7818609E-02  0.1015800E+00
        2   -1    0    0  501    0  0.00000000000E+00  0.00000000000E+00  0.71002695540E+03  0.71002695541E+03  0.25500000920E-02 0. -1.
       -2   -1    0    0    0  501  0.00000000000E+00  0.00000000000E+00 -0.85346108394E+02  0.85346108432E+02  0.25500000920E-02 0.  1.
    10030    2    1    2    0    0  0.00000000000E+00  0.00000000000E+00  0.62468084701E+03  0.79537306384E+03  0.49233337289E+03 0.  0.
        4    1    3    3  502    0  0.99461039838E+02 -0.37067627243E+02 -0.46471442405E+02  0.11587801903E+03  0.12699999809E+01 0.  1.
       -4    1    3    3    0  502 -0.99461039838E+02  0.37067627243E+02  0.67115228941E+03  0.67949504481E+03  0.12699999809E+01 0. -1.
</event>
<event>
 5   0  0.4884478E-02  0.5021766E+03  0.7818609E-02  0.1013212E+00
       -1   -1    0    0    0  501  0.00000000000E+00  0.00000000000E+00  0.22402968764E+03  0.22402968770E+03  0.50400001928E-02 0.  1.
        1   -1    0    0  501    0  0.00000000000E+00  0.00000000000E+00 -0.28141510228E+03  0.28141510232E+03  0.50400001928E-02 0. -1.
    10030    2    1    2    0    0  0.00000000000E+00  0.00000000000E+00 -0.57385414639E+02  0.50544479002E+03  0.50217661230E+03 0.  0.
        3    1    3    3  502    0 -0.19295963621E+03 -0.11517083202E+03 -0.14143771592E+03  0.26552284166E+03  0.10100000352E+00 0. -1.
       -3    1    3    3    0  502  0.19295963621E+03  0.11517083202E+03  0.84052301284E+02  0.23992194836E+03  0.10100000352E+00 0.  1.
</event>
<event>
 5   0  0.4865501E-02  0.4984895E+03  0.7818609E-02  0.1014174E+00
       -1   -1    0    0    0  501  0.00000000000E+00  0.00000000000E+00  0.11911208014E+03  0.11911208025E+03  0.50400001928E-02 0.  1.
        1   -1    0    0  501    0  0.00000000000E+00  0.00000000000E+00 -0.52155040393E+03  0.52155040395E+03  0.50400001928E-02 0. -1.
    10030    2    1    2    0    0  0.00000000000E+00  0.00000000000E+00 -0.40243832379E+03  0.64066248420E+03  0.49848953270E+03 0.  0.
        2    1    3    3  502    0 -0.21275314983E+03  0.21729657657E+02 -0.36698180775E+02  0.21698579968E+03  0.25500000920E-02 0.  1.
       -2    1    3    3    0  502  0.21275314983E+03 -0.21729657657E+02 -0.36574014301E+03  0.42367668452E+03  0.25500000920E-02 0. -1.
</event>
<event>
 5   0  0.4884478E-02  0.5004386E+03  0.7818609E-02  0.1013664E+00
        1   -1    0    0  501    0  0.00000000000E+00  0.00000000000E+00  0.82251987416E+03  0.82251987417E+03  0.50400001928E-02 0.  1.
       -1   -1    0    0    0  501  0.00000000000E+00  0.00000000000E+00 -0.76119375925E+02  0.76119376092E+02  0.50400001928E-02 0. -1.
    10030    2    1    2    0    0  0.00000000000E+00  0.00000000000E+00  0.74640049823E+03  0.89863925027E+03  0.50043860598E+03 0.  0.
        3    1    3    3  502    0 -0.22424825874E+03  0.38117327074E+02  0.56041450075E+03  0.60481785276E+03  0.10100000352E+00 0.  1.
       -3    1    3    3    0  502  0.22424825874E+03 -0.38117327074E+02  0.18598599748E+03  0.29382139750E+03  0.10100000352E+00 0. -1.
</event>
<event>
 5   0  0.7776070E-02  0.4929651E+03  0.7818609E-02  0.1015632E+00
        2   -1    0    0  501    0  0.00000000000E+00  0.00000000000E+00  0.98380308367E+02  0.98380308400E+02  0.25500000920E-02 0.  1.
       -2   -1    0    0    0  501  0.00000000000E+00  0.00000000000E+00 -0.61753873652E+03  0.61753873652E+03  0.25500000920E-02 0. -1.
    10030    2    1    2    0    0  0.00000000000E+00  0.00000000000E+00 -0.51915842815E+03  0.71591904492E+03  0.49296511577E+03 0.  0.
        4    1    3    3  502    0 -0.16898849533E+03 -0.86695465250E+02 -0.31434741603E+02  0.19251745669E+03  0.12699999809E+01 0.  1.
       -4    1    3    3    0  502  0.16898849533E+03  0.86695465250E+02 -0.48772368655E+03  0.52340158824E+03  0.12699999809E+01 0. -1.
</event>
<event>
 5   0  0.5038436E-02  0.4987880E+03  0.7818609E-02  0.1014096E+00
       -1   -1    0    0    0  501  0.00000000000E+00  0.00000000000E+00  0.66429958255E+02  0.66429958447E+02  0.50400001928E-02 0. -1.
        1   -1    0    0  501    0  0.00000000000E+00  0.00000000000E+00 -0.93628502119E+03  0.93628502121E+03  0.50400001928E-02 0.  1.
    10030    2    1    2    0    0  0.00000000000E+00  0.00000000000E+00 -0.86985506294E+03  0.10027149797E+04  0.49878803103E+03 0.  0.
        1    1    3    3  502    0  0.43835502848E+02 -0.15734616760E+03 -0.81379365531E+03  0.83002378353E+03  0.50400001928E-02 0.  1.
       -1    1    3    3    0  502 -0.43835502848E+02  0.15734616760E+03 -0.56061407623E+02  0.17269119612E+03  0.50400001928E-02 0. -1.
</event>
<event>
 5   0  0.4803890E-02  0.4977492E+03  0.7818609E-02  0.1014368E+00
       -1   -1    0    0    0  501  0.00000000000E+00  0.00000000000E+00  0.21946123196E+03  0.21946123201E+03  0.50400001928E-02 0.  1.
        1   -1    0    0  501    0  0.00000000000E+00  0.00000000000E+00 -0.28223005477E+03  0.28223005482E+03  0.50400001928E-02 0. -1.
    10030    2    1    2    0    0  0.00000000000E+00  0.00000000000E+00 -0.62768822818E+02  0.50169128683E+03  0.49774915587E+03 0.  0.
        5    1    3    3  502    0 -0.13671077331E+03 -0.30830205115E+02  0.17585561105E+03  0.22491692472E+03  0.46999998093E+01 0.  1.
       -5    1    3    3    0  502  0.13671077331E+03  0.30830205115E+02 -0.23862443387E+03  0.27677436212E+03  0.46999998093E+01 0. -1.
</event>
<event>
 5   0  0.5038436E-02  0.4994826E+03  0.7818609E-02  0.1013914E+00
        1   -1    0    0  501    0  0.00000000000E+00  0.00000000000E+00  0.70099631115E+03  0.70099631117E+03  0.50400001928E-02 0.  1.
       -1   -1    0    0    0  501  0.00000000000E+00  0.00000000000E+00 -0.88974373899E+02  0.88974374041E+02  0.50400001928E-02 0. -1.
    10030    2    1    2    0    0  0.00000000000E+00  0.00000000000E+00  0.61202193725E+03  0.78997068521E+03  0.49948256407E+03 0.  0.
        1    1    3    3  502    0 -0.15492748806E+03 -0.88648462731E+02  0.29756619728E+02  0.18096003135E+03  0.50400001928E-02 0. -1.
       -1    1    3    3    0  502  0.15492748806E+03  0.88648462731E+02  0.58226531752E+03  0.60901065386E+03  0.50400001928E-02 0.  1.
</event>
<event>
 5   0  0.4865501E-02  0.4998633E+03  0.7818609E-02  0.1013815E+00
       -1   -1    0    0    0  501  0.00000000000E+00  0.00000000000E+00  0.36826704248E+02  0.36826704593E+02  0.50400001928E-02 0.  1.
        1   -1    0    0  501    0  0.00000000000E+00  0.00000000000E+00 -0.16962103027E+04  0.16962103027E+04  0.50400001928E-02 0. -1.
    10030    2    1    2    0    0  0.00000000000E+00  0.00000000000E+00 -0.16593835984E+04  0.17330370073E+04  0.49986332317E+03 0.  0.
        2    1    3    3  502    0  0.16744890596E+03 -0.14042695457E+03 -0.40923811277E+03  0.46393393778E+03  0.25500000920E-02 0.  1.
       -2    1    3    3    0  502 -0.16744890596E+03  0.14042695457E+03 -0.12501454856E+04  0.12691030695E+04  0.25500000920E-02 0. -1.
</event>
<event>
 5   0  0.7933103E-02  0.4593729E+03  0.7818609E-02  0.1024963E+00
        2   -1    0    0  501    0  0.00000000000E+00  0.00000000000E+00  0.97854288272E+03  0.97854288273E+03  0.25500000920E-02 0.  1.
       -2   -1    0    0    0  501  0.00000000000E+00  0.00000000000E+00 -0.53912681864E+02  0.53912681924E+02  0.25500000920E-02 0. -1.
    10030    2    1    2    0    0  0.00000000000E+00  0.00000000000E+00  0.92463020086E+03  0.10324555647E+04  0.45937292545E+03 0.  0.
        5    1    3    3  502    0  0.18677717961E+03 -0.99080386674E+02  0.66373142290E+03  0.69660902204E+03  0.46999998093E+01 0.  1.
       -5    1    3    3    0  502 -0.18677717961E+03  0.99080386674E+02  0.26089877796E+03  0.33584654261E+03  0.46999998093E+01 0. -1.
</event>
<event>
 5   0  0.7776070E-02  0.5008705E+03  0.7818609E-02  0.1013552E+00
        2   -1    0    0  501    0  0.00000000000E+00  0.00000000000E+00  0.64033201010E+03  0.64033201010E+03  0.25500000920E-02 0. -1.
       -2   -1    0    0    0  501  0.00000000000E+00  0.00000000000E+00 -0.97945783176E+02  0.97945783209E+02  0.25500000920E-02 0.  1.
    10030    2    1    2    0    0  0.00000000000E+00  0.00000000000E+00  0.54238622692E+03  0.73827779331E+03  0.50087052313E+03 0.  0.
        4    1    3    3  502    0  0.91244810895E+02  0.85465035880E+02  0.59103968821E+03  0.60411870838E+03  0.12699999809E+01 0. -1.
       -4    1    3    3    0  502 -0.91244810895E+02 -0.85465035880E+02 -0.48653461294E+02  0.13415908493E+03  0.12699999809E+01 0.  1.
</event>
<event>
 5   0  0.4884478E-02  0.4993486E+03  0.7818609E-02  0.1013949E+00
        1   -1    0    0  501    0  0.00000000000E+00  0.00000000000E+00  0.87569896583E+03  0.87569896585E+03  0.50400001928E-02 0. -1.
       -1   -1    0    0    0  501  0.00000000000E+00  0.00000000000E+00 -0.71185714687E+02  0.71185714865E+02  0.50400001928E-02 0.  1.
    10030    2    1    2    0    0  0.00000000000E+00  0.00000000000E+00  0.80451325115E+03  0.94688468071E+03  0.49934860298E+03 0.  0.
        3    1    3    3  502    0  0.46008662008E+02 -0.17405341236E+03  0.73028889302E+03  0.75215242126E+03  0.10100000352E+00 0. -1.
       -3    1    3    3    0  502 -0.46008662008E+02  0.17405341236E+03  0.74224358127E+02  0.19473225946E+03  0.10100000352E+00 0.  1.
</event>
<event>
 5   0  0.3210875E-02  0.4979983E+03  0.7818609E-02  0.1014303E+00
        4   -1    0    0  501    0  0.00000000000E+00  0.00000000000E+00  0.53016428349E+03  0.53016580462E+03  0.12699999809E+01 0. -1.
       -4   -1    0    0    0  501  0.00000000000E+00  0.00000000000E+00 -0.11694081285E+03  0.11694770887E+03  0.12699999809E+01 0.  1.
    10030    2    1    2    0    0  0.00000000000E+00  0.00000000000E+00  0.41322347064E+03  0.64711351349E+03  0.49799825567E+03 0.  0.
        3    1    3    3  502    0  0.91548378899E+02  0.26285304076E+02 -0.92337587736E+02  0.13265844564E+03  0.10100000352E+00 0.  1.
       -3    1    3    3    0  502 -0.91548378899E+02 -0.26285304076E+02  0.50556105837E+03  0.51445506785E+03  0.10100000352E+00 0. -1.
</event>
<event>
 5   0  0.7776070E-02  0.4978968E+03  0.7818609E-02  0.1014329E+00
       -2   -1    0    0    0  501  0.00000000000E+00  0.00000000000E+00  0.60066388756E+03  0.60066388757E+03  0.25500000920E-02 0.  1.
        2   -1    0    0  501    0  0.00000000000E+00  0.00000000000E+00 -0.10317801813E+03  0.10317801817E+03  0.25500000920E-02 0. -1.
    10030    2    1    2    0    0  0.00000000000E+00  0.00000000000E+00  0.49748586943E+03  0.70384190574E+03  0.49789681460E+03 0.  0.
        4    1    3    3  502    0  0.14675721062E+03 -0.45625681957E+02  0.52559188898E+03  0.54760188859E+03  0.12699999809E+01 0.  1.
       -4    1    3    3    0  502 -0.14675721062E+03  0.45625681957E+02 -0.28106019553E+02  0.15624001715E+03  0.12699999809E+01 0. -1.
</event>
<event>
 5   0  0.5191358E-02  0.4992306E+03  0.7818609E-02  0.1013980E+00
        1   -1    0    0  501    0  0.00000000000E+00  0.00000000000E+00  0.13130127477E+04  0.13130127477E+04  0.50400001928E-02 0. -1.
       -1   -1    0    0    0  501  0.00000000000E+00  0.00000000000E+00 -0.47454060332E+02  0.47454060600E+02  0.50400001928E-02 0.  1.
    10030    2    1    2    0    0  0.00000000000E+00  0.00000000000E+00  0.12655586874E+04  0.13604668083E+04  0.49923055329E+03 0.  0.
        4    1    3    3  502    0  0.20878100389E+03 -0.13287840035E+03  0.54405577041E+03  0.59769931494E+03  0.12699999809E+01 0. -1.
       -4    1    3    3    0  502 -0.20878100389E+03  0.13287840035E+03  0.72150291697E+03  0.76276749338E+03  0.12699999809E+01 0.  1.
</event>
<event>
 5   0  0.7776070E-02  0.4883662E+03  0.7818609E-02  0.1016861E+00
       -2   -1    0    0    0  501  0.00000000000E+00  0.00000000000E+00  0.16645826838E+03  0.16645826840E+03  0.25500000920E-02 0. -1.
        2   -1    0    0  501    0  0.00000000000E+00  0.00000000000E+00 -0.35820019809E+03  0.35820019810E+03  0.25500000920E-02 0.  1.
    10030    2    1    2    0    0  0.00000000000E+00  0.00000000000E+00 -0.19174192971E+03  0.52465846650E+03  0.48836619341E+03 0.  0.
        4    1    3    3  502    0  0.20059617886E+03 -0.39347933072E+02  0.47607976679E+02  0.20989335186E+03  0.12699999809E+01 0. -1.
       -4    1    3    3    0  502 -0.20059617886E+03  0.39347933072E+02 -0.23934990639E+03  0.31476511465E+03  0.12699999809E+01 0.  1.
</event>
<event>
 5   0  0.5191358E-02  0.5028971E+03  0.7818609E-02  0.1013025E+00
       -1   -1    0    0    0  501  0.00000000000E+00  0.00000000000E+00  0.47656420079E+02  0.47656420346E+02  0.50400001928E-02 0.  1.
        1   -1    0    0  501    0  0.00000000000E+00  0.00000000000E+00 -0.13267127179E+04  0.13267127179E+04  0.50400001928E-02 0. -1.
    10030    2    1    2    0    0  0.00000000000E+00  0.00000000000E+00 -0.12790562978E+04  0.13743691382E+04  0.50289712187E+03 0.  0.
        4    1    3    3  502    0  0.99262539457E+02  0.13663703206E+02 -0.12697869181E+04  0.12737347364E+04  0.12699999809E+01 0. -1.
       -4    1    3    3    0  502 -0.99262539457E+02 -0.13663703206E+02 -0.92693796969E+01  0.10063440180E+03  0.12699999809E+01 0.  1.
</event>
<event>
 5   0  0.5038436E-02  0.4936365E+03  0.7818609E-02  0.1015453E+00
       -1   -1    0    0    0  501  0.00000000000E+00  0.00000000000E+00  0.45055189993E+03  0.45055189996E+03  0.50400001928E-02 0. -1.
        1   -1    0    0  501    0  0.00000000000E+00  0.00000000000E+00 -0.13521028484E+03  0.13521028493E+03  0.50400001928E-02 0.  1.
    10030    2    1    2    0    0  0.00000000000E+00  0.00000000000E+00  0.31534161509E+03  0.58576218489E+03  0.49363650903E+03 0.  0.
        1    1    3    3  502    0  0.68327900131E+02 -0.19661163941E+03  0.27199977614E+00  0.20814637325E+03  0.50400001928E-02 0.  1.
       -1    1    3    3    0  502 -0.68327900131E+02  0.19661163941E+03  0.31506961532E+03  0.37761581165E+03  0.50400001928E-02 0. -1.
</event>
<event>
 5   0  0.8208720E-02  0.5006747E+03  0.7818609E-02  0.1013603E+00
       -2   -1    0    0    0  501  0.00000000000E+00  0.00000000000E+00  0.19304799915E+03  0.19304799916E+03  0.25500000920E-02 0. -1.
        2   -1    0    0  501    0  0.00000000000E+00  0.00000000000E+00 -0.32462804809E+03  0.32462804810E+03  0.25500000920E-02 0.  1.
    10030    2    1    2    0    0  0.00000000000E+00  0.00000000000E+00 -0.13158004894E+03  0.51767604726E+03  0.50067472537E+03 0.  0.
        3    1    3    3  502    0 -0.10956478329E+03 -0.18079970534E+03  0.72836595471E+02  0.22360267223E+03  0.10100000352E+00 0. -1.
       -3    1    3    3    0  502  0.10956478329E+03  0.18079970534E+03 -0.20441664441E+03  0.29407337503E+03  0.10100000352E+00 0.  1.
</event>
<event>
 5   0  0.4803890E-02  0.5028383E+03  0.7818609E-02  0.1013041E+00
       -1   -1    0    0    0  501  0.00000000000E+00  0.00000000000E+00  0.20432552055E+03  0.20432552062E+03  0.50400001928E-02 0. -1.
        1   -1    0    0  501    0  0.00000000000E+00  0.00000000000E+00 -0.30936713580E+03  0.30936713584E+03  0.50400001928E-02 0.  1.
    10030    2    1    2    0    0  0.00000000000E+00  0.00000000000E+00 -0.10504161525E+03  0.51369265646E+03  0.50283834814E+03 0.  0.
        5    1    3    3  502    0  0.56585706992E+02 -0.24492023896E+03 -0.51210384943E+02  0.25657836856E+03  0.46999998093E+01 0.  1.
       -5    1    3    3    0  502 -0.56585706992E+02  0.24492023896E+03 -0.53831230305E+02  0.25711428790E+03  0.46999998093E+01 0. -1.
</event>
<event>
 5   0  0.8208720E-02  0.5022033E+03  0.7818609E-02  0.1013205E+00
       -2   -1    0    0    0  501  0.00000000000E+00  0.00000000000E+00  0.41911315259E+02  0.41911315337E+02  0.25500000920E-02 0.  1.
        2   -1    0    0  501    0  0.00000000000E+00  0.00000000000E+00 -0.15044156375E+04  0.15044156375E+04  0.25500000920E-02 0. -1.
    10030    2    1    2    0    0  0.00000000000E+00  0.00000000000E+00 -0.14625043222E+04  0.15463269528E+04  0.50220329798E+03 0.  0.
        3    1    3    3  502    0 -0.20882195148E+03  0.45946266619E+01 -0.30211654070E+03  0.36729025631E+03  0.10100000352E+00 0.  1.
       -3    1    3    3    0  502  0.20882195148E+03 -0.45946266619E+01 -0.11603877815E+04  0.11790366965E+04  0.10100000352E+00 0. -1.
</event>
<event>
 5   0  0.7776070E-02  0.4960005E+03  0.7818609E-02  0.1014828E+00
       -2   -1    0    0    0  501  0.00000000000E+00  0.00000000000E+00  0.30035243761E+03  0.30035243762E+03  0.25500000920E-02 0. -1.
        2   -1    0    0  501    0  0.00000000000E+00  0.00000000000E+00 -0.20477315075E+03  0.20477315077E+03  0.25500000920E-02 0.  1.
    10030    2    1    2    0    0  0.00000000000E+00  0.00000000000E+00  0.95579286854E+02  0.50512558839E+03  0.49600046368E+03 0.  0.
        4    1    3    3  502    0  0.17248887236E+03 -0.85186290980E+02 -0.11159325033E+03  0.22240454509E+03  0.12699999809E+01 0. -1.
       -4    1    3    3    0  502 -0.17248887236E+03  0.85186290980E+02  0.20717253719E+03  0.28272104330E+03  0.12699999809E+01 0.  1.
</event>
<event>
 5   0  0.8208720E-02  0.4981303E+03  0.7818609E-02  0.1014268E+00
       -2   -1    0    0    0  501  0.00000000000E+00  0.00000000000E+00  0.41504722895E+03  0.41504722896E+03  0.25500000920E-02 0.  1.
        2   -1    0    0  501    0  0.00000000000E+00  0.00000000000E+00 -0.14946117863E+03  0.14946117865E+03  0.25500000920E-02 0. -1.
    10030    2    1    2    0    0  0.00000000000E+00  0.00000000000E+00  0.26558605031E+03  0.56450840761E+03  0.49813029635E+03 0.  0.
        3    1    3    3  502    0  0.20545863588E+03  0.80629377745E+02  0.26358007350E+03  0.34378599878E+03  0.10100000352E+00 0.  1.
       -3    1    3    3    0  502 -0.20545863588E+03 -0.80629377745E+02  0.20059768161E+01  0.22072240883E+03  0.10100000352E+00 0. -1.
</event>
<event>
 5   0  0.7881060E-02  0.5048502E+03  0.7818609E-02  0.1012521E+00
       -2   -1    0    0    0  501  0.00000000000E+00  0.00000000000E+00  0.14991737101E+03  0.14991737103E+03  0.25500000920E-02 0. -1.
        2   -1    0    0  501    0  0.00000000000E+00  0.00000000000E+00 -0.42502374836E+03  0.42502374837E+03  0.25500000920E-02 0.  1.
    10030    2    1    2    0    0  0.00000000000E+00  0.00000000000E+00 -0.27510637735E+03  0.57494111939E+03  0.50485024701E+03 0.  0.
        1    1    3    3  502    0  0.16750243010E+03 -0.17286800724E+03 -0.22411986203E+03  0.32889226899E+03  0.50400001928E-02 0.  1.
       -1    1    3    3    0  502 -0.16750243010E+03  0.17286800724E+03 -0.50986515324E+02  0.24604885041E+03  0.50400001928E-02 0. -1.
</event>
<event>
 5   0  0.3210875E-02  0.4998081E+03  0.7818609E-02  0.1013829E+00
        4   -1    0    0  501    0  0.00000000000E+00  0.00000000000E+00  0.54811626230E+03  0.54811773361E+03  0.12699999809E+01 0. -1.
       -4   -1    0    0    0  501  0.00000000000E+00  0.00000000000E+00 -0.11393421954E+03  0.11394129753E+03  0.12699999809E+01 0.  1.
    10030    2    1    2    0    0  0.00000000000E+00  0.00000000000E+00  0.43418204276E+03  0.66205903114E+03  0.49980807762E+03 0.  0.
        3    1    3    3  502    0 -0.19745009932E+03  0.13620533166E+03  0.12423872478E+03  0.27013645632E+03  0.10100000352E+00 0.  1.
       -3    1    3    3    0  502  0.19745009932E+03 -0.13620533166E+03  0.30994331797E+03  0.39192257482E+03  0.10100000352E+00 0. -1.
</event>
<event>
 5   0  0.5191358E-02  0.5010659E+03  0.7818609E-02  0.1013501E+00
        1   -1    0    0  501    0  0.00000000000E+00  0.00000000000E+00  0.12934349007E+03  0.12934349016E+03  0.50400001928E-02 0. -1.
       -1   -1    0    0    0  501  0.00000000000E+00  0.00000000000E+00 -0.48527182745E+03  0.48527182747E+03  0.50400001928E-02 0.  1.
    10030    2    1    2    0    0  0.00000000000E+00  0.00000000000E+00 -0.35592833738E+03  0.61461531764E+03  0.50106587124E+03 0.  0.
        4    1    3    3  502    0  0.73191926076E+02  0.23592298660E+03 -0.12667423994E+03  0.27760527663E+03  0.12699999809E+01 0. -1.
       -4    1    3    3    0  502 -0.73191926076E+02 -0.23592298660E+03 -0.22925409744E+03  0.33701004101E+03  0.12699999809E+01 0.  1.
</event>
<event>
 5   0  0.7933103E-02  0.4656254E+03  0.7818609E-02  0.1023162E+00
        2   -1    0    0  501    0  0.00000000000E+00  0.00000000000E+00  0.12919075584E+04  0.12919075584E+04  0.25500000920E-02 0. -1.
       -2   -1    0    0    0  501  0.00000000000E+00  0.00000000000E+00 -0.41954822525E+02  0.41954822603E+02  0.25500000920E-02 0.  1.
    10030    2    1    2    0    0  0.00000000000E+00  0.00000000000E+00  0.12499527359E+04  0.13338623810E+04  0.46562539616E+03 0.  0.
        5    1    3    3  502    0  0.46024343532E+02  0.19323149439E+03  0.27738202936E+03  0.34120306393E+03  0.46999998093E+01 0.  1.
       -5    1    3    3    0  502 -0.46024343532E+02 -0.19323149439E+03  0.97257070654E+03  0.99265931711E+03  0.46999998093E+01 0. -1.
</event>
<event>
 5   0  0.5038436E-02  0.5008096E+03  0.7818609E-02  0.1013568E+00
        1   -1    0    0  501    0  0.00000000000E+00  0.00000000000E+00  0.14075277514E+04  0.14075277514E+04  0.50400001928E-02 0. -1.
       -1   -1    0    0    0  501  0.00000000000E+00  0.00000000000E+00 -0.44548006318E+02  0.44548006603E+02  0.50400001928E-02 0.  1.
    10030    2    1    2    0    0  0.00000000000E+00  0.00000000000E+00  0.13629797450E+04  0.14520757580E+04  0.50080956610E+03 0.  0.
        1    1    3    3  502    0 -0.22642231065E+03 -0.99930037958E+02  0.57110163793E+03  0.62242281137E+03  0.50400001928E-02 0.  1.
       -1    1    3    3    0  502  0.22642231065E+03  0.99930037958E+02  0.79187810711E+03  0.82965294659E+03  0.50400001928E-02 0. -1.
</event>
<event>
 5   0  0.3210875E-02  0.4869465E+03  0.7818609E-02  0.1017243E+00
       -3   -1    0    0    0  501  0.00000000000E+00  0.00000000000E+00  0.29281397772E+03  0.29281399514E+03  0.10100000352E+00 0. -1.
        3   -1    0    0  501    0  0.00000000000E+00  0.00000000000E+00 -0.20244664370E+03  0.20244666889E+03  0.10100000352E+00 0.  1.
    10030    2    1    2    0    0  0.00000000000E+00  0.00000000000E+00  0.90367334024E+02  0.49526066404E+03  0.48694647579E+03 0.  0.
        3    1    3    3  502    0  0.13667100501E+03 -0.21238860902E+02  0.24897739354E+03  0.28481538848E+03  0.10100000352E+00 0. -1.
       -3    1    3    3    0  502 -0.13667100501E+03  0.21238860902E+02 -0.15861005951E+03  0.21044527555E+03  0.10100000352E+00 0.  1.
</event>
<event>
 5   0  0.5191358E-02  0.5012820E+03  0.7818609E-02  0.1013445E+00
        1   -1    0    0  501    0  0.00000000000E+00  0.00000000000E+00  0.45630758848E+03  0.45630758851E+03  0.50400001928E-02 0.  1.
       -1   -1    0    0    0  501  0.00000000000E+00  0.00000000000E+00 -0.13767230943E+03  0.13767230952E+03  0.50400001928E-02 0. -1.
    10030    2    1    2    0    0  0.00000000000E+00  0.00000000000E+00  0.31863527905E+03  0.59397989803E+03  0.50128203460E+03 0.  0.
        4    1    3    3  502    0 -0.68369648391E+02  0.32666140230E+02 -0.12377155989E+03  0.14512924405E+03  0.12699999809E+01 0. -1.
       -4    1    3    3    0  502  0.68369648391E+02 -0.32666140230E+02  0.44240683895E+03  0.44885065399E+03  0.12699999809E+01 0.  1.
</event>
<event>
 5   0  0.4803890E-02  0.5001972E+03  0.7818609E-02  0.1013727E+00
       -1   -1    0    0    0  501  0.00000000000E+00  0.00000000000E+00  0.37206638952E+03  0.37206638956E+03  0.50400001928E-02 0.  1.
        1   -1    0    0  501    0  0.00000000000E+00  0.00000000000E+00 -0.16811331295E+03  0.16811331302E+03  0.50400001928E-02 0. -1.
    10030    2    1    2    0    0  0.00000000000E+00  0.00000000000E+00  0.20395307658E+03  0.54017970258E+03  0.50019721474E+03 0.  0.
        5    1    3    3  502    0  0.14714213637E+03 -0.13018720653E+03 -0.65073864675E+02  0.20701742657E+03  0.46999998093E+01 0. -1.
       -5    1    3    3    0  502 -0.14714213637E+03  0.13018720653E+03  0.26902694125E+03  0.33316227601E+03  0.46999998093E+01 0.  1.
</event>
<event>
 5   0  0.7776070E-02  0.4991477E+03  0.7818609E-02  0.1014002E+00
       -2   -1    0    0    0  501  0.00000000000E+00  0.00000000000E+00  0.10413346276E+03  0.10413346279E+03  0.25500000920E-02 0. -1.
        2   -1    0    0  501    0  0.00000000000E+00  0.00000000000E+00 -0.59814695674E+03  0.59814695675E+03  0.25500000920E-02 0.  1.
    10030    2    1    2    0    0  0.00000000000E+00  0.00000000000E+00 -0.49401349398E+03  0.70228041954E+03  0.49914772907E+03 0.  0.
        4    1    3    3  502    0 -0.62086719081E+02  0.33905577099E+02  0.89727534698E+02  0.11426719664E+03  0.12699999809E+01 0. -1.
       -4    1    3    3    0  502  0.62086719081E+02 -0.33905577099E+02 -0.58374102868E+03  0.58801322290E+03  0.12699999809E+01 0.  1.
</event>
<event>
 5   0  0.5038436E-02  0.4896929E+03  0.7818609E-02  0.1016505E+00
        1   -1    0    0  501    0  0.00000000000E+00  0.00000000000E+00  0.88771739639E+02  0.88771739782E+02  0.50400001928E-02 0. -1.
       -1   -1    0    0    0  501  0.00000000000E+00  0.00000000000E+00 -0.67532510763E+03  0.67532510765E+03  0.50400001928E-02 0.  1.
    10030    2    1    2    0    0  0.00000000000E+00  0.00000000000E+00 -0.58655336799E+03  0.76409684743E+03  0.48969290249E+03 0.  0.
        1    1    3    3  502    0 -0.72431621170E+02 -0.13103123591E+03 -0.59557694916E+03  0.61410701586E+03  0.50400001928E-02 0.  1.
       -1    1    3    3    0  502  0.72431621170E+02  0.13103123591E+03  0.90235811765E+01  0.14998983157E+03  0.50400001928E-02 0. -1.
</event>
<event>
 5   0  0.7698747E-02  0.4983609E+03  0.7818609E-02  0.1014208E+00
        2   -1    0    0  501    0  0.00000000000E+00  0.00000000000E+00  0.19456464074E+03  0.19456464076E+03  0.25500000920E-02 0.  1.
       -2   -1    0    0    0  501  0.00000000000E+00  0.00000000000E+00 -0.31912735471E+03  0.31912735472E+03  0.25500000920E-02 0. -1.
    10030    2    1    2    0    0  0.00000000000E+00  0.00000000000E+00 -0.12456271397E+03  0.51369199548E+03  0.49836090989E+03 0.  0.
        2    1    3    3  502    0  0.84616015543E+02  0.18477269120E+03 -0.21090466571E+03  0.29288495271E+03  0.25500000920E-02 0. -1.
       -2    1    3    3    0  502 -0.84616015543E+02 -0.18477269120E+03  0.86341951740E+02  0.22080704277E+03  0.25500000920E-02 0.  1.
</event>
<event>
 5   0  0.7933103E-02  0.4972614E+03  0.7818609E-02  0.1014496E+00
        2   -1    0    0  501    0  0.00000000000E+00  0.00000000000E+00  0.11074244667E+04  0.11074244667E+04  0.25500000920E-02 0.  1.
       -2   -1    0    0    0  501  0.00000000000E+00  0.00000000000E+00 -0.55820722084E+02  0.55820722143E+02  0.25500000920E-02 0. -1.
    10030    2    1    2    0    0  0.00000000000E+00  0.00000000000E+00  0.10516037446E+04  0.11632451888E+04  0.49726143394E+03 0.  0.
        5    1    3    3  502    0 -0.17099954086E+03  0.69924003363E+02  0.13671076260E+03  0.22987416521E+03  0.46999998093E+01 0. -1.
       -5    1    3    3    0  502  0.17099954086E+03 -0.69924003363E+02  0.91489298202E+03  0.93337102364E+03  0.46999998093E+01 0.  1.
</event>
<event>
 5   0  0.4884478E-02  0.4999223E+03  0.7818609E-02  0.1013799E+00
        1   -1    0    0  501    0  0.00000000000E+00  0.00000000000E+00  0.10098763038E+03  0.10098763050E+03  0.50400001928E-02 0.  1.
       -1   -1    0    0    0  501  0.00000000000E+00  0.00000000000E+00 -0.61869526918E+03  0.61869526920E+03  0.50400001928E-02 0. -1.
    10030    2    1    2    0    0  0.00000000000E+00  0.00000000000E+00 -0.51770763881E+03  0.71968289971E+03  0.49992227081E+03 0.  0.
        3    1    3    3  502    0  0.22615612336E+03  0.10566974332E+03 -0.24020170276E+03  0.34642395269E+03  0.10100000352E+00 0. -1.
       -3    1    3    3    0  502 -0.22615612336E+03 -0.10566974332E+03 -0.27750593605E+03  0.37325894702E+03  0.10100000352E+00 0.  1.
</event>
<event>
 5   0  0.3210875E-02  0.5016419E+03  0.7818609E-02  0.1013351E+00
       -3   -1    0    0    0  501  0.00000000000E+00  0.00000000000E+00  0.39820501861E+02  0.39820629948E+02  0.10100000352E+00 0.  1.
        3   -1    0    0  501    0  0.00000000000E+00  0.00000000000E+00 -0.15798653362E+04  0.15798653395E+04  0.10100000352E+00 0. -1.
    10030    2    1    2    0    0  0.00000000000E+00  0.00000000000E+00 -0.15400448344E+04  0.16196859694E+04  0.50164185195E+03 0.  0.
        2    1    3    3  502    0 -0.10124903139E+03  0.16571761585E+03 -0.25749714180E+03  0.32251894921E+03  0.25500000920E-02 0.  1.
       -2    1    3    3    0  502  0.10124903139E+03 -0.16571761585E+03 -0.12825476926E+04  0.12971670202E+04  0.25500000920E-02 0. -1.
</event>
<event>
 5   0  0.4803890E-02  0.5018887E+03  0.7818609E-02  0.1013287E+00
        1   -1    0    0  501    0  0.00000000000E+00  0.00000000000E+00  0.40203769942E+03  0.40203769945E+03  0.50400001928E-02 0. -1.
       -1   -1    0    0    0  501  0.00000000000E+00  0.00000000000E+00 -0.15663472898E+03  0.15663472907E+03  0.50400001928E-02 0.  1.
    10030    2    1    2    0    0  0.00000000000E+00  0.00000000000E+00  0.24540297043E+03  0.55867242852E+03  0.50188869731E+03 0.  0.
        5    1    3    3  502    0  0.17202429659E+03  0.14880324828E+03  0.48125880429E+01  0.22755222767E+03  0.46999998093E+01 0.  1.
       -5    1    3    3    0  502 -0.17202429659E+03 -0.14880324828E+03  0.24059038239E+03  0.33112020085E+03  0.46999998093E+01 0. -1.
</event>
<event>
 5   0  0.7698747E-02  0.5008920E+03  0.7818609E-02  0.1013546E+00
       -2   -1    0    0    0  501  0.00000000000E+00  0.00000000000E+00  0.28976506383E+03  0.28976506384E+03  0.25500000920E-02 0. -1.
        2   -1    0    0  501    0  0.00000000000E+00  0.00000000000E+00 -0.21646226500E+03  0.21646226501E+03  0.25500000920E-02 0.  1.
    10030    2    1    2    0    0  0.00000000000E+00  0.00000000000E+00  0.73302798834E+02  0.50622732886E+03  0.50089201248E+03 0.  0.
        2    1    3    3  502    0 -0.61565213407E+02  0.24005952218E+02 -0.20749291951E+03  0.21776104540E+03  0.25500000920E-02 0.  1.
       -2    1    3    3    0  502  0.61565213407E+02 -0.24005952218E+02  0.28079571834E+03  0.28846628345E+03  0.25500000920E-02 0. -1.
</event>
<event>
 5   0  0.5191358E-02  0.5030884E+03  0.7818609E-02  0.1012976E+00
        1   -1    0    0  501    0  0.00000000000E+00  0.00000000000E+00  0.41797740522E+03  0.41797740525E+03  0.50400001928E-02 0.  1.
       -1   -1    0    0    0  501  0.00000000000E+00  0.00000000000E+00 -0.15138254401E+03  0.15138254410E+03  0.50400001928E-02 0. -1.
    10030    2    1    2    0    0  0.00000000000E+00  0.00000000000E+00  0.26659486120E+03  0.56935994935E+03  0.50308839372E+03 0.  0.
        4    1    3    3  502    0 -0.61246804470E+02  0.40491088024E+02 -0.13898211753E+03  0.15718887098E+03  0.12699999809E+01 0. -1.
       -4    1    3    3    0  502  0.61246804470E+02 -0.40491088024E+02  0.40557697873E+03  0.41217107837E+03  0.12699999809E+01 0.  1.
</event>
<event>
 5   0  0.8208720E-02  0.5028043E+03  0.7818609E-02  0.1013050E+00
        2   -1    0    0  501    0  0.00000000000E+00  0.00000000000E+00  0.15550377600E+04  0.15550377600E+04  0.25500000920E-02 0. -1.
       -2   -1    0    0    0  501  0.00000000000E+00  0.00000000000E+00 -0.40644059462E+02  0.40644059542E+02  0.25500000920E-02 0.  1.
    10030    2    1    2    0    0  0.00000000000E+00  0.00000000000E+00  0.15143937005E+04  0.15956818195E+04  0.50280432475E+03 0.  0.
        3    1    3    3  502    0  0.23441337653E+03 -0.88752009757E+02  0.81877435986E+03  0.85628150330E+03  0.10100000352E+00 0.  1.
       -3    1    3    3    0  502 -0.23441337653E+03  0.88752009757E+02  0.69561934066E+03  0.73940031623E+03  0.10100000352E+00 0. -1.
</event>
<event>
 5   0  0.7933103E-02  0.4971185E+03  0.7818609E-02  0.1014534E+00
        2   -1    0    0  501    0  0.00000000000E+00  0.00000000000E+00  0.98517299593E+03  0.98517299593E+03  0.25500000920E-02 0. -1.
       -2   -1    0    0    0  501  0.00000000000E+00  0.00000000000E+00 -0.62711533903E+02  0.62711533955E+02  0.25500000920E-02 0.  1.
    10030    2    1    2    0    0  0.00000000000E+00  0.00000000000E+00  0.92246146203E+03  0.10478845299E+04  0.49711853622E+03 0.  0.
        5    1    3    3  502    0  0.79682223516E+02 -0.20330022289E+03  0.71134891912E+03  0.74412338500E+03  0.46999998093E+01 0. -1.
       -5    1    3    3    0  502 -0.79682223516E+02  0.20330022289E+03  0.21111254291E+03  0.30376114489E+03  0.46999998093E+01 0.  1.
</event>
<event>
 5   0  0.7776070E-02  0.5003761E+03  0.7818609E-02  0.1013681E+00
       -2   -1    0    0    0  501  0.00000000000E+00  0.00000000000E+00  0.69104549939E+02  0.69104549986E+02  0.25500000920E-02 0.  1.
        2   -1    0    0  501    0  0.00000000000E+00  0.00000000000E+00 -0.90578772839E+03  0.90578772839E+03  0.25500000920E-02 0. -1.
    10030    2    1    2    0    0  0.00000000000E+00  0.00000000000E+00 -0.83668317845E+03  0.97489227838E+03  0.50037607191E+03 0.  0.
        4    1    3    3  502    0  0.51866462651E+02  0.16784552161E+03 -0.76539510058E+03  0.78529836493E+03  0.12699999809E+01 0. -1.
       -4    1    3    3    0  502 -0.51866462651E+02 -0.16784552161E+03 -0.71288077875E+02  0.18959391345E+03  0.12699999809E+01 0.  1.
</event>
<event>
 5   0  0.5191358E-02  0.4625919E+03  0.7818609E-02  0.1024032E+00
        1   -1    0    0  501    0  0.00000000000E+00  0.00000000000E+00  0.61607388760E+02  0.61607388967E+02  0.50400001928E-02 0. -1.
       -1   -1    0    0    0  501  0.00000000000E+00  0.00000000000E+00 -0.86836689632E+03  0.86836689633E+03  0.50400001928E-02 0.  1.
    10030    2    1    2    0    0  0.00000000000E+00  0.00000000000E+00 -0.80675950756E+03  0.92997428530E+03  0.46259190253E+03 0.  0.
        4    1    3    3  502    0 -0.27022990126E+02 -0.17499618874E+03 -0.10423303695E+03  0.20547517359E+03  0.12699999809E+01 0. -1.
       -4    1    3    3    0  502  0.27022990126E+02  0.17499618874E+03 -0.70252647060E+03  0.72449911171E+03  0.12699999809E+01 0.  1.
</event>
<event>
 5   0  0.7881060E-02  0.5069584E+03  0.7818609E-02  0.1011978E+00
       -2   -1    0    0    0  501  0.00000000000E+00  0.00000000000E+00  0.69561968696E+02  0.69561968743E+02  0.25500000920E-02 0. -1.
        2   -1    0    0  501    0  0.00000000000E+00  0.00000000000E+00 -0.92366126123E+03  0.92366126123E+03  0.25500000920E-02 0.  1.
    10030    2    1    2    0    0  0.00000000000E+00  0.00000000000E+00 -0.85409929253E+03  0.99322322998E+03  0.50695836422E+03 0.  0.
        1    1    3    3  502    0  0.12538676330E+03 -0.21263163565E+03 -0.53989648347E+03  0.59365163672E+03  0.50400001928E-02 0. -1.
       -1    1    3    3    0  502 -0.12538676330E+03  0.21263163565E+03 -0.31420280907E+03  0.39957159326E+03  0.50400001928E-02 0.  1.
</event>
<event>
 5   0  0.5191358E-02  0.5069202E+03  0.7818609E-02  0.1011988E+00
       -1   -1    0    0    0  501  0.00000000000E+00  0.00000000000E+00  0.38674068974E+03  0.38674068978E+03  0.50400001928E-02 0. -1.
        1   -1    0    0  501    0  0.00000000000E+00  0.00000000000E+00 -0.16611135996E+03  0.16611136004E+03  0.50400001928E-02 0.  1.
    10030    2    1    2    0    0  0.00000000000E+00  0.00000000000E+00  0.22062932978E+03  0.55285204982E+03  0.50692019868E+03 0.  0.
        4    1    3    3  502    0  0.15057045840E+03  0.31261773379E+02 -0.10941448108E+03  0.18873765652E+03  0.12699999809E+01 0.  1.
       -4    1    3    3    0  502 -0.15057045840E+03 -0.31261773379E+02  0.33004381086E+03  0.36411439330E+03  0.12699999809E+01 0. -1.
</event>
<event>
 5   0  0.7776070E-02  0.5006163E+03  0.7818609E-02  0.1013618E+00
       -2   -1    0    0    0  501  0.00000000000E+00  0.00000000000E+00  0.15679345091E+03  0.15679345093E+03  0.25500000920E-02 0.  1.
        2   -1    0    0  501    0  0.00000000000E+00  0.00000000000E+00 -0.39959679259E+03  0.39959679260E+03  0.25500000920E-02 0. -1.
    10030    2    1    2    0    0  0.00000000000E+00  0.00000000000E+00 -0.24280334168E+03  0.55639024353E+03  0.50061626058E+03 0.  0.
        4    1    3    3  502    0  0.84725320382E+01 -0.37557974386E+02  0.15347910579E+03  0.15823979920E+03  0.12699999809E+01 0.  1.
       -4    1    3    3    0  502 -0.84725320382E+01  0.37557974386E+02 -0.39628244747E+03  0.39815044432E+03  0.12699999809E+01 0. -1.
</event>
<event>
 5   0  0.5038436E-02  0.4978809E+03  0.7818609E-02  0.1014334E+00
       -1   -1    0    0    0  501  0.00000000000E+00  0.00000000000E+00  0.27290309050E+03  0.27290309054E+03  0.50400001928E-02 0. -1.
        1   -1    0    0  501    0  0.00000000000E+00  0.00000000000E+00 -0.22708184016E+03  0.22708184021E+03  0.50400001928E-02 0.  1.
    10030    2    1    2    0    0  0.00000000000E+00  0.00000000000E+00  0.45821250340E+02  0.49998493076E+03  0.49788085322E+03 0.  0.
        1    1    3    3  502    0  0.22869322415E+03 -0.97808781996E+02  0.12660267361E+02  0.24905306864E+03  0.50400001928E-02 0.  1.
       -1    1    3    3    0  502 -0.22869322415E+03  0.97808781996E+02  0.33160982979E+02  0.25093186211E+03  0.50400001928E-02 0. -1.
</event>
<event>
 5   0  0.7933103E-02  0.4999248E+03  0.7818609E-02  0.1013799E+00
        2   -1    0    0  501    0  0.00000000000E+00  0.00000000000E+00  0.19184994688E+03  0.19184994690E+03  0.25500000920E-02 0. -1.
       -2   -1    0    0    0  501  0.00000000000E+00  0.00000000000E+00 -0.32567747172E+03  0.32567747173E+03  0.25500000920E-02 0.  1.
    10030    2    1    2    0    0  0.00000000000E+00  0.00000000000E+00 -0.13382752484E+03  0.51752741863E+03  0.49992481698E+03 0.  0.
        5    1    3    3  502    0 -0.80665783076E+02 -0.10383369131E+03  0.15310369106E+03  0.20186934940E+03  0.46999998093E+01 0. -1.
       -5    1    3    3    0  502  0.80665783076E+02  0.10383369131E+03 -0.28693121591E+03  0.31565806923E+03  0.46999998093E+01 0.  1.
</event>
<event>
 5   0  0.7933103E-02  0.5021124E+03  0.7818609E-02  0.1013229E+00
        2   -1    0    0  501    0  0.00000000000E+00  0.00000000000E+00  0.41103713503E+03  0.41103713504E+03  0.25500000920E-02 0. -1.
       -2   -1    0    0    0  501  0.00000000000E+00  0.00000000000E+00 -0.15334191102E+03  0.15334191104E+03  0.25500000920E-02 0.  1.
    10030    2    1    2    0    0  0.00000000000E+00  0.00000000000E+00  0.25769522401E+03  0.56437904609E+03  0.50211241688E+03 0.  0.
        5    1    3    3  502    0  0.13790852309E+03  0.20910760758E+03  0.14705439524E+03  0.29050273225E+03  0.46999998093E+01 0. -1.
       -5    1    3    3    0  502 -0.13790852309E+03 -0.20910760758E+03  0.11064082877E+03  0.27387631383E+03  0.46999998093E+01 0.  1.
</event>
<event>
 5   0  0.7698747E-02  0.4979246E+03  0.7818609E-02  0.1014322E+00
        2   -1    0    0  501    0  0.00000000000E+00  0.00000000000E+00  0.95167234899E+02  0.95167234933E+02  0.25500000920E-02 0.  1.
       -2   -1    0    0    0  501  0.00000000000E+00  0.00000000000E+00 -0.65129791556E+03  0.65129791556E+03  0.25500000920E-02 0. -1.
    10030    2    1    2    0    0  0.00000000000E+00  0.00000000000E+00 -0.55613068066E+03  0.74646515049E+03  0.49792457956E+03 0.  0.
        2    1    3    3  502    0  0.18499066672E+03  0.13335097125E+03 -0.12831358186E+03  0.26166467779E+03  0.25500000920E-02 0.  1.
       -2    1    3    3    0  502 -0.18499066672E+03 -0.13335097125E+03 -0.42781709880E+03  0.48480047271E+03  0.25500000920E-02 0. -1.
</event>
<event>
 5   0  0.7698747E-02  0.4944194E+03  0.7818609E-02  0.1015246E+00
        2   -1    0    0  501    0  0.00000000000E+00  0.00000000000E+00  0.14143029618E+04  0.14143029618E+04  0.25500000920E-02 0.  1.
       -2   -1    0    0    0  501  0.00000000000E+00  0.00000000000E+00 -0.43210431885E+02  0.43210431961E+02  0.25500000920E-02 0. -1.
    10030    2    1    2    0    0  0.00000000000E+00  0.00000000000E+00  0.13710925299E+04  0.14575133937E+04  0.49441942458E+03 0.  0.
        2    1    3    3  502    0  0.19810854494E+03 -0.82842220985E+02  0.10466262145E+04  0.10684270036E+04  0.25500000920E-02 0.  1.
       -2    1    3    3    0  502 -0.19810854494E+03  0.82842220985E+02  0.32446631541E+03  0.38908639015E+03  0.25500000920E-02 0. -1.
</event>
<event>
 5   0  0.7881060E-02  0.5004074E+03  0.7818609E-02  0.1013673E+00
        2   -1    0    0  501    0  0.00000000000E+00  0.00000000000E+00  0.17007093207E+04  0.17007093207E+04  0.25500000920E-02 0.  1.
       -2   -1    0    0    0  501  0.00000000000E+00  0.00000000000E+00 -0.36809287943E+02  0.36809288031E+02  0.25500000920E-02 0. -1.
    10030    2    1    2    0    0  0.00000000000E+00  0.00000000000E+00  0.16639000327E+04  0.17375186087E+04  0.50040743068E+03 0.  0.
        1    1    3    3  502    0 -0.11535864649E+03  0.17843654841E+03  0.37321524486E+03  0.42946110202E+03  0.50400001928E-02 0.  1.
       -1    1    3    3    0  502  0.11535864649E+03 -0.17843654841E+03  0.12906847879E+04  0.13080575067E+04  0.50400001928E-02 0. -1.
</event>
<event>
 5   0  0.4884478E-02  0.4966391E+03  0.7818609E-02  0.1014660E+00
        1   -1    0    0  501    0  0.00000000000E+00  0.00000000000E+00  0.69166345288E+03  0.69166345290E+03  0.50400001928E-02 0. -1.
       -1   -1    0    0    0  501  0.00000000000E+00  0.00000000000E+00 -0.89151161312E+02  0.89151161454E+02  0.50400001928E-02 0.  1.
    10030    2    1    2    0    0  0.00000000000E+00  0.00000000000E+00  0.60251229157E+03  0.78081461436E+03  0.49663910488E+03 0.  0.
        3    1    3    3  502    0  0.11474336526E+03  0.20333969706E+02 -0.43492968520E+02  0.12438311263E+03  0.10100000352E+00 0.  1.
       -3    1    3    3    0  502 -0.11474336526E+03 -0.20333969706E+02  0.64600526009E+03  0.65643150173E+03  0.10100000352E+00 0. -1.
</event>
<event>
 5   0  0.4884478E-02  0.5066085E+03  0.7818609E-02  0.1012068E+00
       -1   -1    0    0    0  501  0.00000000000E+00  0.00000000000E+00  0.20116245712E+04  0.20116245712E+04  0.50400001928E-02 0. -1.
        1   -1    0    0  501    0  0.00000000000E+00  0.00000000000E+00 -0.31896128747E+02  0.31896129146E+02  0.50400001928E-02 0.  1.
    10030    2    1    2    0    0  0.00000000000E+00  0.00000000000E+00  0.19797284425E+04  0.20435207004E+04  0.50660847497E+03 0.  0.
        3    1    3    3  502    0  0.10166863254E+03 -0.17354709760E+03  0.36877595770E+03  0.42006049934E+03  0.10100000352E+00 0.  1.
       -3    1    3    3    0  502 -0.10166863254E+03  0.17354709760E+03  0.16109524848E+04  0.16234602010E+04  0.10100000352E+00 0. -1.
</event>
<event>
 5   0  0.3210875E-02  0.5004274E+03  0.7818609E-02  0.1013667E+00
       -3   -1    0    0    0  501  0.00000000000E+00  0.00000000000E+00  0.22470140998E+03  0.22470143268E+03  0.10100000352E+00 0. -1.
        3   -1    0    0  501    0  0.00000000000E+00  0.00000000000E+00 -0.27862260256E+03  0.27862262087E+03  0.10100000352E+00 0.  1.
    10030    2    1    2    0    0  0.00000000000E+00  0.00000000000E+00 -0.53921192581E+02  0.50332405355E+03  0.50042742518E+03 0.  0.
        2    1    3    3  502    0 -0.20453514260E+03 -0.14275044848E+03 -0.46939787088E+02  0.25380240093E+03  0.25500000920E-02 0.  1.
       -2    1    3    3    0  502  0.20453514260E+03  0.14275044848E+03 -0.69814054933E+01  0.24952165262E+03  0.25500000920E-02 0. -1.
</event>
<event>
 5   0  0.8208720E-02  0.5025878E+03  0.7818609E-02  0.1013106E+00
       -2   -1    0    0    0  501  0.00000000000E+00  0.00000000000E+00  0.77554106919E+02  0.77554106961E+02  0.25500000920E-02 0.  1.
        2   -1    0    0  501    0  0.00000000000E+00  0.00000000000E+00 -0.81425245636E+03  0.81425245636E+03  0.25500000920E-02 0. -1.
    10030    2    1    2    0    0  0.00000000000E+00  0.00000000000E+00 -0.73669834944E+03  0.89180656332E+03  0.50258779165E+03 0.  0.
        3    1    3    3  502    0 -0.23419150140E+03  0.91038835757E+02 -0.37519464092E+03  0.45155814434E+03  0.10100000352E+00 0.  1.
       -3    1    3    3    0  502  0.23419150140E+03 -0.91038835757E+02 -0.36150370852E+03  0.44024841898E+03  0.10100000352E+00 0. -1.
</event>
<event>
 5   0  0.5191358E-02  0.4994430E+03  0.7818609E-02  0.1013924E+00
        1   -1    0    0  501    0  0.00000000000E+00  0.00000000000E+00  0.14718913451E+03  0.14718913460E+03  0.50400001928E-02 0.  1.
       -1   -1    0    0    0  501  0.00000000000E+00  0.00000000000E+00 -0.42367821247E+03  0.42367821250E+03  0.50400001928E-02 0. -1.
    10030    2    1    2    0    0  0.00000000000E+00  0.00000000000E+00 -0.27648907796E+03  0.57086734710E+03  0.49944300751E+03 0.  0.
        4    1    3    3  502    0  0.46266940263E+02  0.16558946406E+03 -0.34524803862E+03  0.38569200333E+03  0.12699999809E+01 0. -1.
       -4    1    3    3    0  502 -0.46266940263E+02 -0.16558946406E+03  0.68758960653E+02  0.18517534377E+03  0.12699999809E+01 0.  1.
</event>
<event>
 5   0  0.7698747E-02  0.4853417E+03  0.7818609E-02  0.1017677E+00
        2   -1    0    0  501    0  0.00000000000E+00  0.00000000000E+00  0.10293298028E+04  0.10293298028E+04  0.25500000920E-02 0.  1.
       -2   -1    0    0    0  501  0.00000000000E+00  0.00000000000E+00 -0.57211139092E+02  0.57211139149E+02  0.25500000920E-02 0. -1.
    10030    2    1    2    0    0  0.00000000000E+00  0.00000000000E+00  0.97211866374E+03  0.10865409420E+04  0.48534165514E+03 0.  0.
        2    1    3    3  502    0  0.48230967405E+02 -0.44245038598E+02 -0.37078166780E+02  0.75223933131E+02  0.25500000920E-02 0. -1.
       -2    1    3    3    0  502 -0.48230967405E+02  0.44245038598E+02  0.10091968305E+04  0.10113170089E+04  0.25500000920E-02 0.  1.
</event>
<event>
 5   0  0.5191358E-02  0.4938297E+03  0.7818609E-02  0.1015402E+00
        1   -1    0    0  501    0  0.00000000000E+00  0.00000000000E+00  0.76316420936E+03  0.76316420937E+03  0.50400001928E-02 0.  1.
       -1   -1    0    0    0  501  0.00000000000E+00  0.00000000000E+00 -0.79887046704E+02  0.79887046863E+02  0.50400001928E-02 0. -1.
    10030    2    1    2    0    0  0.00000000000E+00  0.00000000000E+00  0.68327716265E+03  0.84305125624E+03  0.49382966663E+03 0.  0.
        4    1    3    3  502    0  0.49164853850E+02  0.41197215263E+01  0.75465792784E+03  0.75627002844E+03  0.12699999809E+01 0.  1.
       -4    1    3    3    0  502 -0.49164853850E+02 -0.41197215263E+01 -0.71380765188E+02  0.86781227799E+02  0.12699999809E+01 0. -1.
</event>
<event>
 5   0  0.5038436E-02  0.4941685E+03  0.7818609E-02  0.1015312E+00
       -1   -1    0    0    0  501  0.00000000000E+00  0.00000000000E+00  0.76506259315E+03  0.76506259316E+03  0.50400001928E-02 0. -1.
        1   -1    0    0  501    0  0.00000000000E+00  0.00000000000E+00 -0.79798200106E+02  0.79798200265E+02  0.50400001928E-02 0.  1.
    10030    2    1    2    0    0  0.00000000000E+00  0.00000000000E+00  0.68526439304E+03  0.84486079343E+03  0.49416846510E+03 0.  0.
        1    1    3    3  502    0  0.12695526627E+03  0.21083806996E+03  0.30516421034E+03  0.39204021054E+03  0.50400001928E-02 0.  1.
       -1    1    3    3    0  502 -0.12695526627E+03 -0.21083806996E+03  0.38010018270E+03  0.45282058289E+03  0.50400001928E-02 0. -1.
</event>
<event>
 5   0  0.4865501E-02  0.4987304E+03  0.7818609E-02  0.1014111E+00
       -1   -1    0    0    0  501  0.00000000000E+00  0.00000000000E+00  0.10020655976E+03  0.10020655989E+03  0.50400001928E-02 0.  1.
        1   -1    0    0  501    0  0.00000000000E+00  0.00000000000E+00 -0.62054812709E+03  0.62054812711E+03  0.50400001928E-02 0. -1.
    10030    2    1    2    0    0  0.00000000000E+00  0.00000000000E+00 -0.52034156733E+03  0.72075468700E+03  0.49873036016E+03 0.  0.
        2    1    3    3  502    0  0.42006917915E+02  0.23683303139E+03 -0.16509022166E+03  0.29173489198E+03  0.25500000920E-02 0.  1.
       -2    1    3    3    0  502 -0.42006917915E+02 -0.23683303139E+03 -0.35525134567E+03  0.42901979502E+03  0.25500000920E-02 0. -1.
</event>
<event>
 5   0  0.4884478E-02  0.4995551E+03  0.7818609E-02  0.1013895E+00
       -1   -1    0    0    0  501  0.00000000000E+00  0.00000000000E+00  0.46899957640E+02  0.46899957911E+02  0.50400001928E-02 0.  1.
        1   -1    0    0  501    0  0.00000000000E+00  0.00000000000E+00 -0.13302532189E+04  0.13302532189E+04  0.50400001928E-02 0. -1.
    10030    2    1    2    0    0  0.00000000000E+00  0.00000000000E+00 -0.12833532613E+04  0.13771531768E+04  0.49955508129E+03 0.  0.
        3    1    3    3  502    0  0.20886744101E+03 -0.93182784430E+02 -0.91845541911E+03  0.94650356910E+03  0.10100000352E+00 0. -1.
       -3    1    3    3    0  502 -0.20886744101E+03  0.93182784430E+02 -0.36489784217E+03  0.43064960774E+03  0.10100000352E+00 0.  1.
</event>
<event>
 5   0  0.7776070E-02  0.5009021E+03  0.7818609E-02  0.1013544E+00
        2   -1    0    0  501    0  0.00000000000E+00  0.00000000000E+00  0.19027648369E+04  0.19027648369E+04  0.25500000920E-02 0.  1.
       -2   -1    0    0    0  501  0.00000000000E+00  0.00000000000E+00 -0.32965567417E+02  0.32965567515E+02  0.25500000920E-02 0. -1.
    10030    2    1    2    0    0  0.00000000000E+00  0.00000000000E+00  0.18697992695E+04  0.19357304044E+04  0.50090207668E+03 0.  0.
        4    1    3    3  502    0 -0.74984105813E+02  0.98780028465E+02  0.94038051406E+02  0.15564343276E+03  0.12699999809E+01 0. -1.
       -4    1    3    3    0  502  0.74984105813E+02 -0.98780028465E+02  0.17757612181E+04  0.17800869717E+04  0.12699999809E+01 0.  1.
</event>
<event>
 5   0  0.7776070E-02  0.5002313E+03  0.7818609E-02  0.1013719E+00
       -2   -1    0    0    0  501  0.00000000000E+00  0.00000000000E+00  0.48497365337E+02  0.48497365404E+02  0.25500000920E-02 0. -1.
        2   -1    0    0  501    0  0.00000000000E+00  0.00000000000E+00 -0.12899224898E+04  0.12899224898E+04  0.25500000920E-02 0.  1.
    10030    2    1    2    0    0  0.00000000000E+00  0.00000000000E+00 -0.12414251245E+04  0.13384198552E+04  0.50023131566E+03 0.  0.
        4    1    3    3  502    0 -0.24256265968E+03  0.29790869511E+02 -0.76310108693E+03  0.80127961508E+03  0.12699999809E+01 0.  1.
       -4    1    3    3    0  502  0.24256265968E+03 -0.29790869511E+02 -0.47832403752E+03  0.53714024011E+03  0.12699999809E+01 0. -1.
</event>
<event>
 5   0  0.4865501E-02  0.5006857E+03  0.7818609E-02  0.1013600E+00
       -1   -1    0    0    0  501  0.00000000000E+00  0.00000000000E+00  0.66711742088E+02  0.66711742279E+02  0.50400001928E-02 0.  1.
        1   -1    0    0  501    0  0.00000000000E+00  0.00000000000E+00 -0.93943799452E+03  0.93943799453E+03  0.50400001928E-02 0. -1.
    10030    2    1    2    0    0  0.00000000000E+00  0.00000000000E+00 -0.87272625243E+03  0.10061497368E+04  0.50068571100E+03 0.  0.
        2    1    3    3  502    0  0.15809298392E+03 -0.19393462989E+03 -0.45287480831E+03  0.51739696969E+03  0.25500000920E-02 0. -1.
       -2    1    3    3    0  502 -0.15809298392E+03  0.19393462989E+03 -0.41985144412E+03  0.48875276712E+03  0.25500000920E-02 0.  1.
</event>
<event>
 5   0  0.7776070E-02  0.4991530E+03  0.7818609E-02  0.1014000E+00
       -2   -1    0    0    0  501  0.00000000000E+00  0.00000000000E+00  0.86483195432E+02  0.86483195469E+02  0.25500000920E-02 0. -1.
        2   -1    0    0  501    0  0.00000000000E+00  0.00000000000E+00 -0.72023730051E+03  0.72023730051E+03  0.25500000920E-02 0.  1.
    10030    2    1    2    0    0  0.00000000000E+00  0.00000000000E+00 -0.63375410508E+03  0.80672049598E+03  0.49915297549E+03 0.  0.
        4    1    3    3  502    0  0.60717137749E+02  0.23465380611E+03 -0.41300683415E+03  0.47887914706E+03  0.12699999809E+01 0.  1.
       -4    1    3    3    0  502 -0.60717137749E+02 -0.23465380611E+03 -0.22074727093E+03  0.32784134892E+03  0.12699999809E+01 0. -1.
</event>
<event>
 5   0  0.7881060E-02  0.5009888E+03  0.7818609E-02  0.1013521E+00
       -2   -1    0    0    0  501  0.00000000000E+00  0.00000000000E+00  0.22913268657E+03  0.22913268659E+03  0.25500000920E-02 0.  1.
        2   -1    0    0  501    0  0.00000000000E+00  0.00000000000E+00 -0.27384766430E+03  0.27384766431E+03  0.25500000920E-02 0. -1.
    10030    2    1    2    0    0  0.00000000000E+00  0.00000000000E+00 -0.44714977728E+02  0.50298035090E+03  0.50098882638E+03 0.  0.
        1    1    3    3  502    0 -0.24508507853E+03 -0.35721332441E+02 -0.59986362452E+02  0.25483538415E+03  0.50400001928E-02 0.  1.
       -1    1    3    3    0  502  0.24508507853E+03  0.35721332441E+02  0.15271384724E+02  0.24814496675E+03  0.50400001928E-02 0. -1.
</event>
<event>
 5   0  0.3210875E-02  0.5016122E+03  0.7818609E-02  0.1013359E+00
        3   -1    0    0  501    0  0.00000000000E+00  0.00000000000E+00  0.15961092701E+04  0.15961092733E+04  0.10100000352E+00 0. -1.
       -3   -1    0    0    0  501  0.00000000000E+00  0.00000000000E+00 -0.39410587246E+02  0.39410716665E+02  0.10100000352E+00 0.  1.
    10030    2    1    2    0    0  0.00000000000E+00  0.00000000000E+00  0.15566986829E+04  0.16355199900E+04  0.50161224902E+03 0.  0.
        1    1    3    3  502    0  0.58696797226E+02 -0.21140254729E+03  0.11745718746E+04  0.11948872079E+04  0.50400001928E-02 0. -1.
       -1    1    3    3    0  502 -0.58696797226E+02  0.21140254729E+03  0.38212680825E+03  0.44063278204E+03  0.50400001928E-02 0.  1.
</event>
<event>
 5   0  0.7776070E-02  0.5024387E+03  0.7818609E-02  0.1013144E+00
       -2   -1    0    0    0  501  0.00000000000E+00  0.00000000000E+00  0.11228517153E+03  0.11228517156E+03  0.25500000920E-02 0.  1.
        2   -1    0    0  501    0  0.00000000000E+00  0.00000000000E+00 -0.56206138838E+03  0.56206138839E+03  0.25500000920E-02 0. -1.
    10030    2    1    2    0    0  0.00000000000E+00  0.00000000000E+00 -0.44977621685E+03  0.67434655995E+03  0.50243869046E+03 0.  0.
        4    1    3    3  502    0  0.24635267651E+03 -0.11551482080E+02 -0.28906559253E+03  0.37997843051E+03  0.12699999809E+01 0. -1.
       -4    1    3    3    0  502 -0.24635267651E+03  0.11551482080E+02 -0.16071062432E+03  0.29436812945E+03  0.12699999809E+01 0.  1.
</event>
<event>
 5   0  0.4884478E-02  0.4918722E+03  0.7818609E-02  0.1015922E+00
       -1   -1    0    0    0  501  0.00000000000E+00  0.00000000000E+00  0.38026775205E+03  0.38026775208E+03  0.50400001928E-02 0. -1.
        1   -1    0    0  501    0  0.00000000000E+00  0.00000000000E+00 -0.15905782165E+03  0.15905782172E+03  0.50400001928E-02 0.  1.
    10030    2    1    2    0    0  0.00000000000E+00  0.00000000000E+00  0.22120993040E+03  0.53932557380E+03  0.49187217979E+03 0.  0.
        3    1    3    3  502    0  0.14047423480E+03 -0.76325239117E+02 -0.94309757599E+02  0.18561490605E+03  0.10100000352E+00 0.  1.
       -3    1    3    3    0  502 -0.14047423480E+03  0.76325239117E+02  0.31551968800E+03  0.35371066776E+03  0.10100000352E+00 0. -1.
</event>
<event>
 5   0  0.7933103E-02  0.4987483E+03  0.7818609E-02  0.1014106E+00
        2   -1    0    0  501    0  0.00000000000E+00  0.00000000000E+00  0.10458021032E+03  0.10458021035E+03  0.25500000920E-02 0.  1.
       -2   -1    0    0    0  501  0.00000000000E+00  0.00000000000E+00 -0.59463903566E+03  0.59463903566E+03  0.25500000920E-02 0. -1.
    10030    2    1    2    0    0  0.00000000000E+00  0.00000000000E+00 -0.49005882534E+03  0.69921924602E+03  0.49874833505E+03 0.  0.
        5    1    3    3  502    0 -0.78762730030E+01  0.22969233537E+03 -0.10950533048E+03  0.25462543471E+03  0.46999998093E+01 0.  1.
       -5    1    3    3    0  502  0.78762730030E+01 -0.22969233537E+03 -0.38055349486E+03  0.44459381130E+03  0.46999998093E+01 0. -1.
</event>
<event>
 5   0  0.4884478E-02  0.5037843E+03  0.7818609E-02  0.1012796E+00
        1   -1    0    0  501    0  0.00000000000E+00  0.00000000000E+00  0.82346917782E+03  0.82346917784E+03  0.50400001928E-02 0. -1.
       -1   -1    0    0    0  501  0.00000000000E+00  0.00000000000E+00 -0.77051648785E+02  0.77051648950E+02  0.50400001928E-02 0.  1.
    10030    2    1    2    0    0  0.00000000000E+00  0.00000000000E+00  0.74641752904E+03  0.90052082679E+03  0.50378431082E+03 0.  0.
        3    1    3    3  502    0  0.23264285265E+03 -0.35451465043E+02  0.53378814515E+03  0.58336034950E+03  0.10100000352E+00 0. -1.
       -3    1    3    3    0  502 -0.23264285265E+03  0.35451465043E+02  0.21262938389E+03  0.31716047729E+03  0.10100000352E+00 0.  1.
</event>
<event>
 5   0  0.4884478E-02  0.4618371E+03  0.7818609E-02  0.1024250E+00
        1   -1    0    0  501    0  0.00000000000E+00  0.00000000000E+00  0.65681876047E+03  0.65681876049E+03  0.50400001928E-02 0. -1.
       -1   -1    0    0    0  501  0.00000000000E+00  0.00000000000E+00 -0.81184324438E+02  0.81184324594E+02  0.50400001928E-02 0.  1.
    10030    2    1    2    0    0  0.00000000000E+00  0.00000000000E+00  0.57563443604E+03  0.73800308509E+03  0.46183714624E+03 0.  0.
        3    1    3    3  502    0  0.23535470875E+02  0.22962245910E+03  0.27734042689E+03  0.36082975861E+03  0.10100000352E+00 0.  1.
       -3    1    3    3    0  502 -0.23535470875E+02 -0.22962245910E+03  0.29829400914E+03  0.37717332647E+03  0.10100000352E+00 0. -1.
</event>
<event>
 5   0  0.8208720E-02  0.5269688E+03  0.7818609E-02  0.1006970E+00
       -2   -1    0    0    0  501  0.00000000000E+00  0.00000000000E+00  0.32431983316E+02  0.32431983416E+02  0.25500000920E-02 0.  1.
        2   -1    0    0  501    0  0.00000000000E+00  0.00000000000E+00 -0.21406038326E+04  0.21406038326E+04  0.25500000920E-02 0. -1.
    10030    2    1    2    0    0  0.00000000000E+00  0.00000000000E+00 -0.21081718493E+04  0.21730358160E+04  0.52696879564E+03 0.  0.
        3    1    3    3  502    0 -0.17035848401E+02  0.81367844533E+02 -0.23065179315E+02  0.86272585173E+02  0.10100000352E+00 0.  1.
       -3    1    3    3    0  502  0.17035848401E+02 -0.81367844533E+02 -0.20851066699E+04  0.20867632308E+04  0.10100000352E+00 0. -1.
</event>
<event>
 5   0  0.3210875E-02  0.4927478E+03  0.7818609E-02  0.1015689E+00
        3   -1    0    0  501    0  0.00000000000E+00  0.00000000000E+00  0.42326543351E+03  0.42326544556E+03  0.10100000352E+00 0.  1.
       -3   -1    0    0    0  501  0.00000000000E+00  0.00000000000E+00 -0.14340900612E+03  0.14340904168E+03  0.10100000352E+00 0. -1.
    10030    2    1    2    0    0  0.00000000000E+00  0.00000000000E+00  0.27985642739E+03  0.56667448724E+03  0.49274775955E+03 0.  0.
        3    1    3    3  502    0 -0.18263993972E+03  0.15299203883E+03  0.21207977861E+03  0.31896983277E+03  0.10100000352E+00 0.  1.
       -3    1    3    3    0  502  0.18263993972E+03 -0.15299203883E+03  0.67776648786E+02  0.24770465447E+03  0.10100000352E+00 0. -1.
</event>
<event>
 5   0  0.5038436E-02  0.5010292E+03  0.7818609E-02  0.1013511E+00
       -1   -1    0    0    0  501  0.00000000000E+00  0.00000000000E+00  0.17589834756E+03  0.17589834764E+03  0.50400001928E-02 0. -1.
        1   -1    0    0  501    0  0.00000000000E+00  0.00000000000E+00 -0.35678319039E+03  0.35678319043E+03  0.50400001928E-02 0.  1.
    10030    2    1    2    0    0  0.00000000000E+00  0.00000000000E+00 -0.18088484283E+03  0.53268153807E+03  0.50102923531E+03 0.  0.
        1    1    3    3  502    0 -0.40974656530E+02 -0.15653438964E+03  0.11288713846E+03  0.19729532095E+03  0.50400001928E-02 0. -1.
       -1    1    3    3    0  502  0.40974656530E+02  0.15653438964E+03 -0.29377198128E+03  0.33538621711E+03  0.50400001928E-02 0.  1.
</event>
<event>
 5   0  0.5191358E-02  0.5005265E+03  0.7818609E-02  0.1013642E+00
        1   -1    0    0  501    0  0.00000000000E+00  0.00000000000E+00  0.26882442134E+03  0.26882442139E+03  0.50400001928E-02 0. -1.
       -1   -1    0    0    0  501  0.00000000000E+00  0.00000000000E+00 -0.23298368151E+03  0.23298368157E+03  0.50400001928E-02 0.  1.
    10030    2    1    2    0    0  0.00000000000E+00  0.00000000000E+00  0.35840739828E+02  0.50180810296E+03  0.50052653632E+03 0.  0.
        4    1    3    3  502    0  0.22822907270E+03  0.34566608684E+02 -0.79005659256E+02  0.24398128444E+03  0.12699999809E+01 0.  1.
       -4    1    3    3    0  502 -0.22822907270E+03 -0.34566608684E+02  0.11484639908E+03  0.25782681852E+03  0.12699999809E+01 0. -1.
</event>
<event>
 5   0  0.4803890E-02  0.5014064E+03  0.7818609E-02  0.1013412E+00
       -1   -1    0    0    0  501  0.00000000000E+00  0.00000000000E+00  0.10911738529E+03  0.10911738541E+03  0.50400001928E-02 0. -1.
        1   -1    0    0  501    0  0.00000000000E+00  0.00000000000E+00 -0.57600433830E+03  0.57600433832E+03  0.50400001928E-02 0.  1.
    10030    2    1    2    0    0  0.00000000000E+00  0.00000000000E+00 -0.46688695301E+03  0.68512172373E+03  0.50140637155E+03 0.  0.
        5    1    3    3  502    0 -0.18998549599E+03 -0.10696684580E+03 -0.40242249764E+03  0.45771426828E+03  0.46999998093E+01 0.  1.
       -5    1    3    3    0  502  0.18998549599E+03  0.10696684580E+03 -0.64464455377E+02  0.22740745545E+03  0.46999998093E+01 0. -1.
</event>
<event>
 5   0  0.3210875E-02  0.4980218E+03  0.7818609E-02  0.1014297E+00
       -3   -1    0    0    0  501  0.00000000000E+00  0.00000000000E+00  0.16487347593E+03  0.16487350686E+03  0.10100000352E+00 0.  1.
        3   -1    0    0  501    0  0.00000000000E+00  0.00000000000E+00 -0.37608486395E+03  0.37608487751E+03  0.10100000352E+00 0. -1.
    10030    2    1    2    0    0  0.00000000000E+00  0.00000000000E+00 -0.21121138803E+03  0.54095838438E+03  0.49802180996E+03 0.  0.
        3    1    3    3  502    0  0.15923616161E+03 -0.65438680024E+02 -0.30102781652E+03  0.34677965991E+03  0.10100000352E+00 0. -1.
       -3    1    3    3    0  502 -0.15923616161E+03  0.65438680024E+02  0.89816428490E+02  0.19417872447E+03  0.10100000352E+00 0.  1.
</event>
<event>
 5   0  0.5191358E-02  0.4993968E+03  0.7818609E-02  0.1013936E+00
        1   -1    0    0  501    0  0.00000000000E+00  0.00000000000E+00  0.15712677633E+03  0.15712677641E+03  0.50400001928E-02 0. -1.
       -1   -1    0    0    0  501  0.00000000000E+00  0.00000000000E+00 -0.39680885279E+03  0.39680885282E+03  0.50400001928E-02 0.  1.
    10030    2    1    2    0    0  0.00000000000E+00  0.00000000000E+00 -0.23968207645E+03  0.55393562923E+03  0.49939681973E+03 0.  0.
        4    1    3    3  502    0 -0.99114410787E+01 -0.12583917642E+03 -0.35880795670E+03  0.38036626780E+03  0.12699999809E+01 0.  1.
       -4    1    3    3    0  502  0.99114410787E+01  0.12583917642E+03  0.11912588025E+03  0.17356936144E+03  0.12699999809E+01 0. -1.
</event>
<event>
 5   0  0.5038436E-02  0.5015497E+03  0.7818609E-02  0.1013375E+00
       -1   -1    0    0    0  501  0.00000000000E+00  0.00000000000E+00  0.38723880436E+03  0.38723880439E+03  0.50400001928E-02 0.  1.
        1   -1    0    0  501    0  0.00000000000E+00  0.00000000000E+00 -0.16240112672E+03  0.16240112680E+03  0.50400001928E-02 0. -1.
    10030    2    1    2    0    0  0.00000000000E+00  0.00000000000E+00  0.22483767763E+03  0.54963993119E+03  0.50154967119E+03 0.  0.
        1    1    3    3  502    0  0.14230502793E+03  0.65933454599E+02 -0.10202197408E+03  0.18710003910E+03  0.50400001928E-02 0. -1.
       -1    1    3    3    0  502 -0.14230502793E+03 -0.65933454599E+02  0.32685965172E+03  0.36253989209E+03  0.50400001928E-02 0.  1.
</event>
<event>
 5   0  0.7776070E-02  0.5051254E+03  0.7818609E-02  0.1012450E+00
        2   -1    0    0  501    0  0.00000000000E+00  0.00000000000E+00  0.21506958813E+03  0.21506958815E+03  0.25500000920E-02 0.  1.
       -2   -1    0    0    0  501  0.00000000000E+00  0.00000000000E+00 -0.29659202149E+03  0.29659202150E+03  0.25500000920E-02 0. -1.
    10030    2    1    2    0    0  0.00000000000E+00  0.00000000000E+00 -0.81522433362E+02  0.51166160965E+03  0.50512542566E+03 0.  0.
        4    1    3    3  502    0 -0.22641442840E+03  0.11179629130E+03 -0.45765474614E+02  0.25662812727E+03  0.12699999809E+01 0. -1.
       -4    1    3    3    0  502  0.22641442840E+03 -0.11179629130E+03 -0.35756958748E+02  0.25503348238E+03  0.12699999809E+01 0.  1.
</event>
<event>
 5   0  0.5191358E-02  0.4984823E+03  0.7818609E-02  0.1014176E+00
        1   -1    0    0  501    0  0.00000000000E+00  0.00000000000E+00  0.44086650645E+03  0.44086650648E+03  0.50400001928E-02 0. -1.
       -1   -1    0    0    0  501  0.00000000000E+00  0.00000000000E+00 -0.14090695392E+03  0.14090695401E+03  0.50400001928E-02 0.  1.
    10030    2    1    2    0    0  0.00000000000E+00  0.00000000000E+00  0.29995955253E+03  0.58177346048E+03  0.49848232282E+03 0.  0.
        4    1    3    3  502    0 -0.95151063472E+01  0.62785838753E+02  0.43126272813E+03  0.43591484532E+03  0.12699999809E+01 0. -1.
       -4    1    3    3    0  502  0.95151063472E+01 -0.62785838753E+02 -0.13130317560E+03  0.14585861517E+03  0.12699999809E+01 0.  1.
</event>
<event>
 5   0  0.5191358E-02  0.4903344E+03  0.7818609E-02  0.1016333E+00
       -1   -1    0    0    0  501  0.00000000000E+00  0.00000000000E+00  0.11676408316E+03  0.11676408327E+03  0.50400001928E-02 0. -1.
        1   -1    0    0  501    0  0.00000000000E+00  0.00000000000E+00 -0.51477254092E+03  0.51477254095E+03  0.50400001928E-02 0.  1.
    10030    2    1    2    0    0  0.00000000000E+00  0.00000000000E+00 -0.39800845776E+03  0.63153662422E+03  0.49033435050E+03 0.  0.
        4    1    3    3  502    0  0.16411270322E+03  0.18695623775E+01 -0.43357369036E+03  0.46359921537E+03  0.12699999809E+01 0.  1.
       -4    1    3    3    0  502 -0.16411270322E+03 -0.18695623775E+01  0.35565232595E+02  0.16793740885E+03  0.12699999809E+01 0. -1.
</event>
<event>
 5   0  0.4884478E-02  0.4993963E+03  0.7818609E-02  0.1013937E+00
       -1   -1    0    0    0  501  0.00000000000E+00  0.00000000000E+00  0.17587716751E+03  0.17587716758E+03  0.50400001928E-02 0. -1.
        1   -1    0    0  501    0  0.00000000000E+00  0.00000000000E+00 -0.35450406600E+03  0.35450406603E+03  0.50400001928E-02 0.  1.
    10030    2    1    2    0    0  0.00000000000E+00  0.00000000000E+00 -0.17862689849E+03  0.53038123362E+03  0.49939631968E+03 0.  0.
        3    1    3    3  502    0  0.24481256787E+03  0.37132760401E+01 -0.14136641711E+03  0.28272151650E+03  0.10100000352E+00 0.  1.
       -3    1    3    3    0  502 -0.24481256787E+03 -0.37132760401E+01 -0.37260481378E+02  0.24765971711E+03  0.10100000352E+00 0. -1.
</event>
<event>
 5   0  0.4884478E-02  0.5029446E+03  0.7818609E-02  0.1013013E+00
        1   -1    0    0  501    0  0.00000000000E+00  0.00000000000E+00  0.52380465958E+03  0.52380465960E+03  0.50400001928E-02 0. -1.
       -1   -1    0    0    0  501  0.00000000000E+00  0.00000000000E+00 -0.12072879901E+03  0.12072879911E+03  0.50400001928E-02 0.  1.
    10030    2    1    2    0    0  0.00000000000E+00  0.00000000000E+00  0.40307586057E+03  0.64453345871E+03  0.50294455959E+03 0.  0.
        3    1    3    3  502    0 -0.21931690824E+03 -0.70529492913E+02  0.72339484403E+02  0.24146910116E+03  0.10100000352E+00 0.  1.
       -3    1    3    3    0  502  0.21931690824E+03  0.70529492913E+02  0.33073637617E+03  0.40306435756E+03  0.10100000352E+00 0. -1.
</event>
<event>
 5   0  0.3210875E-02  0.5008623E+03  0.7818609E-02  0.1013554E+00
        3   -1    0    0  501    0  0.00000000000E+00  0.00000000000E+00  0.21922123767E+03  0.21922126094E+03  0.10100000352E+00 0.  1.
       -3   -1    0    0    0  501  0.00000000000E+00  0.00000000000E+00 -0.28608427577E+03  0.28608429360E+03  0.10100000352E+00 0. -1.
    10030    2    1    2    0    0  0.00000000000E+00  0.00000000000E+00 -0.66863038093E+02  0.50530555454E+03  0.50086229403E+03 0.  0.
        1    1    3    3  502    0  0.13482895825E+03  0.11433586312E+03 -0.21238668148E+03  0.27633248103E+03  0.50400001928E-02 0. -1.
       -1    1    3    3    0  502 -0.13482895825E+03 -0.11433586312E+03  0.14552364339E+03  0.22897307350E+03  0.50400001928E-02 0.  1.
</event>
<event>
 5   0  0.7776070E-02  0.5000864E+03  0.7818609E-02  0.1013756E+00
        2   -1    0    0  501    0  0.00000000000E+00  0.00000000000E+00  0.85462649586E+03  0.85462649586E+03  0.25500000920E-02 0.  1.
       -2   -1    0    0    0  501  0.00000000000E+00  0.00000000000E+00 -0.73156640935E+02  0.73156640980E+02  0.25500000920E-02 0. -1.
    10030    2    1    2    0    0  0.00000000000E+00  0.00000000000E+00  0.78146985492E+03  0.92778313684E+03  0.50008640739E+03 0.  0.
        4    1    3    3  502    0 -0.18160215411E+03  0.12686531560E+03  0.17560769216E+03  0.28269033434E+03  0.12699999809E+01 0. -1.
       -4    1    3    3    0  502  0.18160215411E+03 -0.12686531560E+03  0.60586216276E+03  0.64509280251E+03  0.12699999809E+01 0.  1.
</event>
<event>
 5   0  0.4865501E-02  0.4972686E+03  0.7818609E-02  0.1014494E+00
       -1   -1    0    0    0  501  0.00000000000E+00  0.00000000000E+00  0.19206556516E+03  0.19206556522E+03  0.50400001928E-02 0. -1.
        1   -1    0    0  501    0  0.00000000000E+00  0.00000000000E+00 -0.32186410784E+03  0.32186410788E+03  0.50400001928E-02 0.  1.
    10030    2    1    2    0    0  0.00000000000E+00  0.00000000000E+00 -0.12979854268E+03  0.51392967311E+03  0.49726858660E+03 0.  0.
        2    1    3    3  502    0 -0.70931023482E+02  0.73694969791E+01  0.18126919918E+03  0.19479230517E+03  0.25500000920E-02 0. -1.
       -2    1    3    3    0  502  0.70931023482E+02 -0.73694969791E+01 -0.31106774186E+03  0.31913736793E+03  0.25500000920E-02 0.  1.
</event>
<event>
 5   0  0.5191358E-02  0.5012613E+03  0.7818609E-02  0.1013450E+00
        1   -1    0    0  501    0  0.00000000000E+00  0.00000000000E+00  0.82630257349E+03  0.82630257350E+03  0.50400001928E-02 0. -1.
       -1   -1    0    0    0  501  0.00000000000E+00  0.00000000000E+00 -0.76020239357E+02  0.76020239524E+02  0.50400001928E-02 0.  1.
    10030    2    1    2    0    0  0.00000000000E+00  0.00000000000E+00  0.75028233413E+03  0.90232281303E+03  0.50126128716E+03 0.  0.
        4    1    3    3  502    0  0.45358148226E+02  0.17343208904E+03  0.69043224904E+03  0.71332626093E+03  0.12699999809E+01 0. -1.
       -4    1    3    3    0  502 -0.45358148226E+02 -0.17343208904E+03  0.59850085093E+02  0.18899655210E+03  0.12699999809E+01 0.  1.
</event>
<event>
 5   0  0.7776070E-02  0.4870275E+03  0.7818609E-02  0.1017221E+00
       -2   -1    0    0    0  501  0.00000000000E+00  0.00000000000E+00  0.11975522641E+03  0.11975522644E+03  0.25500000920E-02 0.  1.
        2   -1    0    0  501    0  0.00000000000E+00  0.00000000000E+00 -0.49516791059E+03  0.49516791060E+03  0.25500000920E-02 0. -1.
    10030    2    1    2    0    0  0.00000000000E+00  0.00000000000E+00 -0.37541268418E+03  0.61492313703E+03  0.48702749514E+03 0.  0.
        4    1    3    3  502    0  0.16602241900E+03  0.87890236414E+02  0.79329822676E+01  0.18802309001E+03  0.12699999809E+01 0.  1.
       -4    1    3    3    0  502 -0.16602241900E+03 -0.87890236414E+02 -0.38334566644E+03  0.42690004703E+03  0.12699999809E+01 0. -1.
</event>
<event>
 5   0  0.7933103E-02  0.5041397E+03  0.7818609E-02  0.1012704E+00
       -2   -1    0    0    0  501  0.00000000000E+00  0.00000000000E+00  0.34738984149E+02  0.34738984243E+02  0.25500000920E-02 0. -1.
        2   -1    0    0  501    0  0.00000000000E+00  0.00000000000E+00 -0.18290464987E+04  0.18290464987E+04  0.25500000920E-02 0.  1.
    10030    2    1    2    0    0  0.00000000000E+00  0.00000000000E+00 -0.17943075145E+04  0.18637854829E+04  0.50413973227E+03 0.  0.
        5    1    3    3  502    0  0.22885428128E+03  0.86368746165E+02 -0.67278485509E+03  0.71588783592E+03  0.46999998093E+01 0. -1.
       -5    1    3    3    0  502 -0.22885428128E+03 -0.86368746165E+02 -0.11215226594E+04  0.11478976470E+04  0.46999998093E+01 0.  1.
</event>
<event>
 5   0  0.5191358E-02  0.4975593E+03  0.7818609E-02  0.1014418E+00
        1   -1    0    0  501    0  0.00000000000E+00  0.00000000000E+00  0.78050326651E+03  0.78050326652E+03  0.50400001928E-02 0. -1.
       -1   -1    0    0    0  501  0.00000000000E+00  0.00000000000E+00 -0.79296676516E+02  0.79296676676E+02  0.50400001928E-02 0.  1.
    10030    2    1    2    0    0  0.00000000000E+00  0.00000000000E+00  0.70120658999E+03  0.85979994320E+03  0.49755930348E+03 0.  0.
        4    1    3    3  502    0 -0.33614074441E+02  0.24575400533E+03  0.38360673346E+03  0.45681580095E+03  0.12699999809E+01 0. -1.
       -4    1    3    3    0  502  0.33614074441E+02 -0.24575400533E+03  0.31759985653E+03  0.40298414225E+03  0.12699999809E+01 0.  1.
</event>
<event>
 5   0  0.7776070E-02  0.5004720E+03  0.7818609E-02  0.1013656E+00
        2   -1    0    0  501    0  0.00000000000E+00  0.00000000000E+00  0.29178560574E+04  0.29178560574E+04  0.25500000920E-02 0.  1.
       -2   -1    0    0    0  501  0.00000000000E+00  0.00000000000E+00 -0.21460298309E+02  0.21460298461E+02  0.25500000920E-02 0. -1.
    10030    2    1    2    0    0  0.00000000000E+00  0.00000000000E+00  0.28963957591E+04  0.29393163558E+04  0.50047202375E+03 0.  0.
        4    1    3    3  502    0 -0.65243005525E+02 -0.14074848132E+03  0.26013240380E+04  0.26059461138E+04  0.12699999809E+01 0.  1.
       -4    1    3    3    0  502  0.65243005525E+02  0.14074848132E+03  0.29507172109E+03  0.33337024200E+03  0.12699999809E+01 0. -1.
</event>
<event>
 5   0  0.8208720E-02  0.4980662E+03  0.7818609E-02  0.1014285E+00
       -2   -1    0    0    0  501  0.00000000000E+00  0.00000000000E+00  0.12058463015E+03  0.12058463017E+03  0.25500000920E-02 0. -1.
        2   -1    0    0  501    0  0.00000000000E+00  0.00000000000E+00 -0.51430680020E+03  0.51430680021E+03  0.25500000920E-02 0.  1.
    10030    2    1    2    0    0  0.00000000000E+00  0.00000000000E+00 -0.39372217006E+03  0.63489143038E+03  0.49806624176E+03 0.  0.
        3    1    3    3  502    0  0.11032076954E+03 -0.15433632513E+03  0.87873201137E+01  0.18991471939E+03  0.10100000352E+00 0. -1.
       -3    1    3    3    0  502 -0.11032076954E+03  0.15433632513E+03 -0.40250949017E+03  0.44497671099E+03  0.10100000352E+00 0.  1.
</event>
<event>
 5   0  0.4803890E-02  0.5006178E+03  0.7818609E-02  0.1013618E+00
        1   -1    0    0  501    0  0.00000000000E+00  0.00000000000E+00  0.10108488872E+04  0.10108488872E+04  0.50400001928E-02 0.  1.
       -1   -1    0    0    0  501  0.00000000000E+00  0.00000000000E+00 -0.61982098517E+02  0.61982098722E+02  0.50400001928E-02 0. -1.
    10030    2    1    2    0    0  0.00000000000E+00  0.00000000000E+00  0.94886678866E+03  0.10728309859E+04  0.50061776008E+03 0.  0.
        5    1    3    3  502    0 -0.14744467246E+02 -0.62113608002E+02  0.99301160422E+03  0.99507267862E+03  0.46999998093E+01 0.  1.
       -5    1    3    3    0  502  0.14744467246E+02  0.62113608002E+02 -0.44144815564E+02  0.77758307291E+02  0.46999998093E+01 0. -1.
</event>
<event>
 5   0  0.7698747E-02  0.5030213E+03  0.7818609E-02  0.1012993E+00
        2   -1    0    0  501    0  0.00000000000E+00  0.00000000000E+00  0.45654782759E+03  0.45654782759E+03  0.25500000920E-02 0. -1.
       -2   -1    0    0    0  501  0.00000000000E+00  0.00000000000E+00 -0.13855633695E+03  0.13855633698E+03  0.25500000920E-02 0.  1.
    10030    2    1    2    0    0  0.00000000000E+00  0.00000000000E+00  0.31799149063E+03  0.59510416457E+03  0.50302125062E+03 0.  0.
        2    1    3    3  502    0 -0.63386203043E+02 -0.71354977569E+02 -0.11629960345E+03  0.15044913203E+03  0.25500000920E-02 0.  1.
       -2    1    3    3    0  502  0.63386203043E+02  0.71354977569E+02  0.43429109408E+03  0.44465503254E+03  0.25500000920E-02 0. -1.
</event>
<event>
 5   0  0.4803890E-02  0.4976611E+03  0.7818609E-02  0.1014391E+00
        1   -1    0    0  501    0  0.00000000000E+00  0.00000000000E+00  0.56867347439E+03  0.56867347441E+03  0.50400001928E-02 0. -1.
       -1   -1    0    0    0  501  0.00000000000E+00  0.00000000000E+00 -0.10887906125E+03  0.10887906137E+03  0.50400001928E-02 0.  1.
    10030    2    1    2    0    0  0.00000000000E+00  0.00000000000E+00  0.45979441314E+03  0.67755253578E+03  0.49766106578E+03 0.  0.
        5    1    3    3  502    0  0.83413193851E+02  0.18672445784E+03  0.42277899267E+03  0.46966791534E+03  0.46999998093E+01 0. -1.
       -5    1    3    3    0  502 -0.83413193851E+02 -0.18672445784E+03  0.37015420471E+02  0.20788462044E+03  0.46999998093E+01 0.  1.
</event>
<event>
 5   0  0.7698747E-02  0.5018884E+03  0.7818609E-02  0.1013287E+00
        2   -1    0    0  501    0  0.00000000000E+00  0.00000000000E+00  0.12247409178E+04  0.12247409178E+04  0.25500000920E-02 0. -1.
       -2   -1    0    0    0  501  0.00000000000E+00  0.00000000000E+00 -0.51417388944E+02  0.51417389007E+02  0.25500000920E-02 0.  1.
    10030    2    1    2    0    0  0.00000000000E+00  0.00000000000E+00  0.11733235288E+04  0.12761583068E+04  0.50188835479E+03 0.  0.
        2    1    3    3  502    0  0.94677102580E+02  0.22352165584E+03  0.42489849912E+03  0.48935101813E+03  0.25500000920E-02 0.  1.
       -2    1    3    3    0  502 -0.94677102580E+02 -0.22352165584E+03  0.74842502972E+03  0.78680728867E+03  0.25500000920E-02 0. -1.
</event>
<event>
 5   0  0.4884478E-02  0.5034036E+03  0.7818609E-02  0.1012894E+00
       -1   -1    0    0    0  501  0.00000000000E+00  0.00000000000E+00  0.10561328927E+03  0.10561328939E+03  0.50400001928E-02 0. -1.
        1   -1    0    0  501    0  0.00000000000E+00  0.00000000000E+00 -0.59986579977E+03  0.59986579979E+03  0.50400001928E-02 0.  1.
    10030    2    1    2    0    0  0.00000000000E+00  0.00000000000E+00 -0.49425251050E+03  0.70547908919E+03  0.50340361654E+03 0.  0.
        3    1    3    3  502    0  0.21194431394E+03 -0.11986200473E+03 -0.15775906997E+03  0.29012967230E+03  0.10100000352E+00 0. -1.
       -3    1    3    3    0  502 -0.21194431394E+03  0.11986200473E+03 -0.33649344053E+03  0.41534941689E+03  0.10100000352E+00 0.  1.
</event>
<event>
 5   0  0.8208720E-02  0.5041825E+03  0.7818609E-02  0.1012693E+00
        2   -1    0    0  501    0  0.00000000000E+00  0.00000000000E+00  0.12721002016E+04  0.12721002016E+04  0.25500000920E-02 0.  1.
       -2   -1    0    0    0  501  0.00000000000E+00  0.00000000000E+00 -0.49956757462E+02  0.49956757527E+02  0.25500000920E-02 0. -1.
    10030    2    1    2    0    0  0.00000000000E+00  0.00000000000E+00  0.12221434442E+04  0.13220569591E+04  0.50418251173E+03 0.  0.
        3    1    3    3  502    0 -0.38658144855E+02  0.23051440019E+03  0.85870668130E+03  0.88994860277E+03  0.10100000352E+00 0.  1.
       -3    1    3    3    0  502  0.38658144855E+02 -0.23051440019E+03  0.36343676285E+03  0.43210835637E+03  0.10100000352E+00 0. -1.
</event>
<event>
 5   0  0.4865501E-02  0.5034468E+03  0.7818609E-02  0.1012883E+00
       -1   -1    0    0    0  501  0.00000000000E+00  0.00000000000E+00  0.40163803985E+02  0.40163804301E+02  0.50400001928E-02 0.  1.
        1   -1    0    0  501    0  0.00000000000E+00  0.00000000000E+00 -0.15776563169E+04  0.15776563169E+04  0.50400001928E-02 0. -1.
    10030    2    1    2    0    0  0.00000000000E+00  0.00000000000E+00 -0.15374925129E+04  0.16178201212E+04  0.50344683663E+03 0.  0.
        2    1    3    3  502    0 -0.21956519614E+02 -0.28288022800E+02  0.31937078203E+02  0.47982058710E+02  0.25500000920E-02 0.  1.
       -2    1    3    3    0  502  0.21956519614E+02  0.28288022800E+02 -0.15694295911E+04  0.15698380625E+04  0.25500000920E-02 0. -1.
</event>
<event>
 5   0  0.5038436E-02  0.4994521E+03  0.7818609E-02  0.1013922E+00
       -1   -1    0    0    0  501  0.00000000000E+00  0.00000000000E+00  0.65194038084E+02  0.65194038279E+02  0.50400001928E-02 0.  1.
        1   -1    0    0  501    0  0.00000000000E+00  0.00000000000E+00 -0.95657692054E+03  0.95657692055E+03  0.50400001928E-02 0. -1.
    10030    2    1    2    0    0  0.00000000000E+00  0.00000000000E+00 -0.89138288246E+03  0.10217709588E+04  0.49945214904E+03 0.  0.
        1    1    3    3  502    0 -0.25606469403E+02  0.70193660453E+02 -0.93317323361E+03  0.93615977546E+03  0.50400001928E-02 0. -1.
       -1    1    3    3    0  502  0.25606469403E+02 -0.70193660453E+02  0.41790351154E+02  0.85611183370E+02  0.50400001928E-02 0.  1.
</event>
<event>
 5   0  0.7698747E-02  0.5081985E+03  0.7818609E-02  0.1011661E+00
        2   -1    0    0  501    0  0.00000000000E+00  0.00000000000E+00  0.14877876527E+04  0.14877876527E+04  0.25500000920E-02 0. -1.
       -2   -1    0    0    0  501  0.00000000000E+00  0.00000000000E+00 -0.43397603169E+02  0.43397603244E+02  0.25500000920E-02 0.  1.
    10030    2    1    2    0    0  0.00000000000E+00  0.00000000000E+00  0.14443900495E+04  0.15311852559E+04  0.50819845812E+03 0.  0.
        2    1    3    3  502    0  0.14637342664E+03  0.99372983559E+00  0.96394781443E+02  0.17526585926E+03  0.25500000920E-02 0.  1.
       -2    1    3    3    0  502 -0.14637342664E+03 -0.99372983559E+00  0.13479952681E+04  0.13559193967E+04  0.25500000920E-02 0. -1.
</event>
<event>
 5   0  0.4884478E-02  0.5027396E+03  0.7818609E-02  0.1013066E+00
       -1   -1    0    0    0  501  0.00000000000E+00  0.00000000000E+00  0.18097697117E+03  0.18097697124E+03  0.50400001928E-02 0.  1.
        1   -1    0    0  501    0  0.00000000000E+00  0.00000000000E+00 -0.34914258226E+03  0.34914258230E+03  0.50400001928E-02 0. -1.
    10030    2    1    2    0    0  0.00000000000E+00  0.00000000000E+00 -0.16816561109E+03  0.53011955354E+03  0.50273956308E+03 0.  0.
        3    1    3    3  502    0  0.16917064043E+02 -0.89264932461E+02  0.16305820400E+03  0.18666119928E+03  0.10100000352E+00 0.  1.
       -3    1    3    3    0  502 -0.16917064043E+02  0.89264932461E+02 -0.33122381509E+03  0.34345835426E+03  0.10100000352E+00 0. -1.
</event>
<event>
 5   0  0.7776070E-02  0.5045062E+03  0.7818609E-02  0.1012609E+00
        2   -1    0    0  501    0  0.00000000000E+00  0.00000000000E+00  0.52485656862E+03  0.52485656862E+03  0.25500000920E-02 0. -1.
       -2   -1    0    0    0  501  0.00000000000E+00  0.00000000000E+00 -0.12123620121E+03  0.12123620124E+03  0.25500000920E-02 0.  1.
    10030    2    1    2    0    0  0.00000000000E+00  0.00000000000E+00  0.40362036740E+03  0.64609276986E+03  0.50450616080E+03 0.  0.
        4    1    3    3  502    0 -0.15067490543E+03 -0.12355905338E+03  0.40695414508E+03  0.45120179067E+03  0.12699999809E+01 0. -1.
       -4    1    3    3    0  502  0.15067490543E+03  0.12355905338E+03 -0.33337776797E+01  0.19489097920E+03  0.12699999809E+01 0.  1.
</event>
<event>
 5   0  0.8208720E-02  0.4996035E+03  0.7818609E-02  0.1013882E+00
        2   -1    0    0  501    0  0.00000000000E+00  0.00000000000E+00  0.17995889278E+03  0.17995889279E+03  0.25500000920E-02 0. -1.
       -2   -1    0    0    0  501  0.00000000000E+00  0.00000000000E+00 -0.34675093395E+03  0.34675093396E+03  0.25500000920E-02 0.  1.
    10030    2    1    2    0    0  0.00000000000E+00  0.00000000000E+00 -0.16679204118E+03  0.52670982675E+03  0.49960349939E+03 0.  0.
        3    1    3    3  502    0  0.96825331398E+02 -0.76342468491E+02 -0.31243312558E+03  0.33588358914E+03  0.10100000352E+00 0.  1.
       -3    1    3    3    0  502 -0.96825331398E+02  0.76342468491E+02  0.14564108440E+03  0.19082623761E+03  0.10100000352E+00 0. -1.
</event>
<event>
 5   0  0.7933103E-02  0.4996241E+03  0.7818609E-02  0.1013877E+00
        2   -1    0    0  501    0  0.00000000000E+00  0.00000000000E+00  0.23544759107E+03  0.23544759109E+03  0.25500000920E-02 0.  1.
       -2   -1    0    0    0  501  0.00000000000E+00  0.00000000000E+00 -0.26505287184E+03  0.26505287186E+03  0.25500000920E-02 0. -1.
    10030    2    1    2    0    0  0.00000000000E+00  0.00000000000E+00 -0.29605280771E+02  0.50050046294E+03  0.49962409945E+03 0.  0.
        5    1    3    3  502    0  0.14211550910E+02 -0.18414223890E+03 -0.18324524591E+03  0.26021383990E+03  0.46999998093E+01 0. -1.
       -5    1    3    3    0  502 -0.14211550910E+02  0.18414223890E+03  0.15363996514E+03  0.24028662304E+03  0.46999998093E+01 0.  1.
</event>
<event>
 5   0  0.5191358E-02  0.4988807E+03  0.7818609E-02  0.1014071E+00
        1   -1    0    0  501    0  0.00000000000E+00  0.00000000000E+00  0.13132852841E+04  0.13132852841E+04  0.50400001928E-02 0.  1.
       -1   -1    0    0    0  501  0.00000000000E+00  0.00000000000E+00 -0.47377730273E+02  0.47377730542E+02  0.50400001928E-02 0. -1.
    10030    2    1    2    0    0  0.00000000000E+00  0.00000000000E+00  0.12659075538E+04  0.13606630147E+04  0.49888065166E+03 0.  0.
        4    1    3    3  502    0  0.20996414072E+03 -0.13419327373E+03  0.66357983165E+03  0.70882478863E+03  0.12699999809E+01 0.  1.
       -4    1    3    3    0  502 -0.20996414072E+03  0.13419327373E+03  0.60232772218E+03  0.65183822602E+03  0.12699999809E+01 0. -1.
</event>
<event>
 5   0  0.5038436E-02  0.5018182E+03  0.7818609E-02  0.1013305E+00
        1   -1    0    0  501    0  0.00000000000E+00  0.00000000000E+00  0.13815800080E+03  0.13815800089E+03  0.50400001928E-02 0. -1.
       -1   -1    0    0    0  501  0.00000000000E+00  0.00000000000E+00 -0.45567669721E+03  0.45567669724E+03  0.50400001928E-02 0.  1.
    10030    2    1    2    0    0  0.00000000000E+00  0.00000000000E+00 -0.31751869641E+03  0.59383469813E+03  0.50181822021E+03 0.  0.
        1    1    3    3  502    0  0.83263404693E+02 -0.26457045281E+02  0.11957735667E+03  0.14809292373E+03  0.50400001928E-02 0. -1.
       -1    1    3    3    0  502 -0.83263404693E+02  0.26457045281E+02 -0.43709605307E+03  0.44574177440E+03  0.50400001928E-02 0.  1.
</event>
<event>
 5   0  0.4803890E-02  0.5002091E+03  0.7818609E-02  0.1013724E+00
       -1   -1    0    0    0  501  0.00000000000E+00  0.00000000000E+00  0.11736196064E+03  0.11736196075E+03  0.50400001928E-02 0.  1.
        1   -1    0    0  501    0  0.00000000000E+00  0.00000000000E+00 -0.53298607988E+03  0.53298607991E+03  0.50400001928E-02 0. -1.
    10030    2    1    2    0    0  0.00000000000E+00  0.00000000000E+00 -0.41562411924E+03  0.65034804066E+03  0.50020912176E+03 0.  0.
        5    1    3    3  502    0 -0.18495818205E+03  0.64150604933E+02 -0.41009073969E+03  0.45444618383E+03  0.46999998093E+01 0. -1.
       -5    1    3    3    0  502  0.18495818205E+03 -0.64150604933E+02 -0.55333795490E+01  0.19590185683E+03  0.46999998093E+01 0.  1.
</event>
<event>
 5   0  0.7776070E-02  0.4996609E+03  0.7818609E-02  0.1013867E+00
       -2   -1    0    0    0  501  0.00000000000E+00  0.00000000000E+00  0.83578747315E+02  0.83578747354E+02  0.25500000920E-02 0.  1.
        2   -1    0    0  501    0  0.00000000000E+00  0.00000000000E+00 -0.74678365602E+03  0.74678365603E+03  0.25500000920E-02 0. -1.
    10030    2    1    2    0    0  0.00000000000E+00  0.00000000000E+00 -0.66320490871E+03  0.83036240338E+03  0.49966085500E+03 0.  0.
        4    1    3    3  502    0 -0.17192949647E+03 -0.10027926511E+03 -0.80679600243E+02  0.21477079308E+03  0.12699999809E+01 0.  1.
       -4    1    3    3    0  502  0.17192949647E+03  0.10027926511E+03 -0.58252530846E+03  0.61559161030E+03  0.12699999809E+01 0. -1.
</event>
<event>
 5   0  0.7776070E-02  0.5033192E+03  0.7818609E-02  0.1012916E+00
       -2   -1    0    0    0  501  0.00000000000E+00  0.00000000000E+00  0.98420075505E+02  0.98420075538E+02  0.25500000920E-02 0. -1.
        2   -1    0    0  501    0  0.00000000000E+00  0.00000000000E+00 -0.64349224860E+03  0.64349224860E+03  0.25500000920E-02 0.  1.
    10030    2    1    2    0    0  0.00000000000E+00  0.00000000000E+00 -0.54507217309E+03  0.74191232414E+03  0.50331920571E+03 0.  0.
        4    1    3    3  502    0 -0.83000297730E+02 -0.19107431432E+03 -0.64427515645E+02  0.21806182767E+03  0.12699999809E+01 0. -1.
       -4    1    3    3    0  502  0.83000297730E+02  0.19107431432E+03 -0.48064465745E+03  0.52385049647E+03  0.12699999809E+01 0.  1.
</event>
<event>
 5   0  0.7933103E-02  0.5034775E+03  0.7818609E-02  0.1012875E+00
       -2   -1    0    0    0  501  0.00000000000E+00  0.00000000000E+00  0.10356643957E+03  0.10356643960E+03  0.25500000920E-02 0. -1.
        2   -1    0    0  501    0  0.00000000000E+00  0.00000000000E+00 -0.61190098978E+03  0.61190098979E+03  0.25500000920E-02 0.  1.
    10030    2    1    2    0    0  0.00000000000E+00  0.00000000000E+00 -0.50833455021E+03  0.71546742939E+03  0.50347753434E+03 0.  0.
        5    1    3    3  502    0 -0.12918658153E+03 -0.11551520686E+03  0.52179288388E+01  0.17344236116E+03  0.46999998093E+01 0. -1.
       -5    1    3    3    0  502  0.12918658153E+03  0.11551520686E+03 -0.51355247905E+03  0.54202506824E+03  0.46999998093E+01 0.  1.
</event>
<event>
 5   0  0.7776070E-02  0.4991441E+03  0.7818609E-02  0.1014003E+00
       -2   -1    0    0    0  501  0.00000000000E+00  0.00000000000E+00  0.84172329268E+02  0.84172329307E+02  0.25500000920E-02 0.  1.
        2   -1    0    0  501    0  0.00000000000E+00  0.00000000000E+00 -0.73998431695E+03  0.73998431695E+03  0.25500000920E-02 0. -1.
    10030    2    1    2    0    0  0.00000000000E+00  0.00000000000E+00 -0.65581198768E+03  0.82415664626E+03  0.49914408179E+03 0.  0.
        4    1    3    3  502    0 -0.16263932012E+03 -0.18476480471E+03 -0.25992776144E+03  0.35798552426E+03  0.12699999809E+01 0.  1.
       -4    1    3    3    0  502  0.16263932012E+03  0.18476480471E+03 -0.39588422624E+03  0.46617112200E+03  0.12699999809E+01 0. -1.
</event>
<event>
 5   0  0.7698747E-02  0.5007915E+03  0.7818609E-02  0.1013573E+00
       -2   -1    0    0    0  501  0.00000000000E+00  0.00000000000E+00  0.15215522060E+03  0.15215522062E+03  0.25500000920E-02 0.  1.
        2   -1    0    0  501    0  0.00000000000E+00  0.00000000000E+00 -0.41206632181E+03  0.41206632182E+03  0.25500000920E-02 0. -1.
    10030    2    1    2    0    0  0.00000000000E+00  0.00000000000E+00 -0.25991110121E+03  0.56422154244E+03  0.50079154188E+03 0.  0.
        2    1    3    3  502    0  0.21198836340E+03 -0.81196259508E+02 -0.10901472168E+02  0.22726799351E+03  0.25500000920E-02 0.  1.
       -2    1    3    3    0  502 -0.21198836340E+03  0.81196259508E+02 -0.24900962904E+03  0.33695354893E+03  0.25500000920E-02 0. -1.
</event>
<event>
 5   0  0.7933103E-02  0.5038389E+03  0.7818609E-02  0.1012782E+00
       -2   -1    0    0    0  501  0.00000000000E+00  0.00000000000E+00  0.28474474570E+02  0.28474474684E+02  0.25500000920E-02 0. -1.
        2   -1    0    0  501    0  0.00000000000E+00  0.00000000000E+00 -0.22287824235E+04  0.22287824235E+04  0.25500000920E-02 0.  1.
    10030    2    1    2    0    0  0.00000000000E+00  0.00000000000E+00 -0.22003079489E+04  0.22572568982E+04  0.50383889714E+03 0.  0.
        5    1    3    3  502    0 -0.18627702546E+03 -0.14821891148E+03 -0.14688689855E+04  0.14880410487E+04  0.46999998093E+01 0.  1.
       -5    1    3    3    0  502  0.18627702546E+03  0.14821891148E+03 -0.73143896337E+03  0.76921584946E+03  0.46999998093E+01 0. -1.
</event>
<event>
 5   0  0.7933103E-02  0.5234963E+03  0.7818609E-02  0.1007822E+00
       -2   -1    0    0    0  501  0.00000000000E+00  0.00000000000E+00  0.12507342330E+03  0.12507342333E+03  0.25500000920E-02 0.  1.
        2   -1    0    0  501    0  0.00000000000E+00  0.00000000000E+00 -0.54777500932E+03  0.54777500933E+03  0.25500000920E-02 0. -1.
    10030    2    1    2    0    0  0.00000000000E+00  0.00000000000E+00 -0.42270158602E+03  0.67284843266E+03  0.52349630610E+03 0.  0.
        5    1    3    3  502    0 -0.12512075131E+03  0.22745141211E+03 -0.16870954673E+03  0.30963583196E+03  0.46999998093E+01 0.  1.
       -5    1    3    3    0  502  0.12512075131E+03 -0.22745141211E+03 -0.25399203929E+03  0.36321260069E+03  0.46999998093E+01 0. -1.
</event>
<event>
 5   0  0.3210875E-02  0.4989423E+03  0.7818609E-02  0.1014055E+00
       -4   -1    0    0    0  501  0.00000000000E+00  0.00000000000E+00  0.63856354022E+02  0.63868981899E+02  0.12699999809E+01 0.  1.
        4   -1    0    0  501    0  0.00000000000E+00  0.00000000000E+00 -0.97451336476E+03  0.97451419230E+03  0.12699999809E+01 0. -1.
    10030    2    1    2    0    0  0.00000000000E+00  0.00000000000E+00 -0.91065701074E+03  0.10383831742E+04  0.49894230654E+03 0.  0.
        3    1    3    3  502    0  0.59179895727E+02 -0.14663658595E+03 -0.85689863323E+03  0.87136664283E+03  0.10100000352E+00 0. -1.
       -3    1    3    3    0  502 -0.59179895727E+02  0.14663658595E+03 -0.53758377506E+02  0.16701653137E+03  0.10100000352E+00 0.  1.
</event>
<event>
 5   0  0.3210875E-02  0.4983969E+03  0.7818609E-02  0.1014198E+00
       -4   -1    0    0    0  501  0.00000000000E+00  0.00000000000E+00  0.40760042693E+03  0.40760240546E+03  0.12699999809E+01 0. -1.
        4   -1    0    0  501    0  0.00000000000E+00  0.00000000000E+00 -0.15234975170E+03  0.15235504502E+03  0.12699999809E+01 0.  1.
    10030    2    1    2    0    0  0.00000000000E+00  0.00000000000E+00  0.25525067523E+03  0.55995745047E+03  0.49839686911E+03 0.  0.
        5    1    3    3  502    0  0.13540048581E+03 -0.89059876812E+02 -0.84992139802E+02  0.18305929925E+03  0.46999998093E+01 0.  1.
       -5    1    3    3    0  502 -0.13540048581E+03  0.89059876812E+02  0.34024281503E+03  0.37689815122E+03  0.46999998093E+01 0. -1.
</event>
<event>
 5   0  0.3210875E-02  0.4958367E+03  0.7818609E-02  0.1014871E+00
       -4   -1    0    0    0  501  0.00000000000E+00  0.00000000000E+00  0.41143339959E+03  0.41143535968E+03  0.12699999809E+01 0.  1.
        4   -1    0    0  501    0  0.00000000000E+00  0.00000000000E+00 -0.14938371075E+03  0.14938910917E+03  0.12699999809E+01 0. -1.
    10030    2    1    2    0    0  0.00000000000E+00  0.00000000000E+00  0.26204968884E+03  0.56082446885E+03  0.49583671248E+03 0.  0.
        2    1    3    3  502    0  0.12448583893E+03  0.81921634636E+02  0.35512350814E+03  0.38512411552E+03  0.25500000920E-02 0.  1.
       -2    1    3    3    0  502 -0.12448583893E+03 -0.81921634636E+02 -0.93073819306E+02  0.17570035333E+03  0.25500000920E-02 0. -1.
</event>
<event>
 5   0  0.4884478E-02  0.4934092E+03  0.7818609E-02  0.1015514E+00
        1   -1    0    0  501    0  0.00000000000E+00  0.00000000000E+00  0.91259681309E+02  0.91259681448E+02  0.50400001928E-02 0.  1.
       -1   -1    0    0    0  501  0.00000000000E+00  0.00000000000E+00 -0.66692285003E+03  0.66692285005E+03  0.50400001928E-02 0. -1.
    10030    2    1    2    0    0  0.00000000000E+00  0.00000000000E+00 -0.57566316872E+03  0.75818253149E+03  0.49340922898E+03 0.  0.
        3    1    3    3  502    0 -0.43706528595E+02  0.21312209302E+03 -0.46658131868E+03  0.51481008567E+03  0.10100000352E+00 0. -1.
       -3    1    3    3    0  502  0.43706528595E+02 -0.21312209302E+03 -0.10908185004E+03  0.24337244582E+03  0.10100000352E+00 0.  1.
</event>
<event>
 5   0  0.8208720E-02  0.4996555E+03  0.7818609E-02  0.1013869E+00
        2   -1    0    0  501    0  0.00000000000E+00  0.00000000000E+00  0.82368531417E+03  0.82368531417E+03  0.25500000920E-02 0.  1.
       -2   -1    0    0    0  501  0.00000000000E+00  0.00000000000E+00 -0.75773968815E+02  0.75773968858E+02  0.25500000920E-02 0. -1.
    10030    2    1    2    0    0  0.00000000000E+00  0.00000000000E+00  0.74791134535E+03  0.89945928303E+03  0.49965550264E+03 0.  0.
        3    1    3    3  502    0 -0.73597491913E+02 -0.18895435141E+03  0.11127087169E+03  0.23130403114E+03  0.10100000352E+00 0. -1.
       -3    1    3    3    0  502  0.73597491913E+02  0.18895435141E+03  0.63664047366E+03  0.66815525190E+03  0.10100000352E+00 0.  1.
</event>
<event>
 5   0  0.5038436E-02  0.4934256E+03  0.7818609E-02  0.1015509E+00
        1   -1    0    0  501    0  0.00000000000E+00  0.00000000000E+00  0.22141426820E+03  0.22141426826E+03  0.50400001928E-02 0.  1.
       -1   -1    0    0    0  501  0.00000000000E+00  0.00000000000E+00 -0.27490190017E+03  0.27490190021E+03  0.50400001928E-02 0. -1.
    10030    2    1    2    0    0  0.00000000000E+00  0.00000000000E+00 -0.53487631962E+02  0.49631616847E+03  0.49342558944E+03 0.  0.
        1    1    3    3  502    0 -0.39453025450E+01  0.87935903408E+02 -0.25856939369E+03  0.27314175789E+03  0.50400001928E-02 0. -1.
       -1    1    3    3    0  502  0.39453025450E+01 -0.87935903408E+02  0.20508176173E+03  0.22317441059E+03  0.50400001928E-02 0.  1.
</event>
<event>
 5   0  0.4865501E-02  0.5008330E+03  0.7818609E-02  0.1013562E+00
       -1   -1    0    0    0  501  0.00000000000E+00  0.00000000000E+00  0.81071703719E+02  0.81071703875E+02  0.50400001928E-02 0.  1.
        1   -1    0    0  501    0  0.00000000000E+00  0.00000000000E+00 -0.77349343652E+03  0.77349343654E+03  0.50400001928E-02 0. -1.
    10030    2    1    2    0    0  0.00000000000E+00  0.00000000000E+00 -0.69242173280E+03  0.85456514041E+03  0.50083302921E+03 0.  0.
        2    1    3    3  502    0  0.10414317536E+03 -0.18017699546E+02 -0.73357192500E+03  0.74114654936E+03  0.25500000920E-02 0. -1.
       -2    1    3    3    0  502 -0.10414317536E+03  0.18017699546E+02  0.41150192200E+02  0.11341859105E+03  0.25500000920E-02 0.  1.
</event>
<event>
 5   0  0.4803890E-02  0.5001428E+03  0.7818609E-02  0.1013742E+00
       -1   -1    0    0    0  501  0.00000000000E+00  0.00000000000E+00  0.29607214128E+03  0.29607214133E+03  0.50400001928E-02 0.  1.
        1   -1    0    0  501    0  0.00000000000E+00  0.00000000000E+00 -0.21121777371E+03  0.21121777377E+03  0.50400001928E-02 0. -1.
    10030    2    1    2    0    0  0.00000000000E+00  0.00000000000E+00  0.84854367577E+02  0.50728991509E+03  0.50014277387E+03 0.  0.
        5    1    3    3  502    0 -0.21323031381E+03  0.96234113228E+02  0.13192320657E+03  0.26861495436E+03  0.46999998093E+01 0.  1.
       -5    1    3    3    0  502  0.21323031381E+03 -0.96234113228E+02 -0.47068838988E+02  0.23867496073E+03  0.46999998093E+01 0. -1.
</event>
<event>
 5   0  0.7698747E-02  0.4994598E+03  0.7818609E-02  0.1013920E+00
       -2   -1    0    0    0  501  0.00000000000E+00  0.00000000000E+00  0.13922002541E+03  0.13922002544E+03  0.25500000920E-02 0. -1.
        2   -1    0    0  501    0  0.00000000000E+00  0.00000000000E+00 -0.44796016501E+03  0.44796016501E+03  0.25500000920E-02 0.  1.
    10030    2    1    2    0    0  0.00000000000E+00  0.00000000000E+00 -0.30874013959E+03  0.58718019045E+03  0.49945981045E+03 0.  0.
        2    1    3    3  502    0 -0.67262241032E+02  0.22904224532E+03 -0.68135617933E+02  0.24824790361E+03  0.25500000920E-02 0.  1.
       -2    1    3    3    0  502  0.67262241032E+02 -0.22904224532E+03 -0.24060452166E+03  0.33893228684E+03  0.25500000920E-02 0. -1.
</event>
<event>
 5   0  0.7776070E-02  0.4558031E+03  0.7818609E-02  0.1026005E+00
       -2   -1    0    0    0  501  0.00000000000E+00  0.00000000000E+00  0.27793610781E+03  0.27793610782E+03  0.25500000920E-02 0.  1.
        2   -1    0    0  501    0  0.00000000000E+00  0.00000000000E+00 -0.18687434318E+03  0.18687434320E+03  0.25500000920E-02 0. -1.
    10030    2    1    2    0    0  0.00000000000E+00  0.00000000000E+00  0.91061764629E+02  0.46481045102E+03  0.45580314874E+03 0.  0.
        4    1    3    3  502    0 -0.19453448917E+03 -0.29297361192E+02  0.16285003941E+03  0.25538941067E+03  0.12699999809E+01 0.  1.
       -4    1    3    3    0  502  0.19453448917E+03  0.29297361192E+02 -0.71788274776E+02  0.20942104035E+03  0.12699999809E+01 0. -1.
</event>
<event>
 5   0  0.4884478E-02  0.4972978E+03  0.7818609E-02  0.1014487E+00
       -1   -1    0    0    0  501  0.00000000000E+00  0.00000000000E+00  0.91824182982E+02  0.91824183120E+02  0.50400001928E-02 0.  1.
        1   -1    0    0  501    0  0.00000000000E+00  0.00000000000E+00 -0.67331147539E+03  0.67331147540E+03  0.50400001928E-02 0. -1.
    10030    2    1    2    0    0  0.00000000000E+00  0.00000000000E+00 -0.58148729240E+03  0.76513565852E+03  0.49729780285E+03 0.  0.
        3    1    3    3  502    0 -0.22989814704E+03 -0.39813745260E+02 -0.15849702926E+03  0.28206313266E+03  0.10100000352E+00 0.  1.
       -3    1    3    3    0  502  0.22989814704E+03  0.39813745260E+02 -0.42299026315E+03  0.48307252586E+03  0.10100000352E+00 0. -1.
</event>
<event>
 5   0  0.7698747E-02  0.5062558E+03  0.7818609E-02  0.1012159E+00
        2   -1    0    0  501    0  0.00000000000E+00  0.00000000000E+00  0.13124374545E+03  0.13124374547E+03  0.25500000920E-02 0. -1.
       -2   -1    0    0    0  501  0.00000000000E+00  0.00000000000E+00 -0.48820407652E+03  0.48820407653E+03  0.25500000920E-02 0.  1.
    10030    2    1    2    0    0  0.00000000000E+00  0.00000000000E+00 -0.35696033108E+03  0.61944782200E+03  0.50625579129E+03 0.  0.
        2    1    3    3  502    0 -0.74425216304E+02  0.21530382602E+03 -0.43447629714E+02  0.23191064412E+03  0.25500000920E-02 0. -1.
       -2    1    3    3    0  502  0.74425216304E+02 -0.21530382602E+03 -0.31351270136E+03  0.38753717788E+03  0.25500000920E-02 0.  1.
</event>
<event>
 5   0  0.4803890E-02  0.4985186E+03  0.7818609E-02  0.1014166E+00
        1   -1    0    0  501    0  0.00000000000E+00  0.00000000000E+00  0.55778502811E+03  0.55778502814E+03  0.50400001928E-02 0.  1.
       -1   -1    0    0    0  501  0.00000000000E+00  0.00000000000E+00 -0.11138735484E+03  0.11138735496E+03  0.50400001928E-02 0. -1.
    10030    2    1    2    0    0  0.00000000000E+00  0.00000000000E+00  0.44639767327E+03  0.66917238309E+03  0.49851860105E+03 0.  0.
        5    1    3    3  502    0 -0.98296228160E+02 -0.21610934550E+03  0.12147678042E+03  0.26672850590E+03  0.46999998093E+01 0. -1.
       -5    1    3    3    0  502  0.98296228160E+02  0.21610934550E+03  0.32492089284E+03  0.40244387719E+03  0.46999998093E+01 0.  1.
</event>
<event>
 5   0  0.3210875E-02  0.5005298E+03  0.7818609E-02  0.1013641E+00
       -3   -1    0    0    0  501  0.00000000000E+00  0.00000000000E+00  0.73414660028E+03  0.73414660722E+03  0.10100000352E+00 0.  1.
        3   -1    0    0  501    0  0.00000000000E+00  0.00000000000E+00 -0.85313320290E+02  0.85313380076E+02  0.10100000352E+00 0. -1.
    10030    2    1    2    0    0  0.00000000000E+00  0.00000000000E+00  0.64883327999E+03  0.81945998730E+03  0.50052976492E+03 0.  0.
        2    1    3    3  502    0 -0.21131834113E+03  0.13312511295E+03  0.29828445470E+03  0.38903901207E+03  0.25500000920E-02 0.  1.
       -2    1    3    3    0  502  0.21131834113E+03 -0.13312511295E+03  0.35054882529E+03  0.43042097523E+03  0.25500000920E-02 0. -1.
</event>
<event>
 5   0  0.5191358E-02  0.5042816E+03  0.7818609E-02  0.1012667E+00
       -1   -1    0    0    0  501  0.00000000000E+00  0.00000000000E+00  0.67060381263E+02  0.67060381452E+02  0.50400001928E-02 0.  1.
        1   -1    0    0  501    0  0.00000000000E+00  0.00000000000E+00 -0.94802602469E+03  0.94802602471E+03  0.50400001928E-02 0. -1.
    10030    2    1    2    0    0  0.00000000000E+00  0.00000000000E+00 -0.88096564343E+03  0.10150864062E+04  0.50428161484E+03 0.  0.
        4    1    3    3  502    0 -0.21941534994E+03  0.11068627007E+03 -0.55397433086E+03  0.60603937027E+03  0.12699999809E+01 0. -1.
       -4    1    3    3    0  502  0.21941534994E+03 -0.11068627007E+03 -0.32699131258E+03  0.40904703589E+03  0.12699999809E+01 0.  1.
</event>
<event>
 5   0  0.4865501E-02  0.5051413E+03  0.7818609E-02  0.1012446E+00
       -1   -1    0    0    0  501  0.00000000000E+00  0.00000000000E+00  0.38369540782E+02  0.38369541113E+02  0.50400001928E-02 0.  1.
        1   -1    0    0  501    0  0.00000000000E+00  0.00000000000E+00 -0.16625672326E+04  0.16625672326E+04  0.50400001928E-02 0. -1.
    10030    2    1    2    0    0  0.00000000000E+00  0.00000000000E+00 -0.16241976918E+04  0.17009367737E+04  0.50514133279E+03 0.  0.
        2    1    3    3  502    0  0.20949320599E+03 -0.82283091100E+02 -0.42619928481E+03  0.48197898379E+03  0.25500000920E-02 0.  1.
       -2    1    3    3    0  502 -0.20949320599E+03  0.82283091100E+02 -0.11979984070E+04  0.12189577899E+04  0.25500000920E-02 0. -1.
</event>
<event>
 5   0  0.4803890E-02  0.4980619E+03  0.7818609E-02  0.1014286E+00
        1   -1    0    0  501    0  0.00000000000E+00  0.00000000000E+00  0.12889562430E+04  0.12889562430E+04  0.50400001928E-02 0.  1.
       -1   -1    0    0    0  501  0.00000000000E+00  0.00000000000E+00 -0.48113667773E+02  0.48113668037E+02  0.50400001928E-02 0. -1.
    10030    2    1    2    0    0  0.00000000000E+00  0.00000000000E+00  0.12408425752E+04  0.13370699110E+04  0.49806189427E+03 0.  0.
        5    1    3    3  502    0  0.13290985053E+02 -0.24472772404E+03  0.73823625192E+03  0.77787091657E+03  0.46999998093E+01 0.  1.
       -5    1    3    3    0  502 -0.13290985053E+02  0.24472772404E+03  0.50260632326E+03  0.55919899444E+03  0.46999998093E+01 0. -1.
</event>
<event>
 5   0  0.5038436E-02  0.4992006E+03  0.7818609E-02  0.1013988E+00
       -1   -1    0    0    0  501  0.00000000000E+00  0.00000000000E+00  0.13808067787E+03  0.13808067796E+03  0.50400001928E-02 0. -1.
        1   -1    0    0  501    0  0.00000000000E+00  0.00000000000E+00 -0.45118783394E+03  0.45118783396E+03  0.50400001928E-02 0.  1.
    10030    2    1    2    0    0  0.00000000000E+00  0.00000000000E+00 -0.31310715607E+03  0.58926851193E+03  0.49920064901E+03 0.  0.
        1    1    3    3  502    0  0.13165010825E+03  0.18438027553E+03 -0.28020257299E+03  0.36033500931E+03  0.50400001928E-02 0. -1.
       -1    1    3    3    0  502 -0.13165010825E+03 -0.18438027553E+03 -0.32904583080E+02  0.22893350261E+03  0.50400001928E-02 0.  1.
</event>
<event>
 5   0  0.8208720E-02  0.5002431E+03  0.7818609E-02  0.1013715E+00
        2   -1    0    0  501    0  0.00000000000E+00  0.00000000000E+00  0.93074586324E+03  0.93074586324E+03  0.25500000920E-02 0.  1.
       -2   -1    0    0    0  501  0.00000000000E+00  0.00000000000E+00 -0.67215754733E+02  0.67215754781E+02  0.25500000920E-02 0. -1.
    10030    2    1    2    0    0  0.00000000000E+00  0.00000000000E+00  0.86353010850E+03  0.99796161802E+03  0.50024308366E+03 0.  0.
        3    1    3    3  502    0  0.11987253408E+03 -0.21936444953E+03  0.41500396201E+03  0.48447753800E+03  0.10100000352E+00 0.  1.
       -3    1    3    3    0  502 -0.11987253408E+03  0.21936444953E+03  0.44852614649E+03  0.51348408002E+03  0.10100000352E+00 0. -1.
</event>
<event>
 5   0  0.8208720E-02  0.4974742E+03  0.7818609E-02  0.1014440E+00
        2   -1    0    0  501    0  0.00000000000E+00  0.00000000000E+00  0.31273577619E+03  0.31273577620E+03  0.25500000920E-02 0. -1.
       -2   -1    0    0    0  501  0.00000000000E+00  0.00000000000E+00 -0.19783519012E+03  0.19783519014E+03  0.25500000920E-02 0.  1.
    10030    2    1    2    0    0  0.00000000000E+00  0.00000000000E+00  0.11490058607E+03  0.51057096634E+03  0.49747418726E+03 0.  0.
        3    1    3    3  502    0  0.12415184875E+02 -0.93288971361E+02 -0.17885716062E+03  0.20210606893E+03  0.10100000352E+00 0.  1.
       -3    1    3    3    0  502 -0.12415184875E+02  0.93288971361E+02  0.29375774669E+03  0.30846489741E+03  0.10100000352E+00 0. -1.
</event>
<event>
 5   0  0.4803890E-02  0.4983381E+03  0.7818609E-02  0.1014214E+00
       -1   -1    0    0    0  501  0.00000000000E+00  0.00000000000E+00  0.31362756474E+03  0.31362756478E+03  0.50400001928E-02 0. -1.
        1   -1    0    0  501    0  0.00000000000E+00  0.00000000000E+00 -0.19795839261E+03  0.19795839267E+03  0.50400001928E-02 0.  1.
    10030    2    1    2    0    0  0.00000000000E+00  0.00000000000E+00  0.11566917213E+03  0.51158595745E+03  0.49833807248E+03 0.  0.
        5    1    3    3  502    0 -0.17944346237E+01  0.24926870750E+02 -0.19662277844E+03  0.19826037396E+03  0.46999998093E+01 0.  1.
       -5    1    3    3    0  502  0.17944346237E+01 -0.24926870750E+02  0.31229195057E+03  0.31332558349E+03  0.46999998093E+01 0. -1.
</event>
<event>
 5   0  0.5038436E-02  0.4986292E+03  0.7818609E-02  0.1014137E+00
        1   -1    0    0  501    0  0.00000000000E+00  0.00000000000E+00  0.21426322367E+03  0.21426322373E+03  0.50400001928E-02 0.  1.
       -1   -1    0    0    0  501  0.00000000000E+00  0.00000000000E+00 -0.29010003819E+03  0.29010003824E+03  0.50400001928E-02 0. -1.
    10030    2    1    2    0    0  0.00000000000E+00  0.00000000000E+00 -0.75836814520E+02  0.50436326197E+03  0.49862919849E+03 0.  0.
        1    1    3    3  502    0  0.11153610677E+03 -0.34126454876E+02 -0.26079943851E+03  0.28569435624E+03  0.50400001928E-02 0. -1.
       -1    1    3    3    0  502 -0.11153610677E+03  0.34126454876E+02  0.18496262399E+03  0.21866890573E+03  0.50400001928E-02 0.  1.
</event>
<event>
 5   0  0.4884478E-02  0.4989675E+03  0.7818609E-02  0.1014049E+00
        1   -1    0    0  501    0  0.00000000000E+00  0.00000000000E+00  0.76610332940E+03  0.76610332942E+03  0.50400001928E-02 0. -1.
       -1   -1    0    0    0  501  0.00000000000E+00  0.00000000000E+00 -0.81245113259E+02  0.81245113415E+02  0.50400001928E-02 0.  1.
    10030    2    1    2    0    0  0.00000000000E+00  0.00000000000E+00  0.68485821614E+03  0.84734844283E+03  0.49896754138E+03 0.  0.
        3    1    3    3  502    0  0.22581089462E+03 -0.45776939319E+02  0.50492556558E+03  0.55500984251E+03  0.10100000352E+00 0. -1.
       -3    1    3    3    0  502 -0.22581089462E+03  0.45776939319E+02  0.17993265056E+03  0.29233860032E+03  0.10100000352E+00 0.  1.
</event>
<event>
 5   0  0.7698747E-02  0.4948726E+03  0.7818609E-02  0.1015126E+00
        2   -1    0    0  501    0  0.00000000000E+00  0.00000000000E+00  0.17005457789E+04  0.17005457789E+04  0.25500000920E-02 0.  1.
       -2   -1    0    0    0  501  0.00000000000E+00  0.00000000000E+00 -0.36002987259E+02  0.36002987349E+02  0.25500000920E-02 0. -1.
    10030    2    1    2    0    0  0.00000000000E+00  0.00000000000E+00  0.16645427916E+04  0.17365487662E+04  0.49487262235E+03 0.  0.
        2    1    3    3  502    0 -0.11144856535E+03 -0.91263896510E+02  0.12630153415E+03  0.19157755364E+03  0.25500000920E-02 0. -1.
       -2    1    3    3    0  502  0.11144856535E+03  0.91263896510E+02  0.15382412575E+04  0.15449712126E+04  0.25500000920E-02 0.  1.
</event>
<event>
 5   0  0.7698747E-02  0.4987855E+03  0.7818609E-02  0.1014096E+00
        2   -1    0    0  501    0  0.00000000000E+00  0.00000000000E+00  0.54088920246E+03  0.54088920247E+03  0.25500000920E-02 0.  1.
       -2   -1    0    0    0  501  0.00000000000E+00  0.00000000000E+00 -0.11498980373E+03  0.11498980376E+03  0.25500000920E-02 0. -1.
    10030    2    1    2    0    0  0.00000000000E+00  0.00000000000E+00  0.42589939873E+03  0.65587900623E+03  0.49878549796E+03 0.  0.
        2    1    3    3  502    0 -0.20038607740E+03 -0.12796507933E+03  0.11395990662E+03  0.26365982225E+03  0.25500000920E-02 0. -1.
       -2    1    3    3    0  502  0.20038607740E+03  0.12796507933E+03  0.31193949211E+03  0.39221918399E+03  0.25500000920E-02 0.  1.
</event>
<event>
 5   0  0.5191358E-02  0.5006854E+03  0.7818609E-02  0.1013600E+00
       -1   -1    0    0    0  501  0.00000000000E+00  0.00000000000E+00  0.79168624994E+03  0.79168624996E+03  0.50400001928E-02 0.  1.
        1   -1    0    0  501    0  0.00000000000E+00  0.00000000000E+00 -0.79162015640E+02  0.79162015800E+02  0.50400001928E-02 0. -1.
    10030    2    1    2    0    0  0.00000000000E+00  0.00000000000E+00  0.71252423430E+03  0.87084826576E+03  0.50068544767E+03 0.  0.
        4    1    3    3  502    0  0.59520223734E+02  0.20844752529E+03  0.57403648742E+03  0.61360616817E+03  0.12699999809E+01 0.  1.
       -4    1    3    3    0  502 -0.59520223734E+02 -0.20844752529E+03  0.13848774689E+03  0.25724209759E+03  0.12699999809E+01 0. -1.
</event>
<event>
 5   0  0.7881060E-02  0.5004243E+03  0.7818609E-02  0.1013668E+00
       -2   -1    0    0    0  501  0.00000000000E+00  0.00000000000E+00  0.38809501470E+02  0.38809501554E+02  0.25500000920E-02 0. -1.
        2   -1    0    0  501    0  0.00000000000E+00  0.00000000000E+00 -0.16131649357E+04  0.16131649357E+04  0.25500000920E-02 0.  1.
    10030    2    1    2    0    0  0.00000000000E+00  0.00000000000E+00 -0.15743554343E+04  0.16519744373E+04  0.50042432801E+03 0.  0.
        1    1    3    3  502    0 -0.10695627206E+03  0.75157378794E+02 -0.14914746293E+04  0.14971923208E+04  0.50400001928E-02 0.  1.
       -1    1    3    3    0  502  0.10695627206E+03 -0.75157378794E+02 -0.82880804991E+02  0.15478211647E+03  0.50400001928E-02 0. -1.
</event>
<event>
 5   0  0.4803890E-02  0.5038130E+03  0.7818609E-02  0.1012788E+00
        1   -1    0    0  501    0  0.00000000000E+00  0.00000000000E+00  0.27396607719E+03  0.27396607724E+03  0.50400001928E-02 0.  1.
       -1   -1    0    0    0  501  0.00000000000E+00  0.00000000000E+00 -0.23162312846E+03  0.23162312851E+03  0.50400001928E-02 0. -1.
    10030    2    1    2    0    0  0.00000000000E+00  0.00000000000E+00  0.42342948735E+02  0.50558920575E+03  0.50381298084E+03 0.  0.
        5    1    3    3  502    0  0.22452243600E+03  0.38595943892E+02 -0.86607445744E+02  0.24376814970E+03  0.46999998093E+01 0. -1.
       -5    1    3    3    0  502 -0.22452243600E+03 -0.38595943892E+02  0.12895039448E+03  0.26182105604E+03  0.46999998093E+01 0.  1.
</event>
<event>
 5   0  0.7933103E-02  0.5161875E+03  0.7818609E-02  0.1009638E+00
        2   -1    0    0  501    0  0.00000000000E+00  0.00000000000E+00  0.79309088509E+03  0.79309088510E+03  0.25500000920E-02 0.  1.
       -2   -1    0    0    0  501  0.00000000000E+00  0.00000000000E+00 -0.83990848926E+02  0.83990848965E+02  0.25500000920E-02 0. -1.
    10030    2    1    2    0    0  0.00000000000E+00  0.00000000000E+00  0.70910003617E+03  0.87708173406E+03  0.51618747266E+03 0.  0.
        5    1    3    3  502    0 -0.38315913834E+02 -0.96783608564E+02  0.75576297230E+03  0.76291214202E+03  0.46999998093E+01 0.  1.
       -5    1    3    3    0  502  0.38315913834E+02  0.96783608564E+02 -0.46662936138E+02  0.11416959204E+03  0.46999998093E+01 0. -1.
</event>
<event>
 5   0  0.7933103E-02  0.4928254E+03  0.7818609E-02  0.1015669E+00
        2   -1    0    0  501    0  0.00000000000E+00  0.00000000000E+00  0.10539370965E+04  0.10539370966E+04  0.25500000920E-02 0. -1.
       -2   -1    0    0    0  501  0.00000000000E+00  0.00000000000E+00 -0.57611800318E+02  0.57611800374E+02  0.25500000920E-02 0.  1.
    10030    2    1    2    0    0  0.00000000000E+00  0.00000000000E+00  0.99632529623E+03  0.11115488969E+04  0.49282537916E+03 0.  0.
        5    1    3    3  502    0  0.14220169332E+02  0.23225776966E+03  0.68071911524E+03  0.71940703960E+03  0.46999998093E+01 0. -1.
       -5    1    3    3    0  502 -0.14220169332E+02 -0.23225776966E+03  0.31560618100E+03  0.39214185732E+03  0.46999998093E+01 0.  1.
</event>
<event>
 5   0  0.3210875E-02  0.5011414E+03  0.7818609E-02  0.1013481E+00
       -3   -1    0    0    0  501  0.00000000000E+00  0.00000000000E+00  0.15171717528E+03  0.15171720890E+03  0.10100000352E+00 0.  1.
        3   -1    0    0  501    0  0.00000000000E+00  0.00000000000E+00 -0.41383358846E+03  0.41383360078E+03  0.10100000352E+00 0. -1.
    10030    2    1    2    0    0  0.00000000000E+00  0.00000000000E+00 -0.26211641318E+03  0.56555080968E+03  0.50114140147E+03 0.  0.
        1    1    3    3  502    0  0.10940966240E+03  0.66779399246E+02 -0.37403398439E+03  0.39538763751E+03  0.50400001928E-02 0. -1.
       -1    1    3    3    0  502 -0.10940966240E+03 -0.66779399246E+02  0.11191757121E+03  0.17016317217E+03  0.50400001928E-02 0.  1.
</event>
<event>
 5   0  0.7698747E-02  0.5007907E+03  0.7818609E-02  0.1013573E+00
       -2   -1    0    0    0  501  0.00000000000E+00  0.00000000000E+00  0.45788869553E+02  0.45788869624E+02  0.25500000920E-02 0. -1.
        2   -1    0    0  501    0  0.00000000000E+00  0.00000000000E+00 -0.13692810410E+04  0.13692810410E+04  0.25500000920E-02 0.  1.
    10030    2    1    2    0    0  0.00000000000E+00  0.00000000000E+00 -0.13234921715E+04  0.14150699107E+04  0.50079069888E+03 0.  0.
        2    1    3    3  502    0 -0.13671846263E+03  0.12550632514E+03 -0.18678061525E+03  0.26330737535E+03  0.25500000920E-02 0.  1.
       -2    1    3    3    0  502  0.13671846263E+03 -0.12550632514E+03 -0.11367115562E+04  0.11517625353E+04  0.25500000920E-02 0. -1.
</event>
<event>
 5   0  0.4803890E-02  0.5179524E+03  0.7818609E-02  0.1009196E+00
       -1   -1    0    0    0  501  0.00000000000E+00  0.00000000000E+00  0.89922851163E+03  0.89922851165E+03  0.50400001928E-02 0.  1.
        1   -1    0    0  501    0  0.00000000000E+00  0.00000000000E+00 -0.74584691300E+02  0.74584691471E+02  0.50400001928E-02 0. -1.
    10030    2    1    2    0    0  0.00000000000E+00  0.00000000000E+00  0.82464382033E+03  0.97381320312E+03  0.51795243426E+03 0.  0.
        5    1    3    3  502    0  0.11541128923E+02  0.17854030500E+03  0.76424495376E+03  0.78492182891E+03  0.46999998093E+01 0.  1.
       -5    1    3    3    0  502 -0.11541128923E+02 -0.17854030500E+03  0.60398866577E+02  0.18889137420E+03  0.46999998093E+01 0. -1.
</event>
<event>
 5   0  0.8208720E-02  0.4959521E+03  0.7818609E-02  0.1014841E+00
        2   -1    0    0  501    0  0.00000000000E+00  0.00000000000E+00  0.83115359082E+03  0.83115359083E+03  0.25500000920E-02 0. -1.
       -2   -1    0    0    0  501  0.00000000000E+00  0.00000000000E+00 -0.73984077592E+02  0.73984077636E+02  0.25500000920E-02 0.  1.
    10030    2    1    2    0    0  0.00000000000E+00  0.00000000000E+00  0.75716951323E+03  0.90513766846E+03  0.49595214195E+03 0.  0.
        3    1    3    3  502    0 -0.35768449669E+02  0.24524725480E+03  0.39347023264E+03  0.46502089432E+03  0.10100000352E+00 0. -1.
       -3    1    3    3    0  502  0.35768449669E+02 -0.24524725480E+03  0.36369928059E+03  0.44011677414E+03  0.10100000352E+00 0.  1.
</event>
<event>
 5   0  0.4884478E-02  0.4997074E+03  0.7818609E-02  0.1013855E+00
       -1   -1    0    0    0  501  0.00000000000E+00  0.00000000000E+00  0.13132123035E+03  0.13132123044E+03  0.50400001928E-02 0. -1.
        1   -1    0    0  501    0  0.00000000000E+00  0.00000000000E+00 -0.47537526553E+03  0.47537526555E+03  0.50400001928E-02 0.  1.
    10030    2    1    2    0    0  0.00000000000E+00  0.00000000000E+00 -0.34405403518E+03  0.60669649600E+03  0.49970737350E+03 0.  0.
        3    1    3    3  502    0 -0.17476221078E+03  0.64051864170E+02  0.30340346853E+02  0.18858689898E+03  0.10100000352E+00 0. -1.
       -3    1    3    3    0  502  0.17476221078E+03 -0.64051864170E+02 -0.37439438203E+03  0.41810959702E+03  0.10100000352E+00 0.  1.
</event>
<event>
 5   0  0.7776070E-02  0.5032215E+03  0.7818609E-02  0.1012941E+00
       -2   -1    0    0    0  501  0.00000000000E+00  0.00000000000E+00  0.12624131526E+03  0.12624131529E+03  0.25500000920E-02 0. -1.
        2   -1    0    0  501    0  0.00000000000E+00  0.00000000000E+00 -0.50148370987E+03  0.50148370988E+03  0.25500000920E-02 0.  1.
    10030    2    1    2    0    0  0.00000000000E+00  0.00000000000E+00 -0.37524239461E+03  0.62772502517E+03  0.50322147461E+03 0.  0.
        4    1    3    3  502    0 -0.17719889711E+03  0.28579563294E+02 -0.40756989942E+03  0.44534377327E+03  0.12699999809E+01 0.  1.
       -4    1    3    3    0  502  0.17719889711E+03 -0.28579563294E+02  0.32327504818E+02  0.18238125190E+03  0.12699999809E+01 0. -1.
</event>
<event>
 5   0  0.4865501E-02  0.4641889E+03  0.7818609E-02  0.1023573E+00
        1   -1    0    0  501    0  0.00000000000E+00  0.00000000000E+00  0.12682084815E+04  0.12682084815E+04  0.50400001928E-02 0. -1.
       -1   -1    0    0    0  501  0.00000000000E+00  0.00000000000E+00 -0.42475540454E+02  0.42475540753E+02  0.50400001928E-02 0.  1.
    10030    2    1    2    0    0  0.00000000000E+00  0.00000000000E+00  0.12257329410E+04  0.13106840223E+04  0.46418893077E+03 0.  0.
        2    1    3    3  502    0 -0.15980907870E+02 -0.11728812189E+03  0.49164183768E+02  0.12817569943E+03  0.25500000920E-02 0.  1.
       -2    1    3    3    0  502  0.15980907870E+02  0.11728812189E+03  0.11765687573E+04  0.11825083228E+04  0.25500000920E-02 0. -1.
</event>
<event>
 5   0  0.5038436E-02  0.4956746E+03  0.7818609E-02  0.1014914E+00
       -1   -1    0    0    0  501  0.00000000000E+00  0.00000000000E+00  0.56269727263E+03  0.56269727265E+03  0.50400001928E-02 0.  1.
        1   -1    0    0  501    0  0.00000000000E+00  0.00000000000E+00 -0.10915876409E+03  0.10915876421E+03  0.50400001928E-02 0. -1.
    10030    2    1    2    0    0  0.00000000000E+00  0.00000000000E+00  0.45353850854E+03  0.67185603686E+03  0.49567464686E+03 0.  0.
        1    1    3    3  502    0  0.74752846042E+02  0.18451763714E+02  0.54607445271E+03  0.55147598633E+03  0.50400001928E-02 0.  1.
       -1    1    3    3    0  502 -0.74752846042E+02 -0.18451763714E+02 -0.92535944173E+02  0.12038005053E+03  0.50400001928E-02 0. -1.
</event>
<event>
 5   0  0.7933103E-02  0.5027255E+03  0.7818609E-02  0.1013070E+00
        2   -1    0    0  501    0  0.00000000000E+00  0.00000000000E+00  0.24348678555E+03  0.24348678556E+03  0.25500000920E-02 0.  1.
       -2   -1    0    0    0  501  0.00000000000E+00  0.00000000000E+00 -0.25949346951E+03  0.25949346952E+03  0.25500000920E-02 0. -1.
    10030    2    1    2    0    0  0.00000000000E+00  0.00000000000E+00 -0.16006683958E+02  0.50298025509E+03  0.50272549475E+03 0.  0.
        5    1    3    3  502    0 -0.38503877984E+02  0.63068606053E+02 -0.24833527653E+03  0.25913837473E+03  0.46999998093E+01 0. -1.
       -5    1    3    3    0  502  0.38503877984E+02 -0.63068606053E+02  0.23232859257E+03  0.24384188035E+03  0.46999998093E+01 0.  1.
</event>
<event>
 5   0  0.4803890E-02  0.4990951E+03  0.7818609E-02  0.1014015E+00
       -1   -1    0    0    0  501  0.00000000000E+00  0.00000000000E+00  0.97400778656E+02  0.97400778786E+02  0.50400001928E-02 0.  1.
        1   -1    0    0  501    0  0.00000000000E+00  0.00000000000E+00 -0.63935811406E+03  0.63935811408E+03  0.50400001928E-02 0. -1.
    10030    2    1    2    0    0  0.00000000000E+00  0.00000000000E+00 -0.54195733540E+03  0.73675889286E+03  0.49909509396E+03 0.  0.
        5    1    3    3  502    0  0.23005217301E+03 -0.16512130615E+02 -0.13050595827E+03  0.26504819921E+03  0.46999998093E+01 0.  1.
       -5    1    3    3    0  502 -0.23005217301E+03  0.16512130615E+02 -0.41145137713E+03  0.47171069365E+03  0.46999998093E+01 0. -1.
</event>
<event>
 5   0  0.8208720E-02  0.4995212E+03  0.7818609E-02  0.1013904E+00
        2   -1    0    0  501    0  0.00000000000E+00  0.00000000000E+00  0.75228985503E+02  0.75228985546E+02  0.25500000920E-02 0. -1.
       -2   -1    0    0    0  501  0.00000000000E+00  0.00000000000E+00 -0.82920653020E+03  0.82920653021E+03  0.25500000920E-02 0.  1.
    10030    2    1    2    0    0  0.00000000000E+00  0.00000000000E+00 -0.75397754470E+03  0.90443551575E+03  0.49952123503E+03 0.  0.
        3    1    3    3  502    0 -0.18998271716E+03  0.41421209727E+02 -0.93172760465E+02  0.21561614719E+03  0.10100000352E+00 0. -1.
       -3    1    3    3    0  502  0.18998271716E+03 -0.41421209727E+02 -0.66080478424E+03  0.68881936856E+03  0.10100000352E+00 0.  1.
</event>
<event>
 5   0  0.7881060E-02  0.5003282E+03  0.7818609E-02  0.1013693E+00
        2   -1    0    0  501    0  0.00000000000E+00  0.00000000000E+00  0.56872773411E+03  0.56872773412E+03  0.25500000920E-02 0. -1.
       -2   -1    0    0    0  501  0.00000000000E+00  0.00000000000E+00 -0.11003872815E+03  0.11003872818E+03  0.25500000920E-02 0.  1.
    10030    2    1    2    0    0  0.00000000000E+00  0.00000000000E+00  0.45868900596E+03  0.67876646230E+03  0.50032819844E+03 0.  0.
        1    1    3    3  502    0 -0.12497606873E+03 -0.20786799904E+03  0.31246532953E+03  0.39555366888E+03  0.50400001928E-02 0. -1.
       -1    1    3    3    0  502  0.12497606873E+03  0.20786799904E+03  0.14622367643E+03  0.28321279342E+03  0.50400001928E-02 0.  1.
</event>
<event>
 5   0  0.4865501E-02  0.5009821E+03  0.7818609E-02  0.1013523E+00
       -1   -1    0    0    0  501  0.00000000000E+00  0.00000000000E+00  0.20683181970E+03  0.20683181976E+03  0.50400001928E-02 0.  1.
        1   -1    0    0  501    0  0.00000000000E+00  0.00000000000E+00 -0.30336612939E+03  0.30336612943E+03  0.50400001928E-02 0. -1.
    10030    2    1    2    0    0  0.00000000000E+00  0.00000000000E+00 -0.96534309689E+02  0.51019794919E+03  0.50098210987E+03 0.  0.
        2    1    3    3  502    0  0.11366985772E+03  0.29854849938E+01 -0.27556797354E+03  0.29810645367E+03  0.25500000920E-02 0. -1.
       -2    1    3    3    0  502 -0.11366985772E+03 -0.29854849938E+01  0.17903366385E+03  0.21209149552E+03  0.25500000920E-02 0.  1.
</event>
<event>
 5   0  0.3210875E-02  0.4986287E+03  0.7818609E-02  0.1014137E+00
        4   -1    0    0  501    0  0.00000000000E+00  0.00000000000E+00  0.76708997114E+02  0.76719509502E+02  0.12699999809E+01 0.  1.
       -4   -1    0    0    0  501  0.00000000000E+00  0.00000000000E+00 -0.81023802884E+03  0.81023902416E+03  0.12699999809E+01 0. -1.
    10030    2    1    2    0    0  0.00000000000E+00  0.00000000000E+00 -0.73352903173E+03  0.88695853367E+03  0.49862871965E+03 0.  0.
        3    1    3    3  502    0 -0.10500442224E+03  0.72925165024E+02  0.13970996152E+02  0.12860484952E+03  0.10100000352E+00 0.  1.
       -3    1    3    3    0  502  0.10500442224E+03 -0.72925165024E+02 -0.74750002788E+03  0.75835368415E+03  0.10100000352E+00 0. -1.
</event>
<event>
 5   0  0.8208720E-02  0.5014979E+03  0.7818609E-02  0.1013389E+00
       -2   -1    0    0    0  501  0.00000000000E+00  0.00000000000E+00  0.48042005767E+03  0.48042005767E+03  0.25500000920E-02 0.  1.
        2   -1    0    0  501    0  0.00000000000E+00  0.00000000000E+00 -0.13087510219E+03  0.13087510221E+03  0.25500000920E-02 0. -1.
    10030    2    1    2    0    0  0.00000000000E+00  0.00000000000E+00  0.34954495548E+03  0.61129515989E+03  0.50149785304E+03 0.  0.
        3    1    3    3  502    0  0.19915342391E+03 -0.13065979185E+03  0.79251329239E+02  0.25102758981E+03  0.10100000352E+00 0.  1.
       -3    1    3    3    0  502 -0.19915342391E+03  0.13065979185E+03  0.27029362624E+03  0.36026757007E+03  0.10100000352E+00 0. -1.
</event>
<event>
 5   0  0.8208720E-02  0.5034450E+03  0.7818609E-02  0.1012884E+00
        2   -1    0    0  501    0  0.00000000000E+00  0.00000000000E+00  0.49982972164E+03  0.49982972165E+03  0.25500000920E-02 0. -1.
       -2   -1    0    0    0  501  0.00000000000E+00  0.00000000000E+00 -0.12677161144E+03  0.12677161147E+03  0.25500000920E-02 0.  1.
    10030    2    1    2    0    0  0.00000000000E+00  0.00000000000E+00  0.37305811020E+03  0.62660133312E+03  0.50344500899E+03 0.  0.
        3    1    3    3  502    0 -0.91328488965E+01  0.55173772467E+02 -0.11894174203E+03  0.13143326176E+03  0.10100000352E+00 0.  1.
       -3    1    3    3    0  502  0.91328488965E+01 -0.55173772467E+02  0.49199985223E+03  0.49516807136E+03  0.10100000352E+00 0. -1.
</event>
<event>
 5   0  0.4865501E-02  0.4998052E+03  0.7818609E-02  0.1013830E+00
       -1   -1    0    0    0  501  0.00000000000E+00  0.00000000000E+00  0.10801355643E+04  0.10801355643E+04  0.50400001928E-02 0.  1.
        1   -1    0    0  501    0  0.00000000000E+00  0.00000000000E+00 -0.57818025618E+02  0.57818025838E+02  0.50400001928E-02 0. -1.
    10030    2    1    2    0    0  0.00000000000E+00  0.00000000000E+00  0.10223175387E+04  0.11379535901E+04  0.49980518548E+03 0.  0.
        2    1    3    3  502    0  0.18485517414E+03  0.15608109699E+03  0.65368248375E+03  0.69701759935E+03  0.25500000920E-02 0.  1.
       -2    1    3    3    0  502 -0.18485517414E+03 -0.15608109699E+03  0.36863505491E+03  0.44093599077E+03  0.25500000920E-02 0. -1.
</event>
<event>
 5   0  0.5191358E-02  0.4976723E+03  0.7818609E-02  0.1014388E+00
       -1   -1    0    0    0  501  0.00000000000E+00  0.00000000000E+00  0.39762244768E+03  0.39762244771E+03  0.50400001928E-02 0.  1.
        1   -1    0    0  501    0  0.00000000000E+00  0.00000000000E+00 -0.15572418318E+03  0.15572418326E+03  0.50400001928E-02 0. -1.
    10030    2    1    2    0    0  0.00000000000E+00  0.00000000000E+00  0.24189826450E+03  0.55334663097E+03  0.49767230547E+03 0.  0.
        4    1    3    3  502    0 -0.29426497003E+02  0.19888844514E+03 -0.42065056493E+02  0.20541084249E+03  0.12699999809E+01 0. -1.
       -4    1    3    3    0  502  0.29426497003E+02 -0.19888844514E+03  0.28396332099E+03  0.34793578848E+03  0.12699999809E+01 0.  1.
</event>
<event>
 5   0  0.5038436E-02  0.4989228E+03  0.7818609E-02  0.1014060E+00
       -1   -1    0    0    0  501  0.00000000000E+00  0.00000000000E+00  0.19725172434E+03  0.19725172441E+03  0.50400001928E-02 0.  1.
        1   -1    0    0  501    0  0.00000000000E+00  0.00000000000E+00 -0.31549024986E+03  0.31549024990E+03  0.50400001928E-02 0. -1.
    10030    2    1    2    0    0  0.00000000000E+00  0.00000000000E+00 -0.11823852551E+03  0.51274197430E+03  0.49892282299E+03 0.  0.
        1    1    3    3  502    0 -0.13670007337E+02 -0.14157904822E+03  0.15149489390E+03  0.20780326970E+03  0.50400001928E-02 0.  1.
       -1    1    3    3    0  502  0.13670007337E+02  0.14157904822E+03 -0.26973341941E+03  0.30493870461E+03  0.50400001928E-02 0. -1.
</event>
<event>
 5   0  0.5038436E-02  0.5031380E+03  0.7818609E-02  0.1012963E+00
       -1   -1    0    0    0  501  0.00000000000E+00  0.00000000000E+00  0.84409796116E+03  0.84409796118E+03  0.50400001928E-02 0. -1.
        1   -1    0    0  501    0  0.00000000000E+00  0.00000000000E+00 -0.74975834599E+02  0.74975834769E+02  0.50400001928E-02 0.  1.
    10030    2    1    2    0    0  0.00000000000E+00  0.00000000000E+00  0.76912212656E+03  0.91907379595E+03  0.50313795010E+03 0.  0.
        1    1    3    3  502    0 -0.10234570665E+03  0.20079851099E+03  0.58872727754E+03  0.63039233263E+03  0.50400001928E-02 0. -1.
       -1    1    3    3    0  502  0.10234570665E+03 -0.20079851099E+03  0.18039484902E+03  0.28868146332E+03  0.50400001928E-02 0.  1.
</event>
<event>
 5   0  0.4865501E-02  0.4907614E+03  0.7818609E-02  0.1016219E+00
        1   -1    0    0  501    0  0.00000000000E+00  0.00000000000E+00  0.20071856368E+03  0.20071856374E+03  0.50400001928E-02 0.  1.
       -1   -1    0    0    0  501  0.00000000000E+00  0.00000000000E+00 -0.29998062668E+03  0.29998062672E+03  0.50400001928E-02 0. -1.
    10030    2    1    2    0    0  0.00000000000E+00  0.00000000000E+00 -0.99262062999E+02  0.50069919046E+03  0.49076136989E+03 0.  0.
        2    1    3    3  502    0  0.69787322963E+02  0.18994879650E+03  0.91962825006E+02  0.22227905193E+03  0.25500000920E-02 0.  1.
       -2    1    3    3    0  502 -0.69787322963E+02 -0.18994879650E+03 -0.19122488800E+03  0.27842013853E+03  0.25500000920E-02 0. -1.
</event>
<event>
 5   0  0.4803890E-02  0.4921699E+03  0.7818609E-02  0.1015843E+00
        1   -1    0    0  501    0  0.00000000000E+00  0.00000000000E+00  0.12614056990E+03  0.12614057000E+03  0.50400001928E-02 0. -1.
       -1   -1    0    0    0  501  0.00000000000E+00  0.00000000000E+00 -0.48008180516E+03  0.48008180518E+03  0.50400001928E-02 0.  1.
    10030    2    1    2    0    0  0.00000000000E+00  0.00000000000E+00 -0.35394123526E+03  0.60622237519E+03  0.49216985905E+03 0.  0.
        5    1    3    3  502    0 -0.12159971566E+03 -0.14074678088E+03 -0.37535076656E+03  0.41893488173E+03  0.46999998093E+01 0.  1.
       -5    1    3    3    0  502  0.12159971566E+03  0.14074678088E+03  0.21409531303E+02  0.18728749345E+03  0.46999998093E+01 0. -1.
</event>
<event>
 5   0  0.3210875E-02  0.5005588E+03  0.7818609E-02  0.1013633E+00
       -3   -1    0    0    0  501  0.00000000000E+00  0.00000000000E+00  0.21252974043E+03  0.21252976442E+03  0.10100000352E+00 0.  1.
        3   -1    0    0  501    0  0.00000000000E+00  0.00000000000E+00 -0.29473417628E+03  0.29473419359E+03  0.10100000352E+00 0. -1.
    10030    2    1    2    0    0  0.00000000000E+00  0.00000000000E+00 -0.82204435858E+02  0.50726395801E+03  0.50055884152E+03 0.  0.
        1    1    3    3  502    0  0.11849813678E+03  0.18184862236E+03  0.85182684482E+02  0.23316693513E+03  0.50400001928E-02 0.  1.
       -1    1    3    3    0  502 -0.11849813678E+03 -0.18184862236E+03 -0.16738712034E+03  0.27409702289E+03  0.50400001928E-02 0. -1.
</event>
<event>
 5   0  0.4865501E-02  0.5018824E+03  0.7818609E-02  0.1013289E+00
        1   -1    0    0  501    0  0.00000000000E+00  0.00000000000E+00  0.34924340999E+03  0.34924341003E+03  0.50400001928E-02 0.  1.
       -1   -1    0    0    0  501  0.00000000000E+00  0.00000000000E+00 -0.18030831623E+03  0.18030831630E+03  0.50400001928E-02 0. -1.
    10030    2    1    2    0    0  0.00000000000E+00  0.00000000000E+00  0.16893509377E+03  0.52955172633E+03  0.50188242144E+03 0.  0.
        2    1    3    3  502    0  0.17481928766E+03  0.17133339318E+03  0.26152330609E+02  0.24617241795E+03  0.25500000920E-02 0. -1.
       -2    1    3    3    0  502 -0.17481928766E+03 -0.17133339318E+03  0.14278276316E+03  0.28337930838E+03  0.25500000920E-02 0.  1.
</event>
<event>
 5   0  0.7881060E-02  0.5025441E+03  0.7818609E-02  0.1013117E+00
       -2   -1    0    0    0  501  0.00000000000E+00  0.00000000000E+00  0.71432141606E+02  0.71432141652E+02  0.25500000920E-02 0. -1.
        2   -1    0    0  501    0  0.00000000000E+00  0.00000000000E+00 -0.88388288689E+03  0.88388288689E+03  0.25500000920E-02 0.  1.
    10030    2    1    2    0    0  0.00000000000E+00  0.00000000000E+00 -0.81245074528E+03  0.95531502855E+03  0.50254411772E+03 0.  0.
        1    1    3    3  502    0  0.12347659561E+03  0.18716346569E+03 -0.62180615224E+03  0.66099888316E+03  0.50400001928E-02 0.  1.
       -1    1    3    3    0  502 -0.12347659561E+03 -0.18716346569E+03 -0.19064459305E+03  0.29431614539E+03  0.50400001928E-02 0. -1.
</event>
<event>
 5   0  0.7881060E-02  0.4994788E+03  0.7818609E-02  0.1013915E+00
        2   -1    0    0  501    0  0.00000000000E+00  0.00000000000E+00  0.97563723225E+03  0.97563723225E+03  0.25500000920E-02 0.  1.
       -2   -1    0    0    0  501  0.00000000000E+00  0.00000000000E+00 -0.63927221102E+02  0.63927221153E+02  0.25500000920E-02 0. -1.
    10030    2    1    2    0    0  0.00000000000E+00  0.00000000000E+00  0.91171001115E+03  0.10395644534E+04  0.49947883675E+03 0.  0.
        1    1    3    3  502    0  0.55554304452E+02  0.65428021208E+02 -0.32264560766E+02  0.91695739318E+02  0.50400001928E-02 0. -1.
       -1    1    3    3    0  502 -0.55554304452E+02 -0.65428021208E+02  0.94397457191E+03  0.94786871409E+03  0.50400001928E-02 0.  1.
</event>
<event>
 5   0  0.7698747E-02  0.5307931E+03  0.7818609E-02  0.1006040E+00
        2   -1    0    0  501    0  0.00000000000E+00  0.00000000000E+00  0.10424395741E+04  0.10424395741E+04  0.25500000920E-02 0.  1.
       -2   -1    0    0    0  501  0.00000000000E+00  0.00000000000E+00 -0.67567789032E+02  0.67567789080E+02  0.25500000920E-02 0. -1.
    10030    2    1    2    0    0  0.00000000000E+00  0.00000000000E+00  0.97487178505E+03  0.11100073632E+04  0.53079313202E+03 0.  0.
        2    1    3    3  502    0 -0.13242466864E+03  0.18334852982E+03  0.19704655271E+03  0.29996719853E+03  0.25500000920E-02 0. -1.
       -2    1    3    3    0  502  0.13242466864E+03 -0.18334852982E+03  0.77782523234E+03  0.81004016464E+03  0.25500000920E-02 0.  1.
</event>
<event>
 5   0  0.4865501E-02  0.4968310E+03  0.7818609E-02  0.1014609E+00
        1   -1    0    0  501    0  0.00000000000E+00  0.00000000000E+00  0.10927004465E+03  0.10927004477E+03  0.50400001928E-02 0. -1.
       -1   -1    0    0    0  501  0.00000000000E+00  0.00000000000E+00 -0.56475001491E+03  0.56475001493E+03  0.50400001928E-02 0.  1.
    10030    2    1    2    0    0  0.00000000000E+00  0.00000000000E+00 -0.45547997026E+03  0.67402005970E+03  0.49683099498E+03 0.  0.
        2    1    3    3  502    0  0.18610599794E+03 -0.11318772164E+02 -0.45043831118E+03  0.48750203000E+03  0.25500000920E-02 0.  1.
       -2    1    3    3    0  502 -0.18610599794E+03  0.11318772164E+02 -0.50416590788E+01  0.18651802970E+03  0.25500000920E-02 0. -1.
</event>
<event>
 5   0  0.5191358E-02  0.5055327E+03  0.7818609E-02  0.1012345E+00
        1   -1    0    0  501    0  0.00000000000E+00  0.00000000000E+00  0.40583026954E+03  0.40583026958E+03  0.50400001928E-02 0. -1.
       -1   -1    0    0    0  501  0.00000000000E+00  0.00000000000E+00 -0.15743237273E+03  0.15743237281E+03  0.50400001928E-02 0.  1.
    10030    2    1    2    0    0  0.00000000000E+00  0.00000000000E+00  0.24839789681E+03  0.56326264239E+03  0.50553267863E+03 0.  0.
        4    1    3    3  502    0 -0.55644306550E+02 -0.12628025815E+03 -0.11175357183E+03  0.17757664871E+03  0.12699999809E+01 0.  1.
       -4    1    3    3    0  502  0.55644306550E+02  0.12628025815E+03  0.36015146865E+03  0.38568599368E+03  0.12699999809E+01 0. -1.
</event>
<event>
 5   0  0.5038436E-02  0.4996152E+03  0.7818609E-02  0.1013879E+00
       -1   -1    0    0    0  501  0.00000000000E+00  0.00000000000E+00  0.55945804488E+02  0.55945804715E+02  0.50400001928E-02 0.  1.
        1   -1    0    0  501    0  0.00000000000E+00  0.00000000000E+00 -0.11154336958E+04  0.11154336959E+04  0.50400001928E-02 0. -1.
    10030    2    1    2    0    0  0.00000000000E+00  0.00000000000E+00 -0.10594878914E+04  0.11713795006E+04  0.49961519435E+03 0.  0.
        1    1    3    3  502    0 -0.24906852658E+03 -0.38130058391E+01 -0.57386696178E+03  0.62559808168E+03  0.50400001928E-02 0. -1.
       -1    1    3    3    0  502  0.24906852658E+03  0.38130058391E+01 -0.48562092958E+03  0.54578141890E+03  0.50400001928E-02 0.  1.
</event>
<event>
 5   0  0.4865501E-02  0.4998351E+03  0.7818609E-02  0.1013822E+00
       -1   -1    0    0    0  501  0.00000000000E+00  0.00000000000E+00  0.42301943235E+03  0.42301943238E+03  0.50400001928E-02 0. -1.
        1   -1    0    0  501    0  0.00000000000E+00  0.00000000000E+00 -0.14764993300E+03  0.14764993309E+03  0.50400001928E-02 0.  1.
    10030    2    1    2    0    0  0.00000000000E+00  0.00000000000E+00  0.27536949935E+03  0.57066936547E+03  0.49983513633E+03 0.  0.
        2    1    3    3  502    0  0.13323136462E+03 -0.19732921318E+03  0.50964164742E+02  0.24348872866E+03  0.25500000920E-02 0.  1.
       -2    1    3    3    0  502 -0.13323136462E+03  0.19732921318E+03  0.22440533461E+03  0.32718063681E+03  0.25500000920E-02 0. -1.
</event>
<event>
 5   0  0.3210875E-02  0.5022542E+03  0.7818609E-02  0.1013192E+00
       -4   -1    0    0    0  501  0.00000000000E+00  0.00000000000E+00  0.16206873125E+03  0.16207370715E+03  0.12699999809E+01 0.  1.
        4   -1    0    0  501    0  0.00000000000E+00  0.00000000000E+00 -0.38911187519E+03  0.38911394772E+03  0.12699999809E+01 0. -1.
    10030    2    1    2    0    0  0.00000000000E+00  0.00000000000E+00 -0.22704314394E+03  0.55118765488E+03  0.50225416044E+03 0.  0.
        1    1    3    3  502    0 -0.70978759887E+02 -0.19753108437E+03  0.37781428561E+02  0.21326966502E+03  0.50400001928E-02 0.  1.
       -1    1    3    3    0  502  0.70978759887E+02  0.19753108437E+03 -0.26482457250E+03  0.33791798986E+03  0.50400001928E-02 0. -1.
</event>
<event>
 5   0  0.8208720E-02  0.5000297E+03  0.7818609E-02  0.1013771E+00
       -2   -1    0    0    0  501  0.00000000000E+00  0.00000000000E+00  0.44617001528E+02  0.44617001601E+02  0.25500000920E-02 0. -1.
        2   -1    0    0  501    0  0.00000000000E+00  0.00000000000E+00 -0.14009777108E+04  0.14009777108E+04  0.25500000920E-02 0.  1.
    10030    2    1    2    0    0  0.00000000000E+00  0.00000000000E+00 -0.13563607093E+04  0.14455947124E+04  0.50002969800E+03 0.  0.
        3    1    3    3  502    0 -0.24433503470E+03  0.99854321386E+01 -0.82862710754E+03  0.86395729732E+03  0.10100000352E+00 0. -1.
       -3    1    3    3    0  502  0.24433503470E+03 -0.99854321386E+01 -0.52773360178E+03  0.58163741513E+03  0.10100000352E+00 0.  1.
</event>
<event>
 5   0  0.7881060E-02  0.5140683E+03  0.7818609E-02  0.1010171E+00
        2   -1    0    0  501    0  0.00000000000E+00  0.00000000000E+00  0.10038240458E+04  0.10038240458E+04  0.25500000920E-02 0. -1.
       -2   -1    0    0    0  501  0.00000000000E+00  0.00000000000E+00 -0.65814884191E+02  0.65814884240E+02  0.25500000920E-02 0.  1.
    10030    2    1    2    0    0  0.00000000000E+00  0.00000000000E+00  0.93800916165E+03  0.10696389301E+04  0.51406833535E+03 0.  0.
        1    1    3    3  502    0 -0.14794888285E+03  0.14533101037E+03  0.15305784387E+03  0.25775313404E+03  0.50400001928E-02 0.  1.
       -1    1    3    3    0  502  0.14794888285E+03 -0.14533101037E+03  0.78495131778E+03  0.81188579605E+03  0.50400001928E-02 0. -1.
</event>
<event>
 5   0  0.8208720E-02  0.5076641E+03  0.7818609E-02  0.1011798E+00
       -2   -1    0    0    0  501  0.00000000000E+00  0.00000000000E+00  0.13908422813E+03  0.13908422816E+03  0.25500000920E-02 0.  1.
        2   -1    0    0  501    0  0.00000000000E+00  0.00000000000E+00 -0.46324948576E+03  0.46324948576E+03  0.25500000920E-02 0. -1.
    10030    2    1    2    0    0  0.00000000000E+00  0.00000000000E+00 -0.32416525762E+03  0.60233371392E+03  0.50766405100E+03 0.  0.
        3    1    3    3  502    0  0.46220240775E+02  0.14964665711E+03 -0.39908276372E+03  0.42871610087E+03  0.10100000352E+00 0. -1.
       -3    1    3    3    0  502 -0.46220240775E+02 -0.14964665711E+03  0.74917506098E+02  0.17361761305E+03  0.10100000352E+00 0.  1.
</event>
<event>
 5   0  0.5191358E-02  0.4987194E+03  0.7818609E-02  0.1014114E+00
        1   -1    0    0  501    0  0.00000000000E+00  0.00000000000E+00  0.17637966427E+04  0.17637966427E+04  0.50400001928E-02 0. -1.
       -1   -1    0    0    0  501  0.00000000000E+00  0.00000000000E+00 -0.35253650031E+02  0.35253650392E+02  0.50400001928E-02 0.  1.
    10030    2    1    2    0    0  0.00000000000E+00  0.00000000000E+00  0.17285429927E+04  0.17990502931E+04  0.49871943976E+03 0.  0.
        4    1    3    3  502    0 -0.14268196750E+02 -0.24501261481E+03  0.10233177023E+04  0.10523381089E+04  0.12699999809E+01 0. -1.
       -4    1    3    3    0  502  0.14268196750E+02  0.24501261481E+03  0.70522529042E+03  0.74671218418E+03  0.12699999809E+01 0.  1.
</event>
<event>
 5   0  0.7698747E-02  0.4649508E+03  0.7818609E-02  0.1023355E+00
        2   -1    0    0  501    0  0.00000000000E+00  0.00000000000E+00  0.11154450713E+04  0.11154450713E+04  0.25500000920E-02 0.  1.
       -2   -1    0    0    0  501  0.00000000000E+00  0.00000000000E+00 -0.48451342193E+02  0.48451342260E+02  0.25500000920E-02 0. -1.
    10030    2    1    2    0    0  0.00000000000E+00  0.00000000000E+00  0.10669937291E+04  0.11638964136E+04  0.46495079692E+03 0.  0.
        2    1    3    3  502    0 -0.21328367612E+03  0.55944518678E+01  0.76460674862E+03  0.79381654331E+03  0.25500000920E-02 0.  1.
       -2    1    3    3    0  502  0.21328367612E+03 -0.55944518678E+01  0.30238698050E+03  0.37007987027E+03  0.25500000920E-02 0. -1.
</event>
<event>
 5   0  0.7698747E-02  0.5000820E+03  0.7818609E-02  0.1013758E+00
        2   -1    0    0  501    0  0.00000000000E+00  0.00000000000E+00  0.10225006920E+04  0.10225006920E+04  0.25500000920E-02 0.  1.
       -2   -1    0    0    0  501  0.00000000000E+00  0.00000000000E+00 -0.61144709398E+02  0.61144709451E+02  0.25500000920E-02 0. -1.
    10030    2    1    2    0    0  0.00000000000E+00  0.00000000000E+00  0.96135598259E+03  0.10836454014E+04  0.50008202408E+03 0.  0.
        2    1    3    3  502    0 -0.87959394419E+02  0.15413167489E+03  0.86237292661E+03  0.88044335015E+03  0.25500000920E-02 0.  1.
       -2    1    3    3    0  502  0.87959394419E+02 -0.15413167489E+03  0.98983055980E+02  0.20320205129E+03  0.25500000920E-02 0. -1.
</event>
<event>
 5   0  0.5191358E-02  0.5035271E+03  0.7818609E-02  0.1012862E+00
        1   -1    0    0  501    0  0.00000000000E+00  0.00000000000E+00  0.15051794808E+04  0.15051794808E+04  0.50400001928E-02 0.  1.
       -1   -1    0    0    0  501  0.00000000000E+00  0.00000000000E+00 -0.42111184629E+02  0.42111184931E+02  0.50400001928E-02 0. -1.
    10030    2    1    2    0    0  0.00000000000E+00  0.00000000000E+00  0.14630682962E+04  0.15472906657E+04  0.50352712442E+03 0.  0.
        4    1    3    3  502    0  0.17476396829E+03  0.17722627787E+03  0.84780531769E+03  0.88358761183E+03  0.12699999809E+01 0.  1.
       -4    1    3    3    0  502 -0.17476396829E+03 -0.17722627787E+03  0.61526297849E+03  0.66370305392E+03  0.12699999809E+01 0. -1.
</event>
<event>
 5   0  0.4865501E-02  0.4987510E+03  0.7818609E-02  0.1014105E+00
        1   -1    0    0  501    0  0.00000000000E+00  0.00000000000E+00  0.94724670532E+03  0.94724670534E+03  0.50400001928E-02 0.  1.
       -1   -1    0    0    0  501  0.00000000000E+00  0.00000000000E+00 -0.65651471563E+02  0.65651471757E+02  0.50400001928E-02 0. -1.
    10030    2    1    2    0    0  0.00000000000E+00  0.00000000000E+00  0.88159523376E+03  0.10128981771E+04  0.49875100097E+03 0.  0.
        2    1    3    3  502    0 -0.12834785830E+03  0.15249258132E+03  0.74516377417E+03  0.77135997461E+03  0.25500000920E-02 0.  1.
       -2    1    3    3    0  502  0.12834785830E+03 -0.15249258132E+03  0.13643145959E+03  0.24153820249E+03  0.25500000920E-02 0. -1.
</event>
<event>
 5   0  0.4803890E-02  0.5169713E+03  0.7818609E-02  0.1009442E+00
       -1   -1    0    0    0  501  0.00000000000E+00  0.00000000000E+00  0.49465869099E+03  0.49465869101E+03  0.50400001928E-02 0. -1.
        1   -1    0    0  501    0  0.00000000000E+00  0.00000000000E+00 -0.13507257104E+03  0.13507257113E+03  0.50400001928E-02 0.  1.
    10030    2    1    2    0    0  0.00000000000E+00  0.00000000000E+00  0.35958611995E+03  0.62973126215E+03  0.51697126116E+03 0.  0.
        5    1    3    3  502    0  0.34106792475E+02  0.54328735422E+02 -0.12516905142E+03  0.14072763132E+03  0.46999998093E+01 0.  1.
       -5    1    3    3    0  502 -0.34106792475E+02 -0.54328735422E+02  0.48475517137E+03  0.48900363082E+03  0.46999998093E+01 0. -1.
</event>
<event>
 5   0  0.7776070E-02  0.5011507E+03  0.7818609E-02  0.1013479E+00
        2   -1    0    0  501    0  0.00000000000E+00  0.00000000000E+00  0.10247010595E+04  0.10247010595E+04  0.25500000920E-02 0. -1.
       -2   -1    0    0    0  501  0.00000000000E+00  0.00000000000E+00 -0.61274462590E+02  0.61274462643E+02  0.25500000920E-02 0.  1.
    10030    2    1    2    0    0  0.00000000000E+00  0.00000000000E+00  0.96342659687E+03  0.10859755221E+04  0.50115070294E+03 0.  0.
        4    1    3    3  502    0 -0.12744180274E+03 -0.12190338426E+03  0.86743620853E+03  0.88518305279E+03  0.12699999809E+01 0. -1.
       -4    1    3    3    0  502  0.12744180274E+03  0.12190338426E+03  0.95990388342E+02  0.20079246932E+03  0.12699999809E+01 0.  1.
</event>
<event>
 5   0  0.4803890E-02  0.4993629E+03  0.7818609E-02  0.1013945E+00
       -1   -1    0    0    0  501  0.00000000000E+00  0.00000000000E+00  0.11141650294E+03  0.11141650305E+03  0.50400001928E-02 0.  1.
        1   -1    0    0  501    0  0.00000000000E+00  0.00000000000E+00 -0.55952945749E+03  0.55952945751E+03  0.50400001928E-02 0. -1.
    10030    2    1    2    0    0  0.00000000000E+00  0.00000000000E+00 -0.44811295455E+03  0.67094596057E+03  0.49936285601E+03 0.  0.
        5    1    3    3  502    0  0.19801008475E+03 -0.14897976601E+03 -0.18339694157E+03  0.30831719465E+03  0.46999998093E+01 0. -1.
       -5    1    3    3    0  502 -0.19801008475E+03  0.14897976601E+03 -0.26471601298E+03  0.36262876591E+03  0.46999998093E+01 0.  1.
</event>
<event>
 5   0  0.7881060E-02  0.4991216E+03  0.7818609E-02  0.1014008E+00
        2   -1    0    0  501    0  0.00000000000E+00  0.00000000000E+00  0.40394191434E+03  0.40394191434E+03  0.25500000920E-02 0. -1.
       -2   -1    0    0    0  501  0.00000000000E+00  0.00000000000E+00 -0.15418202255E+03  0.15418202257E+03  0.25500000920E-02 0.  1.
    10030    2    1    2    0    0  0.00000000000E+00  0.00000000000E+00  0.24975989179E+03  0.55812393691E+03  0.49912155374E+03 0.  0.
        1    1    3    3  502    0  0.24553510232E+03 -0.29231512852E+02  0.87147714325E+02  0.26217683336E+03  0.50400001928E-02 0.  1.
       -1    1    3    3    0  502 -0.24553510232E+03  0.29231512852E+02  0.16261217746E+03  0.29594710355E+03  0.50400001928E-02 0. -1.
</event>
<event>
 5   0  0.4803890E-02  0.5012763E+03  0.7818609E-02  0.1013446E+00
       -1   -1    0    0    0  501  0.00000000000E+00  0.00000000000E+00  0.29443393127E+03  0.29443393132E+03  0.50400001928E-02 0.  1.
        1   -1    0    0  501    0  0.00000000000E+00  0.00000000000E+00 -0.21335677411E+03  0.21335677417E+03  0.50400001928E-02 0. -1.
    10030    2    1    2    0    0  0.00000000000E+00  0.00000000000E+00  0.81077157159E+02  0.50779070549E+03  0.50127626631E+03 0.  0.
        5    1    3    3  502    0 -0.65777137415E+02 -0.20725756197E+03 -0.85639602994E+02  0.23374892599E+03  0.46999998093E+01 0. -1.
       -5    1    3    3    0  502  0.65777137415E+02  0.20725756197E+03  0.16671676015E+03  0.27404177951E+03  0.46999998093E+01 0.  1.
</event>
<event>
 5   0  0.5038436E-02  0.5004481E+03  0.7818609E-02  0.1013662E+00
        1   -1    0    0  501    0  0.00000000000E+00  0.00000000000E+00  0.59802055433E+03  0.59802055435E+03  0.50400001928E-02 0. -1.
       -1   -1    0    0    0  501  0.00000000000E+00  0.00000000000E+00 -0.10469888141E+03  0.10469888153E+03  0.50400001928E-02 0.  1.
    10030    2    1    2    0    0  0.00000000000E+00  0.00000000000E+00  0.49332167291E+03  0.70271943588E+03  0.50044813178E+03 0.  0.
        1    1    3    3  502    0  0.18937476550E+03 -0.50353818885E+02  0.46516219299E+03  0.50475159703E+03  0.50400001928E-02 0. -1.
       -1    1    3    3    0  502 -0.18937476550E+03  0.50353818885E+02  0.28159479919E+02  0.19796783885E+03  0.50400001928E-02 0.  1.
</event>
<event>
 5   0  0.4884478E-02  0.5018973E+03  0.7818609E-02  0.1013285E+00
       -1   -1    0    0    0  501  0.00000000000E+00  0.00000000000E+00  0.11040092237E+03  0.11040092249E+03  0.50400001928E-02 0.  1.
        1   -1    0    0  501    0  0.00000000000E+00  0.00000000000E+00 -0.57042306674E+03  0.57042306676E+03  0.50400001928E-02 0. -1.
    10030    2    1    2    0    0  0.00000000000E+00  0.00000000000E+00 -0.46002214437E+03  0.68082398925E+03  0.50189733116E+03 0.  0.
        3    1    3    3  502    0  0.35107934128E+02 -0.10092012397E+03  0.78000536805E+02  0.13229335736E+03  0.10100000352E+00 0.  1.
       -3    1    3    3    0  502 -0.35107934128E+02  0.10092012397E+03 -0.53802268117E+03  0.54853063189E+03  0.10100000352E+00 0. -1.
</event>
<event>
 5   0  0.4803890E-02  0.5009693E+03  0.7818609E-02  0.1013526E+00
       -1   -1    0    0    0  501  0.00000000000E+00  0.00000000000E+00  0.55057806486E+02  0.55057806717E+02  0.50400001928E-02 0. -1.
        1   -1    0    0  501    0  0.00000000000E+00  0.00000000000E+00 -0.11395760979E+04  0.11395760979E+04  0.50400001928E-02 0.  1.
    10030    2    1    2    0    0  0.00000000000E+00  0.00000000000E+00 -0.10845182914E+04  0.11946339047E+04  0.50096930213E+03 0.  0.
        5    1    3    3  502    0 -0.93860474332E+02 -0.27458370225E+02 -0.10920567057E+04  0.10964368150E+04  0.46999998093E+01 0.  1.
       -5    1    3    3    0  502  0.93860474332E+02  0.27458370225E+02  0.75384142570E+01  0.98197089697E+02  0.46999998093E+01 0. -1.
</event>
<event>
 5   0  0.7776070E-02  0.4994516E+03  0.7818609E-02  0.1013922E+00
       -2   -1    0    0    0  501  0.00000000000E+00  0.00000000000E+00  0.37953901493E+03  0.37953901494E+03  0.25500000920E-02 0.  1.
        2   -1    0    0  501    0  0.00000000000E+00  0.00000000000E+00 -0.16431239269E+03  0.16431239271E+03  0.25500000920E-02 0. -1.
    10030    2    1    2    0    0  0.00000000000E+00  0.00000000000E+00  0.21522662223E+03  0.54385140765E+03  0.49945155389E+03 0.  0.
        4    1    3    3  502    0  0.14109343050E+01  0.37902560251E+02  0.37638075376E+03  0.37828914802E+03  0.12699999809E+01 0.  1.
       -4    1    3    3    0  502 -0.14109343050E+01 -0.37902560251E+02 -0.16115413152E+03  0.16556225964E+03  0.12699999809E+01 0. -1.
</event>
<event>
 5   0  0.8208720E-02  0.4899970E+03  0.7818609E-02  0.1016423E+00
        2   -1    0    0  501    0  0.00000000000E+00  0.00000000000E+00  0.72399020885E+03  0.72399020886E+03  0.25500000920E-02 0.  1.
       -2   -1    0    0    0  501  0.00000000000E+00  0.00000000000E+00 -0.82907569792E+02  0.82907569831E+02  0.25500000920E-02 0. -1.
    10030    2    1    2    0    0  0.00000000000E+00  0.00000000000E+00  0.64108263906E+03  0.80689777869E+03  0.48999701545E+03 0.  0.
        3    1    3    3  502    0  0.65324562035E+02  0.14291953378E+03  0.63007139063E+03  0.64937143380E+03  0.10100000352E+00 0.  1.
       -3    1    3    3    0  502 -0.65324562035E+02 -0.14291953378E+03  0.11011248427E+02  0.15752634489E+03  0.10100000352E+00 0. -1.
</event>
<event>
 5   0  0.7698747E-02  0.5000721E+03  0.7818609E-02  0.1013760E+00
       -2   -1    0    0    0  501  0.00000000000E+00  0.00000000000E+00  0.37213068357E+03  0.37213068358E+03  0.25500000920E-02 0.  1.
        2   -1    0    0  501    0  0.00000000000E+00  0.00000000000E+00 -0.16800021188E+03  0.16800021190E+03  0.25500000920E-02 0. -1.
    10030    2    1    2    0    0  0.00000000000E+00  0.00000000000E+00  0.20413047169E+03  0.54013089548E+03  0.50007212958E+03 0.  0.
        2    1    3    3  502    0  0.78656724020E+02 -0.15796285329E+03 -0.89265684360E+02  0.19775617731E+03  0.25500000920E-02 0. -1.
       -2    1    3    3    0  502 -0.78656724020E+02  0.15796285329E+03  0.29339615605E+03  0.34237471817E+03  0.25500000920E-02 0.  1.
</event>
<event>
 5   0  0.7881060E-02  0.5088921E+03  0.7818609E-02  0.1011484E+00
       -2   -1    0    0    0  501  0.00000000000E+00  0.00000000000E+00  0.97179542535E+02  0.97179542569E+02  0.25500000920E-02 0. -1.
        2   -1    0    0  501    0  0.00000000000E+00  0.00000000000E+00 -0.66621820783E+03  0.66621820783E+03  0.25500000920E-02 0.  1.
    10030    2    1    2    0    0  0.00000000000E+00  0.00000000000E+00 -0.56903866529E+03  0.76339775040E+03  0.50889205409E+03 0.  0.
        1    1    3    3  502    0  0.13692689705E+03 -0.27698368279E+02 -0.60354248671E+03  0.61949956257E+03  0.50400001928E-02 0.  1.
       -1    1    3    3    0  502 -0.13692689705E+03  0.27698368279E+02  0.34503821419E+02  0.14389818782E+03  0.50400001928E-02 0. -1.
</event>
<event>
 5   0  0.7933103E-02  0.4977289E+03  0.7818609E-02  0.1014373E+00
       -2   -1    0    0    0  501  0.00000000000E+00  0.00000000000E+00  0.78582458607E+02  0.78582458649E+02  0.25500000920E-02 0. -1.
        2   -1    0    0  501    0  0.00000000000E+00  0.00000000000E+00 -0.78813403460E+03  0.78813403461E+03  0.25500000920E-02 0.  1.
    10030    2    1    2    0    0  0.00000000000E+00  0.00000000000E+00 -0.70955157600E+03  0.86671649326E+03  0.49772888271E+03 0.  0.
        5    1    3    3  502    0  0.24189430172E+03  0.12808524453E+02 -0.45381071318E+03  0.51443480140E+03  0.46999998093E+01 0.  1.
       -5    1    3    3    0  502 -0.24189430172E+03 -0.12808524453E+02 -0.25574086282E+03  0.35228169185E+03  0.46999998093E+01 0. -1.
</event>
<event>
 5   0  0.8208720E-02  0.4973102E+03  0.7818609E-02  0.1014483E+00
        2   -1    0    0  501    0  0.00000000000E+00  0.00000000000E+00  0.28507651275E+03  0.28507651276E+03  0.25500000920E-02 0. -1.
       -2   -1    0    0    0  501  0.00000000000E+00  0.00000000000E+00 -0.21688686260E+03  0.21688686261E+03  0.25500000920E-02 0.  1.
    10030    2    1    2    0    0  0.00000000000E+00  0.00000000000E+00  0.68189650153E+02  0.50196337538E+03  0.49731016663E+03 0.  0.
        3    1    3    3  502    0  0.43514250340E+02 -0.17240152878E+03 -0.14135206162E+03  0.22714795318E+03  0.10100000352E+00 0.  1.
       -3    1    3    3    0  502 -0.43514250340E+02  0.17240152878E+03  0.20954171177E+03  0.27481542220E+03  0.10100000352E+00 0. -1.
</event>
<event>
 5   0  0.5038436E-02  0.4986702E+03  0.7818609E-02  0.1014127E+00
        1   -1    0    0  501    0  0.00000000000E+00  0.00000000000E+00  0.61076776922E+03  0.61076776924E+03  0.50400001928E-02 0.  1.
       -1   -1    0    0    0  501  0.00000000000E+00  0.00000000000E+00 -0.10178660951E+03  0.10178660963E+03  0.50400001928E-02 0. -1.
    10030    2    1    2    0    0  0.00000000000E+00  0.00000000000E+00  0.50898115971E+03  0.71255437887E+03  0.49867015342E+03 0.  0.
        1    1    3    3  502    0  0.81540310584E+01 -0.22575842879E+03  0.40527012090E+03  0.46397977038E+03  0.50400001928E-02 0.  1.
       -1    1    3    3    0  502 -0.81540310584E+01  0.22575842879E+03  0.10371103880E+03  0.24857460850E+03  0.50400001928E-02 0. -1.
</event>
<event>
 5   0  0.4884478E-02  0.5031849E+03  0.7818609E-02  0.1012951E+00
        1   -1    0    0  501    0  0.00000000000E+00  0.00000000000E+00  0.50337503739E+03  0.50337503742E+03  0.50400001928E-02 0.  1.
       -1   -1    0    0    0  501  0.00000000000E+00  0.00000000000E+00 -0.12574871105E+03  0.12574871115E+03  0.50400001928E-02 0. -1.
    10030    2    1    2    0    0  0.00000000000E+00  0.00000000000E+00  0.37762632634E+03  0.62912374857E+03  0.50318490505E+03 0.  0.
        3    1    3    3  502    0 -0.22538709759E+03 -0.43817461409E+02  0.31741281116E+03  0.39175274929E+03  0.10100000352E+00 0.  1.
       -3    1    3    3    0  502  0.22538709759E+03  0.43817461409E+02  0.60213515175E+02  0.23737099927E+03  0.10100000352E+00 0. -1.
</event>
<event>
 5   0  0.4803890E-02  0.5029014E+03  0.7818609E-02  0.1013024E+00
       -1   -1    0    0    0  501  0.00000000000E+00  0.00000000000E+00  0.73630285742E+03  0.73630285744E+03  0.50400001928E-02 0.  1.
        1   -1    0    0  501    0  0.00000000000E+00  0.00000000000E+00 -0.85871524828E+02  0.85871524975E+02  0.50400001928E-02 0. -1.
    10030    2    1    2    0    0  0.00000000000E+00  0.00000000000E+00  0.65043133260E+03  0.82217438242E+03  0.50290137868E+03 0.  0.
        5    1    3    3  502    0 -0.47474815750E+02  0.19280233178E+02 -0.77172256768E+02  0.92753613055E+02  0.46999998093E+01 0. -1.
       -5    1    3    3    0  502  0.47474815750E+02 -0.19280233178E+02  0.72760358936E+03  0.72942076936E+03  0.46999998093E+01 0.  1.
</event>
<event>
 5   0  0.4884478E-02  0.4996502E+03  0.7818609E-02  0.1013870E+00
       -1   -1    0    0    0  501  0.00000000000E+00  0.00000000000E+00  0.70461407994E+02  0.70461408174E+02  0.50400001928E-02 0.  1.
        1   -1    0    0  501    0  0.00000000000E+00  0.00000000000E+00 -0.88576968461E+03  0.88576968462E+03  0.50400001928E-02 0. -1.
    10030    2    1    2    0    0  0.00000000000E+00  0.00000000000E+00 -0.81530827661E+03  0.95623109279E+03  0.49965019455E+03 0.  0.
        3    1    3    3  502    0 -0.77501639080E+02 -0.22498134578E+03 -0.26203589343E+03  0.35395752521E+03  0.10100000352E+00 0.  1.
       -3    1    3    3    0  502  0.77501639080E+02  0.22498134578E+03 -0.55327238319E+03  0.60227356758E+03  0.10100000352E+00 0. -1.
</event>
<event>
 5   0  0.7698747E-02  0.5005528E+03  0.7818609E-02  0.1013635E+00
        2   -1    0    0  501    0  0.00000000000E+00  0.00000000000E+00  0.10058580781E+04  0.10058580781E+04  0.25500000920E-02 0. -1.
       -2   -1    0    0    0  501  0.00000000000E+00  0.00000000000E+00 -0.62273475276E+02  0.62273475328E+02  0.25500000920E-02 0.  1.
    10030    2    1    2    0    0  0.00000000000E+00  0.00000000000E+00  0.94358460285E+03  0.10681315535E+04  0.50055280716E+03 0.  0.
        2    1    3    3  502    0  0.10230008696E+03  0.22573376987E+03  0.54624186453E+03  0.59983432481E+03  0.25500000920E-02 0. -1.
       -2    1    3    3    0  502 -0.10230008696E+03 -0.22573376987E+03  0.39734273832E+03  0.46829722865E+03  0.25500000920E-02 0.  1.
</event>
<event>
 5   0  0.8208720E-02  0.4981056E+03  0.7818609E-02  0.1014275E+00
       -2   -1    0    0    0  501  0.00000000000E+00  0.00000000000E+00  0.96346099004E+02  0.96346099038E+02  0.25500000920E-02 0.  1.
        2   -1    0    0  501    0  0.00000000000E+00  0.00000000000E+00 -0.64379674631E+03  0.64379674631E+03  0.25500000920E-02 0. -1.
    10030    2    1    2    0    0  0.00000000000E+00  0.00000000000E+00 -0.54745064731E+03  0.74014284535E+03  0.49810563166E+03 0.  0.
        3    1    3    3  502    0 -0.62924829955E+02 -0.29981419604E+02 -0.62900790605E+03  0.63285810086E+03  0.10100000352E+00 0. -1.
       -3    1    3    3    0  502  0.62924829955E+02  0.29981419604E+02  0.81557258745E+02  0.10728474449E+03  0.10100000352E+00 0.  1.
</event>
<event>
 5   0  0.4884478E-02  0.4999310E+03  0.7818609E-02  0.1013797E+00
       -1   -1    0    0    0  501  0.00000000000E+00  0.00000000000E+00  0.10025465898E+04  0.10025465898E+04  0.50400001928E-02 0. -1.
        1   -1    0    0  501    0  0.00000000000E+00  0.00000000000E+00 -0.62324047282E+02  0.62324047485E+02  0.50400001928E-02 0.  1.
    10030    2    1    2    0    0  0.00000000000E+00  0.00000000000E+00  0.94022254249E+03  0.10648706373E+04  0.49993103996E+03 0.  0.
        3    1    3    3  502    0 -0.21859231310E+03  0.70891809841E+02  0.67961949742E+03  0.71741962583E+03  0.10100000352E+00 0. -1.
       -3    1    3    3    0  502  0.21859231310E+03 -0.70891809841E+02  0.26060304508E+03  0.34745101145E+03  0.10100000352E+00 0.  1.
</event>
<event>
 5   0  0.4865501E-02  0.5020736E+03  0.7818609E-02  0.1013239E+00
        1   -1    0    0  501    0  0.00000000000E+00  0.00000000000E+00  0.67695401721E+03  0.67695401723E+03  0.50400001928E-02 0.  1.
       -1   -1    0    0    0  501  0.00000000000E+00  0.00000000000E+00 -0.93092693586E+02  0.93092693722E+02  0.50400001928E-02 0. -1.
    10030    2    1    2    0    0  0.00000000000E+00  0.00000000000E+00  0.58386132363E+03  0.77004671095E+03  0.50207359204E+03 0.  0.
        2    1    3    3  502    0 -0.73181140658E+02 -0.23903080626E+03  0.25667924801E+03  0.35829518843E+03  0.25500000920E-02 0.  1.
       -2    1    3    3    0  502  0.73181140658E+02  0.23903080626E+03  0.32718207561E+03  0.41175152252E+03  0.25500000920E-02 0. -1.
</event>
<event>
 5   0  0.7698747E-02  0.5006413E+03  0.7818609E-02  0.1013612E+00
       -2   -1    0    0    0  501  0.00000000000E+00  0.00000000000E+00  0.77947113049E+02  0.77947113091E+02  0.25500000920E-02 0. -1.
        2   -1    0    0  501    0  0.00000000000E+00  0.00000000000E+00 -0.80388372565E+03  0.80388372565E+03  0.25500000920E-02 0.  1.
    10030    2    1    2    0    0  0.00000000000E+00  0.00000000000E+00 -0.72593661260E+03  0.88183083874E+03  0.50064125144E+03 0.  0.
        2    1    3    3  502    0  0.56704132626E+02 -0.88632534265E+02  0.37104100283E+02  0.11156970490E+03  0.25500000920E-02 0. -1.
       -2    1    3    3    0  502 -0.56704132626E+02  0.88632534265E+02 -0.76304071288E+03  0.77026113384E+03  0.25500000920E-02 0.  1.
</event>
<event>
 5   0  0.4865501E-02  0.5005684E+03  0.7818609E-02  0.1013631E+00
       -1   -1    0    0    0  501  0.00000000000E+00  0.00000000000E+00  0.18638866894E+03  0.18638866901E+03  0.50400001928E-02 0. -1.
        1   -1    0    0  501    0  0.00000000000E+00  0.00000000000E+00 -0.33608364161E+03  0.33608364164E+03  0.50400001928E-02 0.  1.
    10030    2    1    2    0    0  0.00000000000E+00  0.00000000000E+00 -0.14969497266E+03  0.52247231066E+03  0.50056840747E+03 0.  0.
        2    1    3    3  502    0 -0.52952477725E+02 -0.18014800436E+03 -0.24757261926E+03  0.31072410622E+03  0.25500000920E-02 0.  1.
       -2    1    3    3    0  502  0.52952477725E+02  0.18014800436E+03  0.97877646593E+02  0.21174820444E+03  0.25500000920E-02 0. -1.
</event>
<event>
 5   0  0.3210875E-02  0.4970289E+03  0.7818609E-02  0.1014557E+00
        3   -1    0    0  501    0  0.00000000000E+00  0.00000000000E+00  0.44689861107E+03  0.44689862248E+03  0.10100000352E+00 0.  1.
       -3   -1    0    0    0  501  0.00000000000E+00  0.00000000000E+00 -0.13819560656E+03  0.13819564347E+03  0.10100000352E+00 0. -1.
    10030    2    1    2    0    0  0.00000000000E+00  0.00000000000E+00  0.30870300450E+03  0.58509426595E+03  0.49702892779E+03 0.  0.
        2    1    3    3  502    0 -0.34252335886E+02  0.34767673438E+02  0.44120150361E+03  0.44389275780E+03  0.25500000920E-02 0.  1.
       -2    1    3    3    0  502  0.34252335886E+02 -0.34767673438E+02 -0.13249849911E+03  0.14120150815E+03  0.25500000920E-02 0. -1.
</event>
<event>
 5   0  0.7881060E-02  0.4980257E+03  0.7818609E-02  0.1014296E+00
       -2   -1    0    0    0  501  0.00000000000E+00  0.00000000000E+00  0.23773139354E+03  0.23773139356E+03  0.25500000920E-02 0.  1.
        2   -1    0    0  501    0  0.00000000000E+00  0.00000000000E+00 -0.26082968423E+03  0.26082968424E+03  0.25500000920E-02 0. -1.
    10030    2    1    2    0    0  0.00000000000E+00  0.00000000000E+00 -0.23098290685E+02  0.49856107780E+03  0.49802571948E+03 0.  0.
        1    1    3    3  502    0 -0.13025717769E+03 -0.21206131921E+03 -0.19952741706E+02  0.24966987678E+03  0.50400001928E-02 0.  1.
       -1    1    3    3    0  502  0.13025717769E+03  0.21206131921E+03 -0.31455489794E+01  0.24889120102E+03  0.50400001928E-02 0. -1.
</event>
<event>
 5   0  0.4865501E-02  0.5005818E+03  0.7818609E-02  0.1013627E+00
       -1   -1    0    0    0  501  0.00000000000E+00  0.00000000000E+00  0.18410691575E+03  0.18410691581E+03  0.50400001928E-02 0. -1.
        1   -1    0    0  501    0  0.00000000000E+00  0.00000000000E+00 -0.34026717640E+03  0.34026717644E+03  0.50400001928E-02 0.  1.
    10030    2    1    2    0    0  0.00000000000E+00  0.00000000000E+00 -0.15616026066E+03  0.52437409226E+03  0.50058182310E+03 0.  0.
        2    1    3    3  502    0  0.18083421684E+03 -0.15422171729E+03  0.41371574161E+01  0.23770247819E+03  0.25500000920E-02 0.  1.
       -2    1    3    3    0  502 -0.18083421684E+03  0.15422171729E+03 -0.16029741808E+03  0.28667161406E+03  0.25500000920E-02 0. -1.
</event>
<event>
 5   0  0.5038436E-02  0.4977069E+03  0.7818609E-02  0.1014379E+00
        1   -1    0    0  501    0  0.00000000000E+00  0.00000000000E+00  0.70905008632E+02  0.70905008811E+02  0.50400001928E-02 0.  1.
       -1   -1    0    0    0  501  0.00000000000E+00  0.00000000000E+00 -0.87339434148E+03  0.87339434149E+03  0.50400001928E-02 0. -1.
    10030    2    1    2    0    0  0.00000000000E+00  0.00000000000E+00 -0.80248933285E+03  0.94429935031E+03  0.49770687523E+03 0.  0.
        1    1    3    3  502    0  0.39273534893E+02  0.17567235031E+03 -0.75235442902E+02  0.19509883931E+03  0.50400001928E-02 0.  1.
       -1    1    3    3    0  502 -0.39273534893E+02 -0.17567235031E+03 -0.72725388994E+03  0.74920051099E+03  0.50400001928E-02 0. -1.
</event>
<event>
 5   0  0.4865501E-02  0.5007611E+03  0.7818609E-02  0.1013580E+00
        1   -1    0    0  501    0  0.00000000000E+00  0.00000000000E+00  0.42429982319E+03  0.42429982322E+03  0.50400001928E-02 0.  1.
       -1   -1    0    0    0  501  0.00000000000E+00  0.00000000000E+00 -0.14775029036E+03  0.14775029044E+03  0.50400001928E-02 0. -1.
    10030    2    1    2    0    0  0.00000000000E+00  0.00000000000E+00  0.27654953283E+03  0.57205011366E+03  0.50076110914E+03 0.  0.
        2    1    3    3  502    0 -0.16813960020E+02  0.23672921054E+03  0.47121823527E+02  0.24195845642E+03  0.25500000920E-02 0. -1.
       -2    1    3    3    0  502  0.16813960020E+02 -0.23672921054E+03  0.22942770931E+03  0.33009165724E+03  0.25500000920E-02 0.  1.
</event>
<event>
 5   0  0.7881060E-02  0.5000600E+03  0.7818609E-02  0.1013763E+00
        2   -1    0    0  501    0  0.00000000000E+00  0.00000000000E+00  0.12330934122E+04  0.12330934122E+04  0.25500000920E-02 0.  1.
       -2   -1    0    0    0  501  0.00000000000E+00  0.00000000000E+00 -0.50697710794E+02  0.50697710858E+02  0.25500000920E-02 0. -1.
    10030    2    1    2    0    0  0.00000000000E+00  0.00000000000E+00  0.11823957014E+04  0.12837911231E+04  0.50006004934E+03 0.  0.
        1    1    3    3  502    0 -0.23620669262E+03  0.42974984302E+02  0.77043994986E+03  0.80698089648E+03  0.50400001928E-02 0.  1.
       -1    1    3    3    0  502  0.23620669262E+03 -0.42974984302E+02  0.41195575155E+03  0.47681022659E+03  0.50400001928E-02 0. -1.
</event>
<event>
 5   0  0.7933103E-02  0.5038722E+03  0.7818609E-02  0.1012773E+00
       -2   -1    0    0    0  501  0.00000000000E+00  0.00000000000E+00  0.20456332988E+03  0.20456332990E+03  0.25500000920E-02 0. -1.
        2   -1    0    0  501    0  0.00000000000E+00  0.00000000000E+00 -0.31027944575E+03  0.31027944576E+03  0.25500000920E-02 0.  1.
    10030    2    1    2    0    0  0.00000000000E+00  0.00000000000E+00 -0.10571611587E+03  0.51484277566E+03  0.50387219262E+03 0.  0.
        5    1    3    3  502    0  0.13034769686E+03  0.11155779396E+03  0.13558639619E+03  0.21872682574E+03  0.46999998093E+01 0. -1.
       -5    1    3    3    0  502 -0.13034769686E+03 -0.11155779396E+03 -0.24130251206E+03  0.29611594992E+03  0.46999998093E+01 0.  1.
</event>
<event>
 5   0  0.4884478E-02  0.4947175E+03  0.7818609E-02  0.1015167E+00
        1   -1    0    0  501    0  0.00000000000E+00  0.00000000000E+00  0.34579600795E+03  0.34579600798E+03  0.50400001928E-02 0.  1.
       -1   -1    0    0    0  501  0.00000000000E+00  0.00000000000E+00 -0.17694347146E+03  0.17694347153E+03  0.50400001928E-02 0. -1.
    10030    2    1    2    0    0  0.00000000000E+00  0.00000000000E+00  0.16885253649E+03  0.52273947951E+03  0.49471747934E+03 0.  0.
        3    1    3    3  502    0  0.10275248988E+03  0.11432358184E+03 -0.12035087207E+03  0.19522371308E+03  0.10100000352E+00 0. -1.
       -3    1    3    3    0  502 -0.10275248988E+03 -0.11432358184E+03  0.28920340856E+03  0.32751576643E+03  0.10100000352E+00 0.  1.
</event>
<event>
 5   0  0.7776070E-02  0.4987957E+03  0.7818609E-02  0.1014094E+00
        2   -1    0    0  501    0  0.00000000000E+00  0.00000000000E+00  0.42655909414E+03  0.42655909415E+03  0.25500000920E-02 0. -1.
       -2   -1    0    0    0  501  0.00000000000E+00  0.00000000000E+00 -0.14581635473E+03  0.14581635475E+03  0.25500000920E-02 0.  1.
    10030    2    1    2    0    0  0.00000000000E+00  0.00000000000E+00  0.28074273941E+03  0.57237544890E+03  0.49879571847E+03 0.  0.
        4    1    3    3  502    0  0.18490715371E+02 -0.10858616855E+03 -0.11638699178E+03  0.16025107585E+03  0.12699999809E+01 0.  1.
       -4    1    3    3    0  502 -0.18490715371E+02  0.10858616855E+03  0.39712973119E+03  0.41212437304E+03  0.12699999809E+01 0. -1.
</event>
<event>
 5   0  0.5191358E-02  0.4911743E+03  0.7818609E-02  0.1016109E+00
        1   -1    0    0  501    0  0.00000000000E+00  0.00000000000E+00  0.79231736600E+02  0.79231736760E+02  0.50400001928E-02 0. -1.
       -1   -1    0    0    0  501  0.00000000000E+00  0.00000000000E+00 -0.76122326434E+03  0.76122326435E+03  0.50400001928E-02 0.  1.
    10030    2    1    2    0    0  0.00000000000E+00  0.00000000000E+00 -0.68199152774E+03  0.84045500112E+03  0.49117427151E+03 0.  0.
        4    1    3    3  502    0 -0.19763714468E+03 -0.13976633412E+03 -0.27010609426E+03  0.36270371402E+03  0.12699999809E+01 0. -1.
       -4    1    3    3    0  502  0.19763714468E+03  0.13976633412E+03 -0.41188543348E+03  0.47775128709E+03  0.12699999809E+01 0.  1.
</event>
<event>
 5   0  0.4803890E-02  0.5001311E+03  0.7818609E-02  0.1013745E+00
       -1   -1    0    0    0  501  0.00000000000E+00  0.00000000000E+00  0.18332964688E+03  0.18332964695E+03  0.50400001928E-02 0.  1.
        1   -1    0    0  501    0  0.00000000000E+00  0.00000000000E+00 -0.34109471037E+03  0.34109471041E+03  0.50400001928E-02 0. -1.
    10030    2    1    2    0    0  0.00000000000E+00  0.00000000000E+00 -0.15776506349E+03  0.52442435735E+03  0.50013107415E+03 0.  0.
        5    1    3    3  502    0 -0.74318256469E+02  0.84038191563E+02  0.15540993341E+03  0.19172886660E+03  0.46999998093E+01 0.  1.
       -5    1    3    3    0  502  0.74318256469E+02 -0.84038191563E+02 -0.31317499690E+03  0.33269549076E+03  0.46999998093E+01 0. -1.
</event>
<event>
 5   0  0.4865501E-02  0.5116389E+03  0.7818609E-02  0.1010785E+00
       -1   -1    0    0    0  501  0.00000000000E+00  0.00000000000E+00  0.30240199353E+02  0.30240199773E+02  0.50400001928E-02 0.  1.
        1   -1    0    0  501    0  0.00000000000E+00  0.00000000000E+00 -0.21641256120E+04  0.21641256120E+04  0.50400001928E-02 0. -1.
    10030    2    1    2    0    0  0.00000000000E+00  0.00000000000E+00 -0.21338854126E+04  0.21943658118E+04  0.51163889766E+03 0.  0.
        2    1    3    3  502    0  0.27059844490E+02 -0.11636457159E+03 -0.96754691376E+02  0.15373489849E+03  0.25500000920E-02 0.  1.
       -2    1    3    3    0  502 -0.27059844490E+02  0.11636457159E+03 -0.20371307213E+04  0.20406309133E+04  0.25500000920E-02 0. -1.
</event>
<event>
 5   0  0.4865501E-02  0.5067533E+03  0.7818609E-02  0.1012031E+00
        1   -1    0    0  501    0  0.00000000000E+00  0.00000000000E+00  0.75253874164E+03  0.75253874166E+03  0.50400001928E-02 0. -1.
       -1   -1    0    0    0  501  0.00000000000E+00  0.00000000000E+00 -0.85310850836E+02  0.85310850985E+02  0.50400001928E-02 0.  1.
    10030    2    1    2    0    0  0.00000000000E+00  0.00000000000E+00  0.66722789081E+03  0.83784959265E+03  0.50675327490E+03 0.  0.
        2    1    3    3  502    0 -0.23858932570E+03  0.12559243896E+02  0.47309705680E+03  0.53000323216E+03  0.25500000920E-02 0. -1.
       -2    1    3    3    0  502  0.23858932570E+03 -0.12559243896E+02  0.19413083401E+03  0.30784636049E+03  0.25500000920E-02 0.  1.
</event>
<event>
 5   0  0.4803890E-02  0.5010759E+03  0.7818609E-02  0.1013498E+00
       -1   -1    0    0    0  501  0.00000000000E+00  0.00000000000E+00  0.44158961213E+03  0.44158961216E+03  0.50400001928E-02 0.  1.
        1   -1    0    0  501    0  0.00000000000E+00  0.00000000000E+00 -0.14214391610E+03  0.14214391619E+03  0.50400001928E-02 0. -1.
    10030    2    1    2    0    0  0.00000000000E+00  0.00000000000E+00  0.29944569603E+03  0.58373352835E+03  0.50107594959E+03 0.  0.
        5    1    3    3  502    0  0.40589602471E+02  0.24716761833E+03  0.15298461951E+03  0.29353999929E+03  0.46999998093E+01 0. -1.
       -5    1    3    3    0  502 -0.40589602471E+02 -0.24716761833E+03  0.14646107652E+03  0.29019352907E+03  0.46999998093E+01 0.  1.
</event>
<event>
 5   0  0.4803890E-02  0.4954347E+03  0.7818609E-02  0.1014977E+00
        1   -1    0    0  501    0  0.00000000000E+00  0.00000000000E+00  0.26840232464E+03  0.26840232469E+03  0.50400001928E-02 0.  1.
       -1   -1    0    0    0  501  0.00000000000E+00  0.00000000000E+00 -0.22862647417E+03  0.22862647422E+03  0.50400001928E-02 0. -1.
    10030    2    1    2    0    0  0.00000000000E+00  0.00000000000E+00  0.39775850474E+02  0.49702879892E+03  0.49543466640E+03 0.  0.
        5    1    3    3  502    0 -0.20527624486E+03  0.44752852073E+02 -0.11168525520E+03  0.23798495898E+03  0.46999998093E+01 0. -1.
       -5    1    3    3    0  502  0.20527624486E+03 -0.44752852073E+02  0.15146110568E+03  0.25904383993E+03  0.46999998093E+01 0.  1.
</event>
<event>
 5   0  0.4865501E-02  0.4965581E+03  0.7818609E-02  0.1014681E+00
       -1   -1    0    0    0  501  0.00000000000E+00  0.00000000000E+00  0.15327341990E+03  0.15327341998E+03  0.50400001928E-02 0.  1.
        1   -1    0    0  501    0  0.00000000000E+00  0.00000000000E+00 -0.40217336707E+03  0.40217336710E+03  0.50400001928E-02 0. -1.
    10030    2    1    2    0    0  0.00000000000E+00  0.00000000000E+00 -0.24889994717E+03  0.55544678709E+03  0.49655810293E+03 0.  0.
        2    1    3    3  502    0 -0.24090314579E+03  0.55015170616E+02 -0.15142392268E+03  0.28981062613E+03  0.25500000920E-02 0. -1.
       -2    1    3    3    0  502  0.24090314579E+03 -0.55015170616E+02 -0.97476024495E+02  0.26563616096E+03  0.25500000920E-02 0.  1.
</event>
<event>
 5   0  0.3210875E-02  0.4992495E+03  0.7818609E-02  0.1013975E+00
       -4   -1    0    0    0  501  0.00000000000E+00  0.00000000000E+00  0.14606946014E+03  0.14607498104E+03  0.12699999809E+01 0. -1.
        4   -1    0    0  501    0  0.00000000000E+00  0.00000000000E+00 -0.42658054777E+03  0.42658243826E+03  0.12699999809E+01 0.  1.
    10030    2    1    2    0    0  0.00000000000E+00  0.00000000000E+00 -0.28051108763E+03  0.57265741930E+03  0.49924948633E+03 0.  0.
        3    1    3    3  502    0 -0.15402183620E+03 -0.14189237425E+03  0.15574051214E+02  0.20999698371E+03  0.10100000352E+00 0. -1.
       -3    1    3    3    0  502  0.15402183620E+03  0.14189237425E+03 -0.29608513884E+03  0.36266043559E+03  0.10100000352E+00 0.  1.
</event>
<event>
 5   0  0.3210875E-02  0.4998118E+03  0.7818609E-02  0.1013828E+00
        3   -1    0    0  501    0  0.00000000000E+00  0.00000000000E+00  0.98979148779E+03  0.98979149294E+03  0.10100000352E+00 0. -1.
       -3   -1    0    0    0  501  0.00000000000E+00  0.00000000000E+00 -0.63097029410E+02  0.63097110246E+02  0.10100000352E+00 0.  1.
    10030    2    1    2    0    0  0.00000000000E+00  0.00000000000E+00  0.92669445838E+03  0.10528886032E+04  0.49981175610E+03 0.  0.
        3    1    3    3  502    0 -0.68777706920E+02  0.11398722830E+03  0.17821422264E+02  0.13431706696E+03  0.10100000352E+00 0.  1.
       -3    1    3    3    0  502  0.68777706920E+02 -0.11398722830E+03  0.90887303612E+03  0.91857153623E+03  0.10100000352E+00 0. -1.
</event>
<event>
 5   0  0.3210875E-02  0.4812716E+03  0.7818609E-02  0.1018786E+00
        4   -1    0    0  501    0  0.00000000000E+00  0.00000000000E+00  0.43563017511E+03  0.43563202633E+03  0.12699999809E+01 0. -1.
       -4   -1    0    0    0  501  0.00000000000E+00  0.00000000000E+00 -0.13291853717E+03  0.13292460428E+03  0.12699999809E+01 0.  1.
    10030    2    1    2    0    0  0.00000000000E+00  0.00000000000E+00  0.30271163794E+03  0.56855663061E+03  0.48127155169E+03 0.  0.
        2    1    3    3  502    0 -0.10849430477E+03 -0.20090287878E+03  0.24111298050E+03  0.33206693639E+03  0.25500000920E-02 0. -1.
       -2    1    3    3    0  502  0.10849430477E+03  0.20090287878E+03  0.61598657440E+02  0.23648969422E+03  0.25500000920E-02 0.  1.
</event>
<event>
 5   0  0.7881060E-02  0.5067150E+03  0.7818609E-02  0.1012041E+00
       -2   -1    0    0    0  501  0.00000000000E+00  0.00000000000E+00  0.67056639524E+02  0.67056639573E+02  0.25500000920E-02 0.  1.
        2   -1    0    0  501    0  0.00000000000E+00  0.00000000000E+00 -0.95725095771E+03  0.95725095771E+03  0.25500000920E-02 0. -1.
    10030    2    1    2    0    0  0.00000000000E+00  0.00000000000E+00 -0.89019431818E+03  0.10243075973E+04  0.50671503799E+03 0.  0.
        1    1    3    3  502    0  0.17458490436E+01  0.25125561103E+03 -0.51083687196E+03  0.56928616691E+03  0.50400001928E-02 0. -1.
       -1    1    3    3    0  502 -0.17458490436E+01 -0.25125561103E+03 -0.37935744623E+03  0.45502143037E+03  0.50400001928E-02 0.  1.
</event>
<event>
 5   0  0.4803890E-02  0.4851342E+03  0.7818609E-02  0.1017734E+00
       -1   -1    0    0    0  501  0.00000000000E+00  0.00000000000E+00  0.12754479933E+03  0.12754479943E+03  0.50400001928E-02 0.  1.
        1   -1    0    0  501    0  0.00000000000E+00  0.00000000000E+00 -0.46131858160E+03  0.46131858162E+03  0.50400001928E-02 0. -1.
    10030    2    1    2    0    0  0.00000000000E+00  0.00000000000E+00 -0.33377378227E+03  0.58886338105E+03  0.48513415033E+03 0.  0.
        5    1    3    3  502    0 -0.56724294115E+02 -0.12912061796E+03 -0.40637155228E+03  0.43017404387E+03  0.46999998093E+01 0. -1.
       -5    1    3    3    0  502  0.56724294115E+02  0.12912061796E+03  0.72597770008E+02  0.15868933718E+03  0.46999998093E+01 0.  1.
</event>
<event>
 5   0  0.4865501E-02  0.5020150E+03  0.7818609E-02  0.1013254E+00
       -1   -1    0    0    0  501  0.00000000000E+00  0.00000000000E+00  0.34066596323E+03  0.34066596327E+03  0.50400001928E-02 0.  1.
        1   -1    0    0  501    0  0.00000000000E+00  0.00000000000E+00 -0.18494586953E+03  0.18494586959E+03  0.50400001928E-02 0. -1.
    10030    2    1    2    0    0  0.00000000000E+00  0.00000000000E+00  0.15572009370E+03  0.52561183286E+03  0.50201499107E+03 0.  0.
        2    1    3    3  502    0  0.12829446236E+02 -0.24404989700E+03  0.17898451336E+02  0.24504142810E+03  0.25500000920E-02 0. -1.
       -2    1    3    3    0  502 -0.12829446236E+02  0.24404989700E+03  0.13782164237E+03  0.28057040476E+03  0.25500000920E-02 0.  1.
</event>
<event>
 5   0  0.5038436E-02  0.4966987E+03  0.7818609E-02  0.1014644E+00
       -1   -1    0    0    0  501  0.00000000000E+00  0.00000000000E+00  0.22208585948E+03  0.22208585953E+03  0.50400001928E-02 0.  1.
        1   -1    0    0  501    0  0.00000000000E+00  0.00000000000E+00 -0.27771872311E+03  0.27771872315E+03  0.50400001928E-02 0. -1.
    10030    2    1    2    0    0  0.00000000000E+00  0.00000000000E+00 -0.55632863632E+02  0.49980458269E+03  0.49669870682E+03 0.  0.
        1    1    3    3  502    0 -0.12553690295E+02  0.22736446534E+03  0.71925560432E+02  0.23880008691E+03  0.50400001928E-02 0.  1.
       -1    1    3    3    0  502  0.12553690295E+02 -0.22736446534E+03 -0.12755842406E+03  0.26100449578E+03  0.50400001928E-02 0. -1.
</event>
<event>
 5   0  0.7933103E-02  0.5051465E+03  0.7818609E-02  0.1012444E+00
       -2   -1    0    0    0  501  0.00000000000E+00  0.00000000000E+00  0.49189470130E+03  0.49189470131E+03  0.25500000920E-02 0. -1.
        2   -1    0    0  501    0  0.00000000000E+00  0.00000000000E+00 -0.12968883138E+03  0.12968883140E+03  0.25500000920E-02 0.  1.
    10030    2    1    2    0    0  0.00000000000E+00  0.00000000000E+00  0.36220586992E+03  0.62158353271E+03  0.50514650937E+03 0.  0.
        5    1    3    3  502    0 -0.13359636032E+03  0.10652213831E+03  0.40991072673E+03  0.44412143309E+03  0.46999998093E+01 0. -1.
       -5    1    3    3    0  502  0.13359636032E+03 -0.10652213831E+03 -0.47704856815E+02  0.17746209962E+03  0.46999998093E+01 0.  1.
</event>
<event>
 5   0  0.7933103E-02  0.5055047E+03  0.7818609E-02  0.1012352E+00
       -2   -1    0    0    0  501  0.00000000000E+00  0.00000000000E+00  0.14337331188E+03  0.14337331191E+03  0.25500000920E-02 0.  1.
        2   -1    0    0  501    0  0.00000000000E+00  0.00000000000E+00 -0.44557637967E+03  0.44557637968E+03  0.25500000920E-02 0. -1.
    10030    2    1    2    0    0  0.00000000000E+00  0.00000000000E+00 -0.30220306779E+03  0.58894969158E+03  0.50550474284E+03 0.  0.
        5    1    3    3  502    0 -0.63643642571E+02 -0.64096012274E+02  0.12387251471E+03  0.15337960075E+03  0.46999998093E+01 0.  1.
       -5    1    3    3    0  502  0.63643642571E+02  0.64096012274E+02 -0.42607558249E+03  0.43557009083E+03  0.46999998093E+01 0. -1.
</event>
<event>
 5   0  0.7776070E-02  0.4974689E+03  0.7818609E-02  0.1014442E+00
       -2   -1    0    0    0  501  0.00000000000E+00  0.00000000000E+00  0.62155723429E+02  0.62155723481E+02  0.25500000920E-02 0. -1.
        2   -1    0    0  501    0  0.00000000000E+00  0.00000000000E+00 -0.99538404947E+03  0.99538404947E+03  0.25500000920E-02 0.  1.
    10030    2    1    2    0    0  0.00000000000E+00  0.00000000000E+00 -0.93322832604E+03  0.10575397729E+04  0.49746885616E+03 0.  0.
        4    1    3    3  502    0 -0.14875787327E+03  0.16035513745E+02 -0.44212357268E+02  0.15602047300E+03  0.12699999809E+01 0. -1.
       -4    1    3    3    0  502  0.14875787327E+03 -0.16035513745E+02 -0.88901596877E+03  0.90151929995E+03  0.12699999809E+01 0.  1.
</event>
<event>
 5   0  0.4803890E-02  0.5006029E+03  0.7818609E-02  0.1013622E+00
        1   -1    0    0  501    0  0.00000000000E+00  0.00000000000E+00  0.43068509914E+03  0.43068509917E+03  0.50400001928E-02 0. -1.
       -1   -1    0    0    0  501  0.00000000000E+00  0.00000000000E+00 -0.14546779437E+03  0.14546779446E+03  0.50400001928E-02 0.  1.
    10030    2    1    2    0    0  0.00000000000E+00  0.00000000000E+00  0.28521730476E+03  0.57615289363E+03  0.50060288243E+03 0.  0.
        5    1    3    3  502    0  0.13246032315E+03 -0.30303820846E+02 -0.99261267360E+02  0.16834175942E+03  0.46999998093E+01 0.  1.
       -5    1    3    3    0  502 -0.13246032315E+03  0.30303820846E+02  0.38447857212E+03  0.40781113421E+03  0.46999998093E+01 0. -1.
</event>
<event>
 5   0  0.7698747E-02  0.5024517E+03  0.7818609E-02  0.1013141E+00
        2   -1    0    0  501    0  0.00000000000E+00  0.00000000000E+00  0.63272995008E+03  0.63272995008E+03  0.25500000920E-02 0.  1.
       -2   -1    0    0    0  501  0.00000000000E+00  0.00000000000E+00 -0.99749396010E+02  0.99749396043E+02  0.25500000920E-02 0. -1.
    10030    2    1    2    0    0  0.00000000000E+00  0.00000000000E+00  0.53298055407E+03  0.73247934612E+03  0.50245171060E+03 0.  0.
        2    1    3    3  502    0  0.10344872097E+03 -0.78007942823E+02 -0.47286455774E+02  0.13792347850E+03  0.25500000920E-02 0. -1.
       -2    1    3    3    0  502 -0.10344872097E+03  0.78007942823E+02  0.58026700984E+03  0.59455586763E+03  0.25500000920E-02 0.  1.
</event>
<event>
 5   0  0.4865501E-02  0.5006660E+03  0.7818609E-02  0.1013605E+00
        1   -1    0    0  501    0  0.00000000000E+00  0.00000000000E+00  0.24922536590E+03  0.24922536595E+03  0.50400001928E-02 0. -1.
       -1   -1    0    0    0  501  0.00000000000E+00  0.00000000000E+00 -0.25144556278E+03  0.25144556283E+03  0.50400001928E-02 0.  1.
    10030    2    1    2    0    0  0.00000000000E+00  0.00000000000E+00 -0.22201968730E+01  0.50067092878E+03  0.50066600609E+03 0.  0.
        2    1    3    3  502    0  0.29787014617E+02  0.25577582162E+02  0.24612730865E+03  0.24923910411E+03  0.25500000920E-02 0. -1.
       -2    1    3    3    0  502 -0.29787014617E+02 -0.25577582162E+02 -0.24834750552E+03  0.25143182467E+03  0.25500000920E-02 0.  1.
</event>
<event>
 5   0  0.7698747E-02  0.5033711E+03  0.7818609E-02  0.1012903E+00
       -2   -1    0    0    0  501  0.00000000000E+00  0.00000000000E+00  0.87830679868E+02  0.87830679905E+02  0.25500000920E-02 0. -1.
        2   -1    0    0  501    0  0.00000000000E+00  0.00000000000E+00 -0.72122437481E+03  0.72122437481E+03  0.25500000920E-02 0.  1.
    10030    2    1    2    0    0  0.00000000000E+00  0.00000000000E+00 -0.63339369494E+03  0.80905505472E+03  0.50337114416E+03 0.  0.
        2    1    3    3  502    0  0.11306369489E+03 -0.10048434875E+03  0.66213850927E+01  0.15140788022E+03  0.25500000920E-02 0. -1.
       -2    1    3    3    0  502 -0.11306369489E+03  0.10048434875E+03 -0.64001508003E+03  0.65764717449E+03  0.25500000920E-02 0.  1.
</event>
<event>
 5   0  0.4803890E-02  0.4974784E+03  0.7818609E-02  0.1014439E+00
       -1   -1    0    0    0  501  0.00000000000E+00  0.00000000000E+00  0.68698545050E+02  0.68698545235E+02  0.50400001928E-02 0. -1.
        1   -1    0    0  501    0  0.00000000000E+00  0.00000000000E+00 -0.90061872106E+03  0.90061872107E+03  0.50400001928E-02 0.  1.
    10030    2    1    2    0    0  0.00000000000E+00  0.00000000000E+00 -0.83192017601E+03  0.96931726631E+03  0.49747842517E+03 0.  0.
        5    1    3    3  502    0  0.28654637419E+02  0.19151477751E+03 -0.72000808070E+03  0.74560896220E+03  0.46999998093E+01 0.  1.
       -5    1    3    3    0  502 -0.28654637419E+02 -0.19151477751E+03 -0.11191209531E+03  0.22370830410E+03  0.46999998093E+01 0. -1.
</event>
<event>
 5   0  0.7776070E-02  0.5036886E+03  0.7818609E-02  0.1012821E+00
       -2   -1    0    0    0  501  0.00000000000E+00  0.00000000000E+00  0.15698777249E+03  0.15698777251E+03  0.25500000920E-02 0. -1.
        2   -1    0    0  501    0  0.00000000000E+00  0.00000000000E+00 -0.40401593419E+03  0.40401593420E+03  0.25500000920E-02 0.  1.
    10030    2    1    2    0    0  0.00000000000E+00  0.00000000000E+00 -0.24702816171E+03  0.56100370671E+03  0.50368864020E+03 0.  0.
        4    1    3    3  502    0  0.88958608686E+02 -0.11043477323E+01 -0.38592726318E+03  0.39605090457E+03  0.12699999809E+01 0.  1.
       -4    1    3    3    0  502 -0.88958608686E+02  0.11043477323E+01  0.13889910148E+03  0.16495280214E+03  0.12699999809E+01 0. -1.
</event>
<event>
 5   0  0.5038436E-02  0.4998395E+03  0.7818609E-02  0.1013821E+00
        1   -1    0    0  501    0  0.00000000000E+00  0.00000000000E+00  0.85296574659E+03  0.85296574660E+03  0.50400001928E-02 0. -1.
       -1   -1    0    0    0  501  0.00000000000E+00  0.00000000000E+00 -0.73226724509E+02  0.73226724683E+02  0.50400001928E-02 0.  1.
    10030    2    1    2    0    0  0.00000000000E+00  0.00000000000E+00  0.77973902208E+03  0.92619247128E+03  0.49983952556E+03 0.  0.
        1    1    3    3  502    0 -0.68791939799E+02 -0.21841773065E+03  0.20437475473E+03  0.30693269041E+03  0.50400001928E-02 0.  1.
       -1    1    3    3    0  502  0.68791939799E+02  0.21841773065E+03  0.57536426734E+03  0.61925978087E+03  0.50400001928E-02 0. -1.
</event>
<event>
 5   0  0.4803890E-02  0.4979949E+03  0.7818609E-02  0.1014304E+00
        1   -1    0    0  501    0  0.00000000000E+00  0.00000000000E+00  0.11033762624E+03  0.11033762635E+03  0.50400001928E-02 0.  1.
       -1   -1    0    0    0  501  0.00000000000E+00  0.00000000000E+00 -0.56190922506E+03  0.56190922508E+03  0.50400001928E-02 0. -1.
    10030    2    1    2    0    0  0.00000000000E+00  0.00000000000E+00 -0.45157159882E+03  0.67224685143E+03  0.49799489997E+03 0.  0.
        5    1    3    3  502    0 -0.12731334657E+03  0.13593326969E+03 -0.44879068969E+03  0.48592356927E+03  0.46999998093E+01 0. -1.
       -5    1    3    3    0  502  0.12731334657E+03 -0.13593326969E+03 -0.27809091318E+01  0.18632328216E+03  0.46999998093E+01 0.  1.
</event>
<event>
 5   0  0.5191358E-02  0.4997389E+03  0.7818609E-02  0.1013847E+00
        1   -1    0    0  501    0  0.00000000000E+00  0.00000000000E+00  0.10351116451E+04  0.10351116451E+04  0.50400001928E-02 0. -1.
       -1   -1    0    0    0  501  0.00000000000E+00  0.00000000000E+00 -0.60316906337E+02  0.60316906548E+02  0.50400001928E-02 0.  1.
    10030    2    1    2    0    0  0.00000000000E+00  0.00000000000E+00  0.97479473877E+03  0.10954285517E+04  0.49973886088E+03 0.  0.
        4    1    3    3  502    0  0.91430104574E+02 -0.22373590915E+03  0.62630697783E+03  0.67132649616E+03  0.12699999809E+01 0. -1.
       -4    1    3    3    0  502 -0.91430104574E+02  0.22373590915E+03  0.34848776094E+03  0.42410205551E+03  0.12699999809E+01 0.  1.
</event>
<event>
 5   0  0.7698747E-02  0.5049792E+03  0.7818609E-02  0.1012487E+00
        2   -1    0    0  501    0  0.00000000000E+00  0.00000000000E+00  0.43805456389E+03  0.43805456390E+03  0.25500000920E-02 0.  1.
       -2   -1    0    0    0  501  0.00000000000E+00  0.00000000000E+00 -0.14553207497E+03  0.14553207499E+03  0.25500000920E-02 0. -1.
    10030    2    1    2    0    0  0.00000000000E+00  0.00000000000E+00  0.29252248893E+03  0.58358663889E+03  0.50497916646E+03 0.  0.
        2    1    3    3  502    0 -0.22700969174E+02 -0.21853967186E+03  0.24932593788E+01  0.21972969423E+03  0.25500000920E-02 0. -1.
       -2    1    3    3    0  502  0.22700969174E+02  0.21853967186E+03  0.29002922955E+03  0.36385694466E+03  0.25500000920E-02 0.  1.
</event>
<event>
 5   0  0.8208720E-02  0.4868001E+03  0.7818609E-02  0.1017283E+00
        2   -1    0    0  501    0  0.00000000000E+00  0.00000000000E+00  0.84059893483E+03  0.84059893484E+03  0.25500000920E-02 0.  1.
       -2   -1    0    0    0  501  0.00000000000E+00  0.00000000000E+00 -0.70477821449E+02  0.70477821496E+02  0.25500000920E-02 0. -1.
    10030    2    1    2    0    0  0.00000000000E+00  0.00000000000E+00  0.77012111338E+03  0.91107675633E+03  0.48680008900E+03 0.  0.
        3    1    3    3  502    0  0.11786193093E+03  0.13230083844E+03  0.72735954593E+02  0.19153452928E+03  0.10100000352E+00 0. -1.
       -3    1    3    3    0  502 -0.11786193093E+03 -0.13230083844E+03  0.69738515879E+03  0.71954222705E+03  0.10100000352E+00 0.  1.
</event>
<event>
 5   0  0.4884478E-02  0.4892904E+03  0.7818609E-02  0.1016613E+00
        1   -1    0    0  501    0  0.00000000000E+00  0.00000000000E+00  0.15778333294E+04  0.15778333294E+04  0.50400001928E-02 0.  1.
       -1   -1    0    0    0  501  0.00000000000E+00  0.00000000000E+00 -0.37932577613E+02  0.37932577947E+02  0.50400001928E-02 0. -1.
    10030    2    1    2    0    0  0.00000000000E+00  0.00000000000E+00  0.15399007518E+04  0.16157659074E+04  0.48929044750E+03 0.  0.
        3    1    3    3  502    0 -0.12192829606E+03  0.20909894734E+03  0.65262025090E+03  0.69606183723E+03  0.10100000352E+00 0. -1.
       -3    1    3    3    0  502  0.12192829606E+03 -0.20909894734E+03  0.88728050090E+03  0.91970407014E+03  0.10100000352E+00 0.  1.
</event>
<event>
 5   0  0.7933103E-02  0.4984290E+03  0.7818609E-02  0.1014190E+00
       -2   -1    0    0    0  501  0.00000000000E+00  0.00000000000E+00  0.10453841637E+03  0.10453841640E+03  0.25500000920E-02 0. -1.
        2   -1    0    0  501    0  0.00000000000E+00  0.00000000000E+00 -0.59411536545E+03  0.59411536546E+03  0.25500000920E-02 0.  1.
    10030    2    1    2    0    0  0.00000000000E+00  0.00000000000E+00 -0.48957694908E+03  0.69865378185E+03  0.49842904994E+03 0.  0.
        5    1    3    3  502    0 -0.12168198887E+03 -0.10272590311E+03  0.23838397648E+02  0.16108841295E+03  0.46999998093E+01 0. -1.
       -5    1    3    3    0  502  0.12168198887E+03  0.10272590311E+03 -0.51341534673E+03  0.53756536890E+03  0.46999998093E+01 0.  1.
</event>
<event>
 5   0  0.7933103E-02  0.5068153E+03  0.7818609E-02  0.1012015E+00
       -2   -1    0    0    0  501  0.00000000000E+00  0.00000000000E+00  0.10602385577E+03  0.10602385580E+03  0.25500000920E-02 0.  1.
        2   -1    0    0  501    0  0.00000000000E+00  0.00000000000E+00 -0.60566961266E+03  0.60566961267E+03  0.25500000920E-02 0. -1.
    10030    2    1    2    0    0  0.00000000000E+00  0.00000000000E+00 -0.49964575689E+03  0.71169346847E+03  0.50681526287E+03 0.  0.
        5    1    3    3  502    0 -0.37079218591E+02 -0.24897420124E+03 -0.29028653134E+03  0.38425431892E+03  0.46999998093E+01 0.  1.
       -5    1    3    3    0  502  0.37079218591E+02  0.24897420124E+03 -0.20935922555E+03  0.32743914955E+03  0.46999998093E+01 0. -1.
</event>
<event>
 5   0  0.7933103E-02  0.5014700E+03  0.7818609E-02  0.1013396E+00
        2   -1    0    0  501    0  0.00000000000E+00  0.00000000000E+00  0.15858678853E+04  0.15858678853E+04  0.25500000920E-02 0. -1.
       -2   -1    0    0    0  501  0.00000000000E+00  0.00000000000E+00 -0.39642668725E+02  0.39642668807E+02  0.25500000920E-02 0.  1.
    10030    2    1    2    0    0  0.00000000000E+00  0.00000000000E+00  0.15462252166E+04  0.16255105541E+04  0.50146998031E+03 0.  0.
        5    1    3    3  502    0  0.47901334151E+02 -0.19901648023E+02 -0.21914463819E+02  0.56506168956E+02  0.46999998093E+01 0.  1.
       -5    1    3    3    0  502 -0.47901334151E+02  0.19901648023E+02  0.15681396804E+04  0.15690043852E+04  0.46999998093E+01 0. -1.
</event>
<event>
 5   0  0.5191358E-02  0.4975194E+03  0.7818609E-02  0.1014428E+00
        1   -1    0    0  501    0  0.00000000000E+00  0.00000000000E+00  0.11812400346E+03  0.11812400357E+03  0.50400001928E-02 0.  1.
       -1   -1    0    0    0  501  0.00000000000E+00  0.00000000000E+00 -0.52386797600E+03  0.52386797603E+03  0.50400001928E-02 0. -1.
    10030    2    1    2    0    0  0.00000000000E+00  0.00000000000E+00 -0.40574397254E+03  0.64199197960E+03  0.49751937712E+03 0.  0.
        4    1    3    3  502    0 -0.82164484374E+02 -0.17390005853E+03 -0.40644047894E+03  0.44965287575E+03  0.12699999809E+01 0. -1.
       -4    1    3    3    0  502  0.82164484374E+02  0.17390005853E+03  0.69650639563E+00  0.19233910385E+03  0.12699999809E+01 0.  1.
</event>
<event>
 5   0  0.7776070E-02  0.4951089E+03  0.7818609E-02  0.1015064E+00
       -2   -1    0    0    0  501  0.00000000000E+00  0.00000000000E+00  0.12738514913E+03  0.12738514915E+03  0.25500000920E-02 0. -1.
        2   -1    0    0  501    0  0.00000000000E+00  0.00000000000E+00 -0.48108596711E+03  0.48108596712E+03  0.25500000920E-02 0.  1.
    10030    2    1    2    0    0  0.00000000000E+00  0.00000000000E+00 -0.35370081798E+03  0.60847111627E+03  0.49510890791E+03 0.  0.
        4    1    3    3  502    0 -0.21664773546E+03  0.11804787289E+03 -0.15196416646E+03  0.28976932613E+03  0.12699999809E+01 0. -1.
       -4    1    3    3    0  502  0.21664773546E+03 -0.11804787289E+03 -0.20173665152E+03  0.31870179014E+03  0.12699999809E+01 0.  1.
</event>
<event>
 5   0  0.5191358E-02  0.5037463E+03  0.7818609E-02  0.1012806E+00
        1   -1    0    0  501    0  0.00000000000E+00  0.00000000000E+00  0.42354612253E+03  0.42354612256E+03  0.50400001928E-02 0.  1.
       -1   -1    0    0    0  501  0.00000000000E+00  0.00000000000E+00 -0.14978317675E+03  0.14978317684E+03  0.50400001928E-02 0. -1.
    10030    2    1    2    0    0  0.00000000000E+00  0.00000000000E+00  0.27376294578E+03  0.57332929939E+03  0.50374630030E+03 0.  0.
        4    1    3    3  502    0 -0.65919466132E+02  0.51702834293E+02  0.40722032682E+03  0.41575060621E+03  0.12699999809E+01 0.  1.
       -4    1    3    3    0  502  0.65919466132E+02 -0.51702834293E+02 -0.13345738105E+03  0.15757869318E+03  0.12699999809E+01 0. -1.
</event>
<event>
 5   0  0.3210875E-02  0.4996565E+03  0.7818609E-02  0.1013869E+00
        3   -1    0    0  501    0  0.00000000000E+00  0.00000000000E+00  0.68826065940E+02  0.68826140047E+02  0.10100000352E+00 0. -1.
       -3   -1    0    0    0  501  0.00000000000E+00  0.00000000000E+00 -0.90683830976E+03  0.90683831538E+03  0.10100000352E+00 0.  1.
    10030    2    1    2    0    0  0.00000000000E+00  0.00000000000E+00 -0.83801224382E+03  0.97566445543E+03  0.49965649080E+03 0.  0.
        4    1    3    3  502    0 -0.87703245849E+02 -0.23819512497E+02 -0.87340940094E+03  0.87812574444E+03  0.12699999809E+01 0.  1.
       -4    1    3    3    0  502  0.87703245849E+02  0.23819512497E+02  0.35397157122E+02  0.97538710984E+02  0.12699999809E+01 0. -1.
</event>
<event>
 5   0  0.5038436E-02  0.5081288E+03  0.7818609E-02  0.1011679E+00
        1   -1    0    0  501    0  0.00000000000E+00  0.00000000000E+00  0.25012083254E+03  0.25012083260E+03  0.50400001928E-02 0. -1.
       -1   -1    0    0    0  501  0.00000000000E+00  0.00000000000E+00 -0.25807016361E+03  0.25807016366E+03  0.50400001928E-02 0.  1.
    10030    2    1    2    0    0  0.00000000000E+00  0.00000000000E+00 -0.79493310630E+01  0.50819099625E+03  0.50812881911E+03 0.  0.
        1    1    3    3  502    0  0.15086692083E+02  0.16832546240E+03  0.18575267145E+03  0.25112770565E+03  0.50400001928E-02 0. -1.
       -1    1    3    3    0  502 -0.15086692083E+02 -0.16832546240E+03 -0.19370200252E+03  0.25706329060E+03  0.50400001928E-02 0.  1.
</event>
<event>
 5   0  0.4865501E-02  0.5021580E+03  0.7818609E-02  0.1013217E+00
       -1   -1    0    0    0  501  0.00000000000E+00  0.00000000000E+00  0.17670243971E+03  0.17670243979E+03  0.50400001928E-02 0.  1.
        1   -1    0    0  501    0  0.00000000000E+00  0.00000000000E+00 -0.35676173909E+03  0.35676173912E+03  0.50400001928E-02 0. -1.
    10030    2    1    2    0    0  0.00000000000E+00  0.00000000000E+00 -0.18005929937E+03  0.53346417891E+03  0.50215802183E+03 0.  0.
        2    1    3    3  502    0  0.17335498182E+03  0.77082623947E+02 -0.26474228749E+03  0.32570256282E+03  0.25500000920E-02 0. -1.
       -2    1    3    3    0  502 -0.17335498182E+03 -0.77082623947E+02  0.84682988121E+02  0.20776161609E+03  0.25500000920E-02 0.  1.
</event>
<event>
 5   0  0.7776070E-02  0.4991531E+03  0.7818609E-02  0.1014000E+00
        2   -1    0    0  501    0  0.00000000000E+00  0.00000000000E+00  0.68417483480E+03  0.68417483481E+03  0.25500000920E-02 0.  1.
       -2   -1    0    0    0  501  0.00000000000E+00  0.00000000000E+00 -0.91041729453E+02  0.91041729489E+02  0.25500000920E-02 0. -1.
    10030    2    1    2    0    0  0.00000000000E+00  0.00000000000E+00  0.59313310535E+03  0.77521656430E+03  0.49915312370E+03 0.  0.
        4    1    3    3  502    0  0.84244643158E+02 -0.12837904433E+03  0.60212371548E+03  0.62139594508E+03  0.12699999809E+01 0.  1.
       -4    1    3    3    0  502 -0.84244643158E+02  0.12837904433E+03 -0.89906101299E+01  0.15382061921E+03  0.12699999809E+01 0. -1.
</event>
<event>
 5   0  0.5191358E-02  0.4967955E+03  0.7818609E-02  0.1014619E+00
        1   -1    0    0  501    0  0.00000000000E+00  0.00000000000E+00  0.37394450970E+03  0.37394450973E+03  0.50400001928E-02 0.  1.
       -1   -1    0    0    0  501  0.00000000000E+00  0.00000000000E+00 -0.16500160813E+03  0.16500160820E+03  0.50400001928E-02 0. -1.
    10030    2    1    2    0    0  0.00000000000E+00  0.00000000000E+00  0.20894290157E+03  0.53894611794E+03  0.49679551318E+03 0.  0.
        4    1    3    3  502    0  0.12677435640E+02 -0.12678861468E+03 -0.12684172424E+03  0.17979573436E+03  0.12699999809E+01 0. -1.
       -4    1    3    3    0  502 -0.12677435640E+02  0.12678861468E+03  0.33578462581E+03  0.35915038357E+03  0.12699999809E+01 0.  1.
</event>
<event>
 5   0  0.5038436E-02  0.4988830E+03  0.7818609E-02  0.1014071E+00
        1   -1    0    0  501    0  0.00000000000E+00  0.00000000000E+00  0.47324074250E+03  0.47324074252E+03  0.50400001928E-02 0.  1.
       -1   -1    0    0    0  501  0.00000000000E+00  0.00000000000E+00 -0.13147865571E+03  0.13147865580E+03  0.50400001928E-02 0. -1.
    10030    2    1    2    0    0  0.00000000000E+00  0.00000000000E+00  0.34176208679E+03  0.60471939833E+03  0.49888297901E+03 0.  0.
        1    1    3    3  502    0 -0.22097575292E+03  0.74893124444E+02  0.27780993273E+03  0.36279143074E+03  0.50400001928E-02 0.  1.
       -1    1    3    3    0  502  0.22097575292E+03 -0.74893124444E+02  0.63952154064E+02  0.24192796759E+03  0.50400001928E-02 0. -1.
</event>
<event>
 5   0  0.7881060E-02  0.4983893E+03  0.7818609E-02  0.1014200E+00
        2   -1    0    0  501    0  0.00000000000E+00  0.00000000000E+00  0.13570318716E+03  0.13570318719E+03  0.25500000920E-02 0. -1.
       -2   -1    0    0    0  501  0.00000000000E+00  0.00000000000E+00 -0.45760135843E+03  0.45760135844E+03  0.25500000920E-02 0.  1.
    10030    2    1    2    0    0  0.00000000000E+00  0.00000000000E+00 -0.32189817127E+03  0.59330454563E+03  0.49838925670E+03 0.  0.
        1    1    3    3  502    0  0.22582102810E+03  0.17246617901E+02 -0.28469447605E+03  0.36379049916E+03  0.50400001928E-02 0. -1.
       -1    1    3    3    0  502 -0.22582102810E+03 -0.17246617901E+02 -0.37203695219E+02  0.22951404647E+03  0.50400001928E-02 0.  1.
</event>
<event>
 5   0  0.3210875E-02  0.5053661E+03  0.7818609E-02  0.1012388E+00
       -3   -1    0    0    0  501  0.00000000000E+00  0.00000000000E+00  0.12105503556E+03  0.12105507769E+03  0.10100000352E+00 0.  1.
        3   -1    0    0  501    0  0.00000000000E+00  0.00000000000E+00 -0.52743530794E+03  0.52743531761E+03  0.10100000352E+00 0. -1.
    10030    2    1    2    0    0  0.00000000000E+00  0.00000000000E+00 -0.40638027238E+03  0.64849039530E+03  0.50536607228E+03 0.  0.
        5    1    3    3  502    0 -0.75399293920E+02  0.12064997137E+03  0.64706201462E+02  0.15636640183E+03  0.46999998093E+01 0.  1.
       -5    1    3    3    0  502  0.75399293920E+02 -0.12064997137E+03 -0.47108647384E+03  0.49212399347E+03  0.46999998093E+01 0. -1.
</event>
<event>
 5   0  0.7933103E-02  0.4981567E+03  0.7818609E-02  0.1014261E+00
        2   -1    0    0  501    0  0.00000000000E+00  0.00000000000E+00  0.14692578836E+04  0.14692578836E+04  0.25500000920E-02 0.  1.
       -2   -1    0    0    0  501  0.00000000000E+00  0.00000000000E+00 -0.42225412905E+02  0.42225412982E+02  0.25500000920E-02 0. -1.
    10030    2    1    2    0    0  0.00000000000E+00  0.00000000000E+00  0.14270324707E+04  0.15114832966E+04  0.49815668562E+03 0.  0.
        5    1    3    3  502    0  0.12568465945E+03 -0.17737451664E+03  0.10821323866E+04  0.11037621777E+04  0.46999998093E+01 0.  1.
       -5    1    3    3    0  502 -0.12568465945E+03  0.17737451664E+03  0.34490008404E+03  0.40772111884E+03  0.46999998093E+01 0. -1.
</event>
<event>
 5   0  0.4865501E-02  0.4998994E+03  0.7818609E-02  0.1013805E+00
        1   -1    0    0  501    0  0.00000000000E+00  0.00000000000E+00  0.57208133806E+03  0.57208133808E+03  0.50400001928E-02 0.  1.
       -1   -1    0    0    0  501  0.00000000000E+00  0.00000000000E+00 -0.10920625589E+03  0.10920625601E+03  0.50400001928E-02 0. -1.
    10030    2    1    2    0    0  0.00000000000E+00  0.00000000000E+00  0.46287508217E+03  0.68128759409E+03  0.49989943405E+03 0.  0.
        2    1    3    3  502    0 -0.20928168670E+03 -0.90832991020E+02  0.92283991021E+02  0.24610118174E+03  0.25500000920E-02 0. -1.
       -2    1    3    3    0  502  0.20928168670E+03  0.90832991020E+02  0.37059109115E+03  0.43518641235E+03  0.25500000920E-02 0.  1.
</event>
<event>
 5   0  0.7776070E-02  0.5000540E+03  0.7818609E-02  0.1013765E+00
       -2   -1    0    0    0  501  0.00000000000E+00  0.00000000000E+00  0.10588587387E+03  0.10588587390E+03  0.25500000920E-02 0. -1.
        2   -1    0    0  501    0  0.00000000000E+00  0.00000000000E+00 -0.59038562502E+03  0.59038562503E+03  0.25500000920E-02 0.  1.
    10030    2    1    2    0    0  0.00000000000E+00  0.00000000000E+00 -0.48449975115E+03  0.69627149892E+03  0.50005398843E+03 0.  0.
        4    1    3    3  502    0  0.92999416106E+02 -0.24646337401E+02  0.79074865495E+02  0.12454228437E+03  0.12699999809E+01 0. -1.
       -4    1    3    3    0  502 -0.92999416106E+02  0.24646337401E+02 -0.56357461665E+03  0.57172921455E+03  0.12699999809E+01 0.  1.
</event>
<event>
 5   0  0.7698747E-02  0.5003890E+03  0.7818609E-02  0.1013677E+00
        2   -1    0    0  501    0  0.00000000000E+00  0.00000000000E+00  0.10864205977E+04  0.10864205977E+04  0.25500000920E-02 0. -1.
       -2   -1    0    0    0  501  0.00000000000E+00  0.00000000000E+00 -0.57617914001E+02  0.57617914057E+02  0.25500000920E-02 0.  1.
    10030    2    1    2    0    0  0.00000000000E+00  0.00000000000E+00  0.10288026837E+04  0.11440385118E+04  0.50038900309E+03 0.  0.
        2    1    3    3  502    0  0.16894453570E+03 -0.12206042381E+03  0.19796341039E+03  0.28745524010E+03  0.25500000920E-02 0.  1.
       -2    1    3    3    0  502 -0.16894453570E+03  0.12206042381E+03  0.83083927335E+03  0.85658327170E+03  0.25500000920E-02 0. -1.
</event>
<event>
 5   0  0.5038436E-02  0.5018481E+03  0.7818609E-02  0.1013298E+00
       -1   -1    0    0    0  501  0.00000000000E+00  0.00000000000E+00  0.44132796638E+02  0.44132796926E+02  0.50400001928E-02 0.  1.
        1   -1    0    0  501    0  0.00000000000E+00  0.00000000000E+00 -0.14266688294E+04  0.14266688294E+04  0.50400001928E-02 0. -1.
    10030    2    1    2    0    0  0.00000000000E+00  0.00000000000E+00 -0.13825360328E+04  0.14708016264E+04  0.50184812658E+03 0.  0.
        1    1    3    3  502    0 -0.10636853507E+03 -0.13789260226E+03 -0.12207102910E+04  0.12330702533E+04  0.50400001928E-02 0. -1.
       -1    1    3    3    0  502  0.10636853507E+03  0.13789260226E+03 -0.16182574183E+03  0.23773137310E+03  0.50400001928E-02 0.  1.
</event>
<event>
 5   0  0.7698747E-02  0.4979182E+03  0.7818609E-02  0.1014324E+00
        2   -1    0    0  501    0  0.00000000000E+00  0.00000000000E+00  0.16803343300E+04  0.16803343300E+04  0.25500000920E-02 0. -1.
       -2   -1    0    0    0  501  0.00000000000E+00  0.00000000000E+00 -0.36885889579E+02  0.36885889667E+02  0.25500000920E-02 0.  1.
    10030    2    1    2    0    0  0.00000000000E+00  0.00000000000E+00  0.16434484404E+04  0.17172202197E+04  0.49791817251E+03 0.  0.
        2    1    3    3  502    0  0.20354213393E+03  0.78955995490E+02  0.40906009504E+03  0.46367403514E+03  0.25500000920E-02 0.  1.
       -2    1    3    3    0  502 -0.20354213393E+03 -0.78955995490E+02  0.12343883454E+04  0.12535461845E+04  0.25500000920E-02 0. -1.
</event>
<event>
 5   0  0.4865501E-02  0.4949155E+03  0.7818609E-02  0.1015115E+00
        1   -1    0    0  501    0  0.00000000000E+00  0.00000000000E+00  0.27898128034E+03  0.27898128039E+03  0.50400001928E-02 0.  1.
       -1   -1    0    0    0  501  0.00000000000E+00  0.00000000000E+00 -0.21949625280E+03  0.21949625286E+03  0.50400001928E-02 0. -1.
    10030    2    1    2    0    0  0.00000000000E+00  0.00000000000E+00  0.59485027539E+02  0.49847753325E+03  0.49491553082E+03 0.  0.
        2    1    3    3  502    0 -0.76425817027E+02  0.15608840668E+03  0.20716609404E+03  0.27041132878E+03  0.25500000920E-02 0.  1.
       -2    1    3    3    0  502  0.76425817027E+02 -0.15608840668E+03 -0.14768106650E+03  0.22806620446E+03  0.25500000920E-02 0. -1.
</event>
<event>
 5   0  0.5191358E-02  0.4998846E+03  0.7818609E-02  0.1013809E+00
        1   -1    0    0  501    0  0.00000000000E+00  0.00000000000E+00  0.63660863948E+03  0.63660863950E+03  0.50400001928E-02 0.  1.
       -1   -1    0    0    0  501  0.00000000000E+00  0.00000000000E+00 -0.98131171390E+02  0.98131171520E+02  0.50400001928E-02 0. -1.
    10030    2    1    2    0    0  0.00000000000E+00  0.00000000000E+00  0.53847746809E+03  0.73473981102E+03  0.49988459294E+03 0.  0.
        4    1    3    3  502    0  0.17331889296E+03  0.17208039643E+03  0.34726988265E+03  0.42455751764E+03  0.12699999809E+01 0.  1.
       -4    1    3    3    0  502 -0.17331889296E+03 -0.17208039643E+03  0.19120758545E+03  0.31018229338E+03  0.12699999809E+01 0. -1.
</event>
<event>
 5   0  0.7881060E-02  0.5030937E+03  0.7818609E-02  0.1012975E+00
        2   -1    0    0  501    0  0.00000000000E+00  0.00000000000E+00  0.79554630362E+02  0.79554630403E+02  0.25500000920E-02 0.  1.
       -2   -1    0    0    0  501  0.00000000000E+00  0.00000000000E+00 -0.79537580131E+03  0.79537580131E+03  0.25500000920E-02 0. -1.
    10030    2    1    2    0    0  0.00000000000E+00  0.00000000000E+00 -0.71582117095E+03  0.87493043172E+03  0.50309374034E+03 0.  0.
        1    1    3    3  502    0  0.77029497833E+02  0.61376339482E+02 -0.76044834757E+03  0.76680003126E+03  0.50400001928E-02 0. -1.
       -1    1    3    3    0  502 -0.77029497833E+02 -0.61376339482E+02  0.44627176625E+02  0.10813040046E+03  0.50400001928E-02 0.  1.
</event>
<event>
 5   0  0.7698747E-02  0.5014777E+03  0.7818609E-02  0.1013394E+00
       -2   -1    0    0    0  501  0.00000000000E+00  0.00000000000E+00  0.53193602571E+03  0.53193602571E+03  0.25500000920E-02 0.  1.
        2   -1    0    0  501    0  0.00000000000E+00  0.00000000000E+00 -0.11819086630E+03  0.11819086633E+03  0.25500000920E-02 0. -1.
    10030    2    1    2    0    0  0.00000000000E+00  0.00000000000E+00  0.41374515941E+03  0.65012689204E+03  0.50147773512E+03 0.  0.
        2    1    3    3  502    0 -0.41358274509E+01 -0.16027120453E+03  0.45680320604E+03  0.48412099017E+03  0.25500000920E-02 0. -1.
       -2    1    3    3    0  502  0.41358274509E+01  0.16027120453E+03 -0.43058046631E+02  0.16600590187E+03  0.25500000920E-02 0.  1.
</event>
<event>
 5   0  0.5038436E-02  0.5084988E+03  0.7818609E-02  0.1011584E+00
        1   -1    0    0  501    0  0.00000000000E+00  0.00000000000E+00  0.26314538968E+03  0.26314538973E+03  0.50400001928E-02 0.  1.
       -1   -1    0    0    0  501  0.00000000000E+00  0.00000000000E+00 -0.24565414069E+03  0.24565414074E+03  0.50400001928E-02 0. -1.
    10030    2    1    2    0    0  0.00000000000E+00  0.00000000000E+00  0.17491248991E+02  0.50879953047E+03  0.50849878900E+03 0.  0.
        1    1    3    3  502    0 -0.17709357036E+03 -0.14970292809E+03  0.11306492434E+03  0.25798600056E+03  0.50400001928E-02 0.  1.
       -1    1    3    3    0  502  0.17709357036E+03  0.14970292809E+03 -0.95573675349E+02  0.25081352991E+03  0.50400001928E-02 0. -1.
</event>
<event>
 5   0  0.4865501E-02  0.4968308E+03  0.7818609E-02  0.1014609E+00
       -1   -1    0    0    0  501  0.00000000000E+00  0.00000000000E+00  0.31976093054E+02  0.31976093451E+02  0.50400001928E-02 0. -1.
        1   -1    0    0  501    0  0.00000000000E+00  0.00000000000E+00 -0.19298862495E+04  0.19298862495E+04  0.50400001928E-02 0.  1.
    10030    2    1    2    0    0  0.00000000000E+00  0.00000000000E+00 -0.18979101565E+04  0.19618623430E+04  0.49683084725E+03 0.  0.
        2    1    3    3  502    0 -0.41909029738E+02  0.16060202607E+03 -0.16787893983E+04  0.16869745764E+04  0.25500000920E-02 0.  1.
       -2    1    3    3    0  502  0.41909029738E+02 -0.16060202607E+03 -0.21912075819E+03  0.27488776660E+03  0.25500000920E-02 0. -1.
</event>
<event>
 5   0  0.7881060E-02  0.4998310E+03  0.7818609E-02  0.1013823E+00
        2   -1    0    0  501    0  0.00000000000E+00  0.00000000000E+00  0.45403044503E+03  0.45403044503E+03  0.25500000920E-02 0. -1.
       -2   -1    0    0    0  501  0.00000000000E+00  0.00000000000E+00 -0.13756294504E+03  0.13756294507E+03  0.25500000920E-02 0.  1.
    10030    2    1    2    0    0  0.00000000000E+00  0.00000000000E+00  0.31646749998E+03  0.59159339010E+03  0.49983103211E+03 0.  0.
        1    1    3    3  502    0  0.18172056530E+03 -0.87851942802E+02 -0.16189504914E+02  0.20249056225E+03  0.50400001928E-02 0.  1.
       -1    1    3    3    0  502 -0.18172056530E+03  0.87851942802E+02  0.33265700490E+03  0.38910282785E+03  0.50400001928E-02 0. -1.
</event>
<event>
 5   0  0.3210875E-02  0.5124439E+03  0.7818609E-02  0.1010581E+00
       -4   -1    0    0    0  501  0.00000000000E+00  0.00000000000E+00  0.61014627196E+03  0.61014759369E+03  0.12699999809E+01 0.  1.
        4   -1    0    0  501    0  0.00000000000E+00  0.00000000000E+00 -0.10759146113E+03  0.10759895636E+03  0.12699999809E+01 0. -1.
    10030    2    1    2    0    0  0.00000000000E+00  0.00000000000E+00  0.50255481082E+03  0.71774655004E+03  0.51244392105E+03 0.  0.
        5    1    3    3  502    0 -0.19657553422E+03 -0.15052446214E+03  0.15913260419E+03  0.29435493893E+03  0.46999998093E+01 0. -1.
       -5    1    3    3    0  502  0.19657553422E+03  0.15052446214E+03  0.34342220663E+03  0.42339161111E+03  0.46999998093E+01 0.  1.
</event>
<event>
 5   0  0.5038436E-02  0.4985267E+03  0.7818609E-02  0.1014164E+00
       -1   -1    0    0    0  501  0.00000000000E+00  0.00000000000E+00  0.45261918705E+02  0.45261918986E+02  0.50400001928E-02 0. -1.
        1   -1    0    0  501    0  0.00000000000E+00  0.00000000000E+00 -0.13727259826E+04  0.13727259826E+04  0.50400001928E-02 0.  1.
    10030    2    1    2    0    0  0.00000000000E+00  0.00000000000E+00 -0.13274640639E+04  0.14179879016E+04  0.49852667746E+03 0.  0.
        1    1    3    3  502    0  0.69438278251E+02 -0.23465094911E+02  0.13917332647E+02  0.74605477943E+02  0.50400001928E-02 0. -1.
       -1    1    3    3    0  502 -0.69438278251E+02  0.23465094911E+02 -0.13413813965E+04  0.13433824236E+04  0.50400001928E-02 0.  1.
</event>
<event>
 5   0  0.3210875E-02  0.4772513E+03  0.7818609E-02  0.1019893E+00
        3   -1    0    0  501    0  0.00000000000E+00  0.00000000000E+00  0.64962123238E+02  0.64962201753E+02  0.10100000352E+00 0. -1.
       -3   -1    0    0    0  501  0.00000000000E+00  0.00000000000E+00 -0.87654400366E+03  0.87654400948E+03  0.10100000352E+00 0.  1.
    10030    2    1    2    0    0  0.00000000000E+00  0.00000000000E+00 -0.81158188042E+03  0.94150621123E+03  0.47725129351E+03 0.  0.
        3    1    3    3  502    0 -0.67381393383E+02 -0.15189058056E+03 -0.67927729047E+02  0.17951375215E+03  0.10100000352E+00 0. -1.
       -3    1    3    3    0  502  0.67381393383E+02  0.15189058056E+03 -0.74365415138E+03  0.76199245908E+03  0.10100000352E+00 0.  1.
</event>
<event>
 5   0  0.7776070E-02  0.5044866E+03  0.7818609E-02  0.1012614E+00
       -2   -1    0    0    0  501  0.00000000000E+00  0.00000000000E+00  0.83768239151E+02  0.83768239190E+02  0.25500000920E-02 0.  1.
        2   -1    0    0  501    0  0.00000000000E+00  0.00000000000E+00 -0.75955612101E+03  0.75955612101E+03  0.25500000920E-02 0. -1.
    10030    2    1    2    0    0  0.00000000000E+00  0.00000000000E+00 -0.67578788186E+03  0.84332436020E+03  0.50448658579E+03 0.  0.
        4    1    3    3  502    0  0.45356473196E+02 -0.60575154318E+02  0.64339991440E+02  0.99336832947E+02  0.12699999809E+01 0.  1.
       -4    1    3    3    0  502 -0.45356473196E+02  0.60575154318E+02 -0.74012787330E+03  0.74398752726E+03  0.12699999809E+01 0. -1.
</event>
<event>
 5   0  0.7776070E-02  0.4993606E+03  0.7818609E-02  0.1013946E+00
       -2   -1    0    0    0  501  0.00000000000E+00  0.00000000000E+00  0.12060927519E+03  0.12060927522E+03  0.25500000920E-02 0.  1.
        2   -1    0    0  501    0  0.00000000000E+00  0.00000000000E+00 -0.51687780867E+03  0.51687780867E+03  0.25500000920E-02 0. -1.
    10030    2    1    2    0    0  0.00000000000E+00  0.00000000000E+00 -0.39626853347E+03  0.63748708390E+03  0.49936062271E+03 0.  0.
        4    1    3    3  502    0 -0.22295563129E+03  0.89347909657E+02 -0.28515336454E+03  0.37283550889E+03  0.12699999809E+01 0. -1.
       -4    1    3    3    0  502  0.22295563129E+03 -0.89347909657E+02 -0.11111516893E+03  0.26465157500E+03  0.12699999809E+01 0.  1.
</event>
<event>
 5   0  0.7776070E-02  0.4998203E+03  0.7818609E-02  0.1013826E+00
       -2   -1    0    0    0  501  0.00000000000E+00  0.00000000000E+00  0.16184732137E+03  0.16184732139E+03  0.25500000920E-02 0. -1.
        2   -1    0    0  501    0  0.00000000000E+00  0.00000000000E+00 -0.38588896090E+03  0.38588896091E+03  0.25500000920E-02 0.  1.
    10030    2    1    2    0    0  0.00000000000E+00  0.00000000000E+00 -0.22404163953E+03  0.54773628231E+03  0.49982034643E+03 0.  0.
        4    1    3    3  502    0  0.41469976269E+02 -0.20670041816E+03 -0.25908207808E+03  0.33402089438E+03  0.12699999809E+01 0.  1.
       -4    1    3    3    0  502 -0.41469976269E+02  0.20670041816E+03  0.35040438552E+02  0.21371538792E+03  0.12699999809E+01 0. -1.
</event>
<event>
 5   0  0.8208720E-02  0.4963972E+03  0.7818609E-02  0.1014724E+00
       -2   -1    0    0    0  501  0.00000000000E+00  0.00000000000E+00  0.79745744374E+02  0.79745744414E+02  0.25500000920E-02 0.  1.
        2   -1    0    0  501    0  0.00000000000E+00  0.00000000000E+00 -0.77248695004E+03  0.77248695005E+03  0.25500000920E-02 0. -1.
    10030    2    1    2    0    0  0.00000000000E+00  0.00000000000E+00 -0.69274120567E+03  0.85223269446E+03  0.49639720736E+03 0.  0.
        3    1    3    3  502    0 -0.18866557384E+03  0.15766270760E+03 -0.40459916082E+03  0.47344769432E+03  0.10100000352E+00 0. -1.
       -3    1    3    3    0  502  0.18866557384E+03 -0.15766270760E+03 -0.28814204485E+03  0.37878500014E+03  0.10100000352E+00 0.  1.
</event>
<event>
 5   0  0.5038436E-02  0.4933699E+03  0.7818609E-02  0.1015524E+00
       -1   -1    0    0    0  501  0.00000000000E+00  0.00000000000E+00  0.86015975431E+02  0.86015975579E+02  0.50400001928E-02 0.  1.
        1   -1    0    0  501    0  0.00000000000E+00  0.00000000000E+00 -0.70746692008E+03  0.70746692010E+03  0.50400001928E-02 0. -1.
    10030    2    1    2    0    0  0.00000000000E+00  0.00000000000E+00 -0.62145094465E+03  0.79348289568E+03  0.49336987051E+03 0.  0.
        1    1    3    3  502    0  0.78371902839E+02 -0.97388084692E+01 -0.68658599220E+03  0.69111310526E+03  0.50400001928E-02 0. -1.
       -1    1    3    3    0  502 -0.78371902839E+02  0.97388084692E+01  0.65135047554E+02  0.10236979042E+03  0.50400001928E-02 0.  1.
</event>
<event>
 5   0  0.7698747E-02  0.5061191E+03  0.7818609E-02  0.1012194E+00
        2   -1    0    0  501    0  0.00000000000E+00  0.00000000000E+00  0.36419047305E+03  0.36419047306E+03  0.25500000920E-02 0. -1.
       -2   -1    0    0    0  501  0.00000000000E+00  0.00000000000E+00 -0.17583967486E+03  0.17583967488E+03  0.25500000920E-02 0.  1.
    10030    2    1    2    0    0  0.00000000000E+00  0.00000000000E+00  0.18835079819E+03  0.54003014794E+03  0.50611909419E+03 0.  0.
        2    1    3    3  502    0  0.77832741630E+02  0.37550978251E+02 -0.15960769181E+03  0.18150103837E+03  0.25500000920E-02 0.  1.
       -2    1    3    3    0  502 -0.77832741630E+02 -0.37550978251E+02  0.34795849000E+03  0.35852910957E+03  0.25500000920E-02 0. -1.
</event>
<event>
 5   0  0.7881060E-02  0.5004378E+03  0.7818609E-02  0.1013665E+00
        2   -1    0    0  501    0  0.00000000000E+00  0.00000000000E+00  0.89070693744E+03  0.89070693745E+03  0.25500000920E-02 0.  1.
       -2   -1    0    0    0  501  0.00000000000E+00  0.00000000000E+00 -0.70291928914E+02  0.70291928961E+02  0.25500000920E-02 0. -1.
    10030    2    1    2    0    0  0.00000000000E+00  0.00000000000E+00  0.82041500853E+03  0.96099886641E+03  0.50043784331E+03 0.  0.
        1    1    3    3  502    0  0.89383454399E+02 -0.34392456143E+02 -0.33702411187E+02  0.10152879151E+03  0.50400001928E-02 0. -1.
       -1    1    3    3    0  502 -0.89383454399E+02  0.34392456143E+02  0.85411741972E+03  0.85947007490E+03  0.50400001928E-02 0.  1.
</event>
<event>
 5   0  0.4865501E-02  0.5155467E+03  0.7818609E-02  0.1009799E+00
        1   -1    0    0  501    0  0.00000000000E+00  0.00000000000E+00  0.71342544859E+03  0.71342544861E+03  0.50400001928E-02 0.  1.
       -1   -1    0    0    0  501  0.00000000000E+00  0.00000000000E+00 -0.93138127164E+02  0.93138127300E+02  0.50400001928E-02 0. -1.
    10030    2    1    2    0    0  0.00000000000E+00  0.00000000000E+00  0.62028732143E+03  0.80656357591E+03  0.51554673974E+03 0.  0.
        2    1    3    3  502    0  0.17591906171E+03  0.18412422115E+03  0.24760614581E+03  0.35518734287E+03  0.25500000920E-02 0. -1.
       -2    1    3    3    0  502 -0.17591906171E+03 -0.18412422115E+03  0.37268117562E+03  0.45137623304E+03  0.25500000920E-02 0.  1.
</event>
<event>
 5   0  0.4865501E-02  0.4998278E+03  0.7818609E-02  0.1013824E+00
        1   -1    0    0  501    0  0.00000000000E+00  0.00000000000E+00  0.36291396628E+03  0.36291396632E+03  0.50400001928E-02 0.  1.
       -1   -1    0    0    0  501  0.00000000000E+00  0.00000000000E+00 -0.17209851483E+03  0.17209851490E+03  0.50400001928E-02 0. -1.
    10030    2    1    2    0    0  0.00000000000E+00  0.00000000000E+00  0.19081545145E+03  0.53501248122E+03  0.49982778889E+03 0.  0.
        2    1    3    3  502    0  0.17858206703E+03 -0.15416429132E+03  0.18366667043E+03  0.29898432938E+03  0.25500000920E-02 0.  1.
       -2    1    3    3    0  502 -0.17858206703E+03  0.15416429132E+03  0.71487810282E+01  0.23602815184E+03  0.25500000920E-02 0. -1.
</event>
<event>
 5   0  0.7776070E-02  0.4983935E+03  0.7818609E-02  0.1014199E+00
        2   -1    0    0  501    0  0.00000000000E+00  0.00000000000E+00  0.39766159750E+03  0.39766159751E+03  0.25500000920E-02 0.  1.
       -2   -1    0    0    0  501  0.00000000000E+00  0.00000000000E+00 -0.15616046105E+03  0.15616046107E+03  0.25500000920E-02 0. -1.
    10030    2    1    2    0    0  0.00000000000E+00  0.00000000000E+00  0.24150113645E+03  0.55382205858E+03  0.49839349279E+03 0.  0.
        4    1    3    3  502    0 -0.86420606043E+01  0.22786364750E+03  0.90700401715E+01  0.22821131784E+03  0.12699999809E+01 0. -1.
       -4    1    3    3    0  502  0.86420606043E+01 -0.22786364750E+03  0.23243109628E+03  0.32561074073E+03  0.12699999809E+01 0.  1.
</event>
<event>
 5   0  0.7776070E-02  0.4993774E+03  0.7818609E-02  0.1013942E+00
        2   -1    0    0  501    0  0.00000000000E+00  0.00000000000E+00  0.10260879438E+04  0.10260879438E+04  0.25500000920E-02 0.  1.
       -2   -1    0    0    0  501  0.00000000000E+00  0.00000000000E+00 -0.60759357257E+02  0.60759357311E+02  0.25500000920E-02 0. -1.
    10030    2    1    2    0    0  0.00000000000E+00  0.00000000000E+00  0.96532858655E+03  0.10868473011E+04  0.49937738830E+03 0.  0.
        4    1    3    3  502    0  0.19482072320E+03  0.15256646313E+03  0.41011485419E+03  0.47898585197E+03  0.12699999809E+01 0.  1.
       -4    1    3    3    0  502 -0.19482072320E+03 -0.15256646313E+03  0.55521373236E+03  0.60786144915E+03  0.12699999809E+01 0. -1.
</event>
<event>
 5   0  0.7776070E-02  0.4986377E+03  0.7818609E-02  0.1014135E+00
        2   -1    0    0  501    0  0.00000000000E+00  0.00000000000E+00  0.74524928451E+03  0.74524928452E+03  0.25500000920E-02 0.  1.
       -2   -1    0    0    0  501  0.00000000000E+00  0.00000000000E+00 -0.83408169414E+02  0.83408169453E+02  0.25500000920E-02 0. -1.
    10030    2    1    2    0    0  0.00000000000E+00  0.00000000000E+00  0.66184111510E+03  0.82865745397E+03  0.49863765841E+03 0.  0.
        4    1    3    3  502    0  0.21977521219E+03  0.45438175909E+02  0.51138547963E+03  0.55846440657E+03  0.12699999809E+01 0.  1.
       -4    1    3    3    0  502 -0.21977521219E+03 -0.45438175909E+02  0.15045563546E+03  0.27019304740E+03  0.12699999809E+01 0. -1.
</event>
<event>
 5   0  0.4884478E-02  0.4862469E+03  0.7818609E-02  0.1017432E+00
        1   -1    0    0  501    0  0.00000000000E+00  0.00000000000E+00  0.23810240384E+03  0.23810240389E+03  0.50400001928E-02 0.  1.
       -1   -1    0    0    0  501  0.00000000000E+00  0.00000000000E+00 -0.24825039978E+03  0.24825039983E+03  0.50400001928E-02 0. -1.
    10030    2    1    2    0    0  0.00000000000E+00  0.00000000000E+00 -0.10147995944E+02  0.48635280372E+03  0.48624692068E+03 0.  0.
        3    1    3    3  502    0  0.17338285122E+03 -0.64540621270E+02  0.15270033266E+03  0.23988436107E+03  0.10100000352E+00 0.  1.
       -3    1    3    3    0  502 -0.17338285122E+03  0.64540621270E+02 -0.16284832861E+03  0.24646844265E+03  0.10100000352E+00 0. -1.
</event>
<event>
 5   0  0.3210875E-02  0.4860907E+03  0.7818609E-02  0.1017475E+00
        3   -1    0    0  501    0  0.00000000000E+00  0.00000000000E+00  0.39253897197E+03  0.39253898497E+03  0.10100000352E+00 0. -1.
       -3   -1    0    0    0  501  0.00000000000E+00  0.00000000000E+00 -0.15048452179E+03  0.15048455569E+03  0.10100000352E+00 0.  1.
    10030    2    1    2    0    0  0.00000000000E+00  0.00000000000E+00  0.24205445018E+03  0.54302354065E+03  0.48609074138E+03 0.  0.
        4    1    3    3  502    0  0.11063979290E+03  0.12904661682E+02 -0.12028637408E+03  0.16394547495E+03  0.12699999809E+01 0.  1.
       -4    1    3    3    0  502 -0.11063979290E+03 -0.12904661682E+02  0.36234082427E+03  0.37907806570E+03  0.12699999809E+01 0. -1.
</event>
<event>
 5   0  0.4884478E-02  0.4967399E+03  0.7818609E-02  0.1014633E+00
       -1   -1    0    0    0  501  0.00000000000E+00  0.00000000000E+00  0.57796358371E+03  0.57796358373E+03  0.50400001928E-02 0.  1.
        1   -1    0    0  501    0  0.00000000000E+00  0.00000000000E+00 -0.10673274381E+03  0.10673274393E+03  0.50400001928E-02 0. -1.
    10030    2    1    2    0    0  0.00000000000E+00  0.00000000000E+00  0.47123083990E+03  0.68469632766E+03  0.49673992857E+03 0.  0.
        3    1    3    3  502    0 -0.98769067692E+02 -0.21925530924E+03  0.14998474558E+03  0.28341427887E+03  0.10100000352E+00 0. -1.
       -3    1    3    3    0  502  0.98769067692E+02  0.21925530924E+03  0.32124609432E+03  0.40128204879E+03  0.10100000352E+00 0.  1.
</event>
<event>
 5   0  0.7698747E-02  0.4987490E+03  0.7818609E-02  0.1014106E+00
        2   -1    0    0  501    0  0.00000000000E+00  0.00000000000E+00  0.21623595944E+04  0.21623595944E+04  0.25500000920E-02 0. -1.
       -2   -1    0    0    0  501  0.00000000000E+00  0.00000000000E+00 -0.28759155022E+02  0.28759155135E+02  0.25500000920E-02 0.  1.
    10030    2    1    2    0    0  0.00000000000E+00  0.00000000000E+00  0.21336004393E+04  0.21911187495E+04  0.49874897458E+03 0.  0.
        2    1    3    3  502    0  0.17066442187E+03  0.12764760496E+03  0.16356747492E+04  0.16495005733E+04  0.25500000920E-02 0. -1.
       -2    1    3    3    0  502 -0.17066442187E+03 -0.12764760496E+03  0.49792569012E+03  0.54161817624E+03  0.25500000920E-02 0.  1.
</event>
<event>
 5   0  0.3210875E-02  0.4866607E+03  0.7818609E-02  0.1017321E+00
       -4   -1    0    0    0  501  0.00000000000E+00  0.00000000000E+00  0.92530280899E+03  0.92530368054E+03  0.12699999809E+01 0.  1.
        4   -1    0    0  501    0  0.00000000000E+00  0.00000000000E+00 -0.63982295799E+02  0.63994898825E+02  0.12699999809E+01 0. -1.
    10030    2    1    2    0    0  0.00000000000E+00  0.00000000000E+00  0.86132051319E+03  0.98929857937E+03  0.48666071620E+03 0.  0.
        5    1    3    3  502    0  0.42985493080E+02  0.50153653546E+02 -0.45319150155E+02  0.80243734636E+02  0.46999998093E+01 0. -1.
       -5    1    3    3    0  502 -0.42985493080E+02 -0.50153653546E+02  0.90663966335E+03  0.90905484473E+03  0.46999998093E+01 0.  1.
</event>
<event>
 5   0  0.4865501E-02  0.5031234E+03  0.7818609E-02  0.1012967E+00
        1   -1    0    0  501    0  0.00000000000E+00  0.00000000000E+00  0.10308797628E+03  0.10308797640E+03  0.50400001928E-02 0. -1.
       -1   -1    0    0    0  501  0.00000000000E+00  0.00000000000E+00 -0.61387644987E+03  0.61387644989E+03  0.50400001928E-02 0.  1.
    10030    2    1    2    0    0  0.00000000000E+00  0.00000000000E+00 -0.51078847359E+03  0.71696442629E+03  0.50312336839E+03 0.  0.
        2    1    3    3  502    0 -0.14793914431E+03 -0.20340997280E+03 -0.24876005184E+03  0.35375580681E+03  0.25500000920E-02 0. -1.
       -2    1    3    3    0  502  0.14793914431E+03  0.20340997280E+03 -0.26202842176E+03  0.36320861949E+03  0.25500000920E-02 0.  1.
</event>
<event>
 5   0  0.5038436E-02  0.5010957E+03  0.7818609E-02  0.1013493E+00
        1   -1    0    0  501    0  0.00000000000E+00  0.00000000000E+00  0.12332314026E+04  0.12332314026E+04  0.50400001928E-02 0.  1.
       -1   -1    0    0    0  501  0.00000000000E+00  0.00000000000E+00 -0.50902234714E+02  0.50902234964E+02  0.50400001928E-02 0. -1.
    10030    2    1    2    0    0  0.00000000000E+00  0.00000000000E+00  0.11823291679E+04  0.12841336376E+04  0.50109573727E+03 0.  0.
        1    1    3    3  502    0 -0.24082714562E+03  0.35880971597E+02  0.74253630371E+03  0.78143798253E+03  0.50400001928E-02 0.  1.
       -1    1    3    3    0  502  0.24082714562E+03 -0.35880971597E+02  0.43979286418E+03  0.50269565504E+03  0.50400001928E-02 0. -1.
</event>
<event>
 5   0  0.7698747E-02  0.4974415E+03  0.7818609E-02  0.1014449E+00
        2   -1    0    0  501    0  0.00000000000E+00  0.00000000000E+00  0.20686296543E+04  0.20686296543E+04  0.25500000920E-02 0. -1.
       -2   -1    0    0    0  501  0.00000000000E+00  0.00000000000E+00 -0.29904822080E+02  0.29904822188E+02  0.25500000920E-02 0.  1.
    10030    2    1    2    0    0  0.00000000000E+00  0.00000000000E+00  0.20387248323E+04  0.20985344765E+04  0.49744146139E+03 0.  0.
        2    1    3    3  502    0  0.85841626405E+02 -0.23338506514E+03  0.10402983528E+04  0.10696064866E+04  0.25500000920E-02 0. -1.
       -2    1    3    3    0  502 -0.85841626405E+02  0.23338506514E+03  0.99842647948E+03  0.10289279899E+04  0.25500000920E-02 0.  1.
</event>
<event>
 5   0  0.7776070E-02  0.4921229E+03  0.7818609E-02  0.1015856E+00
       -2   -1    0    0    0  501  0.00000000000E+00  0.00000000000E+00  0.22877738241E+03  0.22877738242E+03  0.25500000920E-02 0. -1.
        2   -1    0    0  501    0  0.00000000000E+00  0.00000000000E+00 -0.26465131892E+03  0.26465131893E+03  0.25500000920E-02 0.  1.
    10030    2    1    2    0    0  0.00000000000E+00  0.00000000000E+00 -0.35873936512E+02  0.49342870135E+03  0.49212289522E+03 0.  0.
        4    1    3    3  502    0 -0.23233262498E+03 -0.27489477946E+02  0.58491948594E+02  0.24115770976E+03  0.12699999809E+01 0. -1.
       -4    1    3    3    0  502  0.23233262498E+03  0.27489477946E+02 -0.94365885106E+02  0.25227099159E+03  0.12699999809E+01 0.  1.
</event>
<event>
 5   0  0.5038436E-02  0.4975217E+03  0.7818609E-02  0.1014428E+00
        1   -1    0    0  501    0  0.00000000000E+00  0.00000000000E+00  0.55986698334E+03  0.55986698337E+03  0.50400001928E-02 0.  1.
       -1   -1    0    0    0  501  0.00000000000E+00  0.00000000000E+00 -0.11052976872E+03  0.11052976884E+03  0.50400001928E-02 0. -1.
    10030    2    1    2    0    0  0.00000000000E+00  0.00000000000E+00  0.44933721462E+03  0.67039675220E+03  0.49752173110E+03 0.  0.
        1    1    3    3  502    0 -0.17799337020E+03 -0.63711917340E+02  0.44253083583E+03  0.48122176690E+03  0.50400001928E-02 0.  1.
       -1    1    3    3    0  502  0.17799337020E+03  0.63711917340E+02  0.68063787897E+01  0.18917498530E+03  0.50400001928E-02 0. -1.
</event>
<event>
 5   0  0.7881060E-02  0.4945281E+03  0.7818609E-02  0.1015217E+00
        2   -1    0    0  501    0  0.00000000000E+00  0.00000000000E+00  0.50853758586E+03  0.50853758586E+03  0.25500000920E-02 0. -1.
       -2   -1    0    0    0  501  0.00000000000E+00  0.00000000000E+00 -0.12022612086E+03  0.12022612089E+03  0.25500000920E-02 0.  1.
    10030    2    1    2    0    0  0.00000000000E+00  0.00000000000E+00  0.38831146499E+03  0.62876370675E+03  0.49452806299E+03 0.  0.
        1    1    3    3  502    0 -0.21144995903E+03 -0.35052164400E+00  0.35712013427E+03  0.41502529847E+03  0.50400001928E-02 0. -1.
       -1    1    3    3    0  502  0.21144995903E+03  0.35052164400E+00  0.31191330721E+02  0.21373840828E+03  0.50400001928E-02 0.  1.
</event>
<event>
 5   0  0.4865501E-02  0.5060734E+03  0.7818609E-02  0.1012206E+00
       -1   -1    0    0    0  501  0.00000000000E+00  0.00000000000E+00  0.63307331478E+03  0.63307331480E+03  0.50400001928E-02 0. -1.
        1   -1    0    0  501    0  0.00000000000E+00  0.00000000000E+00 -0.10113767691E+03  0.10113767704E+03  0.50400001928E-02 0.  1.
    10030    2    1    2    0    0  0.00000000000E+00  0.00000000000E+00  0.53193563786E+03  0.73421099184E+03  0.50607337186E+03 0.  0.
        2    1    3    3  502    0  0.10642839828E+03  0.16000556053E+03  0.50479418663E+03  0.54013512590E+03  0.25500000920E-02 0. -1.
       -2    1    3    3    0  502 -0.10642839828E+03 -0.16000556053E+03  0.27141451230E+02  0.19407586594E+03  0.25500000920E-02 0.  1.
</event>
<event>
 5   0  0.5191358E-02  0.5198582E+03  0.7818609E-02  0.1008722E+00
       -1   -1    0    0    0  501  0.00000000000E+00  0.00000000000E+00  0.48034741744E+03  0.48034741747E+03  0.50400001928E-02 0. -1.
        1   -1    0    0  501    0  0.00000000000E+00  0.00000000000E+00 -0.14065472613E+03  0.14065472622E+03  0.50400001928E-02 0.  1.
    10030    2    1    2    0    0  0.00000000000E+00  0.00000000000E+00  0.33969269131E+03  0.62100214369E+03  0.51985819022E+03 0.  0.
        4    1    3    3  502    0  0.15778454637E+03 -0.12950742044E+03 -0.22375452821E+02  0.20535434938E+03  0.12699999809E+01 0.  1.
       -4    1    3    3    0  502 -0.15778454637E+03  0.12950742044E+03  0.36206814413E+03  0.41564779431E+03  0.12699999809E+01 0. -1.
</event>
<event>
 5   0  0.5038436E-02  0.5008685E+03  0.7818609E-02  0.1013552E+00
        1   -1    0    0  501    0  0.00000000000E+00  0.00000000000E+00  0.15844567279E+04  0.15844567279E+04  0.50400001928E-02 0. -1.
       -1   -1    0    0    0  501  0.00000000000E+00  0.00000000000E+00 -0.39582852190E+02  0.39582852511E+02  0.50400001928E-02 0.  1.
    10030    2    1    2    0    0  0.00000000000E+00  0.00000000000E+00  0.15448738757E+04  0.16240395804E+04  0.50086851260E+03 0.  0.
        1    1    3    3  502    0 -0.75764108719E+01  0.14625108552E+03  0.14311449210E+04  0.14386182840E+04  0.50400001928E-02 0. -1.
       -1    1    3    3    0  502  0.75764108719E+01 -0.14625108552E+03  0.11372895472E+03  0.18542129647E+03  0.50400001928E-02 0.  1.
</event>
<event>
 5   0  0.5038436E-02  0.4970161E+03  0.7818609E-02  0.1014561E+00
       -1   -1    0    0    0  501  0.00000000000E+00  0.00000000000E+00  0.97742947401E+02  0.97742947531E+02  0.50400001928E-02 0.  1.
        1   -1    0    0  501    0  0.00000000000E+00  0.00000000000E+00 -0.63182315256E+03  0.63182315258E+03  0.50400001928E-02 0. -1.
    10030    2    1    2    0    0  0.00000000000E+00  0.00000000000E+00 -0.53408020516E+03  0.72956610011E+03  0.49701612538E+03 0.  0.
        1    1    3    3  502    0 -0.15500032242E+03 -0.17441279199E+03 -0.39255420230E+03  0.45666587756E+03  0.50400001928E-02 0. -1.
       -1    1    3    3    0  502  0.15500032242E+03  0.17441279199E+03 -0.14152600286E+03  0.27290022255E+03  0.50400001928E-02 0.  1.
</event>
<event>
 5   0  0.5038436E-02  0.4712683E+03  0.7818609E-02  0.1021563E+00
        1   -1    0    0  501    0  0.00000000000E+00  0.00000000000E+00  0.13902885801E+03  0.13902885810E+03  0.50400001928E-02 0.  1.
       -1   -1    0    0    0  501  0.00000000000E+00  0.00000000000E+00 -0.39936632254E+03  0.39936632257E+03  0.50400001928E-02 0. -1.
    10030    2    1    2    0    0  0.00000000000E+00  0.00000000000E+00 -0.26033746453E+03  0.53839518067E+03  0.47126826238E+03 0.  0.
        1    1    3    3  502    0  0.90594569915E+02 -0.12081935499E+03  0.76479326410E+02  0.16927427457E+03  0.50400001928E-02 0.  1.
       -1    1    3    3    0  502 -0.90594569915E+02  0.12081935499E+03 -0.33681679094E+03  0.36912090610E+03  0.50400001928E-02 0. -1.
</event>
<event>
 5   0  0.3210875E-02  0.4990420E+03  0.7818609E-02  0.1014029E+00
        3   -1    0    0  501    0  0.00000000000E+00  0.00000000000E+00  0.10828865850E+04  0.10828865897E+04  0.10100000352E+00 0. -1.
       -3   -1    0    0    0  501  0.00000000000E+00  0.00000000000E+00 -0.57495105519E+02  0.57495194231E+02  0.10100000352E+00 0.  1.
    10030    2    1    2    0    0  0.00000000000E+00  0.00000000000E+00  0.10253914795E+04  0.11403817840E+04  0.49904200921E+03 0.  0.
        3    1    3    3  502    0  0.20027193549E+03 -0.14854312816E+03  0.53398714002E+03  0.58933537563E+03  0.10100000352E+00 0.  1.
       -3    1    3    3    0  502 -0.20027193549E+03  0.14854312816E+03  0.49140433949E+03  0.55104640833E+03  0.10100000352E+00 0. -1.
</event>
<event>
 5   0  0.4865501E-02  0.4976480E+03  0.7818609E-02  0.1014395E+00
        1   -1    0    0  501    0  0.00000000000E+00  0.00000000000E+00  0.68893450978E+03  0.68893450980E+03  0.50400001928E-02 0.  1.
       -1   -1    0    0    0  501  0.00000000000E+00  0.00000000000E+00 -0.89868319497E+02  0.89868319638E+02  0.50400001928E-02 0. -1.
    10030    2    1    2    0    0  0.00000000000E+00  0.00000000000E+00  0.59906619028E+03  0.77880282944E+03  0.49764801496E+03 0.  0.
        2    1    3    3  502    0 -0.58992817953E+02 -0.15231128655E+03  0.59329084894E+03  0.61536404837E+03  0.25500000920E-02 0.  1.
       -2    1    3    3    0  502  0.58992817953E+02  0.15231128655E+03  0.57753413369E+01  0.16343878106E+03  0.25500000920E-02 0. -1.
</event>
<event>
 5   0  0.5191358E-02  0.5010203E+03  0.7818609E-02  0.1013513E+00
        1   -1    0    0  501    0  0.00000000000E+00  0.00000000000E+00  0.11854923798E+04  0.11854923798E+04  0.50400001928E-02 0.  1.
       -1   -1    0    0    0  501  0.00000000000E+00  0.00000000000E+00 -0.52936094334E+02  0.52936094574E+02  0.50400001928E-02 0. -1.
    10030    2    1    2    0    0  0.00000000000E+00  0.00000000000E+00  0.11325562855E+04  0.12384284744E+04  0.50102030540E+03 0.  0.
        4    1    3    3  502    0 -0.63790788652E+02  0.30292190288E+02  0.11603717995E+04  0.11625193364E+04  0.12699999809E+01 0.  1.
       -4    1    3    3    0  502  0.63790788652E+02 -0.30292190288E+02 -0.27815514038E+02  0.75909137990E+02  0.12699999809E+01 0. -1.
</event>
<event>
 5   0  0.7698747E-02  0.4991358E+03  0.7818609E-02  0.1014005E+00
        2   -1    0    0  501    0  0.00000000000E+00  0.00000000000E+00  0.47272918338E+03  0.47272918339E+03  0.25500000920E-02 0. -1.
       -2   -1    0    0    0  501  0.00000000000E+00  0.00000000000E+00 -0.13175435496E+03  0.13175435498E+03  0.25500000920E-02 0.  1.
    10030    2    1    2    0    0  0.00000000000E+00  0.00000000000E+00  0.34097482843E+03  0.60448353837E+03  0.49913576764E+03 0.  0.
        2    1    3    3  502    0 -0.42007760954E+02 -0.38503434916E+02 -0.12377025270E+03  0.13625799772E+03  0.25500000920E-02 0.  1.
       -2    1    3    3    0  502  0.42007760954E+02  0.38503434916E+02  0.46474508113E+03  0.46822554065E+03  0.25500000920E-02 0. -1.
</event>
<event>
 5   0  0.3210875E-02  0.5024389E+03  0.7818609E-02  0.1013144E+00
        4   -1    0    0  501    0  0.00000000000E+00  0.00000000000E+00  0.15002689640E+03  0.15003227167E+03  0.12699999809E+01 0. -1.
       -4   -1    0    0    0  501  0.00000000000E+00  0.00000000000E+00 -0.42065204086E+03  0.42065395799E+03  0.12699999809E+01 0.  1.
    10030    2    1    2    0    0  0.00000000000E+00  0.00000000000E+00 -0.27062514445E+03  0.57068622967E+03  0.50243885590E+03 0.  0.
        3    1    3    3  502    0 -0.18349205315E+03 -0.17053293258E+03 -0.11375041666E+03  0.27511812400E+03  0.10100000352E+00 0. -1.
       -3    1    3    3    0  502  0.18349205315E+03  0.17053293258E+03 -0.15687472780E+03  0.29556810567E+03  0.10100000352E+00 0.  1.
</event>
<event>
 5   0  0.4803890E-02  0.4962651E+03  0.7818609E-02  0.1014758E+00
       -1   -1    0    0    0  501  0.00000000000E+00  0.00000000000E+00  0.14423563291E+03  0.14423563300E+03  0.50400001928E-02 0. -1.
        1   -1    0    0  501    0  0.00000000000E+00  0.00000000000E+00 -0.42686922236E+03  0.42686922239E+03  0.50400001928E-02 0.  1.
    10030    2    1    2    0    0  0.00000000000E+00  0.00000000000E+00 -0.28263358945E+03  0.57110485539E+03  0.49626506019E+03 0.  0.
        5    1    3    3  502    0  0.18986248495E+03 -0.23843638761E+02 -0.32302532416E+03  0.37547800515E+03  0.46999998093E+01 0.  1.
       -5    1    3    3    0  502 -0.18986248495E+03  0.23843638761E+02  0.40391734718E+02  0.19562685024E+03  0.46999998093E+01 0. -1.
</event>
<event>
 5   0  0.7881060E-02  0.4961694E+03  0.7818609E-02  0.1014784E+00
        2   -1    0    0  501    0  0.00000000000E+00  0.00000000000E+00  0.15963287284E+03  0.15963287286E+03  0.25500000920E-02 0. -1.
       -2   -1    0    0    0  501  0.00000000000E+00  0.00000000000E+00 -0.38554720862E+03  0.38554720863E+03  0.25500000920E-02 0.  1.
    10030    2    1    2    0    0  0.00000000000E+00  0.00000000000E+00 -0.22591433579E+03  0.54518008149E+03  0.49616936034E+03 0.  0.
        1    1    3    3  502    0 -0.18140514442E+03 -0.46899249487E+01  0.72915665147E+02  0.19556716511E+03  0.50400001928E-02 0. -1.
       -1    1    3    3    0  502  0.18140514442E+03  0.46899249487E+01 -0.29883000094E+03  0.34961291638E+03  0.50400001928E-02 0.  1.
</event>
<event>
 5   0  0.7881060E-02  0.4948332E+03  0.7818609E-02  0.1015136E+00
        2   -1    0    0  501    0  0.00000000000E+00  0.00000000000E+00  0.27703850401E+03  0.27703850402E+03  0.25500000920E-02 0. -1.
       -2   -1    0    0    0  501  0.00000000000E+00  0.00000000000E+00 -0.22096194998E+03  0.22096195000E+03  0.25500000920E-02 0.  1.
    10030    2    1    2    0    0  0.00000000000E+00  0.00000000000E+00  0.56076554021E+02  0.49800045402E+03  0.49483317622E+03 0.  0.
        1    1    3    3  502    0 -0.19844358279E+03  0.24614579777E+02 -0.11859687753E+03  0.23248860719E+03  0.50400001928E-02 0.  1.
       -1    1    3    3    0  502  0.19844358279E+03 -0.24614579777E+02  0.17467343155E+03  0.26551184682E+03  0.50400001928E-02 0. -1.
</event>
<event>
 5   0  0.7698747E-02  0.4998753E+03  0.7818609E-02  0.1013811E+00
        2   -1    0    0  501    0  0.00000000000E+00  0.00000000000E+00  0.59795965540E+03  0.59795965540E+03  0.25500000920E-02 0.  1.
       -2   -1    0    0    0  501  0.00000000000E+00  0.00000000000E+00 -0.10446996982E+03  0.10446996985E+03  0.25500000920E-02 0. -1.
    10030    2    1    2    0    0  0.00000000000E+00  0.00000000000E+00  0.49348968558E+03  0.70242962525E+03  0.49987529311E+03 0.  0.
        2    1    3    3  502    0  0.14951683933E+03 -0.12944474588E+03  0.46150576167E+03  0.50209440899E+03  0.25500000920E-02 0.  1.
       -2    1    3    3    0  502 -0.14951683933E+03  0.12944474588E+03  0.31983923906E+02  0.20033521626E+03  0.25500000920E-02 0. -1.
</event>
<event>
 5   0  0.7933103E-02  0.4990961E+03  0.7818609E-02  0.1014015E+00
        2   -1    0    0  501    0  0.00000000000E+00  0.00000000000E+00  0.49755056697E+03  0.49755056698E+03  0.25500000920E-02 0.  1.
       -2   -1    0    0    0  501  0.00000000000E+00  0.00000000000E+00 -0.12516163248E+03  0.12516163250E+03  0.25500000920E-02 0. -1.
    10030    2    1    2    0    0  0.00000000000E+00  0.00000000000E+00  0.37238893449E+03  0.62271219948E+03  0.49909614790E+03 0.  0.
        5    1    3    3  502    0 -0.16019170653E+03 -0.10824854451E+03 -0.10579401454E+02  0.19368310191E+03  0.46999998093E+01 0. -1.
       -5    1    3    3    0  502  0.16019170653E+03  0.10824854451E+03  0.38296833595E+03  0.42902909758E+03  0.46999998093E+01 0.  1.
</event>
<event>
 5   0  0.4865501E-02  0.4987349E+03  0.7818609E-02  0.1014110E+00
       -1   -1    0    0    0  501  0.00000000000E+00  0.00000000000E+00  0.14452599976E+03  0.14452599985E+03  0.50400001928E-02 0.  1.
        1   -1    0    0  501    0  0.00000000000E+00  0.00000000000E+00 -0.43026250297E+03  0.43026250300E+03  0.50400001928E-02 0. -1.
    10030    2    1    2    0    0  0.00000000000E+00  0.00000000000E+00 -0.28573650321E+03  0.57478850285E+03  0.49873487319E+03 0.  0.
        2    1    3    3  502    0 -0.19228054190E+03 -0.10327123377E+03 -0.28187327256E+03  0.35649585735E+03  0.25500000920E-02 0. -1.
       -2    1    3    3    0  502  0.19228054190E+03  0.10327123377E+03 -0.38632306471E+01  0.21829264549E+03  0.25500000920E-02 0.  1.
</event>
<event>
 5   0  0.7881060E-02  0.4981607E+03  0.7818609E-02  0.1014260E+00
        2   -1    0    0  501    0  0.00000000000E+00  0.00000000000E+00  0.87298523673E+03  0.87298523673E+03  0.25500000920E-02 0.  1.
       -2   -1    0    0    0  501  0.00000000000E+00  0.00000000000E+00 -0.71067661928E+02  0.71067661974E+02  0.25500000920E-02 0. -1.
    10030    2    1    2    0    0  0.00000000000E+00  0.00000000000E+00  0.80191757480E+03  0.94405289870E+03  0.49816069574E+03 0.  0.
        1    1    3    3  502    0  0.52461750392E+02 -0.22997954809E+03  0.24937404122E+03  0.34326409694E+03  0.50400001928E-02 0. -1.
       -1    1    3    3    0  502 -0.52461750392E+02  0.22997954809E+03  0.55254353358E+03  0.60078880176E+03  0.50400001928E-02 0.  1.
</event>
<event>
 5   0  0.5038436E-02  0.4911822E+03  0.7818609E-02  0.1016106E+00
        1   -1    0    0  501    0  0.00000000000E+00  0.00000000000E+00  0.80709810924E+03  0.80709810925E+03  0.50400001928E-02 0. -1.
       -1   -1    0    0    0  501  0.00000000000E+00  0.00000000000E+00 -0.74730680364E+02  0.74730680534E+02  0.50400001928E-02 0.  1.
    10030    2    1    2    0    0  0.00000000000E+00  0.00000000000E+00  0.73236742887E+03  0.88182878979E+03  0.49118221021E+03 0.  0.
        1    1    3    3  502    0 -0.18072655090E+03 -0.40654088075E+02  0.76696378510E+02  0.20049233297E+03  0.50400001928E-02 0.  1.
       -1    1    3    3    0  502  0.18072655090E+03  0.40654088075E+02  0.65567105036E+03  0.68133645682E+03  0.50400001928E-02 0. -1.
</event>
<event>
 5   0  0.3210875E-02  0.4988353E+03  0.7818609E-02  0.1014083E+00
       -4   -1    0    0    0  501  0.00000000000E+00  0.00000000000E+00  0.54852988588E+02  0.54867688643E+02  0.12699999809E+01 0.  1.
        4   -1    0    0  501    0  0.00000000000E+00  0.00000000000E+00 -0.11339402357E+04  0.11339409469E+04  0.12699999809E+01 0. -1.
    10030    2    1    2    0    0  0.00000000000E+00  0.00000000000E+00 -0.10790872471E+04  0.11888086356E+04  0.49883532859E+03 0.  0.
        4    1    3    3  502    0  0.11138215904E+03 -0.19984132858E+03 -0.77624656424E+03  0.80926070172E+03  0.12699999809E+01 0. -1.
       -4    1    3    3    0  502 -0.11138215904E+03  0.19984132858E+03 -0.30284068290E+03  0.37954793384E+03  0.12699999809E+01 0.  1.
</event>
<event>
 5   0  0.5038436E-02  0.4985203E+03  0.7818609E-02  0.1014166E+00
       -1   -1    0    0    0  501  0.00000000000E+00  0.00000000000E+00  0.91893740227E+02  0.91893740365E+02  0.50400001928E-02 0.  1.
        1   -1    0    0  501    0  0.00000000000E+00  0.00000000000E+00 -0.67611369407E+03  0.67611369409E+03  0.50400001928E-02 0. -1.
    10030    2    1    2    0    0  0.00000000000E+00  0.00000000000E+00 -0.58421995384E+03  0.76800743445E+03  0.49852027532E+03 0.  0.
        1    1    3    3  502    0  0.11719490876E+03 -0.14538984772E+03 -0.54645760587E+03  0.57748486517E+03  0.50400001928E-02 0. -1.
       -1    1    3    3    0  502 -0.11719490876E+03  0.14538984772E+03 -0.37762347971E+02  0.19052256929E+03  0.50400001928E-02 0.  1.
</event>
<event>
 5   0  0.4803890E-02  0.4983920E+03  0.7818609E-02  0.1014199E+00
       -1   -1    0    0    0  501  0.00000000000E+00  0.00000000000E+00  0.93724794782E+03  0.93724794784E+03  0.50400001928E-02 0.  1.
        1   -1    0    0  501    0  0.00000000000E+00  0.00000000000E+00 -0.66256360286E+02  0.66256360478E+02  0.50400001928E-02 0. -1.
    10030    2    1    2    0    0  0.00000000000E+00  0.00000000000E+00  0.87099158754E+03  0.10035043083E+04  0.49839196547E+03 0.  0.
        5    1    3    3  502    0  0.18574259927E+03  0.12584502212E+03  0.65365254765E+03  0.69110131372E+03  0.46999998093E+01 0.  1.
       -5    1    3    3    0  502 -0.18574259927E+03 -0.12584502212E+03  0.21733903988E+03  0.31240299459E+03  0.46999998093E+01 0. -1.
</event>
<event>
 5   0  0.3210875E-02  0.5002514E+03  0.7818609E-02  0.1013713E+00
       -4   -1    0    0    0  501  0.00000000000E+00  0.00000000000E+00  0.19413663748E+03  0.19414079147E+03  0.12699999809E+01 0.  1.
        4   -1    0    0  501    0  0.00000000000E+00  0.00000000000E+00 -0.32225315667E+03  0.32225565920E+03  0.12699999809E+01 0. -1.
    10030    2    1    2    0    0  0.00000000000E+00  0.00000000000E+00 -0.12811651919E+03  0.51639645067E+03  0.50025138858E+03 0.  0.
        1    1    3    3  502    0 -0.10873499903E+03 -0.81636631138E+01  0.16831326135E+03  0.20054749907E+03  0.50400001928E-02 0.  1.
       -1    1    3    3    0  502  0.10873499903E+03  0.81636631138E+01 -0.29642978054E+03  0.31584895160E+03  0.50400001928E-02 0. -1.
</event>
<event>
 5   0  0.7881060E-02  0.4980407E+03  0.7818609E-02  0.1014292E+00
       -2   -1    0    0    0  501  0.00000000000E+00  0.00000000000E+00  0.87024375353E+02  0.87024375391E+02  0.25500000920E-02 0.  1.
        2   -1    0    0  501    0  0.00000000000E+00  0.00000000000E+00 -0.71257201178E+03  0.71257201178E+03  0.25500000920E-02 0. -1.
    10030    2    1    2    0    0  0.00000000000E+00  0.00000000000E+00 -0.62554763642E+03  0.79959638717E+03  0.49804069808E+03 0.  0.
        1    1    3    3  502    0 -0.50799324075E+02 -0.85678388976E+02 -0.67919640573E+03  0.68646129917E+03  0.50400001928E-02 0. -1.
       -1    1    3    3    0  502  0.50799324075E+02  0.85678388976E+02  0.53648769312E+02  0.11313508801E+03  0.50400001928E-02 0.  1.
</event>
<event>
 5   0  0.8208720E-02  0.5014554E+03  0.7818609E-02  0.1013400E+00
       -2   -1    0    0    0  501  0.00000000000E+00  0.00000000000E+00  0.20876908010E+03  0.20876908011E+03  0.25500000920E-02 0.  1.
        2   -1    0    0  501    0  0.00000000000E+00  0.00000000000E+00 -0.30111920301E+03  0.30111920302E+03  0.25500000920E-02 0. -1.
    10030    2    1    2    0    0  0.00000000000E+00  0.00000000000E+00 -0.92350122917E+02  0.50988828314E+03  0.50145539789E+03 0.  0.
        3    1    3    3  502    0  0.14626848468E+03 -0.91775229645E+02 -0.23102107904E+03  0.28842314669E+03  0.10100000352E+00 0. -1.
       -3    1    3    3    0  502 -0.14626848468E+03  0.91775229645E+02  0.13867095612E+03  0.22146513644E+03  0.10100000352E+00 0.  1.
</event>
<event>
 5   0  0.5038436E-02  0.4994114E+03  0.7818609E-02  0.1013933E+00
        1   -1    0    0  501    0  0.00000000000E+00  0.00000000000E+00  0.45993661435E+03  0.45993661437E+03  0.50400001928E-02 0. -1.
       -1   -1    0    0    0  501  0.00000000000E+00  0.00000000000E+00 -0.13556855760E+03  0.13556855769E+03  0.50400001928E-02 0.  1.
    10030    2    1    2    0    0  0.00000000000E+00  0.00000000000E+00  0.32436805675E+03  0.59550517207E+03  0.49941142730E+03 0.  0.
        1    1    3    3  502    0 -0.64485881803E+02 -0.10850597303E+02  0.44954535717E+03  0.45427655959E+03  0.50400001928E-02 0. -1.
       -1    1    3    3    0  502  0.64485881803E+02  0.10850597303E+02 -0.12517730043E+03  0.14122861247E+03  0.50400001928E-02 0.  1.
</event>
<event>
 5   0  0.4865501E-02  0.5001320E+03  0.7818609E-02  0.1013744E+00
       -1   -1    0    0    0  501  0.00000000000E+00  0.00000000000E+00  0.29375803252E+02  0.29375803685E+02  0.50400001928E-02 0. -1.
        1   -1    0    0  501    0  0.00000000000E+00  0.00000000000E+00 -0.21287250153E+04  0.21287250153E+04  0.50400001928E-02 0.  1.
    10030    2    1    2    0    0  0.00000000000E+00  0.00000000000E+00 -0.20993492120E+04  0.21581008190E+04  0.50013201337E+03 0.  0.
        2    1    3    3  502    0 -0.21441288187E+03 -0.55044280862E+02 -0.15516009615E+04  0.15673124451E+04  0.25500000920E-02 0.  1.
       -2    1    3    3    0  502  0.21441288187E+03  0.55044280862E+02 -0.54774825057E+03  0.59078837393E+03  0.25500000920E-02 0. -1.
</event>
<event>
 5   0  0.3210875E-02  0.4980461E+03  0.7818609E-02  0.1014290E+00
       -3   -1    0    0    0  501  0.00000000000E+00  0.00000000000E+00  0.30076588327E+03  0.30076590022E+03  0.10100000352E+00 0. -1.
        3   -1    0    0  501    0  0.00000000000E+00  0.00000000000E+00 -0.20618187932E+03  0.20618190406E+03  0.10100000352E+00 0.  1.
    10030    2    1    2    0    0  0.00000000000E+00  0.00000000000E+00  0.94584003948E+02  0.50694780428E+03  0.49804612483E+03 0.  0.
        2    1    3    3  502    0 -0.17401327973E+03 -0.15605180110E+03 -0.40148575823E+02  0.23715963885E+03  0.25500000920E-02 0.  1.
       -2    1    3    3    0  502  0.17401327973E+03  0.15605180110E+03  0.13473257977E+03  0.26978816543E+03  0.25500000920E-02 0. -1.
</event>
<event>
 5   0  0.5191358E-02  0.4727738E+03  0.7818609E-02  0.1021140E+00
        1   -1    0    0  501    0  0.00000000000E+00  0.00000000000E+00  0.11463229580E+04  0.11463229580E+04  0.50400001928E-02 0.  1.
       -1   -1    0    0    0  501  0.00000000000E+00  0.00000000000E+00 -0.48746085204E+02  0.48746085465E+02  0.50400001928E-02 0. -1.
    10030    2    1    2    0    0  0.00000000000E+00  0.00000000000E+00  0.10975768728E+04  0.11950690434E+04  0.47277375876E+03 0.  0.
        4    1    3    3  502    0  0.13896652702E+03 -0.14117098756E+03  0.87482529974E+03  0.89697372388E+03  0.12699999809E+01 0.  1.
       -4    1    3    3    0  502 -0.13896652702E+03  0.14117098756E+03  0.22275157301E+03  0.29809531955E+03  0.12699999809E+01 0. -1.
</event>
<event>
 5   0  0.4865501E-02  0.4990298E+03  0.7818609E-02  0.1014032E+00
        1   -1    0    0  501    0  0.00000000000E+00  0.00000000000E+00  0.22812142559E+03  0.22812142564E+03  0.50400001928E-02 0. -1.
       -1   -1    0    0    0  501  0.00000000000E+00  0.00000000000E+00 -0.27291465023E+03  0.27291465028E+03  0.50400001928E-02 0.  1.
    10030    2    1    2    0    0  0.00000000000E+00  0.00000000000E+00 -0.44793224648E+02  0.50103607592E+03  0.49902977506E+03 0.  0.
        2    1    3    3  502    0 -0.19833808469E+03  0.20934956691E+02  0.12814422231E+03  0.23705950723E+03  0.25500000920E-02 0. -1.
       -2    1    3    3    0  502  0.19833808469E+03 -0.20934956691E+02 -0.17293744696E+03  0.26397656869E+03  0.25500000920E-02 0.  1.
</event>
<event>
 5   0  0.4884478E-02  0.5017300E+03  0.7818609E-02  0.1013328E+00
        1   -1    0    0  501    0  0.00000000000E+00  0.00000000000E+00  0.52255893094E+02  0.52255893337E+02  0.50400001928E-02 0.  1.
       -1   -1    0    0    0  501  0.00000000000E+00  0.00000000000E+00 -0.12043282937E+04  0.12043282937E+04  0.50400001928E-02 0. -1.
    10030    2    1    2    0    0  0.00000000000E+00  0.00000000000E+00 -0.11520724006E+04  0.12565841870E+04  0.50173000996E+03 0.  0.
        3    1    3    3  502    0 -0.18644307639E+03  0.31414104297E+02 -0.16309409579E+03  0.24969493580E+03  0.10100000352E+00 0.  1.
       -3    1    3    3    0  502  0.18644307639E+03 -0.31414104297E+02 -0.98897830479E+03  0.10068892512E+04  0.10100000352E+00 0. -1.
</event>
<event>
 5   0  0.7881060E-02  0.4997195E+03  0.7818609E-02  0.1013852E+00
       -2   -1    0    0    0  501  0.00000000000E+00  0.00000000000E+00  0.67459037769E+02  0.67459037817E+02  0.25500000920E-02 0. -1.
        2   -1    0    0  501    0  0.00000000000E+00  0.00000000000E+00 -0.92544885783E+03  0.92544885783E+03  0.25500000920E-02 0.  1.
    10030    2    1    2    0    0  0.00000000000E+00  0.00000000000E+00 -0.85798982006E+03  0.99290789565E+03  0.49971947923E+03 0.  0.
        1    1    3    3  502    0 -0.24467125746E+03 -0.36324035307E+02 -0.49914311743E+03  0.55707029311E+03  0.50400001928E-02 0. -1.
       -1    1    3    3    0  502  0.24467125746E+03  0.36324035307E+02 -0.35884670263E+03  0.43583760254E+03  0.50400001928E-02 0.  1.
</event>
<event>
 5   0  0.4803890E-02  0.4914192E+03  0.7818609E-02  0.1016043E+00
        1   -1    0    0  501    0  0.00000000000E+00  0.00000000000E+00  0.18166727165E+04  0.18166727165E+04  0.50400001928E-02 0. -1.
       -1   -1    0    0    0  501  0.00000000000E+00  0.00000000000E+00 -0.33232844103E+02  0.33232844485E+02  0.50400001928E-02 0.  1.
    10030    2    1    2    0    0  0.00000000000E+00  0.00000000000E+00  0.17834398724E+04  0.18499055610E+04  0.49141917559E+03 0.  0.
        5    1    3    3  502    0  0.21684736155E+02 -0.15117679901E+03  0.16160784189E+04  0.16232856182E+04  0.46999998093E+01 0. -1.
       -5    1    3    3    0  502 -0.21684736155E+02  0.15117679901E+03  0.16736145351E+03  0.22661994277E+03  0.46999998093E+01 0.  1.
</event>
<event>
 5   0  0.7698747E-02  0.5022316E+03  0.7818609E-02  0.1013198E+00
       -2   -1    0    0    0  501  0.00000000000E+00  0.00000000000E+00  0.20966191501E+03  0.20966191502E+03  0.25500000920E-02 0. -1.
        2   -1    0    0  501    0  0.00000000000E+00  0.00000000000E+00 -0.30076582178E+03  0.30076582179E+03  0.25500000920E-02 0.  1.
    10030    2    1    2    0    0  0.00000000000E+00  0.00000000000E+00 -0.91103906774E+02  0.51042773681E+03  0.50223157276E+03 0.  0.
        2    1    3    3  502    0 -0.19163077132E+03 -0.88930064341E+02  0.92414042020E+02  0.23058895037E+03  0.25500000920E-02 0. -1.
       -2    1    3    3    0  502  0.19163077132E+03  0.88930064341E+02 -0.18351794879E+03  0.27983878644E+03  0.25500000920E-02 0.  1.
</event>
<event>
 5   0  0.4865501E-02  0.4717831E+03  0.7818609E-02  0.1021418E+00
       -1   -1    0    0    0  501  0.00000000000E+00  0.00000000000E+00  0.11895622460E+04  0.11895622460E+04  0.50400001928E-02 0.  1.
        1   -1    0    0  501    0  0.00000000000E+00  0.00000000000E+00 -0.46777570385E+02  0.46777570657E+02  0.50400001928E-02 0. -1.
    10030    2    1    2    0    0  0.00000000000E+00  0.00000000000E+00  0.11427846756E+04  0.12363398167E+04  0.47178313604E+03 0.  0.
        2    1    3    3  502    0  0.22910537902E+03  0.11459551621E+02  0.71550537498E+03  0.75137775961E+03  0.25500000920E-02 0.  1.
       -2    1    3    3    0  502 -0.22910537902E+03 -0.11459551621E+02  0.42727930064E+03  0.48496205705E+03  0.25500000920E-02 0. -1.
</event>
<event>
 5   0  0.8208720E-02  0.4977334E+03  0.7818609E-02  0.1014372E+00
       -2   -1    0    0    0  501  0.00000000000E+00  0.00000000000E+00  0.64659265697E+02  0.64659265747E+02  0.25500000920E-02 0.  1.
        2   -1    0    0  501    0  0.00000000000E+00  0.00000000000E+00 -0.95786163875E+03  0.95786163875E+03  0.25500000920E-02 0. -1.
    10030    2    1    2    0    0  0.00000000000E+00  0.00000000000E+00 -0.89320237305E+03  0.10225209045E+04  0.49773338336E+03 0.  0.
        3    1    3    3  502    0  0.39804596726E+02 -0.21270956969E+03 -0.69908507952E+03  0.73181263010E+03  0.10100000352E+00 0. -1.
       -3    1    3    3    0  502 -0.39804596726E+02  0.21270956969E+03 -0.19411729353E+03  0.29070827440E+03  0.10100000352E+00 0.  1.
</event>
<event>
 5   0  0.5038436E-02  0.5006184E+03  0.7818609E-02  0.1013618E+00
        1   -1    0    0  501    0  0.00000000000E+00  0.00000000000E+00  0.22097201685E+03  0.22097201691E+03  0.50400001928E-02 0.  1.
       -1   -1    0    0    0  501  0.00000000000E+00  0.00000000000E+00 -0.28354129759E+03  0.28354129763E+03  0.50400001928E-02 0. -1.
    10030    2    1    2    0    0  0.00000000000E+00  0.00000000000E+00 -0.62569280731E+02  0.50451331454E+03  0.50061838726E+03 0.  0.
        1    1    3    3  502    0  0.22425363313E+03 -0.71902683355E+02  0.54198677801E+02  0.24165509418E+03  0.50400001928E-02 0.  1.
       -1    1    3    3    0  502 -0.22425363313E+03  0.71902683355E+02 -0.11676795853E+03  0.26285822036E+03  0.50400001928E-02 0. -1.
</event>
<event>
 5   0  0.8208720E-02  0.4984753E+03  0.7818609E-02  0.1014178E+00
       -2   -1    0    0    0  501  0.00000000000E+00  0.00000000000E+00  0.20079596466E+03  0.20079596467E+03  0.25500000920E-02 0. -1.
        2   -1    0    0  501    0  0.00000000000E+00  0.00000000000E+00 -0.30936582091E+03  0.30936582092E+03  0.25500000920E-02 0.  1.
    10030    2    1    2    0    0  0.00000000000E+00  0.00000000000E+00 -0.10856985625E+03  0.51016178559E+03  0.49847530911E+03 0.  0.
        3    1    3    3  502    0  0.42808063778E+02  0.16683188659E+03  0.13008849484E+03  0.21584354380E+03  0.10100000352E+00 0. -1.
       -3    1    3    3    0  502 -0.42808063778E+02 -0.16683188659E+03 -0.23865835109E+03  0.29431824179E+03  0.10100000352E+00 0.  1.
</event>
<event>
 5   0  0.4884478E-02  0.5038742E+03  0.7818609E-02  0.1012773E+00
       -1   -1    0    0    0  501  0.00000000000E+00  0.00000000000E+00  0.79716535139E+02  0.79716535299E+02  0.50400001928E-02 0.  1.
        1   -1    0    0  501    0  0.00000000000E+00  0.00000000000E+00 -0.79622506907E+03  0.79622506908E+03  0.50400001928E-02 0. -1.
    10030    2    1    2    0    0  0.00000000000E+00  0.00000000000E+00 -0.71650853393E+03  0.87594160438E+03  0.50387420563E+03 0.  0.
        3    1    3    3  502    0 -0.23174714250E+03 -0.90679215872E+02 -0.28997123216E+03  0.38211619166E+03  0.10100000352E+00 0.  1.
       -3    1    3    3    0  502  0.23174714250E+03  0.90679215872E+02 -0.42653730176E+03  0.49382541272E+03  0.10100000352E+00 0. -1.
</event>
<event>
 5   0  0.4803890E-02  0.4996983E+03  0.7818609E-02  0.1013858E+00
        1   -1    0    0  501    0  0.00000000000E+00  0.00000000000E+00  0.28458368039E+03  0.28458368043E+03  0.50400001928E-02 0. -1.
       -1   -1    0    0    0  501  0.00000000000E+00  0.00000000000E+00 -0.21935411116E+03  0.21935411122E+03  0.50400001928E-02 0.  1.
    10030    2    1    2    0    0  0.00000000000E+00  0.00000000000E+00  0.65229569227E+02  0.50393779166E+03  0.49969831014E+03 0.  0.
        5    1    3    3  502    0  0.65322588437E+02 -0.18513842335E+03 -0.12316004876E+03  0.23180544422E+03  0.46999998093E+01 0.  1.
       -5    1    3    3    0  502 -0.65322588437E+02  0.18513842335E+03  0.18838961799E+03  0.27213234744E+03  0.46999998093E+01 0. -1.
</event>
<event>
 5   0  0.4884478E-02  0.5016251E+03  0.7818609E-02  0.1013356E+00
        1   -1    0    0  501    0  0.00000000000E+00  0.00000000000E+00  0.87378665585E+03  0.87378665587E+03  0.50400001928E-02 0.  1.
       -1   -1    0    0    0  501  0.00000000000E+00  0.00000000000E+00 -0.71993480813E+02  0.71993480990E+02  0.50400001928E-02 0. -1.
    10030    2    1    2    0    0  0.00000000000E+00  0.00000000000E+00  0.80179317504E+03  0.94578013686E+03  0.50162513068E+03 0.  0.
        3    1    3    3  502    0  0.18867941894E+02 -0.39210038247E+02 -0.64822346834E+02  0.78072870964E+02  0.10100000352E+00 0. -1.
       -3    1    3    3    0  502 -0.18867941894E+02  0.39210038247E+02  0.86661552187E+03  0.86770726589E+03  0.10100000352E+00 0.  1.
</event>
<event>
 5   0  0.7933103E-02  0.5048303E+03  0.7818609E-02  0.1012526E+00
       -2   -1    0    0    0  501  0.00000000000E+00  0.00000000000E+00  0.21368266739E+03  0.21368266740E+03  0.25500000920E-02 0. -1.
        2   -1    0    0  501    0  0.00000000000E+00  0.00000000000E+00 -0.29816832015E+03  0.29816832017E+03  0.25500000920E-02 0.  1.
    10030    2    1    2    0    0  0.00000000000E+00  0.00000000000E+00 -0.84485652768E+02  0.51185098757E+03  0.50483027638E+03 0.  0.
        5    1    3    3  502    0  0.18999365878E+02 -0.25162361186E+03 -0.38200649341E+02  0.25525829576E+03  0.46999998093E+01 0.  1.
       -5    1    3    3    0  502 -0.18999365878E+02  0.25162361186E+03 -0.46285003427E+02  0.25659269180E+03  0.46999998093E+01 0. -1.
</event>
<event>
 5   0  0.7881060E-02  0.4996792E+03  0.7818609E-02  0.1013863E+00
        2   -1    0    0  501    0  0.00000000000E+00  0.00000000000E+00  0.15248262329E+03  0.15248262331E+03  0.25500000920E-02 0. -1.
       -2   -1    0    0    0  501  0.00000000000E+00  0.00000000000E+00 -0.40935695334E+03  0.40935695335E+03  0.25500000920E-02 0.  1.
    10030    2    1    2    0    0  0.00000000000E+00  0.00000000000E+00 -0.25687433005E+03  0.56183957666E+03  0.49967918554E+03 0.  0.
        1    1    3    3  502    0  0.78811555067E+02  0.21627451246E+03 -0.23764822303E+03  0.33085133200E+03  0.50400001928E-02 0. -1.
       -1    1    3    3    0  502 -0.78811555067E+02 -0.21627451246E+03 -0.19226107024E+02  0.23098824466E+03  0.50400001928E-02 0.  1.
</event>
<event>
 5   0  0.7881060E-02  0.5064612E+03  0.7818609E-02  0.1012106E+00
        2   -1    0    0  501    0  0.00000000000E+00  0.00000000000E+00  0.14030873012E+04  0.14030873012E+04  0.25500000920E-02 0. -1.
       -2   -1    0    0    0  501  0.00000000000E+00  0.00000000000E+00 -0.45703308022E+02  0.45703308093E+02  0.25500000920E-02 0.  1.
    10030    2    1    2    0    0  0.00000000000E+00  0.00000000000E+00  0.13573839932E+04  0.14487906093E+04  0.50646117782E+03 0.  0.
        1    1    3    3  502    0 -0.11780959562E+03 -0.64680894038E+02  0.64738285041E+02  0.14917695683E+03  0.50400001928E-02 0.  1.
       -1    1    3    3    0  502  0.11780959562E+03  0.64680894038E+02  0.12926457081E+04  0.12996136524E+04  0.50400001928E-02 0. -1.
</event>
<event>
 5   0  0.4865501E-02  0.5318133E+03  0.7818609E-02  0.1005793E+00
        1   -1    0    0  501    0  0.00000000000E+00  0.00000000000E+00  0.29714907703E+03  0.29714907707E+03  0.50400001928E-02 0. -1.
       -1   -1    0    0    0  501  0.00000000000E+00  0.00000000000E+00 -0.23794911050E+03  0.23794911055E+03  0.50400001928E-02 0.  1.
    10030    2    1    2    0    0  0.00000000000E+00  0.00000000000E+00  0.59199966532E+02  0.53509818763E+03  0.53181334542E+03 0.  0.
        2    1    3    3  502    0  0.77361060920E+02 -0.85772534359E+02  0.27058864022E+03  0.29421059399E+03  0.25500000920E-02 0. -1.
       -2    1    3    3    0  502 -0.77361060920E+02  0.85772534359E+02 -0.21138867369E+03  0.24088759363E+03  0.25500000920E-02 0.  1.
</event>
<event>
 5   0  0.3210875E-02  0.5229017E+03  0.7818609E-02  0.1007968E+00
        4   -1    0    0  501    0  0.00000000000E+00  0.00000000000E+00  0.30211781233E+03  0.30212048164E+03  0.12699999809E+01 0. -1.
       -4   -1    0    0    0  501  0.00000000000E+00  0.00000000000E+00 -0.22625245303E+03  0.22625601739E+03  0.12699999809E+01 0.  1.
    10030    2    1    2    0    0  0.00000000000E+00  0.00000000000E+00  0.75865359300E+02  0.52837649903E+03  0.52290168482E+03 0.  0.
        2    1    3    3  502    0 -0.51383708865E+02  0.70252561689E+02  0.28705164009E+03  0.29995725036E+03  0.25500000920E-02 0. -1.
       -2    1    3    3    0  502  0.51383708865E+02 -0.70252561689E+02 -0.21118628079E+03  0.22841924867E+03  0.25500000920E-02 0.  1.
</event>
<event>
 5   0  0.7698747E-02  0.4989066E+03  0.7818609E-02  0.1014065E+00
       -2   -1    0    0    0  501  0.00000000000E+00  0.00000000000E+00  0.11134882904E+03  0.11134882907E+03  0.25500000920E-02 0.  1.
        2   -1    0    0  501    0  0.00000000000E+00  0.00000000000E+00 -0.55884683384E+03  0.55884683385E+03  0.25500000920E-02 0. -1.
    10030    2    1    2    0    0  0.00000000000E+00  0.00000000000E+00 -0.44749800480E+03  0.67019566292E+03  0.49890656670E+03 0.  0.
        2    1    3    3  502    0  0.11011267440E+03 -0.21039886844E+03 -0.32635731949E+03  0.40361068481E+03  0.25500000920E-02 0. -1.
       -2    1    3    3    0  502 -0.11011267440E+03  0.21039886844E+03 -0.12114068531E+03  0.26658497810E+03  0.25500000920E-02 0.  1.
</event>
<event>
 5   0  0.4803890E-02  0.5001370E+03  0.7818609E-02  0.1013743E+00
       -1   -1    0    0    0  501  0.00000000000E+00  0.00000000000E+00  0.42056968167E+02  0.42056968469E+02  0.50400001928E-02 0. -1.
        1   -1    0    0  501    0  0.00000000000E+00  0.00000000000E+00 -0.14868943169E+04  0.14868943169E+04  0.50400001928E-02 0.  1.
    10030    2    1    2    0    0  0.00000000000E+00  0.00000000000E+00 -0.14448373487E+04  0.15289512854E+04  0.50013704998E+03 0.  0.
        5    1    3    3  502    0  0.65145071469E+02  0.16914242563E+03 -0.12489010933E+04  0.12619940853E+04  0.46999998093E+01 0.  1.
       -5    1    3    3    0  502 -0.65145071469E+02 -0.16914242563E+03 -0.19593625544E+03  0.26695720008E+03  0.46999998093E+01 0. -1.
</event>
<event>
 5   0  0.5191358E-02  0.5011018E+03  0.7818609E-02  0.1013492E+00
        1   -1    0    0  501    0  0.00000000000E+00  0.00000000000E+00  0.59420253483E+03  0.59420253486E+03  0.50400001928E-02 0.  1.
       -1   -1    0    0    0  501  0.00000000000E+00  0.00000000000E+00 -0.10564707574E+03  0.10564707586E+03  0.50400001928E-02 0. -1.
    10030    2    1    2    0    0  0.00000000000E+00  0.00000000000E+00  0.48855545910E+03  0.69984961071E+03  0.50110182698E+03 0.  0.
        4    1    3    3  502    0 -0.14010094595E+03 -0.10573458936E+03  0.49398049654E+03  0.52423889812E+03  0.12699999809E+01 0.  1.
       -4    1    3    3    0  502  0.14010094595E+03  0.10573458936E+03 -0.54250374440E+01  0.17561071259E+03  0.12699999809E+01 0. -1.
</event>
<event>
 5   0  0.4884478E-02  0.5008520E+03  0.7818609E-02  0.1013557E+00
       -1   -1    0    0    0  501  0.00000000000E+00  0.00000000000E+00  0.50663002706E+02  0.50663002957E+02  0.50400001928E-02 0.  1.
        1   -1    0    0  501    0  0.00000000000E+00  0.00000000000E+00 -0.12378498831E+04  0.12378498831E+04  0.50400001928E-02 0. -1.
    10030    2    1    2    0    0  0.00000000000E+00  0.00000000000E+00 -0.11871868804E+04  0.12885128861E+04  0.50085204261E+03 0.  0.
        3    1    3    3  502    0  0.38078866329E+02 -0.12575688753E+03 -0.45141528438E+02  0.13893366264E+03  0.10100000352E+00 0.  1.
       -3    1    3    3    0  502 -0.38078866329E+02  0.12575688753E+03 -0.11420453520E+04  0.11495792234E+04  0.10100000352E+00 0. -1.
</event>
<event>
 5   0  0.4884478E-02  0.5039656E+03  0.7818609E-02  0.1012749E+00
        1   -1    0    0  501    0  0.00000000000E+00  0.00000000000E+00  0.14192441658E+03  0.14192441667E+03  0.50400001928E-02 0.  1.
       -1   -1    0    0    0  501  0.00000000000E+00  0.00000000000E+00 -0.44738840978E+03  0.44738840981E+03  0.50400001928E-02 0. -1.
    10030    2    1    2    0    0  0.00000000000E+00  0.00000000000E+00 -0.30546399320E+03  0.58931282648E+03  0.50396563010E+03 0.  0.
        3    1    3    3  502    0 -0.18202298754E+03 -0.28597153805E+02 -0.35372834839E+03  0.39884071991E+03  0.10100000352E+00 0. -1.
       -3    1    3    3    0  502  0.18202298754E+03  0.28597153805E+02  0.48264355194E+02  0.19047210658E+03  0.10100000352E+00 0.  1.
</event>
<event>
 5   0  0.7698747E-02  0.5009431E+03  0.7818609E-02  0.1013533E+00
       -2   -1    0    0    0  501  0.00000000000E+00  0.00000000000E+00  0.55764237916E+02  0.55764237975E+02  0.25500000920E-02 0.  1.
        2   -1    0    0  501    0  0.00000000000E+00  0.00000000000E+00 -0.11250220114E+04  0.11250220114E+04  0.25500000920E-02 0. -1.
    10030    2    1    2    0    0  0.00000000000E+00  0.00000000000E+00 -0.10692577735E+04  0.11807862494E+04  0.50094309115E+03 0.  0.
        2    1    3    3  502    0 -0.15195235115E+03  0.19553742812E+03 -0.44606890087E+03  0.51019787058E+03  0.25500000920E-02 0.  1.
       -2    1    3    3    0  502  0.15195235115E+03 -0.19553742812E+03 -0.62318887264E+03  0.67058837882E+03  0.25500000920E-02 0. -1.
</event>
<event>
 5   0  0.7698747E-02  0.4988576E+03  0.7818609E-02  0.1014078E+00
       -2   -1    0    0    0  501  0.00000000000E+00  0.00000000000E+00  0.89668757220E+02  0.89668757256E+02  0.25500000920E-02 0.  1.
        2   -1    0    0  501    0  0.00000000000E+00  0.00000000000E+00 -0.69382821805E+03  0.69382821805E+03  0.25500000920E-02 0. -1.
    10030    2    1    2    0    0  0.00000000000E+00  0.00000000000E+00 -0.60415946083E+03  0.78349697531E+03  0.49885755102E+03 0.  0.
        2    1    3    3  502    0 -0.17869374704E+03 -0.15308830783E+03 -0.17211718926E+03  0.29153355222E+03  0.25500000920E-02 0. -1.
       -2    1    3    3    0  502  0.17869374704E+03  0.15308830783E+03 -0.43204227157E+03  0.49196342309E+03  0.25500000920E-02 0.  1.
</event>
<event>
 5   0  0.5191358E-02  0.5019185E+03  0.7818609E-02  0.1013279E+00
        1   -1    0    0  501    0  0.00000000000E+00  0.00000000000E+00  0.56238722286E+03  0.56238722288E+03  0.50400001928E-02 0. -1.
       -1   -1    0    0    0  501  0.00000000000E+00  0.00000000000E+00 -0.11198787073E+03  0.11198787084E+03  0.50400001928E-02 0.  1.
    10030    2    1    2    0    0  0.00000000000E+00  0.00000000000E+00  0.45039935213E+03  0.67437509372E+03  0.50191850996E+03 0.  0.
        4    1    3    3  502    0  0.20550085533E+03 -0.71534005337E+02  0.57216906088E+02  0.22499578375E+03  0.12699999809E+01 0.  1.
       -4    1    3    3    0  502 -0.20550085533E+03  0.71534005337E+02  0.39318244604E+03  0.44937930998E+03  0.12699999809E+01 0. -1.
</event>
<event>
 5   0  0.5038436E-02  0.5139467E+03  0.7818609E-02  0.1010201E+00
       -1   -1    0    0    0  501  0.00000000000E+00  0.00000000000E+00  0.28666882129E+03  0.28666882134E+03  0.50400001928E-02 0.  1.
        1   -1    0    0  501    0  0.00000000000E+00  0.00000000000E+00 -0.23035397011E+03  0.23035397016E+03  0.50400001928E-02 0. -1.
    10030    2    1    2    0    0  0.00000000000E+00  0.00000000000E+00  0.56314851185E+02  0.51702279150E+03  0.51394669419E+03 0.  0.
        1    1    3    3  502    0  0.64049817828E+02  0.21219469236E+03 -0.10264516321E+03  0.24426419341E+03  0.50400001928E-02 0. -1.
       -1    1    3    3    0  502 -0.64049817828E+02 -0.21219469236E+03  0.15896001440E+03  0.27275859809E+03  0.50400001928E-02 0.  1.
</event>
<event>
 5   0  0.3210875E-02  0.4984373E+03  0.7818609E-02  0.1014188E+00
       -3   -1    0    0    0  501  0.00000000000E+00  0.00000000000E+00  0.19570000607E+04  0.19570000633E+04  0.10100000352E+00 0. -1.
        3   -1    0    0  501    0  0.00000000000E+00  0.00000000000E+00 -0.31737240517E+02  0.31737401226E+02  0.10100000352E+00 0.  1.
    10030    2    1    2    0    0  0.00000000000E+00  0.00000000000E+00  0.19252628202E+04  0.19887374646E+04  0.49843733413E+03 0.  0.
        5    1    3    3  502    0  0.96480795539E+02 -0.22644756851E+03  0.80805985430E+03  0.84473064542E+03  0.46999998093E+01 0. -1.
       -5    1    3    3    0  502 -0.96480795539E+02  0.22644756851E+03  0.11172029659E+04  0.11440068191E+04  0.46999998093E+01 0.  1.
</event>
<event>
 5   0  0.5191358E-02  0.4972917E+03  0.7818609E-02  0.1014488E+00
       -1   -1    0    0    0  501  0.00000000000E+00  0.00000000000E+00  0.25023875849E+03  0.25023875854E+03  0.50400001928E-02 0. -1.
        1   -1    0    0  501    0  0.00000000000E+00  0.00000000000E+00 -0.24706303669E+03  0.24706303674E+03  0.50400001928E-02 0.  1.
    10030    2    1    2    0    0  0.00000000000E+00  0.00000000000E+00  0.31757218070E+01  0.49730179528E+03  0.49729165525E+03 0.  0.
        4    1    3    3  502    0  0.17671129676E+03  0.52213996081E+02 -0.16535850019E+03  0.24758479411E+03  0.12699999809E+01 0.  1.
       -4    1    3    3    0  502 -0.17671129676E+03 -0.52213996081E+02  0.16853422200E+03  0.24971700117E+03  0.12699999809E+01 0. -1.
</event>
<event>
 5   0  0.3210875E-02  0.5067023E+03  0.7818609E-02  0.1012044E+00
        3   -1    0    0  501    0  0.00000000000E+00  0.00000000000E+00  0.78313029095E+03  0.78313029746E+03  0.10100000352E+00 0.  1.
       -3   -1    0    0    0  501  0.00000000000E+00  0.00000000000E+00 -0.81961803404E+02  0.81961865634E+02  0.10100000352E+00 0. -1.
    10030    2    1    2    0    0  0.00000000000E+00  0.00000000000E+00  0.70116848755E+03  0.86509216310E+03  0.50670228214E+03 0.  0.
        1    1    3    3  502    0 -0.16482277092E+03 -0.69676088569E+02  0.65678386849E+03  0.68072487325E+03  0.50400001928E-02 0.  1.
       -1    1    3    3    0  502  0.16482277092E+03  0.69676088569E+02  0.44384619063E+02  0.18436728985E+03  0.50400001928E-02 0. -1.
</event>
<event>
 5   0  0.3210875E-02  0.5008471E+03  0.7818609E-02  0.1013558E+00
       -3   -1    0    0    0  501  0.00000000000E+00  0.00000000000E+00  0.37793634251E+03  0.37793635600E+03  0.10100000352E+00 0. -1.
        3   -1    0    0  501    0  0.00000000000E+00  0.00000000000E+00 -0.16593254617E+03  0.16593257691E+03  0.10100000352E+00 0.  1.
    10030    2    1    2    0    0  0.00000000000E+00  0.00000000000E+00  0.21200379634E+03  0.54386893291E+03  0.50084708897E+03 0.  0.
        2    1    3    3  502    0  0.77185166579E+02  0.18189128169E+03 -0.61064030924E+02  0.20681103494E+03  0.25500000920E-02 0.  1.
       -2    1    3    3    0  502 -0.77185166579E+02 -0.18189128169E+03  0.27306782726E+03  0.33705789797E+03  0.25500000920E-02 0. -1.
</event>
<event>
 5   0  0.4803890E-02  0.5002365E+03  0.7818609E-02  0.1013717E+00
       -1   -1    0    0    0  501  0.00000000000E+00  0.00000000000E+00  0.21011553157E+03  0.21011553163E+03  0.50400001928E-02 0. -1.
        1   -1    0    0  501    0  0.00000000000E+00  0.00000000000E+00 -0.29773681694E+03  0.29773681698E+03  0.50400001928E-02 0.  1.
    10030    2    1    2    0    0  0.00000000000E+00  0.00000000000E+00 -0.87621285370E+02  0.50785234861E+03  0.50023646242E+03 0.  0.
        5    1    3    3  502    0  0.25595052362E+02  0.24143048055E+03 -0.10466703414E+03  0.26442590962E+03  0.46999998093E+01 0.  1.
       -5    1    3    3    0  502 -0.25595052362E+02 -0.24143048055E+03  0.17045748769E+02  0.24342643898E+03  0.46999998093E+01 0. -1.
</event>
<event>
 5   0  0.7776070E-02  0.4850409E+03  0.7818609E-02  0.1017759E+00
       -2   -1    0    0    0  501  0.00000000000E+00  0.00000000000E+00  0.29691705522E+03  0.29691705523E+03  0.25500000920E-02 0.  1.
        2   -1    0    0  501    0  0.00000000000E+00  0.00000000000E+00 -0.19808956570E+03  0.19808956571E+03  0.25500000920E-02 0. -1.
    10030    2    1    2    0    0  0.00000000000E+00  0.00000000000E+00  0.98827489524E+02  0.49500662095E+03  0.48504090765E+03 0.  0.
        4    1    3    3  502    0  0.12229470451E+03 -0.91142843541E+02 -0.14301142533E+03  0.20908585164E+03  0.12699999809E+01 0. -1.
       -4    1    3    3    0  502 -0.12229470451E+03  0.91142843541E+02  0.24183891486E+03  0.28592076930E+03  0.12699999809E+01 0.  1.
</event>
<event>
 5   0  0.8208720E-02  0.4977083E+03  0.7818609E-02  0.1014379E+00
       -2   -1    0    0    0  501  0.00000000000E+00  0.00000000000E+00  0.18653030211E+03  0.18653030213E+03  0.25500000920E-02 0.  1.
        2   -1    0    0  501    0  0.00000000000E+00  0.00000000000E+00 -0.33200179965E+03  0.33200179966E+03  0.25500000920E-02 0. -1.
    10030    2    1    2    0    0  0.00000000000E+00  0.00000000000E+00 -0.14547149754E+03  0.51853210179E+03  0.49770833225E+03 0.  0.
        3    1    3    3  502    0 -0.20389289148E+03  0.10707412459E+03 -0.17097410430E+03  0.28682631312E+03  0.10100000352E+00 0.  1.
       -3    1    3    3    0  502  0.20389289148E+03 -0.10707412459E+03  0.25502606764E+02  0.23170578868E+03  0.10100000352E+00 0. -1.
</event>
<event>
 5   0  0.7881060E-02  0.4961580E+03  0.7818609E-02  0.1014787E+00
        2   -1    0    0  501    0  0.00000000000E+00  0.00000000000E+00  0.40693898587E+03  0.40693898587E+03  0.25500000920E-02 0.  1.
       -2   -1    0    0    0  501  0.00000000000E+00  0.00000000000E+00 -0.15123444973E+03  0.15123444975E+03  0.25500000920E-02 0. -1.
    10030    2    1    2    0    0  0.00000000000E+00  0.00000000000E+00  0.25570453614E+03  0.55817343563E+03  0.49615801358E+03 0.  0.
        1    1    3    3  502    0 -0.50546579977E+02  0.91573046878E+02  0.38091933369E+03  0.39501913684E+03  0.50400001928E-02 0.  1.
       -1    1    3    3    0  502  0.50546579977E+02 -0.91573046878E+02 -0.12521479755E+03  0.16315429879E+03  0.50400001928E-02 0. -1.
</event>
<event>
 5   0  0.3210875E-02  0.4966238E+03  0.7818609E-02  0.1014664E+00
       -3   -1    0    0    0  501  0.00000000000E+00  0.00000000000E+00  0.19039108540E+03  0.19039111219E+03  0.10100000352E+00 0. -1.
        3   -1    0    0  501    0  0.00000000000E+00  0.00000000000E+00 -0.32385333503E+03  0.32385335078E+03  0.10100000352E+00 0.  1.
    10030    2    1    2    0    0  0.00000000000E+00  0.00000000000E+00 -0.13346224963E+03  0.51424446297E+03  0.49662379687E+03 0.  0.
        1    1    3    3  502    0 -0.43760991912E+02  0.11336458052E+03 -0.29096055703E+03  0.31531666353E+03  0.50400001928E-02 0.  1.
       -1    1    3    3    0  502  0.43760991912E+02 -0.11336458052E+03  0.15749830740E+03  0.19892779944E+03  0.50400001928E-02 0. -1.
</event>
<event>
 5   0  0.8208720E-02  0.4993729E+03  0.7818609E-02  0.1013943E+00
       -2   -1    0    0    0  501  0.00000000000E+00  0.00000000000E+00  0.49399965299E+03  0.49399965299E+03  0.25500000920E-02 0. -1.
        2   -1    0    0  501    0  0.00000000000E+00  0.00000000000E+00 -0.12620116033E+03  0.12620116036E+03  0.25500000920E-02 0.  1.
    10030    2    1    2    0    0  0.00000000000E+00  0.00000000000E+00  0.36779849265E+03  0.62020081335E+03  0.49937292446E+03 0.  0.
        3    1    3    3  502    0  0.49286795140E+02 -0.19460454611E+03  0.36829235108E+03  0.41945128872E+03  0.10100000352E+00 0. -1.
       -3    1    3    3    0  502 -0.49286795140E+02  0.19460454611E+03 -0.49385843231E+00  0.20074952463E+03  0.10100000352E+00 0.  1.
</event>
<event>
 5   0  0.7933103E-02  0.5005663E+03  0.7818609E-02  0.1013631E+00
       -2   -1    0    0    0  501  0.00000000000E+00  0.00000000000E+00  0.83421290682E+02  0.83421290721E+02  0.25500000920E-02 0.  1.
        2   -1    0    0  501    0  0.00000000000E+00  0.00000000000E+00 -0.75090727090E+03  0.75090727091E+03  0.25500000920E-02 0. -1.
    10030    2    1    2    0    0  0.00000000000E+00  0.00000000000E+00 -0.66748598022E+03  0.83432856163E+03  0.50056629427E+03 0.  0.
        5    1    3    3  502    0  0.22553015479E+02  0.93780533228E+02 -0.71860482404E+03  0.72506441787E+03  0.46999998093E+01 0. -1.
       -5    1    3    3    0  502 -0.22553015479E+02 -0.93780533228E+02  0.51118843823E+02  0.10926414376E+03  0.46999998093E+01 0.  1.
</event>
<event>
 5   0  0.3210875E-02  0.4944361E+03  0.7818609E-02  0.1015241E+00
        4   -1    0    0  501    0  0.00000000000E+00  0.00000000000E+00  0.90859780384E+03  0.90859869142E+03  0.12699999809E+01 0. -1.
       -4   -1    0    0    0  501  0.00000000000E+00  0.00000000000E+00 -0.67258008213E+02  0.67269997538E+02  0.12699999809E+01 0.  1.
    10030    2    1    2    0    0  0.00000000000E+00  0.00000000000E+00  0.84133979563E+03  0.97586868895E+03  0.49443608927E+03 0.  0.
        2    1    3    3  502    0 -0.90539731037E+02  0.16987556955E+03  0.72682645022E+03  0.75188552371E+03  0.25500000920E-02 0. -1.
       -2    1    3    3    0  502  0.90539731037E+02 -0.16987556955E+03  0.11451334541E+03  0.22398316524E+03  0.25500000920E-02 0.  1.
</event>
<event>
 5   0  0.5038436E-02  0.4978508E+03  0.7818609E-02  0.1014341E+00
       -1   -1    0    0    0  501  0.00000000000E+00  0.00000000000E+00  0.60778869619E+03  0.60778869621E+03  0.50400001928E-02 0. -1.
        1   -1    0    0  501    0  0.00000000000E+00  0.00000000000E+00 -0.10194965881E+03  0.10194965894E+03  0.50400001928E-02 0.  1.
    10030    2    1    2    0    0  0.00000000000E+00  0.00000000000E+00  0.50583903737E+03  0.70973835514E+03  0.49785078189E+03 0.  0.
        1    1    3    3  502    0  0.14242239419E+01  0.18401557670E+03  0.49189477305E+03  0.52518970731E+03  0.50400001928E-02 0. -1.
       -1    1    3    3    0  502 -0.14242239419E+01 -0.18401557670E+03  0.13944264323E+02  0.18454864783E+03  0.50400001928E-02 0.  1.
</event>
<event>
 5   0  0.7776070E-02  0.4849867E+03  0.7818609E-02  0.1017774E+00
       -2   -1    0    0    0  501  0.00000000000E+00  0.00000000000E+00  0.76185993133E+02  0.76185993175E+02  0.25500000920E-02 0. -1.
        2   -1    0    0  501    0  0.00000000000E+00  0.00000000000E+00 -0.77183522768E+03  0.77183522769E+03  0.25500000920E-02 0.  1.
    10030    2    1    2    0    0  0.00000000000E+00  0.00000000000E+00 -0.69564923455E+03  0.84802122086E+03  0.48498673539E+03 0.  0.
        4    1    3    3  502    0  0.12701405808E+03  0.10441989494E+03 -0.36184341559E+02  0.16836568797E+03  0.12699999809E+01 0. -1.
       -4    1    3    3    0  502 -0.12701405808E+03 -0.10441989494E+03 -0.65946489299E+03  0.67965553290E+03  0.12699999809E+01 0.  1.
</event>
<event>
 5   0  0.4884478E-02  0.5012115E+03  0.7818609E-02  0.1013463E+00
       -1   -1    0    0    0  501  0.00000000000E+00  0.00000000000E+00  0.20084585908E+03  0.20084585914E+03  0.50400001928E-02 0. -1.
        1   -1    0    0  501    0  0.00000000000E+00  0.00000000000E+00 -0.31269378854E+03  0.31269378858E+03  0.50400001928E-02 0.  1.
    10030    2    1    2    0    0  0.00000000000E+00  0.00000000000E+00 -0.11184792946E+03  0.51353964773E+03  0.50121154263E+03 0.  0.
        3    1    3    3  502    0  0.10896268267E+03 -0.15206993195E+03 -0.22677406547E+03  0.29398064118E+03  0.10100000352E+00 0.  1.
       -3    1    3    3    0  502 -0.10896268267E+03  0.15206993195E+03  0.11492613601E+03  0.21955900655E+03  0.10100000352E+00 0. -1.
</event>
<event>
 5   0  0.3210875E-02  0.4997660E+03  0.7818609E-02  0.1013840E+00
        3   -1    0    0  501    0  0.00000000000E+00  0.00000000000E+00  0.41652591174E+03  0.41652592399E+03  0.10100000352E+00 0.  1.
       -3   -1    0    0    0  501  0.00000000000E+00  0.00000000000E+00 -0.14991026981E+03  0.14991030383E+03  0.10100000352E+00 0. -1.
    10030    2    1    2    0    0  0.00000000000E+00  0.00000000000E+00  0.26661564193E+03  0.56643622782E+03  0.49976604493E+03 0.  0.
        5    1    3    3  502    0  0.14104511562E+03 -0.80052609717E+02  0.34870591388E+03  0.38460375627E+03  0.46999998093E+01 0.  1.
       -5    1    3    3    0  502 -0.14104511562E+03  0.80052609717E+02 -0.82090271949E+02  0.18183247155E+03  0.46999998093E+01 0. -1.
</event>
<event>
 5   0  0.4865501E-02  0.5586398E+03  0.7818609E-02  0.9995137E-01
        1   -1    0    0  501    0  0.00000000000E+00  0.00000000000E+00  0.61245199007E+03  0.61245199009E+03  0.50400001928E-02 0.  1.
       -1   -1    0    0    0  501  0.00000000000E+00  0.00000000000E+00 -0.12738893026E+03  0.12738893036E+03  0.50400001928E-02 0. -1.
    10030    2    1    2    0    0  0.00000000000E+00  0.00000000000E+00  0.48506305982E+03  0.73984092045E+03  0.55863979054E+03 0.  0.
        2    1    3    3  502    0  0.54418845402E+02 -0.62758310747E+02 -0.11065253197E+03  0.13836184134E+03  0.25500000920E-02 0. -1.
       -2    1    3    3    0  502 -0.54418845402E+02  0.62758310747E+02  0.59571559178E+03  0.60147907911E+03  0.25500000920E-02 0.  1.
</event>
<event>
 5   0  0.5191358E-02  0.4996135E+03  0.7818609E-02  0.1013880E+00
       -1   -1    0    0    0  501  0.00000000000E+00  0.00000000000E+00  0.11838014794E+03  0.11838014805E+03  0.50400001928E-02 0. -1.
        1   -1    0    0  501    0  0.00000000000E+00  0.00000000000E+00 -0.52714433041E+03  0.52714433043E+03  0.50400001928E-02 0.  1.
    10030    2    1    2    0    0  0.00000000000E+00  0.00000000000E+00 -0.40876418246E+03  0.64552447848E+03  0.49961354611E+03 0.  0.
        4    1    3    3  502    0 -0.16915915562E+03  0.18334338895E+03 -0.18742755326E+03  0.31202615086E+03  0.12699999809E+01 0.  1.
       -4    1    3    3    0  502  0.16915915562E+03 -0.18334338895E+03 -0.22133662920E+03  0.33349832762E+03  0.12699999809E+01 0. -1.
</event>
<event>
 5   0  0.7776070E-02  0.4959796E+03  0.7818609E-02  0.1014834E+00
        2   -1    0    0  501    0  0.00000000000E+00  0.00000000000E+00  0.56042591738E+03  0.56042591739E+03  0.25500000920E-02 0.  1.
       -2   -1    0    0    0  501  0.00000000000E+00  0.00000000000E+00 -0.10973605411E+03  0.10973605414E+03  0.25500000920E-02 0. -1.
    10030    2    1    2    0    0  0.00000000000E+00  0.00000000000E+00  0.45068986327E+03  0.67016197153E+03  0.49597955121E+03 0.  0.
        4    1    3    3  502    0 -0.17512005572E+02 -0.12040602124E+03  0.51731750890E+03  0.53143513075E+03  0.12699999809E+01 0.  1.
       -4    1    3    3    0  502  0.17512005572E+02  0.12040602124E+03 -0.66627645622E+02  0.13872684077E+03  0.12699999809E+01 0. -1.
</event>
<event>
 5   0  0.4803890E-02  0.5021161E+03  0.7818609E-02  0.1013228E+00
        1   -1    0    0  501    0  0.00000000000E+00  0.00000000000E+00  0.15299987080E+04  0.15299987080E+04  0.50400001928E-02 0.  1.
       -1   -1    0    0    0  501  0.00000000000E+00  0.00000000000E+00 -0.41196202552E+02  0.41196202861E+02  0.50400001928E-02 0. -1.
    10030    2    1    2    0    0  0.00000000000E+00  0.00000000000E+00  0.14888025055E+04  0.15711949109E+04  0.50211606997E+03 0.  0.
        5    1    3    3  502    0 -0.63971598821E+01  0.18379977914E+03  0.12789705838E+04  0.12921343300E+04  0.46999998093E+01 0.  1.
       -5    1    3    3    0  502  0.63971598821E+01 -0.18379977914E+03  0.20983192163E+03  0.27906058088E+03  0.46999998093E+01 0. -1.
</event>
<event>
 5   0  0.3210875E-02  0.4991212E+03  0.7818609E-02  0.1014009E+00
       -3   -1    0    0    0  501  0.00000000000E+00  0.00000000000E+00  0.51459075081E+03  0.51459076072E+03  0.10100000352E+00 0.  1.
        3   -1    0    0  501    0  0.00000000000E+00  0.00000000000E+00 -0.12102913792E+03  0.12102918007E+03  0.10100000352E+00 0. -1.
    10030    2    1    2    0    0  0.00000000000E+00  0.00000000000E+00  0.39356161289E+03  0.63561994079E+03  0.49912119369E+03 0.  0.
        5    1    3    3  502    0 -0.11151912940E+03  0.16027101412E+03  0.39462164283E+03  0.44030857950E+03  0.46999998093E+01 0.  1.
       -5    1    3    3    0  502  0.11151912940E+03 -0.16027101412E+03 -0.10600299452E+01  0.19531136129E+03  0.46999998093E+01 0. -1.
</event>
<event>
 5   0  0.4884478E-02  0.5007712E+03  0.7818609E-02  0.1013578E+00
        1   -1    0    0  501    0  0.00000000000E+00  0.00000000000E+00  0.10087179614E+03  0.10087179626E+03  0.50400001928E-02 0.  1.
       -1   -1    0    0    0  501  0.00000000000E+00  0.00000000000E+00 -0.62151121733E+03  0.62151121735E+03  0.50400001928E-02 0. -1.
    10030    2    1    2    0    0  0.00000000000E+00  0.00000000000E+00 -0.52063942120E+03  0.72238301362E+03  0.50077121669E+03 0.  0.
        3    1    3    3  502    0  0.13895959754E+03 -0.16008544308E+03 -0.45253971390E+03  0.49972924839E+03  0.10100000352E+00 0. -1.
       -3    1    3    3    0  502 -0.13895959754E+03  0.16008544308E+03 -0.68099707291E+02  0.22265376523E+03  0.10100000352E+00 0.  1.
</event>
<event>
 5   0  0.4803890E-02  0.4924564E+03  0.7818609E-02  0.1015767E+00
       -1   -1    0    0    0  501  0.00000000000E+00  0.00000000000E+00  0.15491223470E+03  0.15491223478E+03  0.50400001928E-02 0.  1.
        1   -1    0    0  501    0  0.00000000000E+00  0.00000000000E+00 -0.39137210083E+03  0.39137210087E+03  0.50400001928E-02 0. -1.
    10030    2    1    2    0    0  0.00000000000E+00  0.00000000000E+00 -0.23645986614E+03  0.54628433564E+03  0.49245640119E+03 0.  0.
        5    1    3    3  502    0 -0.15806212823E+03 -0.18243639425E+03 -0.17188593155E+03  0.29636723468E+03  0.46999998093E+01 0. -1.
       -5    1    3    3    0  502  0.15806212823E+03  0.18243639425E+03 -0.64573934585E+02  0.24991710096E+03  0.46999998093E+01 0.  1.
</event>
<event>
 5   0  0.7933103E-02  0.5015080E+03  0.7818609E-02  0.1013386E+00
       -2   -1    0    0    0  501  0.00000000000E+00  0.00000000000E+00  0.49618859228E+02  0.49618859294E+02  0.25500000920E-02 0.  1.
        2   -1    0    0  501    0  0.00000000000E+00  0.00000000000E+00 -0.12672110013E+04  0.12672110013E+04  0.25500000920E-02 0. -1.
    10030    2    1    2    0    0  0.00000000000E+00  0.00000000000E+00 -0.12175921421E+04  0.13168298606E+04  0.50150798331E+03 0.  0.
        5    1    3    3  502    0  0.40146251225E+02 -0.18923244452E+03 -0.10275571169E+04  0.10456176921E+04  0.46999998093E+01 0. -1.
       -5    1    3    3    0  502 -0.40146251225E+02  0.18923244452E+03 -0.19003502515E+03  0.27121216848E+03  0.46999998093E+01 0.  1.
</event>
<event>
 5   0  0.7881060E-02  0.4946392E+03  0.7818609E-02  0.1015188E+00
       -2   -1    0    0    0  501  0.00000000000E+00  0.00000000000E+00  0.45413140231E+02  0.45413140303E+02  0.25500000920E-02 0.  1.
        2   -1    0    0  501    0  0.00000000000E+00  0.00000000000E+00 -0.13469007009E+04  0.13469007009E+04  0.25500000920E-02 0. -1.
    10030    2    1    2    0    0  0.00000000000E+00  0.00000000000E+00 -0.13014875607E+04  0.13923138412E+04  0.49463922392E+03 0.  0.
        1    1    3    3  502    0  0.72241538998E+02  0.23527299089E+03 -0.58209652129E+03  0.63198780077E+03  0.50400001928E-02 0. -1.
       -1    1    3    3    0  502 -0.72241538998E+02 -0.23527299089E+03 -0.71939103939E+03  0.76032604045E+03  0.50400001928E-02 0.  1.
</event>
<event>
 5   0  0.3210875E-02  0.4840741E+03  0.7818609E-02  0.1018021E+00
        4   -1    0    0  501    0  0.00000000000E+00  0.00000000000E+00  0.70226951700E+03  0.70227066535E+03  0.12699999809E+01 0.  1.
       -4   -1    0    0    0  501  0.00000000000E+00  0.00000000000E+00 -0.83411973445E+02  0.83421641161E+02  0.12699999809E+01 0. -1.
    10030    2    1    2    0    0  0.00000000000E+00  0.00000000000E+00  0.61885754355E+03  0.78569230651E+03  0.48407410723E+03 0.  0.
        5    1    3    3  502    0 -0.14060447956E+03  0.19674196108E+03  0.29465725676E+03  0.38121123788E+03  0.46999998093E+01 0.  1.
       -5    1    3    3    0  502  0.14060447956E+03 -0.19674196108E+03  0.32420028679E+03  0.40448106863E+03  0.46999998093E+01 0. -1.
</event>
<event>
 5   0  0.3210875E-02  0.5077988E+03  0.7818609E-02  0.1011763E+00
        4   -1    0    0  501    0  0.00000000000E+00  0.00000000000E+00  0.57681479907E+03  0.57681619717E+03  0.12699999809E+01 0.  1.
       -4   -1    0    0    0  501  0.00000000000E+00  0.00000000000E+00 -0.11175498543E+03  0.11176220143E+03  0.12699999809E+01 0. -1.
    10030    2    1    2    0    0  0.00000000000E+00  0.00000000000E+00  0.46505981364E+03  0.68857839860E+03  0.50779876010E+03 0.  0.
        2    1    3    3  502    0  0.30342745247E+02  0.10988921509E+03 -0.75103024377E+02  0.13651661459E+03  0.25500000920E-02 0. -1.
       -2    1    3    3    0  502 -0.30342745247E+02 -0.10988921509E+03  0.54016283802E+03  0.55206178401E+03  0.25500000920E-02 0.  1.
</event>
<event>
 5   0  0.7881060E-02  0.5018215E+03  0.7818609E-02  0.1013305E+00
       -2   -1    0    0    0  501  0.00000000000E+00  0.00000000000E+00  0.92607608021E+03  0.92607608021E+03  0.25500000920E-02 0. -1.
        2   -1    0    0  501    0  0.00000000000E+00  0.00000000000E+00 -0.67981685703E+02  0.67981685751E+02  0.25500000920E-02 0.  1.
    10030    2    1    2    0    0  0.00000000000E+00  0.00000000000E+00  0.85809439451E+03  0.99405776596E+03  0.50182153420E+03 0.  0.
        1    1    3    3  502    0 -0.21790530971E+03 -0.12192118996E+03  0.47792013278E+03  0.53921716767E+03  0.50400001928E-02 0. -1.
       -1    1    3    3    0  502  0.21790530971E+03  0.12192118996E+03  0.38017426172E+03  0.45484059830E+03  0.50400001928E-02 0.  1.
</event>
<event>
 5   0  0.3210875E-02  0.5001515E+03  0.7818609E-02  0.1013739E+00
        3   -1    0    0  501    0  0.00000000000E+00  0.00000000000E+00  0.12215177642E+04  0.12215177684E+04  0.10100000352E+00 0. -1.
       -3   -1    0    0    0  501  0.00000000000E+00  0.00000000000E+00 -0.51196806937E+02  0.51196906562E+02  0.10100000352E+00 0.  1.
    10030    2    1    2    0    0  0.00000000000E+00  0.00000000000E+00  0.11703209573E+04  0.12727146750E+04  0.50015147786E+03 0.  0.
        2    1    3    3  502    0  0.11823458295E+02  0.72701315163E+02  0.11932891231E+04  0.11955602063E+04  0.25500000920E-02 0. -1.
       -2    1    3    3    0  502 -0.11823458295E+02 -0.72701315163E+02 -0.22968165844E+02  0.77154468706E+02  0.25500000920E-02 0.  1.
</event>
<event>
 5   0  0.7881060E-02  0.4985833E+03  0.7818609E-02  0.1014149E+00
       -2   -1    0    0    0  501  0.00000000000E+00  0.00000000000E+00  0.75847684536E+02  0.75847684579E+02  0.25500000920E-02 0.  1.
        2   -1    0    0  501    0  0.00000000000E+00  0.00000000000E+00 -0.81935707507E+03  0.81935707507E+03  0.25500000920E-02 0. -1.
    10030    2    1    2    0    0  0.00000000000E+00  0.00000000000E+00 -0.74350939053E+03  0.89520475965E+03  0.49858334097E+03 0.  0.
        1    1    3    3  502    0  0.86735312932E+02  0.90529305755E+02 -0.75863223589E+03  0.76892225814E+03  0.50400001928E-02 0. -1.
       -1    1    3    3    0  502 -0.86735312932E+02 -0.90529305755E+02  0.15122845358E+02  0.12628250151E+03  0.50400001928E-02 0.  1.
</event>
<event>
 5   0  0.8208720E-02  0.4981037E+03  0.7818609E-02  0.1014275E+00
       -2   -1    0    0    0  501  0.00000000000E+00  0.00000000000E+00  0.18268626204E+03  0.18268626206E+03  0.25500000920E-02 0.  1.
        2   -1    0    0  501    0  0.00000000000E+00  0.00000000000E+00 -0.33952646480E+03  0.33952646481E+03  0.25500000920E-02 0. -1.
    10030    2    1    2    0    0  0.00000000000E+00  0.00000000000E+00 -0.15684020275E+03  0.52221272687E+03  0.49810368690E+03 0.  0.
        3    1    3    3  502    0  0.66437767880E+02 -0.33820592236E+02  0.17071375356E+03  0.18628205849E+03  0.10100000352E+00 0.  1.
       -3    1    3    3    0  502 -0.66437767880E+02  0.33820592236E+02 -0.32755395631E+03  0.33593066838E+03  0.10100000352E+00 0. -1.
</event>
<event>
 5   0  0.5191358E-02  0.5012155E+03  0.7818609E-02  0.1013462E+00
       -1   -1    0    0    0  501  0.00000000000E+00  0.00000000000E+00  0.14355957987E+03  0.14355957996E+03  0.50400001928E-02 0. -1.
        1   -1    0    0  501    0  0.00000000000E+00  0.00000000000E+00 -0.43747860370E+03  0.43747860373E+03  0.50400001928E-02 0.  1.
    10030    2    1    2    0    0  0.00000000000E+00  0.00000000000E+00 -0.29391902383E+03  0.58103818369E+03  0.50121550089E+03 0.  0.
        4    1    3    3  502    0 -0.11471350030E+03 -0.18502848240E+03 -0.29085659121E+03  0.36330964204E+03  0.12699999809E+01 0.  1.
       -4    1    3    3    0  502  0.11471350030E+03  0.18502848240E+03 -0.30624326188E+01  0.21772854164E+03  0.12699999809E+01 0. -1.
</event>
<event>
 5   0  0.5191358E-02  0.4988886E+03  0.7818609E-02  0.1014069E+00
       -1   -1    0    0    0  501  0.00000000000E+00  0.00000000000E+00  0.41739282434E+03  0.41739282437E+03  0.50400001928E-02 0. -1.
        1   -1    0    0  501    0  0.00000000000E+00  0.00000000000E+00 -0.14907407740E+03  0.14907407748E+03  0.50400001928E-02 0.  1.
    10030    2    1    2    0    0  0.00000000000E+00  0.00000000000E+00  0.26831874694E+03  0.56646690185E+03  0.49888856565E+03 0.  0.
        4    1    3    3  502    0 -0.81240510032E+01 -0.22691346483E+03  0.16898319498E+02  0.22769033099E+03  0.12699999809E+01 0.  1.
       -4    1    3    3    0  502  0.81240510032E+01  0.22691346483E+03  0.25142042744E+03  0.33877657086E+03  0.12699999809E+01 0. -1.
</event>
<event>
 5   0  0.5038436E-02  0.4949026E+03  0.7818609E-02  0.1015118E+00
        1   -1    0    0  501    0  0.00000000000E+00  0.00000000000E+00  0.76273315075E+02  0.76273315241E+02  0.50400001928E-02 0.  1.
       -1   -1    0    0    0  501  0.00000000000E+00  0.00000000000E+00 -0.80279906053E+03  0.80279906054E+03  0.50400001928E-02 0. -1.
    10030    2    1    2    0    0  0.00000000000E+00  0.00000000000E+00 -0.72652574545E+03  0.87907237579E+03  0.49490259957E+03 0.  0.
        1    1    3    3  502    0  0.11755512021E+03 -0.12448069166E+03 -0.45926896983E+02  0.17726795755E+03  0.50400001928E-02 0.  1.
       -1    1    3    3    0  502 -0.11755512021E+03  0.12448069166E+03 -0.68059884847E+03  0.70180441823E+03  0.50400001928E-02 0. -1.
</event>
<event>
 5   0  0.7933103E-02  0.4985647E+03  0.7818609E-02  0.1014154E+00
       -2   -1    0    0    0  501  0.00000000000E+00  0.00000000000E+00  0.60868048222E+02  0.60868048275E+02  0.25500000920E-02 0. -1.
        2   -1    0    0  501    0  0.00000000000E+00  0.00000000000E+00 -0.10209244322E+04  0.10209244322E+04  0.25500000920E-02 0.  1.
    10030    2    1    2    0    0  0.00000000000E+00  0.00000000000E+00 -0.96005638402E+03  0.10817924805E+04  0.49856465018E+03 0.  0.
        5    1    3    3  502    0  0.22874732750E+03  0.77696625162E+02 -0.61303410307E+03  0.65893475164E+03  0.46999998093E+01 0.  1.
       -5    1    3    3    0  502 -0.22874732750E+03 -0.77696625162E+02 -0.34702228096E+03  0.42285772889E+03  0.46999998093E+01 0. -1.
</event>
<event>
 5   0  0.5038436E-02  0.4993433E+03  0.7818609E-02  0.1013950E+00
       -1   -1    0    0    0  501  0.00000000000E+00  0.00000000000E+00  0.16039984788E+03  0.16039984796E+03  0.50400001928E-02 0. -1.
        1   -1    0    0  501    0  0.00000000000E+00  0.00000000000E+00 -0.38862841154E+03  0.38862841157E+03  0.50400001928E-02 0.  1.
    10030    2    1    2    0    0  0.00000000000E+00  0.00000000000E+00 -0.22822856366E+03  0.54902825953E+03  0.49934332126E+03 0.  0.
        1    1    3    3  502    0 -0.58850283336E+02  0.18673387573E+03 -0.28445896980E+03  0.34532564591E+03  0.50400001928E-02 0.  1.
       -1    1    3    3    0  502  0.58850283336E+02 -0.18673387573E+03  0.56230406142E+02  0.20370261362E+03  0.50400001928E-02 0. -1.
</event>
<event>
 5   0  0.3210875E-02  0.4988930E+03  0.7818609E-02  0.1014068E+00
       -3   -1    0    0    0  501  0.00000000000E+00  0.00000000000E+00  0.58262222236E+03  0.58262223111E+03  0.10100000352E+00 0. -1.
        3   -1    0    0  501    0  0.00000000000E+00  0.00000000000E+00 -0.10679912496E+03  0.10679917271E+03  0.10100000352E+00 0.  1.
    10030    2    1    2    0    0  0.00000000000E+00  0.00000000000E+00  0.47582309740E+03  0.68942140382E+03  0.49889302664E+03 0.  0.
        2    1    3    3  502    0 -0.14765691460E+03  0.15513562865E+03  0.41463267324E+03  0.46667963468E+03  0.25500000920E-02 0. -1.
       -2    1    3    3    0  502  0.14765691460E+03 -0.15513562865E+03  0.61190424163E+02  0.22274176914E+03  0.25500000920E-02 0.  1.
</event>
<event>
 5   0  0.7933103E-02  0.5002072E+03  0.7818609E-02  0.1013725E+00
        2   -1    0    0  501    0  0.00000000000E+00  0.00000000000E+00  0.10718314645E+04  0.10718314645E+04  0.25500000920E-02 0. -1.
       -2   -1    0    0    0  501  0.00000000000E+00  0.00000000000E+00 -0.58359756300E+02  0.58359756356E+02  0.25500000920E-02 0.  1.
    10030    2    1    2    0    0  0.00000000000E+00  0.00000000000E+00  0.10134717082E+04  0.11301912208E+04  0.50020724942E+03 0.  0.
        5    1    3    3  502    0 -0.19955979131E+03  0.93670969286E+02  0.24005066492E+03  0.32595210158E+03  0.46999998093E+01 0.  1.
       -5    1    3    3    0  502  0.19955979131E+03 -0.93670969286E+02  0.77342104324E+03  0.80423911924E+03  0.46999998093E+01 0. -1.
</event>
<event>
 5   0  0.7881060E-02  0.5091740E+03  0.7818609E-02  0.1011412E+00
       -2   -1    0    0    0  501  0.00000000000E+00  0.00000000000E+00  0.13671854357E+03  0.13671854359E+03  0.25500000920E-02 0. -1.
        2   -1    0    0  501    0  0.00000000000E+00  0.00000000000E+00 -0.47407279338E+03  0.47407279339E+03  0.25500000920E-02 0.  1.
    10030    2    1    2    0    0  0.00000000000E+00  0.00000000000E+00 -0.33735424981E+03  0.61079133698E+03  0.50917400510E+03 0.  0.
        1    1    3    3  502    0 -0.19351074738E+03  0.13373533267E+03 -0.28549232756E+03  0.36991541962E+03  0.50400001928E-02 0.  1.
       -1    1    3    3    0  502  0.19351074738E+03 -0.13373533267E+03 -0.51861922253E+02  0.24087591736E+03  0.50400001928E-02 0. -1.
</event>
<event>
 5   0  0.7776070E-02  0.5074832E+03  0.7818609E-02  0.1011844E+00
        2   -1    0    0  501    0  0.00000000000E+00  0.00000000000E+00  0.89283515546E+03  0.89283515546E+03  0.25500000920E-02 0. -1.
       -2   -1    0    0    0  501  0.00000000000E+00  0.00000000000E+00 -0.72112761076E+02  0.72112761121E+02  0.25500000920E-02 0.  1.
    10030    2    1    2    0    0  0.00000000000E+00  0.00000000000E+00  0.82072239438E+03  0.96494791658E+03  0.50748323428E+03 0.  0.
        4    1    3    3  502    0 -0.90921130089E+02  0.14270622018E+03  0.50836130722E+02  0.17668515009E+03  0.12699999809E+01 0.  1.
       -4    1    3    3    0  502  0.90921130089E+02 -0.14270622018E+03  0.76988626366E+03  0.78826276650E+03  0.12699999809E+01 0. -1.
</event>
<event>
 5   0  0.7933103E-02  0.5041236E+03  0.7818609E-02  0.1012708E+00
        2   -1    0    0  501    0  0.00000000000E+00  0.00000000000E+00  0.14802517167E+03  0.14802517169E+03  0.25500000920E-02 0.  1.
       -2   -1    0    0    0  501  0.00000000000E+00  0.00000000000E+00 -0.42921848286E+03  0.42921848287E+03  0.25500000920E-02 0. -1.
    10030    2    1    2    0    0  0.00000000000E+00  0.00000000000E+00 -0.28119331119E+03  0.57724365456E+03  0.50412355477E+03 0.  0.
        5    1    3    3  502    0  0.22371185985E+03  0.11600801205E+03 -0.14387446756E+03  0.29021855128E+03  0.46999998093E+01 0.  1.
       -5    1    3    3    0  502 -0.22371185985E+03 -0.11600801205E+03 -0.13731884364E+03  0.28702510328E+03  0.46999998093E+01 0. -1.
</event>
<event>
 5   0  0.5191358E-02  0.5053621E+03  0.7818609E-02  0.1012389E+00
       -1   -1    0    0    0  501  0.00000000000E+00  0.00000000000E+00  0.16007034046E+03  0.16007034054E+03  0.50400001928E-02 0.  1.
        1   -1    0    0  501    0  0.00000000000E+00  0.00000000000E+00 -0.39887291113E+03  0.39887291116E+03  0.50400001928E-02 0. -1.
    10030    2    1    2    0    0  0.00000000000E+00  0.00000000000E+00 -0.23880257067E+03  0.55894325171E+03  0.50536213834E+03 0.  0.
        4    1    3    3  502    0 -0.16504768869E+03  0.96580480739E+02  0.63269014997E+02  0.20142767923E+03  0.12699999809E+01 0.  1.
       -4    1    3    3    0  502  0.16504768869E+03 -0.96580480739E+02 -0.30207158566E+03  0.35751557248E+03  0.12699999809E+01 0. -1.
</event>
<event>
 5   0  0.7881060E-02  0.4988240E+03  0.7818609E-02  0.1014086E+00
       -2   -1    0    0    0  501  0.00000000000E+00  0.00000000000E+00  0.71882847511E+02  0.71882847556E+02  0.25500000920E-02 0. -1.
        2   -1    0    0  501    0  0.00000000000E+00  0.00000000000E+00 -0.86538521972E+03  0.86538521973E+03  0.25500000920E-02 0.  1.
    10030    2    1    2    0    0  0.00000000000E+00  0.00000000000E+00 -0.79350237221E+03  0.93726806728E+03  0.49882403234E+03 0.  0.
        1    1    3    3  502    0  0.10494492206E+03  0.48402887383E+02 -0.81203889834E+03  0.82022158507E+03  0.50400001928E-02 0.  1.
       -1    1    3    3    0  502 -0.10494492206E+03 -0.48402887383E+02  0.18536526126E+02  0.11704648221E+03  0.50400001928E-02 0. -1.
</event>
<event>
 5   0  0.5191358E-02  0.4999569E+03  0.7818609E-02  0.1013790E+00
       -1   -1    0    0    0  501  0.00000000000E+00  0.00000000000E+00  0.15478461963E+03  0.15478461971E+03  0.50400001928E-02 0. -1.
        1   -1    0    0  501    0  0.00000000000E+00  0.00000000000E+00 -0.40371725994E+03  0.40371725998E+03  0.50400001928E-02 0.  1.
    10030    2    1    2    0    0  0.00000000000E+00  0.00000000000E+00 -0.24893264032E+03  0.55850187968E+03  0.49995688834E+03 0.  0.
        4    1    3    3  502    0  0.64519670993E+02 -0.22829046980E+03 -0.36447034610E+02  0.24001942792E+03  0.12699999809E+01 0. -1.
       -4    1    3    3    0  502 -0.64519670993E+02  0.22829046980E+03 -0.21248560571E+03  0.31848245176E+03  0.12699999809E+01 0.  1.
</event>
<event>
 5   0  0.4865501E-02  0.5006945E+03  0.7818609E-02  0.1013598E+00
        1   -1    0    0  501    0  0.00000000000E+00  0.00000000000E+00  0.17028985476E+03  0.17028985484E+03  0.50400001928E-02 0.  1.
       -1   -1    0    0    0  501  0.00000000000E+00  0.00000000000E+00 -0.36804155964E+03  0.36804155968E+03  0.50400001928E-02 0. -1.
    10030    2    1    2    0    0  0.00000000000E+00  0.00000000000E+00 -0.19775170488E+03  0.53833141451E+03  0.50069449275E+03 0.  0.
        2    1    3    3  502    0 -0.61699555505E+02 -0.22257500225E+03  0.49616769295E+01  0.23102182802E+03  0.25500000920E-02 0.  1.
       -2    1    3    3    0  502  0.61699555505E+02  0.22257500225E+03 -0.20271338181E+03  0.30730958649E+03  0.25500000920E-02 0. -1.
</event>
<event>
 5   0  0.3210875E-02  0.4984417E+03  0.7818609E-02  0.1014186E+00
        4   -1    0    0  501    0  0.00000000000E+00  0.00000000000E+00  0.13863425044E+03  0.13864006742E+03  0.12699999809E+01 0.  1.
       -4   -1    0    0    0  501  0.00000000000E+00  0.00000000000E+00 -0.44800470220E+03  0.44800650229E+03  0.12699999809E+01 0. -1.
    10030    2    1    2    0    0  0.00000000000E+00  0.00000000000E+00 -0.30937045176E+03  0.58664656971E+03  0.49844169301E+03 0.  0.
        4    1    3    3  502    0  0.54295279900E+02  0.24249821811E+03 -0.13247667378E+03  0.28161151469E+03  0.12699999809E+01 0. -1.
       -4    1    3    3    0  502 -0.54295279900E+02 -0.24249821811E+03 -0.17689377798E+03  0.30503505503E+03  0.12699999809E+01 0.  1.
</event>
<event>
 5   0  0.5191358E-02  0.4997839E+03  0.7818609E-02  0.1013835E+00
       -1   -1    0    0    0  501  0.00000000000E+00  0.00000000000E+00  0.40991749763E+02  0.40991750073E+02  0.50400001928E-02 0.  1.
        1   -1    0    0  501    0  0.00000000000E+00  0.00000000000E+00 -0.15233793662E+04  0.15233793662E+04  0.50400001928E-02 0. -1.
    10030    2    1    2    0    0  0.00000000000E+00  0.00000000000E+00 -0.14823876164E+04  0.15643711163E+04  0.49978389739E+03 0.  0.
        4    1    3    3  502    0  0.12307361539E+03  0.19225547338E+03 -0.42298317518E+03  0.48065128860E+03  0.12699999809E+01 0.  1.
       -4    1    3    3    0  502 -0.12307361539E+03 -0.19225547338E+03 -0.10594044413E+04  0.10837198277E+04  0.12699999809E+01 0. -1.
</event>
<event>
 5   0  0.5191358E-02  0.4992747E+03  0.7818609E-02  0.1013968E+00
       -1   -1    0    0    0  501  0.00000000000E+00  0.00000000000E+00  0.81468572763E+02  0.81468572919E+02  0.50400001928E-02 0. -1.
        1   -1    0    0  501    0  0.00000000000E+00  0.00000000000E+00 -0.76494277379E+03  0.76494277380E+03  0.50400001928E-02 0.  1.
    10030    2    1    2    0    0  0.00000000000E+00  0.00000000000E+00 -0.68347420102E+03  0.84641134672E+03  0.49927465828E+03 0.  0.
        4    1    3    3  502    0 -0.16242509666E+03 -0.18915777438E+03 -0.32065774521E+03  0.40618416771E+03  0.12699999809E+01 0.  1.
       -4    1    3    3    0  502  0.16242509666E+03  0.18915777438E+03 -0.36281645581E+03  0.44022717901E+03  0.12699999809E+01 0. -1.
</event>
<event>
 5   0  0.7776070E-02  0.5038221E+03  0.7818609E-02  0.1012786E+00
        2   -1    0    0  501    0  0.00000000000E+00  0.00000000000E+00  0.89825830709E+02  0.89825830745E+02  0.25500000920E-02 0. -1.
       -2   -1    0    0    0  501  0.00000000000E+00  0.00000000000E+00 -0.70646906619E+03  0.70646906619E+03  0.25500000920E-02 0.  1.
    10030    2    1    2    0    0  0.00000000000E+00  0.00000000000E+00 -0.61664323548E+03  0.79629489694E+03  0.50382207477E+03 0.  0.
        4    1    3    3  502    0  0.15487085519E+02  0.11102347323E+03 -0.66487072315E+03  0.67425570286E+03  0.12699999809E+01 0.  1.
       -4    1    3    3    0  502 -0.15487085519E+02 -0.11102347323E+03  0.48227487674E+02  0.12203919408E+03  0.12699999809E+01 0. -1.
</event>
<event>
 5   0  0.7698747E-02  0.5154075E+03  0.7818609E-02  0.1009834E+00
        2   -1    0    0  501    0  0.00000000000E+00  0.00000000000E+00  0.12865266194E+03  0.12865266197E+03  0.25500000920E-02 0. -1.
       -2   -1    0    0    0  501  0.00000000000E+00  0.00000000000E+00 -0.51620568536E+03  0.51620568536E+03  0.25500000920E-02 0.  1.
    10030    2    1    2    0    0  0.00000000000E+00  0.00000000000E+00 -0.38755302341E+03  0.64485834733E+03  0.51540754958E+03 0.  0.
        2    1    3    3  502    0 -0.11363516504E+03 -0.66903312490E+02 -0.47079585080E+03  0.48891485669E+03  0.25500000920E-02 0.  1.
       -2    1    3    3    0  502  0.11363516504E+03  0.66903312490E+02  0.83242827386E+02  0.15594349064E+03  0.25500000920E-02 0. -1.
</event>
<event>
 5   0  0.4884478E-02  0.4987479E+03  0.7818609E-02  0.1014106E+00
       -1   -1    0    0    0  501  0.00000000000E+00  0.00000000000E+00  0.13139906299E+03  0.13139906309E+03  0.50400001928E-02 0.  1.
        1   -1    0    0  501    0  0.00000000000E+00  0.00000000000E+00 -0.47327105883E+03  0.47327105885E+03  0.50400001928E-02 0. -1.
    10030    2    1    2    0    0  0.00000000000E+00  0.00000000000E+00 -0.34187199584E+03  0.60467012194E+03  0.49874792714E+03 0.  0.
        3    1    3    3  502    0 -0.12364885552E+03 -0.14186035605E+03  0.27442107748E+02  0.19017486576E+03  0.10100000352E+00 0.  1.
       -3    1    3    3    0  502  0.12364885552E+03  0.14186035605E+03 -0.36931410359E+03  0.41449525618E+03  0.10100000352E+00 0. -1.
</event>
<event>
 5   0  0.7698747E-02  0.4985809E+03  0.7818609E-02  0.1014150E+00
        2   -1    0    0  501    0  0.00000000000E+00  0.00000000000E+00  0.33830714878E+03  0.33830714879E+03  0.25500000920E-02 0. -1.
       -2   -1    0    0    0  501  0.00000000000E+00  0.00000000000E+00 -0.18369620521E+03  0.18369620523E+03  0.25500000920E-02 0.  1.
    10030    2    1    2    0    0  0.00000000000E+00  0.00000000000E+00  0.15461094357E+03  0.52200335402E+03  0.49858094401E+03 0.  0.
        2    1    3    3  502    0 -0.47377360623E+02  0.22431305071E+03 -0.25195669643E+02  0.23064210542E+03  0.25500000920E-02 0. -1.
       -2    1    3    3    0  502  0.47377360623E+02 -0.22431305071E+03  0.17980661322E+03  0.29136124859E+03  0.25500000920E-02 0.  1.
</event>
<event>
 5   0  0.4803890E-02  0.4994672E+03  0.7818609E-02  0.1013918E+00
        1   -1    0    0  501    0  0.00000000000E+00  0.00000000000E+00  0.61006211629E+03  0.61006211631E+03  0.50400001928E-02 0.  1.
       -1   -1    0    0    0  501  0.00000000000E+00  0.00000000000E+00 -0.10223034874E+03  0.10223034886E+03  0.50400001928E-02 0. -1.
    10030    2    1    2    0    0  0.00000000000E+00  0.00000000000E+00  0.50783176756E+03  0.71229246517E+03  0.49946716789E+03 0.  0.
        5    1    3    3  502    0 -0.95157004464E+02  0.21907999320E+03  0.15015391430E+03  0.28216872062E+03  0.46999998093E+01 0. -1.
       -5    1    3    3    0  502  0.95157004464E+02 -0.21907999320E+03  0.35767785325E+03  0.43012374455E+03  0.46999998093E+01 0.  1.
</event>
<event>
 5   0  0.7881060E-02  0.5021568E+03  0.7818609E-02  0.1013217E+00
       -2   -1    0    0    0  501  0.00000000000E+00  0.00000000000E+00  0.14134675291E+03  0.14134675293E+03  0.25500000920E-02 0.  1.
        2   -1    0    0  501    0  0.00000000000E+00  0.00000000000E+00 -0.44599790042E+03  0.44599790043E+03  0.25500000920E-02 0. -1.
    10030    2    1    2    0    0  0.00000000000E+00  0.00000000000E+00 -0.30465114751E+03  0.58734465336E+03  0.50215676850E+03 0.  0.
        1    1    3    3  502    0 -0.14413147338E+03  0.18528448468E+03 -0.25652328299E+03  0.34771887585E+03  0.50400001928E-02 0. -1.
       -1    1    3    3    0  502  0.14413147338E+03 -0.18528448468E+03 -0.48127864527E+02  0.23962577752E+03  0.50400001928E-02 0.  1.
</event>
<event>
 5   0  0.7776070E-02  0.5011624E+03  0.7818609E-02  0.1013476E+00
       -2   -1    0    0    0  501  0.00000000000E+00  0.00000000000E+00  0.49295685866E+02  0.49295685932E+02  0.25500000920E-02 0.  1.
        2   -1    0    0  501    0  0.00000000000E+00  0.00000000000E+00 -0.12737611544E+04  0.12737611544E+04  0.25500000920E-02 0. -1.
    10030    2    1    2    0    0  0.00000000000E+00  0.00000000000E+00 -0.12244654685E+04  0.13230568403E+04  0.50116236802E+03 0.  0.
        4    1    3    3  502    0 -0.19623524160E+03 -0.14718950455E+03 -0.74726685993E+03  0.78650009100E+03  0.12699999809E+01 0.  1.
       -4    1    3    3    0  502  0.19623524160E+03  0.14718950455E+03 -0.47719860857E+03  0.53655674930E+03  0.12699999809E+01 0. -1.
</event>
<event>
 5   0  0.4884478E-02  0.5004963E+03  0.7818609E-02  0.1013649E+00
        1   -1    0    0  501    0  0.00000000000E+00  0.00000000000E+00  0.59845411072E+03  0.59845411074E+03  0.50400001928E-02 0.  1.
       -1   -1    0    0    0  501  0.00000000000E+00  0.00000000000E+00 -0.10464318136E+03  0.10464318148E+03  0.50400001928E-02 0. -1.
    10030    2    1    2    0    0  0.00000000000E+00  0.00000000000E+00  0.49381092936E+03  0.70309729222E+03  0.50049632204E+03 0.  0.
        3    1    3    3  502    0 -0.13063039627E+03 -0.70971193921E+02 -0.35885094714E+02  0.15293449912E+03  0.10100000352E+00 0. -1.
       -3    1    3    3    0  502  0.13063039627E+03  0.70971193921E+02  0.52969602407E+03  0.55016279310E+03  0.10100000352E+00 0.  1.
</event>
<event>
 5   0  0.7776070E-02  0.4973389E+03  0.7818609E-02  0.1014476E+00
       -2   -1    0    0    0  501  0.00000000000E+00  0.00000000000E+00  0.13126790330E+03  0.13126790332E+03  0.25500000920E-02 0. -1.
        2   -1    0    0  501    0  0.00000000000E+00  0.00000000000E+00 -0.47107092531E+03  0.47107092531E+03  0.25500000920E-02 0.  1.
    10030    2    1    2    0    0  0.00000000000E+00  0.00000000000E+00 -0.33980302201E+03  0.60233882863E+03  0.49733888920E+03 0.  0.
        4    1    3    3  502    0  0.51879271178E+02  0.70101600963E+02 -0.45193779567E+03  0.46027717442E+03  0.12699999809E+01 0.  1.
       -4    1    3    3    0  502 -0.51879271178E+02 -0.70101600963E+02  0.11213477366E+03  0.14206165422E+03  0.12699999809E+01 0. -1.
</event>
<event>
 5   0  0.7933103E-02  0.4975755E+03  0.7818609E-02  0.1014414E+00
       -2   -1    0    0    0  501  0.00000000000E+00  0.00000000000E+00  0.17083431092E+03  0.17083431094E+03  0.25500000920E-02 0. -1.
        2   -1    0    0  501    0  0.00000000000E+00  0.00000000000E+00 -0.36231214262E+03  0.36231214262E+03  0.25500000920E-02 0.  1.
    10030    2    1    2    0    0  0.00000000000E+00  0.00000000000E+00 -0.19147783170E+03  0.53314645356E+03  0.49757550272E+03 0.  0.
        5    1    3    3  502    0 -0.39461932689E+02  0.64668706831E+02 -0.34960250227E+03  0.35774751623E+03  0.46999998093E+01 0.  1.
       -5    1    3    3    0  502  0.39461932689E+02 -0.64668706831E+02  0.15812467057E+03  0.17539893733E+03  0.46999998093E+01 0. -1.
</event>
<event>
 5   0  0.7881060E-02  0.5004645E+03  0.7818609E-02  0.1013658E+00
        2   -1    0    0  501    0  0.00000000000E+00  0.00000000000E+00  0.40427227606E+03  0.40427227606E+03  0.25500000920E-02 0. -1.
       -2   -1    0    0    0  501  0.00000000000E+00  0.00000000000E+00 -0.15488618337E+03  0.15488618339E+03  0.25500000920E-02 0.  1.
    10030    2    1    2    0    0  0.00000000000E+00  0.00000000000E+00  0.24938609268E+03  0.55915845946E+03  0.50046454376E+03 0.  0.
        1    1    3    3  502    0  0.83764928649E+02 -0.28594492674E+02 -0.13681222874E+03  0.16294721305E+03  0.50400001928E-02 0.  1.
       -1    1    3    3    0  502 -0.83764928649E+02  0.28594492674E+02  0.38619832142E+03  0.39621124641E+03  0.50400001928E-02 0. -1.
</event>
<event>
 5   0  0.5191358E-02  0.4999509E+03  0.7818609E-02  0.1013792E+00
        1   -1    0    0  501    0  0.00000000000E+00  0.00000000000E+00  0.57750495769E+03  0.57750495771E+03  0.50400001928E-02 0.  1.
       -1   -1    0    0    0  501  0.00000000000E+00  0.00000000000E+00 -0.10820291175E+03  0.10820291187E+03  0.50400001928E-02 0. -1.
    10030    2    1    2    0    0  0.00000000000E+00  0.00000000000E+00  0.46930204593E+03  0.68570786958E+03  0.49995086967E+03 0.  0.
        4    1    3    3  502    0  0.20802425207E+01  0.15388440631E+03 -0.35517855468E+02  0.15794894387E+03  0.12699999809E+01 0. -1.
       -4    1    3    3    0  502 -0.20802425207E+01 -0.15388440631E+03  0.50481990140E+03  0.52775892571E+03  0.12699999809E+01 0.  1.
</event>
<event>
 5   0  0.7881060E-02  0.5024677E+03  0.7818609E-02  0.1013137E+00
        2   -1    0    0  501    0  0.00000000000E+00  0.00000000000E+00  0.95018415590E+03  0.95018415590E+03  0.25500000920E-02 0. -1.
       -2   -1    0    0    0  501  0.00000000000E+00  0.00000000000E+00 -0.66427595665E+02  0.66427595713E+02  0.25500000920E-02 0.  1.
    10030    2    1    2    0    0  0.00000000000E+00  0.00000000000E+00  0.88375656024E+03  0.10166117516E+04  0.50246770619E+03 0.  0.
        1    1    3    3  502    0  0.14426820612E+03  0.83238529980E+02  0.82242175932E+03  0.83911829822E+03  0.50400001928E-02 0. -1.
       -1    1    3    3    0  502 -0.14426820612E+03 -0.83238529980E+02  0.61334800913E+02  0.17749345340E+03  0.50400001928E-02 0.  1.
</event>
<event>
 5   0  0.4865501E-02  0.4988898E+03  0.7818609E-02  0.1014069E+00
       -1   -1    0    0    0  501  0.00000000000E+00  0.00000000000E+00  0.70756510694E+02  0.70756510873E+02  0.50400001928E-02 0.  1.
        1   -1    0    0  501    0  0.00000000000E+00  0.00000000000E+00 -0.87939271148E+03  0.87939271149E+03  0.50400001928E-02 0. -1.
    10030    2    1    2    0    0  0.00000000000E+00  0.00000000000E+00 -0.80863620079E+03  0.95014922237E+03  0.49888980702E+03 0.  0.
        2    1    3    3  502    0 -0.23705133206E+03 -0.51934676599E+02 -0.51425758786E+03  0.56863996636E+03  0.25500000920E-02 0. -1.
       -2    1    3    3    0  502  0.23705133206E+03  0.51934676599E+02 -0.29437861293E+03  0.38150925601E+03  0.25500000920E-02 0.  1.
</event>
<event>
 5   0  0.8208720E-02  0.5020457E+03  0.7818609E-02  0.1013246E+00
       -2   -1    0    0    0  501  0.00000000000E+00  0.00000000000E+00  0.18382944392E+03  0.18382944394E+03  0.25500000920E-02 0.  1.
        2   -1    0    0  501    0  0.00000000000E+00  0.00000000000E+00 -0.34277675238E+03  0.34277675239E+03  0.25500000920E-02 0. -1.
    10030    2    1    2    0    0  0.00000000000E+00  0.00000000000E+00 -0.15894730846E+03  0.52660619633E+03  0.50204565445E+03 0.  0.
        3    1    3    3  502    0 -0.24164415918E+03  0.18626345967E+02 -0.10902706306E+02  0.24260609975E+03  0.10100000352E+00 0.  1.
       -3    1    3    3    0  502  0.24164415918E+03 -0.18626345967E+02 -0.14804460216E+03  0.28400009658E+03  0.10100000352E+00 0. -1.
</event>
<event>
 5   0  0.5191358E-02  0.5013941E+03  0.7818609E-02  0.1013416E+00
        1   -1    0    0  501    0  0.00000000000E+00  0.00000000000E+00  0.84977243744E+03  0.84977243746E+03  0.50400001928E-02 0. -1.
       -1   -1    0    0    0  501  0.00000000000E+00  0.00000000000E+00 -0.73959798532E+02  0.73959798704E+02  0.50400001928E-02 0.  1.
    10030    2    1    2    0    0  0.00000000000E+00  0.00000000000E+00  0.77581263891E+03  0.92373223616E+03  0.50139405005E+03 0.  0.
        4    1    3    3  502    0  0.19834761712E+03  0.57075447113E+02  0.12575140304E+03  0.24169073657E+03  0.12699999809E+01 0.  1.
       -4    1    3    3    0  502 -0.19834761712E+03 -0.57075447113E+02  0.65006123587E+03  0.68204149959E+03  0.12699999809E+01 0. -1.
</event>
<event>
 5   0  0.5191358E-02  0.5009521E+03  0.7818609E-02  0.1013531E+00
       -1   -1    0    0    0  501  0.00000000000E+00  0.00000000000E+00  0.69372971219E+02  0.69372971402E+02  0.50400001928E-02 0.  1.
        1   -1    0    0  501    0  0.00000000000E+00  0.00000000000E+00 -0.90436167296E+03  0.90436167298E+03  0.50400001928E-02 0. -1.
    10030    2    1    2    0    0  0.00000000000E+00  0.00000000000E+00 -0.83498870174E+03  0.97373464438E+03  0.50095211909E+03 0.  0.
        4    1    3    3  502    0  0.21386564454E+03 -0.45934122510E+02 -0.18032132380E+03  0.28348871272E+03  0.12699999809E+01 0.  1.
       -4    1    3    3    0  502 -0.21386564454E+03  0.45934122510E+02 -0.65466737795E+03  0.69024593166E+03  0.12699999809E+01 0. -1.
</event>
<event>
 5   0  0.7881060E-02  0.4993637E+03  0.7818609E-02  0.1013945E+00
       -2   -1    0    0    0  501  0.00000000000E+00  0.00000000000E+00  0.15053614476E+04  0.15053614476E+04  0.25500000920E-02 0. -1.
        2   -1    0    0  501    0  0.00000000000E+00  0.00000000000E+00 -0.41412669958E+02  0.41412670037E+02  0.25500000920E-02 0.  1.
    10030    2    1    2    0    0  0.00000000000E+00  0.00000000000E+00  0.14639487776E+04  0.15467741176E+04  0.49936374261E+03 0.  0.
        1    1    3    3  502    0  0.23517055945E+03 -0.83362635458E+02  0.70316343577E+03  0.74611885008E+03  0.50400001928E-02 0.  1.
       -1    1    3    3    0  502 -0.23517055945E+03  0.83362635458E+02  0.76078534184E+03  0.80065526752E+03  0.50400001928E-02 0. -1.
</event>
<event>
 5   0  0.7776070E-02  0.5055827E+03  0.7818609E-02  0.1012332E+00
       -2   -1    0    0    0  501  0.00000000000E+00  0.00000000000E+00  0.57127726065E+02  0.57127726122E+02  0.25500000920E-02 0. -1.
        2   -1    0    0  501    0  0.00000000000E+00  0.00000000000E+00 -0.11186070516E+04  0.11186070516E+04  0.25500000920E-02 0.  1.
    10030    2    1    2    0    0  0.00000000000E+00  0.00000000000E+00 -0.10614793255E+04  0.11757347777E+04  0.50558274200E+03 0.  0.
        4    1    3    3  502    0 -0.72826358657E+02 -0.22149099421E+02  0.29835181447E+02  0.81768038208E+02  0.12699999809E+01 0. -1.
       -4    1    3    3    0  502  0.72826358657E+02  0.22149099421E+02 -0.10913145069E+04  0.10939667395E+04  0.12699999809E+01 0.  1.
</event>
<event>
 5   0  0.4803890E-02  0.4981493E+03  0.7818609E-02  0.1014263E+00
        1   -1    0    0  501    0  0.00000000000E+00  0.00000000000E+00  0.59113135013E+03  0.59113135015E+03  0.50400001928E-02 0. -1.
       -1   -1    0    0    0  501  0.00000000000E+00  0.00000000000E+00 -0.10494822448E+03  0.10494822460E+03  0.50400001928E-02 0.  1.
    10030    2    1    2    0    0  0.00000000000E+00  0.00000000000E+00  0.48618312565E+03  0.69607957475E+03  0.49814931770E+03 0.  0.
        5    1    3    3  502    0  0.41870720058E+02  0.13559005623E+03 -0.42860835538E+02  0.14831372751E+03  0.46999998093E+01 0.  1.
       -5    1    3    3    0  502 -0.41870720058E+02 -0.13559005623E+03  0.52904396118E+03  0.54776584725E+03  0.46999998093E+01 0. -1.
</event>
<event>
 5   0  0.7881060E-02  0.4968449E+03  0.7818609E-02  0.1014606E+00
        2   -1    0    0  501    0  0.00000000000E+00  0.00000000000E+00  0.75199426409E+03  0.75199426410E+03  0.25500000920E-02 0.  1.
       -2   -1    0    0    0  501  0.00000000000E+00  0.00000000000E+00 -0.82066733401E+02  0.82066733440E+02  0.25500000920E-02 0. -1.
    10030    2    1    2    0    0  0.00000000000E+00  0.00000000000E+00  0.66992753069E+03  0.83406099754E+03  0.49684489656E+03 0.  0.
        1    1    3    3  502    0  0.85391225226E+01 -0.59606891392E+02 -0.69630291414E+02  0.92055828836E+02  0.50400001928E-02 0. -1.
       -1    1    3    3    0  502 -0.85391225226E+01  0.59606891392E+02  0.73955782211E+03  0.74200516870E+03  0.50400001928E-02 0.  1.
</event>
<event>
 5   0  0.8208720E-02  0.5096541E+03  0.7818609E-02  0.1011289E+00
        2   -1    0    0  501    0  0.00000000000E+00  0.00000000000E+00  0.61496414134E+02  0.61496414187E+02  0.25500000920E-02 0.  1.
       -2   -1    0    0    0  501  0.00000000000E+00  0.00000000000E+00 -0.10559449144E+04  0.10559449144E+04  0.25500000920E-02 0. -1.
    10030    2    1    2    0    0  0.00000000000E+00  0.00000000000E+00 -0.99444850022E+03  0.11174413285E+04  0.50965410147E+03 0.  0.
        3    1    3    3  502    0  0.14827410268E+03 -0.68868200264E-01 -0.95162483951E+03  0.96310698244E+03  0.10100000352E+00 0. -1.
       -3    1    3    3    0  502 -0.14827410268E+03  0.68868200264E-01 -0.42823660717E+02  0.15433434610E+03  0.10100000352E+00 0.  1.
</event>
<event>
 5   0  0.5038436E-02  0.5009214E+03  0.7818609E-02  0.1013539E+00
        1   -1    0    0  501    0  0.00000000000E+00  0.00000000000E+00  0.81319678754E+03  0.81319678756E+03  0.50400001928E-02 0. -1.
       -1   -1    0    0    0  501  0.00000000000E+00  0.00000000000E+00 -0.77140687920E+02  0.77140688085E+02  0.50400001928E-02 0.  1.
    10030    2    1    2    0    0  0.00000000000E+00  0.00000000000E+00  0.73605609962E+03  0.89033747564E+03  0.50092138978E+03 0.  0.
        1    1    3    3  502    0  0.90423402665E+02  0.21580716113E+03  0.52681895526E+03  0.57644369560E+03  0.50400001928E-02 0.  1.
       -1    1    3    3    0  502 -0.90423402665E+02 -0.21580716113E+03  0.20923714436E+03  0.31389378005E+03  0.50400001928E-02 0. -1.
</event>
<event>
 5   0  0.5191358E-02  0.5016301E+03  0.7818609E-02  0.1013354E+00
        1   -1    0    0  501    0  0.00000000000E+00  0.00000000000E+00  0.61870534361E+03  0.61870534363E+03  0.50400001928E-02 0. -1.
       -1   -1    0    0    0  501  0.00000000000E+00  0.00000000000E+00 -0.10167713183E+03  0.10167713195E+03  0.50400001928E-02 0.  1.
    10030    2    1    2    0    0  0.00000000000E+00  0.00000000000E+00  0.51702821178E+03  0.72038247558E+03  0.50163008218E+03 0.  0.
        4    1    3    3  502    0  0.19073520084E+03  0.13309891938E+03  0.39331735746E+03  0.45694134827E+03  0.12699999809E+01 0. -1.
       -4    1    3    3    0  502 -0.19073520084E+03 -0.13309891938E+03  0.12371085432E+03  0.26344112731E+03  0.12699999809E+01 0.  1.
</event>
<event>
 5   0  0.4884478E-02  0.5007294E+03  0.7818609E-02  0.1013589E+00
       -1   -1    0    0    0  501  0.00000000000E+00  0.00000000000E+00  0.52906182823E+02  0.52906183063E+02  0.50400001928E-02 0. -1.
        1   -1    0    0  501    0  0.00000000000E+00  0.00000000000E+00 -0.11847857429E+04  0.11847857429E+04  0.50400001928E-02 0.  1.
    10030    2    1    2    0    0  0.00000000000E+00  0.00000000000E+00 -0.11318795601E+04  0.12376919260E+04  0.50072943303E+03 0.  0.
        3    1    3    3  502    0 -0.10687914909E+03  0.19219960041E+02 -0.11235430720E+04  0.11287788110E+04  0.10100000352E+00 0.  1.
       -3    1    3    3    0  502  0.10687914909E+03 -0.19219960041E+02 -0.83364880830E+01  0.10891311496E+03  0.10100000352E+00 0. -1.
</event>
<event>
 5   0  0.4803890E-02  0.4977182E+03  0.7818609E-02  0.1014376E+00
        1   -1    0    0  501    0  0.00000000000E+00  0.00000000000E+00  0.12375848736E+03  0.12375848746E+03  0.50400001928E-02 0. -1.
       -1   -1    0    0    0  501  0.00000000000E+00  0.00000000000E+00 -0.50041691857E+03  0.50041691860E+03  0.50400001928E-02 0.  1.
    10030    2    1    2    0    0  0.00000000000E+00  0.00000000000E+00 -0.37665843121E+03  0.62417540606E+03  0.49771815692E+03 0.  0.
        5    1    3    3  502    0 -0.94821412913E+02  0.66654740563E+02  0.87780166411E+02  0.14546959270E+03  0.46999998093E+01 0. -1.
       -5    1    3    3    0  502  0.94821412913E+02 -0.66654740563E+02 -0.46443859763E+03  0.47870581336E+03  0.46999998093E+01 0.  1.
</event>
<event>
 5   0  0.3210875E-02  0.4976718E+03  0.7818609E-02  0.1014388E+00
        3   -1    0    0  501    0  0.00000000000E+00  0.00000000000E+00  0.62823324474E+03  0.62823325286E+03  0.10100000352E+00 0. -1.
       -3   -1    0    0    0  501  0.00000000000E+00  0.00000000000E+00 -0.98560967533E+02  0.98561019282E+02  0.10100000352E+00 0.  1.
    10030    2    1    2    0    0  0.00000000000E+00  0.00000000000E+00  0.52967227721E+03  0.72679427214E+03  0.49767177213E+03 0.  0.
        3    1    3    3  502    0 -0.89821083041E+02 -0.22031295763E+03  0.37129098551E+03  0.44097917454E+03  0.10100000352E+00 0.  1.
       -3    1    3    3    0  502  0.89821083041E+02  0.22031295763E+03  0.15838129170E+03  0.28581509760E+03  0.10100000352E+00 0. -1.
</event>
<event>
 5   0  0.3210875E-02  0.5053212E+03  0.7818609E-02  0.1012399E+00
       -3   -1    0    0    0  501  0.00000000000E+00  0.00000000000E+00  0.17578014387E+03  0.17578017289E+03  0.10100000352E+00 0.  1.
        3   -1    0    0  501    0  0.00000000000E+00  0.00000000000E+00 -0.36316593808E+03  0.36316595212E+03  0.10100000352E+00 0. -1.
    10030    2    1    2    0    0  0.00000000000E+00  0.00000000000E+00 -0.18738579421E+03  0.53894612501E+03  0.50532117489E+03 0.  0.
        4    1    3    3  502    0  0.26479174787E+02  0.22708158170E+03  0.21021429567E+02  0.22958812000E+03  0.12699999809E+01 0.  1.
       -4    1    3    3    0  502 -0.26479174787E+02 -0.22708158170E+03 -0.20840722378E+03  0.30935800501E+03  0.12699999809E+01 0. -1.
</event>
<event>
 5   0  0.4884478E-02  0.4998829E+03  0.7818609E-02  0.1013809E+00
        1   -1    0    0  501    0  0.00000000000E+00  0.00000000000E+00  0.30175045623E+03  0.30175045627E+03  0.50400001928E-02 0.  1.
       -1   -1    0    0    0  501  0.00000000000E+00  0.00000000000E+00 -0.20702774584E+03  0.20702774590E+03  0.50400001928E-02 0. -1.
    10030    2    1    2    0    0  0.00000000000E+00  0.00000000000E+00  0.94722710382E+02  0.50877820217E+03  0.49988285342E+03 0.  0.
        3    1    3    3  502    0  0.19265710853E+03  0.15813939509E+03  0.66290064297E+02  0.25791318805E+03  0.10100000352E+00 0. -1.
       -3    1    3    3    0  502 -0.19265710853E+03 -0.15813939509E+03  0.28432646085E+02  0.25086501412E+03  0.10100000352E+00 0.  1.
</event>
<event>
 5   0  0.7776070E-02  0.5035388E+03  0.7818609E-02  0.1012859E+00
        2   -1    0    0  501    0  0.00000000000E+00  0.00000000000E+00  0.35772635705E+03  0.35772635706E+03  0.25500000920E-02 0.  1.
       -2   -1    0    0    0  501  0.00000000000E+00  0.00000000000E+00 -0.17719643534E+03  0.17719643536E+03  0.25500000920E-02 0. -1.
    10030    2    1    2    0    0  0.00000000000E+00  0.00000000000E+00  0.18052992171E+03  0.53492279242E+03  0.50353881799E+03 0.  0.
        4    1    3    3  502    0  0.21557241372E+03  0.98317576791E+02 -0.17899527424E+00  0.23693766353E+03  0.12699999809E+01 0. -1.
       -4    1    3    3    0  502 -0.21557241372E+03 -0.98317576791E+02  0.18070891699E+03  0.29798512889E+03  0.12699999809E+01 0.  1.
</event>
<event>
 5   0  0.7881060E-02  0.4972638E+03  0.7818609E-02  0.1014496E+00
       -2   -1    0    0    0  501  0.00000000000E+00  0.00000000000E+00  0.82139700537E+02  0.82139700577E+02  0.25500000920E-02 0. -1.
        2   -1    0    0  501    0  0.00000000000E+00  0.00000000000E+00 -0.75259378082E+03  0.75259378082E+03  0.25500000920E-02 0.  1.
    10030    2    1    2    0    0  0.00000000000E+00  0.00000000000E+00 -0.67045408028E+03  0.83473348140E+03  0.49726382455E+03 0.  0.
        1    1    3    3  502    0  0.41751145088E+02 -0.24266830024E+03 -0.39305574470E+03  0.46381448934E+03  0.50400001928E-02 0.  1.
       -1    1    3    3    0  502 -0.41751145088E+02  0.24266830024E+03 -0.27739833559E+03  0.37091899206E+03  0.50400001928E-02 0. -1.
</event>
<event>
 5   0  0.4865501E-02  0.5019223E+03  0.7818609E-02  0.1013278E+00
       -1   -1    0    0    0  501  0.00000000000E+00  0.00000000000E+00  0.37408180660E+02  0.37408180999E+02  0.50400001928E-02 0.  1.
        1   -1    0    0  501    0  0.00000000000E+00  0.00000000000E+00 -0.16836290725E+04  0.16836290725E+04  0.50400001928E-02 0. -1.
    10030    2    1    2    0    0  0.00000000000E+00  0.00000000000E+00 -0.16462208918E+04  0.17210372535E+04  0.50192230796E+03 0.  0.
        2    1    3    3  502    0  0.21057154904E+03  0.12848604111E+03 -0.98145177946E+03  0.10119765983E+04  0.25500000920E-02 0.  1.
       -2    1    3    3    0  502 -0.21057154904E+03 -0.12848604111E+03 -0.66476911238E+03  0.70906065524E+03  0.25500000920E-02 0. -1.
</event>
<event>
 5   0  0.7933103E-02  0.5477080E+03  0.7818609E-02  0.1002026E+00
        2   -1    0    0  501    0  0.00000000000E+00  0.00000000000E+00  0.12016856144E+04  0.12016856144E+04  0.25500000920E-02 0. -1.
       -2   -1    0    0    0  501  0.00000000000E+00  0.00000000000E+00 -0.62409012558E+02  0.62409012610E+02  0.25500000920E-02 0.  1.
    10030    2    1    2    0    0  0.00000000000E+00  0.00000000000E+00  0.11392766018E+04  0.12640946270E+04  0.54770799751E+03 0.  0.
        5    1    3    3  502    0  0.15062147409E+03  0.10386307093E+03  0.10398053961E+04  0.10557896181E+04  0.46999998093E+01 0. -1.
       -5    1    3    3    0  502 -0.15062147409E+03 -0.10386307093E+03  0.99471205722E+02  0.20830500888E+03  0.46999998093E+01 0.  1.
</event>
<event>
 5   0  0.3210875E-02  0.4991031E+03  0.7818609E-02  0.1014013E+00
        3   -1    0    0  501    0  0.00000000000E+00  0.00000000000E+00  0.14787128811E+03  0.14787132260E+03  0.10100000352E+00 0.  1.
       -3   -1    0    0    0  501  0.00000000000E+00  0.00000000000E+00 -0.42114980956E+03  0.42114982167E+03  0.10100000352E+00 0. -1.
    10030    2    1    2    0    0  0.00000000000E+00  0.00000000000E+00 -0.27327852145E+03  0.56902114427E+03  0.49910310792E+03 0.  0.
        3    1    3    3  502    0 -0.95974681311E+02 -0.20426767030E+03 -0.25804409737E+03  0.34281655002E+03  0.10100000352E+00 0.  1.
       -3    1    3    3    0  502  0.95974681311E+02  0.20426767030E+03 -0.15234424082E+02  0.22620459425E+03  0.10100000352E+00 0. -1.
</event>
<event>
 5   0  0.3210875E-02  0.5004769E+03  0.7818609E-02  0.1013655E+00
       -3   -1    0    0    0  501  0.00000000000E+00  0.00000000000E+00  0.10595535660E+04  0.10595535708E+04  0.10100000352E+00 0.  1.
        3   -1    0    0  501    0  0.00000000000E+00  0.00000000000E+00 -0.59099633879E+02  0.59099720183E+02  0.10100000352E+00 0. -1.
    10030    2    1    2    0    0  0.00000000000E+00  0.00000000000E+00  0.10004539321E+04  0.11186532910E+04  0.50047688774E+03 0.  0.
        3    1    3    3  502    0  0.13733156950E+03  0.10473972278E+03  0.90496581834E+03  0.92129990344E+03  0.10100000352E+00 0.  1.
       -3    1    3    3    0  502 -0.13733156950E+03 -0.10473972278E+03  0.95488113796E+02  0.19735338757E+03  0.10100000352E+00 0. -1.
</event>
<event>
 5   0  0.4865501E-02  0.5033248E+03  0.7818609E-02  0.1012915E+00
       -1   -1    0    0    0  501  0.00000000000E+00  0.00000000000E+00  0.10508116564E+03  0.10508116576E+03  0.50400001928E-02 0.  1.
        1   -1    0    0  501    0  0.00000000000E+00  0.00000000000E+00 -0.60271461929E+03  0.60271461932E+03  0.50400001928E-02 0. -1.
    10030    2    1    2    0    0  0.00000000000E+00  0.00000000000E+00 -0.49763345366E+03  0.70779578507E+03  0.50332476510E+03 0.  0.
        2    1    3    3  502    0 -0.26819967577E+01 -0.96055615785E+02 -0.57590022028E+03  0.58386208830E+03  0.25500000920E-02 0. -1.
       -2    1    3    3    0  502  0.26819967577E+01  0.96055615785E+02  0.78266766623E+02  0.12393369677E+03  0.25500000920E-02 0.  1.
</event>
<event>
 5   0  0.7698747E-02  0.5436387E+03  0.7818609E-02  0.1002977E+00
        2   -1    0    0  501    0  0.00000000000E+00  0.00000000000E+00  0.44070161307E+03  0.44070161308E+03  0.25500000920E-02 0.  1.
       -2   -1    0    0    0  501  0.00000000000E+00  0.00000000000E+00 -0.16765481923E+03  0.16765481925E+03  0.25500000920E-02 0. -1.
    10030    2    1    2    0    0  0.00000000000E+00  0.00000000000E+00  0.27304679384E+03  0.60835643233E+03  0.54363866412E+03 0.  0.
        2    1    3    3  502    0 -0.13815127852E+03  0.11750230920E+03  0.36309400853E+03  0.40586922458E+03  0.25500000920E-02 0.  1.
       -2    1    3    3    0  502  0.13815127852E+03 -0.11750230920E+03 -0.90047214686E+02  0.20248720775E+03  0.25500000920E-02 0. -1.
</event>
<event>
 5   0  0.8208720E-02  0.4998778E+03  0.7818609E-02  0.1013811E+00
       -2   -1    0    0    0  501  0.00000000000E+00  0.00000000000E+00  0.71199817157E+02  0.71199817202E+02  0.25500000920E-02 0.  1.
        2   -1    0    0  501    0  0.00000000000E+00  0.00000000000E+00 -0.87738212618E+03  0.87738212618E+03  0.25500000920E-02 0. -1.
    10030    2    1    2    0    0  0.00000000000E+00  0.00000000000E+00 -0.80618230902E+03  0.94858194338E+03  0.49987777300E+03 0.  0.
        3    1    3    3  502    0 -0.16698460983E+03 -0.11130519009E+02 -0.50818199223E+02  0.17490068024E+03  0.10100000352E+00 0.  1.
       -3    1    3    3    0  502  0.16698460983E+03  0.11130519009E+02 -0.75536410980E+03  0.77368126315E+03  0.10100000352E+00 0. -1.
</event>
<event>
 5   0  0.3210875E-02  0.4980053E+03  0.7818609E-02  0.1014301E+00
       -3   -1    0    0    0  501  0.00000000000E+00  0.00000000000E+00  0.89766229830E+03  0.89766230398E+03  0.10100000352E+00 0.  1.
        3   -1    0    0  501    0  0.00000000000E+00  0.00000000000E+00 -0.69070832418E+02  0.69070906262E+02  0.10100000352E+00 0. -1.
    10030    2    1    2    0    0  0.00000000000E+00  0.00000000000E+00  0.82859146588E+03  0.96673321024E+03  0.49800530364E+03 0.  0.
        2    1    3    3  502    0  0.99586158269E+02  0.79418075770E+02 -0.10402829603E+01  0.12738020205E+03  0.25500000920E-02 0. -1.
       -2    1    3    3    0  502 -0.99586158269E+02 -0.79418075770E+02  0.82963174884E+03  0.83935300820E+03  0.25500000920E-02 0.  1.
</event>
<event>
 5   0  0.7881060E-02  0.5005035E+03  0.7818609E-02  0.1013648E+00
        2   -1    0    0  501    0  0.00000000000E+00  0.00000000000E+00  0.32649459288E+03  0.32649459289E+03  0.25500000920E-02 0.  1.
       -2   -1    0    0    0  501  0.00000000000E+00  0.00000000000E+00 -0.19181306538E+03  0.19181306540E+03  0.25500000920E-02 0. -1.
    10030    2    1    2    0    0  0.00000000000E+00  0.00000000000E+00  0.13468152750E+03  0.51830765830E+03  0.50050346133E+03 0.  0.
        1    1    3    3  502    0  0.23109298854E+03 -0.54397561919E+02  0.14929417795E+03  0.28044931038E+03  0.50400001928E-02 0.  1.
       -1    1    3    3    0  502 -0.23109298854E+03  0.54397561919E+02 -0.14612650448E+02  0.23785834792E+03  0.50400001928E-02 0. -1.
</event>
<event>
 5   0  0.7776070E-02  0.5008783E+03  0.7818609E-02  0.1013550E+00
        2   -1    0    0  501    0  0.00000000000E+00  0.00000000000E+00  0.91064393090E+03  0.91064393091E+03  0.25500000920E-02 0. -1.
       -2   -1    0    0    0  501  0.00000000000E+00  0.00000000000E+00 -0.68874090888E+02  0.68874090935E+02  0.25500000920E-02 0.  1.
    10030    2    1    2    0    0  0.00000000000E+00  0.00000000000E+00  0.84176984002E+03  0.97951802184E+03  0.50087832011E+03 0.  0.
        4    1    3    3  502    0  0.11256458484E+02  0.21648291068E+03  0.66612849480E+03  0.70051434172E+03  0.12699999809E+01 0. -1.
       -4    1    3    3    0  502 -0.11256458484E+02 -0.21648291068E+03  0.17564134522E+03  0.27900368012E+03  0.12699999809E+01 0.  1.
</event>
<event>
 5   0  0.4803890E-02  0.4992019E+03  0.7818609E-02  0.1013987E+00
       -1   -1    0    0    0  501  0.00000000000E+00  0.00000000000E+00  0.56316288927E+03  0.56316288930E+03  0.50400001928E-02 0. -1.
        1   -1    0    0  501    0  0.00000000000E+00  0.00000000000E+00 -0.11062631358E+03  0.11062631369E+03  0.50400001928E-02 0.  1.
    10030    2    1    2    0    0  0.00000000000E+00  0.00000000000E+00  0.45253657569E+03  0.67378920299E+03  0.49920190076E+03 0.  0.
        5    1    3    3  502    0 -0.70225345363E+02 -0.19763310790E+02 -0.95852622885E+02  0.12054875734E+03  0.46999998093E+01 0.  1.
       -5    1    3    3    0  502  0.70225345363E+02  0.19763310790E+02  0.54838919858E+03  0.55324044565E+03  0.46999998093E+01 0. -1.
</event>
<event>
 5   0  0.4865501E-02  0.5006822E+03  0.7818609E-02  0.1013601E+00
       -1   -1    0    0    0  501  0.00000000000E+00  0.00000000000E+00  0.75610809071E+03  0.75610809073E+03  0.50400001928E-02 0. -1.
        1   -1    0    0  501    0  0.00000000000E+00  0.00000000000E+00 -0.82885851719E+02  0.82885851872E+02  0.50400001928E-02 0.  1.
    10030    2    1    2    0    0  0.00000000000E+00  0.00000000000E+00  0.67322223899E+03  0.83899394260E+03  0.50068218727E+03 0.  0.
        2    1    3    3  502    0 -0.86445311660E+02  0.79002785381E+02 -0.34156296250E+02  0.12198723124E+03  0.25500000920E-02 0.  1.
       -2    1    3    3    0  502  0.86445311660E+02 -0.79002785381E+02  0.70737853524E+03  0.71700671136E+03  0.25500000920E-02 0. -1.
</event>
<event>
 5   0  0.4803890E-02  0.4994147E+03  0.7818609E-02  0.1013932E+00
       -1   -1    0    0    0  501  0.00000000000E+00  0.00000000000E+00  0.94907975849E+02  0.94907975983E+02  0.50400001928E-02 0.  1.
        1   -1    0    0  501    0  0.00000000000E+00  0.00000000000E+00 -0.65699187616E+03  0.65699187618E+03  0.50400001928E-02 0. -1.
    10030    2    1    2    0    0  0.00000000000E+00  0.00000000000E+00 -0.56208390032E+03  0.75189985217E+03  0.49941473416E+03 0.  0.
        5    1    3    3  502    0  0.56249368563E+02 -0.19532053810E+03 -0.49930989154E+03  0.53911646409E+03  0.46999998093E+01 0. -1.
       -5    1    3    3    0  502 -0.56249368563E+02  0.19532053810E+03 -0.62774008776E+02  0.21278338808E+03  0.46999998093E+01 0.  1.
</event>
<event>
 5   0  0.8208720E-02  0.4964716E+03  0.7818609E-02  0.1014704E+00
       -2   -1    0    0    0  501  0.00000000000E+00  0.00000000000E+00  0.73854018239E+02  0.73854018283E+02  0.25500000920E-02 0. -1.
        2   -1    0    0  501    0  0.00000000000E+00  0.00000000000E+00 -0.83436240386E+03  0.83436240386E+03  0.25500000920E-02 0.  1.
    10030    2    1    2    0    0  0.00000000000E+00  0.00000000000E+00 -0.76050838562E+03  0.90821642214E+03  0.49647161536E+03 0.  0.
        3    1    3    3  502    0  0.24705090600E+03  0.21156214225E+02 -0.40184279004E+03  0.47218574065E+03  0.10100000352E+00 0. -1.
       -3    1    3    3    0  502 -0.24705090600E+03 -0.21156214225E+02 -0.35866559557E+03  0.43603068150E+03  0.10100000352E+00 0.  1.
</event>
<event>
 5   0  0.7698747E-02  0.5270103E+03  0.7818609E-02  0.1006960E+00
        2   -1    0    0  501    0  0.00000000000E+00  0.00000000000E+00  0.54653363674E+03  0.54653363675E+03  0.25500000920E-02 0.  1.
       -2   -1    0    0    0  501  0.00000000000E+00  0.00000000000E+00 -0.12704608396E+03  0.12704608399E+03  0.25500000920E-02 0. -1.
    10030    2    1    2    0    0  0.00000000000E+00  0.00000000000E+00  0.41948755278E+03  0.67357972074E+03  0.52701027813E+03 0.  0.
        2    1    3    3  502    0  0.14157339382E+03  0.63409938866E+02  0.48198859980E+03  0.50633670273E+03  0.25500000920E-02 0.  1.
       -2    1    3    3    0  502 -0.14157339382E+03 -0.63409938866E+02 -0.62501047025E+02  0.16724301801E+03  0.25500000920E-02 0. -1.
</event>
<event>
 5   0  0.7933103E-02  0.4917087E+03  0.7818609E-02  0.1015966E+00
       -2   -1    0    0    0  501  0.00000000000E+00  0.00000000000E+00  0.16679237670E+03  0.16679237672E+03  0.25500000920E-02 0.  1.
        2   -1    0    0  501    0  0.00000000000E+00  0.00000000000E+00 -0.36239278078E+03  0.36239278079E+03  0.25500000920E-02 0. -1.
    10030    2    1    2    0    0  0.00000000000E+00  0.00000000000E+00 -0.19560040408E+03  0.52918515751E+03  0.49170866665E+03 0.  0.
        5    1    3    3  502    0 -0.55558572971E+02 -0.26597020643E+02 -0.35390387816E+03  0.35925506470E+03  0.46999998093E+01 0.  1.
       -5    1    3    3    0  502  0.55558572971E+02  0.26597020643E+02  0.15830347408E+03  0.16993009281E+03  0.46999998093E+01 0. -1.
</event>
<event>
 5   0  0.3210875E-02  0.4969938E+03  0.7818609E-02  0.1014567E+00
        3   -1    0    0  501    0  0.00000000000E+00  0.00000000000E+00  0.94129214318E+02  0.94129268504E+02  0.10100000352E+00 0.  1.
       -3   -1    0    0    0  501  0.00000000000E+00  0.00000000000E+00 -0.65602050222E+03  0.65602051000E+03  0.10100000352E+00 0. -1.
    10030    2    1    2    0    0  0.00000000000E+00  0.00000000000E+00 -0.56189128790E+03  0.75014977850E+03  0.49699383373E+03 0.  0.
        5    1    3    3  502    0  0.20201581677E+03  0.11338742732E+03 -0.14542492727E+03  0.27356461461E+03  0.46999998093E+01 0.  1.
       -5    1    3    3    0  502 -0.20201581677E+03 -0.11338742732E+03 -0.41646636063E+03  0.47658516389E+03  0.46999998093E+01 0. -1.
</event>
<event>
 5   0  0.5191358E-02  0.4979950E+03  0.7818609E-02  0.1014304E+00
        1   -1    0    0  501    0  0.00000000000E+00  0.00000000000E+00  0.46568632422E+03  0.46568632424E+03  0.50400001928E-02 0. -1.
       -1   -1    0    0    0  501  0.00000000000E+00  0.00000000000E+00 -0.13313632170E+03  0.13313632179E+03  0.50400001928E-02 0.  1.
    10030    2    1    2    0    0  0.00000000000E+00  0.00000000000E+00  0.33255000252E+03  0.59882264604E+03  0.49799503736E+03 0.  0.
        4    1    3    3  502    0 -0.20755356580E+02 -0.39533311548E+01 -0.13205254794E+03  0.13373818442E+03  0.12699999809E+01 0.  1.
       -4    1    3    3    0  502  0.20755356580E+02  0.39533311548E+01  0.46460255046E+03  0.46508446162E+03  0.12699999809E+01 0. -1.
</event>
<event>
 5   0  0.5038436E-02  0.4996902E+03  0.7818609E-02  0.1013860E+00
       -1   -1    0    0    0  501  0.00000000000E+00  0.00000000000E+00  0.44177433317E+02  0.44177433604E+02  0.50400001928E-02 0. -1.
        1   -1    0    0  501    0  0.00000000000E+00  0.00000000000E+00 -0.14129968317E+04  0.14129968317E+04  0.50400001928E-02 0.  1.
    10030    2    1    2    0    0  0.00000000000E+00  0.00000000000E+00 -0.13688193984E+04  0.14571742653E+04  0.49969019812E+03 0.  0.
        1    1    3    3  502    0 -0.24173051397E+02 -0.24140211889E+03 -0.85848375884E+03  0.89210631857E+03  0.50400001928E-02 0.  1.
       -1    1    3    3    0  502  0.24173051397E+02  0.24140211889E+03 -0.51033563954E+03  0.56506794673E+03  0.50400001928E-02 0. -1.
</event>
<event>
 5   0  0.7698747E-02  0.5002149E+03  0.7818609E-02  0.1013723E+00
        2   -1    0    0  501    0  0.00000000000E+00  0.00000000000E+00  0.33590397868E+03  0.33590397869E+03  0.25500000920E-02 0.  1.
       -2   -1    0    0    0  501  0.00000000000E+00  0.00000000000E+00 -0.18622502233E+03  0.18622502235E+03  0.25500000920E-02 0. -1.
    10030    2    1    2    0    0  0.00000000000E+00  0.00000000000E+00  0.14967895635E+03  0.52212900104E+03  0.50021485759E+03 0.  0.
        2    1    3    3  502    0 -0.18274567761E+03  0.64857999909E+02 -0.90040074544E+02  0.21379840474E+03  0.25500000920E-02 0. -1.
       -2    1    3    3    0  502  0.18274567761E+03 -0.64857999909E+02  0.23971903089E+03  0.30833059630E+03  0.25500000920E-02 0.  1.
</event>
<event>
 5   0  0.4803890E-02  0.4955752E+03  0.7818609E-02  0.1014940E+00
        1   -1    0    0  501    0  0.00000000000E+00  0.00000000000E+00  0.29283055295E+03  0.29283055299E+03  0.50400001928E-02 0.  1.
       -1   -1    0    0    0  501  0.00000000000E+00  0.00000000000E+00 -0.20967311139E+03  0.20967311145E+03  0.50400001928E-02 0. -1.
    10030    2    1    2    0    0  0.00000000000E+00  0.00000000000E+00  0.83157441563E+02  0.50250366444E+03  0.49557519378E+03 0.  0.
        5    1    3    3  502    0 -0.15353788473E+03  0.21060049356E+01  0.23871462368E+03  0.28387511138E+03  0.46999998093E+01 0.  1.
       -5    1    3    3    0  502  0.15353788473E+03 -0.21060049356E+01 -0.15555718212E+03  0.21862855306E+03  0.46999998093E+01 0. -1.
</event>
<event>
 5   0  0.5191358E-02  0.5002360E+03  0.7818609E-02  0.1013717E+00
        1   -1    0    0  501    0  0.00000000000E+00  0.00000000000E+00  0.20498205074E+03  0.20498205080E+03  0.50400001928E-02 0.  1.
       -1   -1    0    0    0  501  0.00000000000E+00  0.00000000000E+00 -0.30519268733E+03  0.30519268737E+03  0.50400001928E-02 0. -1.
    10030    2    1    2    0    0  0.00000000000E+00  0.00000000000E+00 -0.10021063658E+03  0.51017473817E+03  0.50023603607E+03 0.  0.
        4    1    3    3  502    0 -0.82544879524E+02  0.10658892591E+03 -0.26496262132E+03  0.29729053106E+03  0.12699999809E+01 0. -1.
       -4    1    3    3    0  502  0.82544879524E+02 -0.10658892591E+03  0.16475198473E+03  0.21288420711E+03  0.12699999809E+01 0.  1.
</event>
<event>
 5   0  0.7776070E-02  0.5025385E+03  0.7818609E-02  0.1013118E+00
       -2   -1    0    0    0  501  0.00000000000E+00  0.00000000000E+00  0.57162280607E+02  0.57162280664E+02  0.25500000920E-02 0. -1.
        2   -1    0    0  501    0  0.00000000000E+00  0.00000000000E+00 -0.11045086045E+04  0.11045086045E+04  0.25500000920E-02 0.  1.
    10030    2    1    2    0    0  0.00000000000E+00  0.00000000000E+00 -0.10473463239E+04  0.11616708852E+04  0.50253847939E+03 0.  0.
        4    1    3    3  502    0  0.68258199834E+02 -0.48767676650E+02 -0.10711732350E+04  0.10744538987E+04  0.12699999809E+01 0.  1.
       -4    1    3    3    0  502 -0.68258199834E+02  0.48767676650E+02  0.23826911137E+02  0.87216986446E+02  0.12699999809E+01 0. -1.
</event>
<event>
 5   0  0.4803890E-02  0.5025180E+03  0.7818609E-02  0.1013124E+00
       -1   -1    0    0    0  501  0.00000000000E+00  0.00000000000E+00  0.18922689535E+03  0.18922689542E+03  0.50400001928E-02 0. -1.
        1   -1    0    0  501    0  0.00000000000E+00  0.00000000000E+00 -0.33362639008E+03  0.33362639012E+03  0.50400001928E-02 0.  1.
    10030    2    1    2    0    0  0.00000000000E+00  0.00000000000E+00 -0.14439949473E+03  0.52285328553E+03  0.50251800377E+03 0.  0.
        5    1    3    3  502    0  0.10512989681E+03  0.18665463331E+03  0.64322612168E+02  0.22372245255E+03  0.46999998093E+01 0. -1.
       -5    1    3    3    0  502 -0.10512989681E+03 -0.18665463331E+03 -0.20872210690E+03  0.29913083299E+03  0.46999998093E+01 0.  1.
</event>
<event>
 5   0  0.8208720E-02  0.5069928E+03  0.7818609E-02  0.1011970E+00
       -2   -1    0    0    0  501  0.00000000000E+00  0.00000000000E+00  0.12727930612E+03  0.12727930614E+03  0.25500000920E-02 0. -1.
        2   -1    0    0  501    0  0.00000000000E+00  0.00000000000E+00 -0.50487727741E+03  0.50487727742E+03  0.25500000920E-02 0.  1.
    10030    2    1    2    0    0  0.00000000000E+00  0.00000000000E+00 -0.37759797130E+03  0.63215658356E+03  0.50699281870E+03 0.  0.
        3    1    3    3  502    0 -0.16470847446E+03 -0.10901121339E+03 -0.38692301384E+03  0.43442117241E+03  0.10100000352E+00 0.  1.
       -3    1    3    3    0  502  0.16470847446E+03  0.10901121339E+03  0.93250425423E+01  0.19773541115E+03  0.10100000352E+00 0. -1.
</event>
<event>
 5   0  0.7881060E-02  0.5031143E+03  0.7818609E-02  0.1012969E+00
        2   -1    0    0  501    0  0.00000000000E+00  0.00000000000E+00  0.52651535092E+03  0.52651535092E+03  0.25500000920E-02 0. -1.
       -2   -1    0    0    0  501  0.00000000000E+00  0.00000000000E+00 -0.12018830487E+03  0.12018830490E+03  0.25500000920E-02 0.  1.
    10030    2    1    2    0    0  0.00000000000E+00  0.00000000000E+00  0.40632704605E+03  0.64670365582E+03  0.50311425154E+03 0.  0.
        1    1    3    3  502    0 -0.12532778203E+03 -0.20029411486E+03  0.92170026693E+02  0.25361407540E+03  0.50400001928E-02 0.  1.
       -1    1    3    3    0  502  0.12532778203E+03  0.20029411486E+03  0.31415701935E+03  0.39308958041E+03  0.50400001928E-02 0. -1.
</event>
<event>
 5   0  0.5038436E-02  0.5000902E+03  0.7818609E-02  0.1013755E+00
       -1   -1    0    0    0  501  0.00000000000E+00  0.00000000000E+00  0.14081775302E+03  0.14081775311E+03  0.50400001928E-02 0. -1.
        1   -1    0    0  501    0  0.00000000000E+00  0.00000000000E+00 -0.44399621824E+03  0.44399621827E+03  0.50400001928E-02 0.  1.
    10030    2    1    2    0    0  0.00000000000E+00  0.00000000000E+00 -0.30317846522E+03  0.58481397138E+03  0.50009019121E+03 0.  0.
        1    1    3    3  502    0  0.84426567747E+02 -0.23082437745E+03 -0.97811163048E+02  0.26452743186E+03  0.50400001928E-02 0. -1.
       -1    1    3    3    0  502 -0.84426567747E+02  0.23082437745E+03 -0.20536730218E+03  0.32028653952E+03  0.50400001928E-02 0.  1.
</event>
<event>
 5   0  0.3210875E-02  0.4978593E+03  0.7818609E-02  0.1014339E+00
       -3   -1    0    0    0  501  0.00000000000E+00  0.00000000000E+00  0.24161131912E+03  0.24161134023E+03  0.10100000352E+00 0. -1.
        3   -1    0    0  501    0  0.00000000000E+00  0.00000000000E+00 -0.25646960372E+03  0.25646962361E+03  0.10100000352E+00 0.  1.
    10030    2    1    2    0    0  0.00000000000E+00  0.00000000000E+00 -0.14858284598E+02  0.49808096384E+03  0.49785929530E+03 0.  0.
        4    1    3    3  502    0  0.48439482504E+01  0.73878549829E+02  0.23033788873E+03  0.24194763864E+03  0.12699999809E+01 0. -1.
       -4    1    3    3    0  502 -0.48439482504E+01 -0.73878549829E+02 -0.24519617333E+03  0.25613332520E+03  0.12699999809E+01 0.  1.
</event>
<event>
 5   0  0.4865501E-02  0.5006031E+03  0.7818609E-02  0.1013622E+00
       -1   -1    0    0    0  501  0.00000000000E+00  0.00000000000E+00  0.57684676270E+02  0.57684676490E+02  0.50400001928E-02 0. -1.
        1   -1    0    0  501    0  0.00000000000E+00  0.00000000000E+00 -0.10860918159E+04  0.10860918159E+04  0.50400001928E-02 0.  1.
    10030    2    1    2    0    0  0.00000000000E+00  0.00000000000E+00 -0.10284071397E+04  0.11437764924E+04  0.50060305606E+03 0.  0.
        2    1    3    3  502    0 -0.19061572382E+03 -0.84766813722E+02 -0.83022570656E+03  0.85603416445E+03  0.25500000920E-02 0.  1.
       -2    1    3    3    0  502  0.19061572382E+03  0.84766813722E+02 -0.19818143310E+03  0.28774232797E+03  0.25500000920E-02 0. -1.
</event>
<event>
 5   0  0.5191358E-02  0.5028172E+03  0.7818609E-02  0.1013046E+00
       -1   -1    0    0    0  501  0.00000000000E+00  0.00000000000E+00  0.34886728304E+03  0.34886728307E+03  0.50400001928E-02 0. -1.
        1   -1    0    0  501    0  0.00000000000E+00  0.00000000000E+00 -0.18117574876E+03  0.18117574883E+03  0.50400001928E-02 0.  1.
    10030    2    1    2    0    0  0.00000000000E+00  0.00000000000E+00  0.16769153428E+03  0.53004303190E+03  0.50281722822E+03 0.  0.
        4    1    3    3  502    0 -0.24922913873E+03  0.25145004237E+02  0.61304685191E+02  0.25789011644E+03  0.12699999809E+01 0.  1.
       -4    1    3    3    0  502  0.24922913873E+03 -0.25145004237E+02  0.10638684909E+03  0.27215291546E+03  0.12699999809E+01 0. -1.
</event>
<event>
 5   0  0.4865501E-02  0.5005973E+03  0.7818609E-02  0.1013623E+00
        1   -1    0    0  501    0  0.00000000000E+00  0.00000000000E+00  0.14181778681E+03  0.14181778690E+03  0.50400001928E-02 0. -1.
       -1   -1    0    0    0  501  0.00000000000E+00  0.00000000000E+00 -0.44175991209E+03  0.44175991212E+03  0.50400001928E-02 0.  1.
    10030    2    1    2    0    0  0.00000000000E+00  0.00000000000E+00 -0.29994212528E+03  0.58357769902E+03  0.50059729552E+03 0.  0.
        2    1    3    3  502    0 -0.17092298087E+03 -0.16913077247E+03 -0.68956591945E+02  0.25014974548E+03  0.25500000920E-02 0. -1.
       -2    1    3    3    0  502  0.17092298087E+03  0.16913077247E+03 -0.23098553333E+03  0.33342795354E+03  0.25500000920E-02 0.  1.
</event>
<event>
 5   0  0.5038436E-02  0.4985059E+03  0.7818609E-02  0.1014170E+00
        1   -1    0    0  501    0  0.00000000000E+00  0.00000000000E+00  0.50534600039E+03  0.50534600041E+03  0.50400001928E-02 0. -1.
       -1   -1    0    0    0  501  0.00000000000E+00  0.00000000000E+00 -0.12293958689E+03  0.12293958700E+03  0.50400001928E-02 0.  1.
    10030    2    1    2    0    0  0.00000000000E+00  0.00000000000E+00  0.38240641349E+03  0.62828558741E+03  0.49850588187E+03 0.  0.
        1    1    3    3  502    0 -0.22490092029E+03  0.93573543133E+02  0.12462450198E+03  0.27361962364E+03  0.50400001928E-02 0. -1.
       -1    1    3    3    0  502  0.22490092029E+03 -0.93573543133E+02  0.25778191151E+03  0.35466596376E+03  0.50400001928E-02 0.  1.
</event>
<event>
 5   0  0.7933103E-02  0.4992520E+03  0.7818609E-02  0.1013974E+00
        2   -1    0    0  501    0  0.00000000000E+00  0.00000000000E+00  0.88047157927E+03  0.88047157927E+03  0.25500000920E-02 0.  1.
       -2   -1    0    0    0  501  0.00000000000E+00  0.00000000000E+00 -0.70772464299E+02  0.70772464345E+02  0.25500000920E-02 0. -1.
    10030    2    1    2    0    0  0.00000000000E+00  0.00000000000E+00  0.80969911497E+03  0.95124404361E+03  0.49925201425E+03 0.  0.
        5    1    3    3  502    0 -0.75226906142E+02 -0.69191262764E+02 -0.28984474602E+02  0.10634240930E+03  0.46999998093E+01 0. -1.
       -5    1    3    3    0  502  0.75226906142E+02  0.69191262764E+02  0.83868358957E+03  0.84490163431E+03  0.46999998093E+01 0.  1.
</event>
<event>
 5   0  0.7698747E-02  0.4947884E+03  0.7818609E-02  0.1015148E+00
        2   -1    0    0  501    0  0.00000000000E+00  0.00000000000E+00  0.81111455757E+03  0.81111455758E+03  0.25500000920E-02 0. -1.
       -2   -1    0    0    0  501  0.00000000000E+00  0.00000000000E+00 -0.75456524472E+02  0.75456524515E+02  0.25500000920E-02 0.  1.
    10030    2    1    2    0    0  0.00000000000E+00  0.00000000000E+00  0.73565803310E+03  0.88657108209E+03  0.49478838096E+03 0.  0.
        2    1    3    3  502    0  0.11053857489E+03  0.74362185473E+02  0.74135069845E+03  0.75322597490E+03  0.25500000920E-02 0. -1.
       -2    1    3    3    0  502 -0.11053857489E+03 -0.74362185473E+02 -0.56926653489E+01  0.13334510719E+03  0.25500000920E-02 0.  1.
</event>
<event>
 5   0  0.4865501E-02  0.5030049E+03  0.7818609E-02  0.1012998E+00
        1   -1    0    0  501    0  0.00000000000E+00  0.00000000000E+00  0.87462758013E+03  0.87462758014E+03  0.50400001928E-02 0. -1.
       -1   -1    0    0    0  501  0.00000000000E+00  0.00000000000E+00 -0.72320483826E+02  0.72320484002E+02  0.50400001928E-02 0.  1.
    10030    2    1    2    0    0  0.00000000000E+00  0.00000000000E+00  0.80230709630E+03  0.94694806414E+03  0.50300492981E+03 0.  0.
        2    1    3    3  502    0 -0.17921104225E+03 -0.65592981317E+02  0.70954355203E+03  0.73475920484E+03  0.25500000920E-02 0. -1.
       -2    1    3    3    0  502  0.17921104225E+03  0.65592981317E+02  0.92763544269E+02  0.21218885930E+03  0.25500000920E-02 0.  1.
</event>
<event>
 5   0  0.5191358E-02  0.5088468E+03  0.7818609E-02  0.1011495E+00
       -1   -1    0    0    0  501  0.00000000000E+00  0.00000000000E+00  0.12440345622E+03  0.12440345632E+03  0.50400001928E-02 0. -1.
        1   -1    0    0  501    0  0.00000000000E+00  0.00000000000E+00 -0.52033343886E+03  0.52033343888E+03  0.50400001928E-02 0.  1.
    10030    2    1    2    0    0  0.00000000000E+00  0.00000000000E+00 -0.39592998264E+03  0.64473689520E+03  0.50884684619E+03 0.  0.
        4    1    3    3  502    0 -0.20271506061E+03 -0.13459659909E+03 -0.10382677612E+03  0.26455859960E+03  0.12699999809E+01 0. -1.
       -4    1    3    3    0  502  0.20271506061E+03  0.13459659909E+03 -0.29210320652E+03  0.38017829560E+03  0.12699999809E+01 0.  1.
</event>
<event>
 5   0  0.4884478E-02  0.5019584E+03  0.7818609E-02  0.1013269E+00
        1   -1    0    0  501    0  0.00000000000E+00  0.00000000000E+00  0.73295491553E+03  0.73295491555E+03  0.50400001928E-02 0.  1.
       -1   -1    0    0    0  501  0.00000000000E+00  0.00000000000E+00 -0.85940562413E+02  0.85940562560E+02  0.50400001928E-02 0. -1.
    10030    2    1    2    0    0  0.00000000000E+00  0.00000000000E+00  0.64701435312E+03  0.81889547811E+03  0.50195839561E+03 0.  0.
        3    1    3    3  502    0  0.48638009904E+02 -0.23517893011E+03  0.20456290550E+03  0.31546913903E+03  0.10100000352E+00 0. -1.
       -3    1    3    3    0  502 -0.48638009904E+02  0.23517893011E+03  0.44245144762E+03  0.50342633908E+03  0.10100000352E+00 0.  1.
</event>
<event>
 5   0  0.5038436E-02  0.5018234E+03  0.7818609E-02  0.1013304E+00
       -1   -1    0    0    0  501  0.00000000000E+00  0.00000000000E+00  0.72790954324E+02  0.72790954498E+02  0.50400001928E-02 0.  1.
        1   -1    0    0  501    0  0.00000000000E+00  0.00000000000E+00 -0.86489700668E+03  0.86489700670E+03  0.50400001928E-02 0. -1.
    10030    2    1    2    0    0  0.00000000000E+00  0.00000000000E+00 -0.79210605236E+03  0.93768796120E+03  0.50182338964E+03 0.  0.
        1    1    3    3  502    0 -0.14966375640E+03 -0.59829599792E+02 -0.36735572544E+02  0.16531280443E+03  0.50400001928E-02 0.  1.
       -1    1    3    3    0  502  0.14966375640E+03  0.59829599792E+02 -0.75537047982E+03  0.77237515677E+03  0.50400001928E-02 0. -1.
</event>
<event>
 5   0  0.3210875E-02  0.5001006E+03  0.7818609E-02  0.1013753E+00
        3   -1    0    0  501    0  0.00000000000E+00  0.00000000000E+00  0.12771454340E+03  0.12771458333E+03  0.10100000352E+00 0.  1.
       -3   -1    0    0    0  501  0.00000000000E+00  0.00000000000E+00 -0.48956938620E+03  0.48956939662E+03  0.10100000352E+00 0. -1.
    10030    2    1    2    0    0  0.00000000000E+00  0.00000000000E+00 -0.36185484281E+03  0.61728397995E+03  0.50010057453E+03 0.  0.
        3    1    3    3  502    0  0.15787389673E+03 -0.17729763405E+03 -0.27785506219E+03  0.36546143995E+03  0.10100000352E+00 0.  1.
       -3    1    3    3    0  502 -0.15787389673E+03  0.17729763405E+03 -0.83999780616E+02  0.25182254000E+03  0.10100000352E+00 0. -1.
</event>
<event>
 5   0  0.4865501E-02  0.5002311E+03  0.7818609E-02  0.1013719E+00
        1   -1    0    0  501    0  0.00000000000E+00  0.00000000000E+00  0.30213684598E+03  0.30213684602E+03  0.50400001928E-02 0.  1.
       -1   -1    0    0    0  501  0.00000000000E+00  0.00000000000E+00 -0.20705117413E+03  0.20705117419E+03  0.50400001928E-02 0. -1.
    10030    2    1    2    0    0  0.00000000000E+00  0.00000000000E+00  0.95085671855E+02  0.50918802021E+03  0.50023110152E+03 0.  0.
        2    1    3    3  502    0 -0.16216908735E+03  0.15884190418E+02  0.24069472335E+03  0.29066315599E+03  0.25500000920E-02 0.  1.
       -2    1    3    3    0  502  0.16216908735E+03 -0.15884190418E+02 -0.14560905150E+03  0.21852486422E+03  0.25500000920E-02 0. -1.
</event>
<event>
 5   0  0.5191358E-02  0.4698613E+03  0.7818609E-02  0.1021959E+00
        1   -1    0    0  501    0  0.00000000000E+00  0.00000000000E+00  0.14069850547E+04  0.14069850547E+04  0.50400001928E-02 0. -1.
       -1   -1    0    0    0  501  0.00000000000E+00  0.00000000000E+00 -0.39227435814E+02  0.39227436137E+02  0.50400001928E-02 0.  1.
    10030    2    1    2    0    0  0.00000000000E+00  0.00000000000E+00  0.13677576189E+04  0.14462124908E+04  0.46986132492E+03 0.  0.
        4    1    3    3  502    0  0.16521319342E+03  0.16535680156E+03  0.61152836707E+03  0.65468070670E+03  0.12699999809E+01 0. -1.
       -4    1    3    3    0  502 -0.16521319342E+03 -0.16535680156E+03  0.75622925179E+03  0.79153178412E+03  0.12699999809E+01 0.  1.
</event>
<event>
 5   0  0.4884478E-02  0.4994508E+03  0.7818609E-02  0.1013922E+00
        1   -1    0    0  501    0  0.00000000000E+00  0.00000000000E+00  0.35808457960E+02  0.35808458315E+02  0.50400001928E-02 0.  1.
       -1   -1    0    0    0  501  0.00000000000E+00  0.00000000000E+00 -0.17415655082E+04  0.17415655082E+04  0.50400001928E-02 0. -1.
    10030    2    1    2    0    0  0.00000000000E+00  0.00000000000E+00 -0.17057570502E+04  0.17773739665E+04  0.49945080081E+03 0.  0.
        3    1    3    3  502    0 -0.18031020505E+03  0.16072795256E+03 -0.10784401209E+04  0.11051598750E+04  0.10100000352E+00 0. -1.
       -3    1    3    3    0  502  0.18031020505E+03 -0.16072795256E+03 -0.62731692934E+03  0.67221409151E+03  0.10100000352E+00 0.  1.
</event>
<event>
 5   0  0.7698747E-02  0.4989913E+03  0.7818609E-02  0.1014043E+00
       -2   -1    0    0    0  501  0.00000000000E+00  0.00000000000E+00  0.80287498842E+02  0.80287498883E+02  0.25500000920E-02 0. -1.
        2   -1    0    0  501    0  0.00000000000E+00  0.00000000000E+00 -0.77531465661E+03  0.77531465661E+03  0.25500000920E-02 0.  1.
    10030    2    1    2    0    0  0.00000000000E+00  0.00000000000E+00 -0.69502715777E+03  0.85560215550E+03  0.49899128094E+03 0.  0.
        2    1    3    3  502    0 -0.42748744359E+02  0.16419867481E+03 -0.66115837223E+03  0.68258263465E+03  0.25500000920E-02 0.  1.
       -2    1    3    3    0  502  0.42748744359E+02 -0.16419867481E+03 -0.33868785535E+02  0.17301952084E+03  0.25500000920E-02 0. -1.
</event>
<event>
 5   0  0.4803890E-02  0.5031668E+03  0.7818609E-02  0.1012956E+00
       -1   -1    0    0    0  501  0.00000000000E+00  0.00000000000E+00  0.20318753143E+03  0.20318753149E+03  0.50400001928E-02 0. -1.
        1   -1    0    0  501    0  0.00000000000E+00  0.00000000000E+00 -0.31150629429E+03  0.31150629433E+03  0.50400001928E-02 0.  1.
    10030    2    1    2    0    0  0.00000000000E+00  0.00000000000E+00 -0.10831876286E+03  0.51469382582E+03  0.50316675163E+03 0.  0.
        5    1    3    3  502    0  0.32211327422E+02  0.11455648219E+03 -0.28084707768E+03  0.30505397598E+03  0.46999998093E+01 0.  1.
       -5    1    3    3    0  502 -0.32211327422E+02 -0.11455648219E+03  0.17252831482E+03  0.20963984983E+03  0.46999998093E+01 0. -1.
</event>
<event>
 5   0  0.7881060E-02  0.5027266E+03  0.7818609E-02  0.1013070E+00
        2   -1    0    0  501    0  0.00000000000E+00  0.00000000000E+00  0.31377848527E+03  0.31377848528E+03  0.25500000920E-02 0. -1.
       -2   -1    0    0    0  501  0.00000000000E+00  0.00000000000E+00 -0.20136340928E+03  0.20136340930E+03  0.25500000920E-02 0.  1.
    10030    2    1    2    0    0  0.00000000000E+00  0.00000000000E+00  0.11241507599E+03  0.51514189457E+03  0.50272658795E+03 0.  0.
        1    1    3    3  502    0  0.16634970417E+03 -0.12423112346E+02  0.24888565773E+03  0.29961747020E+03  0.50400001928E-02 0. -1.
       -1    1    3    3    0  502 -0.16634970417E+03  0.12423112346E+02 -0.13647058174E+03  0.21552442438E+03  0.50400001928E-02 0.  1.
</event>
<event>
 5   0  0.4884478E-02  0.5060020E+03  0.7818609E-02  0.1012224E+00
        1   -1    0    0  501    0  0.00000000000E+00  0.00000000000E+00  0.26857555591E+03  0.26857555596E+03  0.50400001928E-02 0. -1.
       -1   -1    0    0    0  501  0.00000000000E+00  0.00000000000E+00 -0.23832963505E+03  0.23832963510E+03  0.50400001928E-02 0.  1.
    10030    2    1    2    0    0  0.00000000000E+00  0.00000000000E+00  0.30245920866E+02  0.50690519106E+03  0.50600203260E+03 0.  0.
        3    1    3    3  502    0  0.22351169930E+03 -0.11648931427E+03 -0.68767463990E+01  0.25213992128E+03  0.10100000352E+00 0.  1.
       -3    1    3    3    0  502 -0.22351169930E+03  0.11648931427E+03  0.37122667265E+02  0.25476526978E+03  0.10100000352E+00 0. -1.
</event>
<event>
 5   0  0.7881060E-02  0.5016824E+03  0.7818609E-02  0.1013341E+00
        2   -1    0    0  501    0  0.00000000000E+00  0.00000000000E+00  0.72243384494E+03  0.72243384495E+03  0.25500000920E-02 0.  1.
       -2   -1    0    0    0  501  0.00000000000E+00  0.00000000000E+00 -0.87096292464E+02  0.87096292501E+02  0.25500000920E-02 0. -1.
    10030    2    1    2    0    0  0.00000000000E+00  0.00000000000E+00  0.63533755248E+03  0.80953013745E+03  0.50168240735E+03 0.  0.
        1    1    3    3  502    0  0.23241985876E+03  0.11378388046E+02  0.16653047876E+03  0.28614831616E+03  0.50400001928E-02 0. -1.
       -1    1    3    3    0  502 -0.23241985876E+03 -0.11378388046E+02  0.46880707372E+03  0.52338182129E+03  0.50400001928E-02 0.  1.
</event>
<event>
 5   0  0.5038436E-02  0.5046614E+03  0.7818609E-02  0.1012569E+00
        1   -1    0    0  501    0  0.00000000000E+00  0.00000000000E+00  0.47522469497E+03  0.47522469500E+03  0.50400001928E-02 0.  1.
       -1   -1    0    0    0  501  0.00000000000E+00  0.00000000000E+00 -0.13398036885E+03  0.13398036895E+03  0.50400001928E-02 0. -1.
    10030    2    1    2    0    0  0.00000000000E+00  0.00000000000E+00  0.34124432612E+03  0.60920506395E+03  0.50466139126E+03 0.  0.
        1    1    3    3  502    0 -0.42793641346E+02 -0.43859834316E+02 -0.12486192718E+03  0.13908803576E+03  0.50400001928E-02 0. -1.
       -1    1    3    3    0  502  0.42793641346E+02  0.43859834316E+02  0.46610625330E+03  0.47011702819E+03  0.50400001928E-02 0.  1.
</event>
<event>
 5   0  0.7933103E-02  0.4958476E+03  0.7818609E-02  0.1014868E+00
        2   -1    0    0  501    0  0.00000000000E+00  0.00000000000E+00  0.16185503130E+03  0.16185503132E+03  0.25500000920E-02 0.  1.
       -2   -1    0    0    0  501  0.00000000000E+00  0.00000000000E+00 -0.37976089485E+03  0.37976089486E+03  0.25500000920E-02 0. -1.
    10030    2    1    2    0    0  0.00000000000E+00  0.00000000000E+00 -0.21790586355E+03  0.54161592618E+03  0.49584760373E+03 0.  0.
        5    1    3    3  502    0  0.24235756076E+03 -0.16152141656E+02 -0.54930364986E+02  0.24907331036E+03  0.46999998093E+01 0. -1.
       -5    1    3    3    0  502 -0.24235756076E+03  0.16152141656E+02 -0.16297549857E+03  0.29254261582E+03  0.46999998093E+01 0.  1.
</event>
<event>
 5   0  0.4865501E-02  0.5012374E+03  0.7818609E-02  0.1013456E+00
        1   -1    0    0  501    0  0.00000000000E+00  0.00000000000E+00  0.50590119111E+03  0.50590119113E+03  0.50400001928E-02 0.  1.
       -1   -1    0    0    0  501  0.00000000000E+00  0.00000000000E+00 -0.12415416488E+03  0.12415416498E+03  0.50400001928E-02 0. -1.
    10030    2    1    2    0    0  0.00000000000E+00  0.00000000000E+00  0.38174702623E+03  0.63005535611E+03  0.50123742851E+03 0.  0.
        2    1    3    3  502    0 -0.47225819525E+02 -0.20857458204E+03  0.26614340536E+02  0.21550396152E+03  0.25500000920E-02 0. -1.
       -2    1    3    3    0  502  0.47225819525E+02  0.20857458204E+03  0.35513268569E+03  0.41455139459E+03  0.25500000920E-02 0.  1.
</event>
<event>
 5   0  0.8208720E-02  0.4981858E+03  0.7818609E-02  0.1014254E+00
        2   -1    0    0  501    0  0.00000000000E+00  0.00000000000E+00  0.24713766996E+03  0.24713766998E+03  0.25500000920E-02 0. -1.
       -2   -1    0    0    0  501  0.00000000000E+00  0.00000000000E+00 -0.25106355665E+03  0.25106355666E+03  0.25500000920E-02 0.  1.
    10030    2    1    2    0    0  0.00000000000E+00  0.00000000000E+00 -0.39258866866E+01  0.49820122664E+03  0.49818575816E+03 0.  0.
        3    1    3    3  502    0  0.14722567974E+03 -0.16873270380E+03 -0.11105861312E+03  0.24996030056E+03  0.10100000352E+00 0.  1.
       -3    1    3    3    0  502 -0.14722567974E+03  0.16873270380E+03  0.10713272643E+03  0.24824092608E+03  0.10100000352E+00 0. -1.
</event>
<event>
 5   0  0.7698747E-02  0.5050207E+03  0.7818609E-02  0.1012477E+00
        2   -1    0    0  501    0  0.00000000000E+00  0.00000000000E+00  0.84943435942E+03  0.84943435942E+03  0.25500000920E-02 0. -1.
       -2   -1    0    0    0  501  0.00000000000E+00  0.00000000000E+00 -0.75063457807E+02  0.75063457850E+02  0.25500000920E-02 0.  1.
    10030    2    1    2    0    0  0.00000000000E+00  0.00000000000E+00  0.77437090161E+03  0.92449781727E+03  0.50502071332E+03 0.  0.
        2    1    3    3  502    0 -0.14886798470E+03  0.72318055726E+02  0.73629985314E+03  0.75467148601E+03  0.25500000920E-02 0. -1.
       -2    1    3    3    0  502  0.14886798470E+03 -0.72318055726E+02  0.38071048468E+02  0.16982633126E+03  0.25500000920E-02 0.  1.
</event>
<event>
 5   0  0.3210875E-02  0.4983810E+03  0.7818609E-02  0.1014202E+00
        4   -1    0    0  501    0  0.00000000000E+00  0.00000000000E+00  0.34224044843E+03  0.34224280481E+03  0.12699999809E+01 0.  1.
       -4   -1    0    0    0  501  0.00000000000E+00  0.00000000000E+00 -0.18143419981E+03  0.18143864462E+03  0.12699999809E+01 0. -1.
    10030    2    1    2    0    0  0.00000000000E+00  0.00000000000E+00  0.16080624862E+03  0.52368144943E+03  0.49838098968E+03 0.  0.
        4    1    3    3  502    0 -0.12948511489E+03 -0.21260492129E+03  0.68559629714E+02  0.25820395671E+03  0.12699999809E+01 0. -1.
       -4    1    3    3    0  502  0.12948511489E+03  0.21260492129E+03  0.92246618906E+02  0.26547749271E+03  0.12699999809E+01 0.  1.
</event>
<event>
 5   0  0.7933103E-02  0.4930795E+03  0.7818609E-02  0.1015601E+00
       -2   -1    0    0    0  501  0.00000000000E+00  0.00000000000E+00  0.62760949715E+02  0.62760949767E+02  0.25500000920E-02 0. -1.
        2   -1    0    0  501    0  0.00000000000E+00  0.00000000000E+00 -0.96846600082E+03  0.96846600083E+03  0.25500000920E-02 0.  1.
    10030    2    1    2    0    0  0.00000000000E+00  0.00000000000E+00 -0.90570505111E+03  0.10312269506E+04  0.49307949058E+03 0.  0.
        5    1    3    3  502    0  0.20183130367E+03  0.77496489605E+02 -0.70047100597E+03  0.73309160494E+03  0.46999998093E+01 0.  1.
       -5    1    3    3    0  502 -0.20183130367E+03 -0.77496489605E+02 -0.20523404514E+03  0.29813534565E+03  0.46999998093E+01 0. -1.
</event>
<event>
 5   0  0.7933103E-02  0.5051019E+03  0.7818609E-02  0.1012456E+00
        2   -1    0    0  501    0  0.00000000000E+00  0.00000000000E+00  0.30758278127E+03  0.30758278128E+03  0.25500000920E-02 0. -1.
       -2   -1    0    0    0  501  0.00000000000E+00  0.00000000000E+00 -0.20736528353E+03  0.20736528355E+03  0.25500000920E-02 0.  1.
    10030    2    1    2    0    0  0.00000000000E+00  0.00000000000E+00  0.10021749774E+03  0.51494806483E+03  0.50510193290E+03 0.  0.
        5    1    3    3  502    0 -0.69631380372E+02  0.49327947983E+01  0.29750565197E+03  0.30562160354E+03  0.46999998093E+01 0. -1.
       -5    1    3    3    0  502  0.69631380372E+02 -0.49327947983E+01 -0.19728815423E+03  0.20932646129E+03  0.46999998093E+01 0.  1.
</event>
<event>
 5   0  0.8208720E-02  0.4981075E+03  0.7818609E-02  0.1014274E+00
        2   -1    0    0  501    0  0.00000000000E+00  0.00000000000E+00  0.86076028457E+02  0.86076028495E+02  0.25500000920E-02 0. -1.
       -2   -1    0    0    0  501  0.00000000000E+00  0.00000000000E+00 -0.72061602173E+03  0.72061602174E+03  0.25500000920E-02 0.  1.
    10030    2    1    2    0    0  0.00000000000E+00  0.00000000000E+00 -0.63453999327E+03  0.80669205023E+03  0.49810747921E+03 0.  0.
        3    1    3    3  502    0 -0.35874610845E+02  0.78203268369E+02 -0.69578273817E+03  0.70108228321E+03  0.10100000352E+00 0.  1.
       -3    1    3    3    0  502  0.35874610845E+02 -0.78203268369E+02  0.61242744899E+02  0.10560976702E+03  0.10100000352E+00 0. -1.
</event>
<event>
 5   0  0.7881060E-02  0.4967222E+03  0.7818609E-02  0.1014638E+00
       -2   -1    0    0    0  501  0.00000000000E+00  0.00000000000E+00  0.12333278655E+03  0.12333278658E+03  0.25500000920E-02 0. -1.
        2   -1    0    0  501    0  0.00000000000E+00  0.00000000000E+00 -0.50013646629E+03  0.50013646629E+03  0.25500000920E-02 0.  1.
    10030    2    1    2    0    0  0.00000000000E+00  0.00000000000E+00 -0.37680367973E+03  0.62346925287E+03  0.49672215193E+03 0.  0.
        1    1    3    3  502    0  0.23975570876E+03 -0.21601222638E+02 -0.26509871972E+03  0.35808762046E+03  0.50400001928E-02 0. -1.
       -1    1    3    3    0  502 -0.23975570876E+03  0.21601222638E+02 -0.11170496002E+03  0.26538163241E+03  0.50400001928E-02 0.  1.
</event>
<event>
 5   0  0.4803890E-02  0.5051658E+03  0.7818609E-02  0.1012439E+00
       -1   -1    0    0    0  501  0.00000000000E+00  0.00000000000E+00  0.21460537802E+03  0.21460537808E+03  0.50400001928E-02 0.  1.
        1   -1    0    0  501    0  0.00000000000E+00  0.00000000000E+00 -0.29728112803E+03  0.29728112807E+03  0.50400001928E-02 0. -1.
    10030    2    1    2    0    0  0.00000000000E+00  0.00000000000E+00 -0.82675750006E+02  0.51188650615E+03  0.50516582974E+03 0.  0.
        5    1    3    3  502    0 -0.15516682048E+03 -0.63035749606E+02  0.15018940511E+03  0.22500932272E+03  0.46999998093E+01 0.  1.
       -5    1    3    3    0  502  0.15516682048E+03  0.63035749606E+02 -0.23286515511E+03  0.28687718343E+03  0.46999998093E+01 0. -1.
</event>
<event>
 5   0  0.5038436E-02  0.4967193E+03  0.7818609E-02  0.1014639E+00
        1   -1    0    0  501    0  0.00000000000E+00  0.00000000000E+00  0.40344619060E+03  0.40344619063E+03  0.50400001928E-02 0. -1.
       -1   -1    0    0    0  501  0.00000000000E+00  0.00000000000E+00 -0.15288908626E+03  0.15288908634E+03  0.50400001928E-02 0.  1.
    10030    2    1    2    0    0  0.00000000000E+00  0.00000000000E+00  0.25055710434E+03  0.55633527698E+03  0.49671931498E+03 0.  0.
        1    1    3    3  502    0  0.19890650256E+03  0.14822604436E+03  0.11166386719E+03  0.27203598337E+03  0.50400001928E-02 0. -1.
       -1    1    3    3    0  502 -0.19890650256E+03 -0.14822604436E+03  0.13889323715E+03  0.28429929360E+03  0.50400001928E-02 0.  1.
</event>
<event>
 5   0  0.3210875E-02  0.5011669E+03  0.7818609E-02  0.1013475E+00
       -3   -1    0    0    0  501  0.00000000000E+00  0.00000000000E+00  0.48743655336E+02  0.48743759976E+02  0.10100000352E+00 0. -1.
        3   -1    0    0  501    0  0.00000000000E+00  0.00000000000E+00 -0.12882085186E+04  0.12882085226E+04  0.10100000352E+00 0.  1.
    10030    2    1    2    0    0  0.00000000000E+00  0.00000000000E+00 -0.12394648633E+04  0.13369522825E+04  0.50116689686E+03 0.  0.
        2    1    3    3  502    0 -0.11237291766E+02  0.23677367430E+03 -0.83652158887E+03  0.86945754251E+03  0.25500000920E-02 0.  1.
       -2    1    3    3    0  502  0.11237291766E+02 -0.23677367430E+03 -0.40294327440E+03  0.46749474003E+03  0.25500000920E-02 0. -1.
</event>
<event>
 5   0  0.7698747E-02  0.5064669E+03  0.7818609E-02  0.1012105E+00
        2   -1    0    0  501    0  0.00000000000E+00  0.00000000000E+00  0.15500765496E+04  0.15500765496E+04  0.25500000920E-02 0.  1.
       -2   -1    0    0    0  501  0.00000000000E+00  0.00000000000E+00 -0.41370333119E+02  0.41370333198E+02  0.25500000920E-02 0. -1.
    10030    2    1    2    0    0  0.00000000000E+00  0.00000000000E+00  0.15087062165E+04  0.15914468828E+04  0.50646691217E+03 0.  0.
        2    1    3    3  502    0  0.14867939295E+03 -0.20136930733E+03  0.63379444209E+03  0.68143272203E+03  0.25500000920E-02 0. -1.
       -2    1    3    3    0  502 -0.14867939295E+03  0.20136930733E+03  0.87491177440E+03  0.91001416078E+03  0.25500000920E-02 0.  1.
</event>
<event>
 5   0  0.3210875E-02  0.5144079E+03  0.7818609E-02  0.1010085E+00
        4   -1    0    0  501    0  0.00000000000E+00  0.00000000000E+00  0.33443079168E+03  0.33443320308E+03  0.12699999809E+01 0. -1.
       -4   -1    0    0    0  501  0.00000000000E+00  0.00000000000E+00 -0.19780516553E+03  0.19780924248E+03  0.12699999809E+01 0.  1.
    10030    2    1    2    0    0  0.00000000000E+00  0.00000000000E+00  0.13662562614E+03  0.53224244556E+03  0.51440787235E+03 0.  0.
        5    1    3    3  502    0  0.15080991167E+03 -0.20523186857E+03  0.31468888465E+02  0.25666345723E+03  0.46999998093E+01 0.  1.
       -5    1    3    3    0  502 -0.15080991167E+03  0.20523186857E+03  0.10515673767E+03  0.27557898834E+03  0.46999998093E+01 0. -1.
</event>
<event>
 5   0  0.7881060E-02  0.4962103E+03  0.7818609E-02  0.1014773E+00
       -2   -1    0    0    0  501  0.00000000000E+00  0.00000000000E+00  0.27690465019E+03  0.27690465020E+03  0.25500000920E-02 0.  1.
        2   -1    0    0  501    0  0.00000000000E+00  0.00000000000E+00 -0.22230097307E+03  0.22230097309E+03  0.25500000920E-02 0. -1.
    10030    2    1    2    0    0  0.00000000000E+00  0.00000000000E+00  0.54603677120E+02  0.49920562329E+03  0.49621033118E+03 0.  0.
        1    1    3    3  502    0  0.15456723965E+03  0.12750971839E+03 -0.11989064051E+03  0.23350273139E+03  0.50400001928E-02 0. -1.
       -1    1    3    3    0  502 -0.15456723965E+03 -0.12750971839E+03  0.17449431763E+03  0.26570289191E+03  0.50400001928E-02 0.  1.
</event>
<event>
 5   0  0.7933103E-02  0.5052986E+03  0.7818609E-02  0.1012405E+00
       -2   -1    0    0    0  501  0.00000000000E+00  0.00000000000E+00  0.84381572680E+02  0.84381572718E+02  0.25500000920E-02 0. -1.
        2   -1    0    0  501    0  0.00000000000E+00  0.00000000000E+00 -0.75646458485E+03  0.75646458485E+03  0.25500000920E-02 0.  1.
    10030    2    1    2    0    0  0.00000000000E+00  0.00000000000E+00 -0.67208301217E+03  0.84084615757E+03  0.50529861019E+03 0.  0.
        5    1    3    3  502    0 -0.37166252559E+02 -0.20405209857E+02  0.78345266174E+02  0.89206354306E+02  0.46999998093E+01 0. -1.
       -5    1    3    3    0  502  0.37166252559E+02  0.20405209857E+02 -0.75042827834E+03  0.75163980327E+03  0.46999998093E+01 0.  1.
</event>
<event>
 5   0  0.3210875E-02  0.4970516E+03  0.7818609E-02  0.1014551E+00
        3   -1    0    0  501    0  0.00000000000E+00  0.00000000000E+00  0.29078729692E+03  0.29078731446E+03  0.10100000352E+00 0.  1.
       -3   -1    0    0    0  501  0.00000000000E+00  0.00000000000E+00 -0.21240634348E+03  0.21240636749E+03  0.10100000352E+00 0. -1.
    10030    2    1    2    0    0  0.00000000000E+00  0.00000000000E+00  0.78380953438E+02  0.50319368195E+03  0.49705161472E+03 0.  0.
        4    1    3    3  502    0 -0.20151174602E+03 -0.12633955910E+03 -0.33775086841E+02  0.24023121648E+03  0.12699999809E+01 0. -1.
       -4    1    3    3    0  502  0.20151174602E+03  0.12633955910E+03  0.11215604028E+03  0.26296246548E+03  0.12699999809E+01 0.  1.
</event>
<event>
 5   0  0.4884478E-02  0.4975613E+03  0.7818609E-02  0.1014417E+00
        1   -1    0    0  501    0  0.00000000000E+00  0.00000000000E+00  0.33320894808E+03  0.33320894812E+03  0.50400001928E-02 0. -1.
       -1   -1    0    0    0  501  0.00000000000E+00  0.00000000000E+00 -0.18574473662E+03  0.18574473669E+03  0.50400001928E-02 0.  1.
    10030    2    1    2    0    0  0.00000000000E+00  0.00000000000E+00  0.14746421146E+03  0.51895368481E+03  0.49756128599E+03 0.  0.
        3    1    3    3  502    0  0.15688780740E+02  0.17070309567E+03  0.26177829699E+03  0.31291144384E+03  0.10100000352E+00 0. -1.
       -3    1    3    3    0  502 -0.15688780740E+02 -0.17070309567E+03 -0.11431408552E+03  0.20604224097E+03  0.10100000352E+00 0.  1.
</event>
<event>
 5   0  0.4803890E-02  0.5013835E+03  0.7818609E-02  0.1013418E+00
       -1   -1    0    0    0  501  0.00000000000E+00  0.00000000000E+00  0.43399313620E+02  0.43399313913E+02  0.50400001928E-02 0.  1.
        1   -1    0    0  501    0  0.00000000000E+00  0.00000000000E+00 -0.14480954715E+04  0.14480954715E+04  0.50400001928E-02 0. -1.
    10030    2    1    2    0    0  0.00000000000E+00  0.00000000000E+00 -0.14046961579E+04  0.14914947854E+04  0.50138348495E+03 0.  0.
        5    1    3    3  502    0  0.65878024724E+01 -0.23000404730E+03 -0.40667745234E+03  0.46728353401E+03  0.46999998093E+01 0.  1.
       -5    1    3    3    0  502 -0.65878024724E+01  0.23000404730E+03 -0.99801870553E+03  0.10242112514E+04  0.46999998093E+01 0. -1.
</event>
<event>
 5   0  0.7881060E-02  0.5010293E+03  0.7818609E-02  0.1013511E+00
       -2   -1    0    0    0  501  0.00000000000E+00  0.00000000000E+00  0.33857489943E+03  0.33857489944E+03  0.25500000920E-02 0. -1.
        2   -1    0    0  501    0  0.00000000000E+00  0.00000000000E+00 -0.18535807990E+03  0.18535807992E+03  0.25500000920E-02 0.  1.
    10030    2    1    2    0    0  0.00000000000E+00  0.00000000000E+00  0.15321681953E+03  0.52393297936E+03  0.50102931359E+03 0.  0.
        1    1    3    3  502    0 -0.15437402319E+03 -0.10758821090E+03 -0.96333182052E+02  0.21139215726E+03  0.50400001928E-02 0.  1.
       -1    1    3    3    0  502  0.15437402319E+03  0.10758821090E+03  0.24955000159E+03  0.31254082210E+03  0.50400001928E-02 0. -1.
</event>
<event>
 5   0  0.7776070E-02  0.5056950E+03  0.7818609E-02  0.1012303E+00
        2   -1    0    0  501    0  0.00000000000E+00  0.00000000000E+00  0.15239779112E+03  0.15239779115E+03  0.25500000920E-02 0.  1.
       -2   -1    0    0    0  501  0.00000000000E+00  0.00000000000E+00 -0.41950647811E+03  0.41950647812E+03  0.25500000920E-02 0. -1.
    10030    2    1    2    0    0  0.00000000000E+00  0.00000000000E+00 -0.26710868699E+03  0.57190426926E+03  0.50569500941E+03 0.  0.
        4    1    3    3  502    0 -0.34284994404E+02  0.18622982203E+03 -0.32304200768E+03  0.37445261260E+03  0.12699999809E+01 0. -1.
       -4    1    3    3    0  502  0.34284994404E+02 -0.18622982203E+03  0.55933320697E+02  0.19745165666E+03  0.12699999809E+01 0.  1.
</event>
<event>
 5   0  0.3210875E-02  0.5015825E+03  0.7818609E-02  0.1013367E+00
       -4   -1    0    0    0  501  0.00000000000E+00  0.00000000000E+00  0.19522710756E+03  0.19523123834E+03  0.12699999809E+01 0.  1.
        4   -1    0    0  501    0  0.00000000000E+00  0.00000000000E+00 -0.32216083214E+03  0.32216333539E+03  0.12699999809E+01 0. -1.
    10030    2    1    2    0    0  0.00000000000E+00  0.00000000000E+00 -0.12693372459E+03  0.51739457373E+03  0.50158247028E+03 0.  0.
        4    1    3    3  502    0 -0.10765365730E+03  0.15437356212E+03 -0.23444534059E+03  0.30064387111E+03  0.12699999809E+01 0. -1.
       -4    1    3    3    0  502  0.10765365730E+03 -0.15437356212E+03  0.10751161600E+03  0.21675070262E+03  0.12699999809E+01 0.  1.
</event>
<event>
 5   0  0.4865501E-02  0.5053820E+03  0.7818609E-02  0.1012384E+00
        1   -1    0    0  501    0  0.00000000000E+00  0.00000000000E+00  0.37564742630E+03  0.37564742633E+03  0.50400001928E-02 0.  1.
       -1   -1    0    0    0  501  0.00000000000E+00  0.00000000000E+00 -0.16998050375E+03  0.16998050382E+03  0.50400001928E-02 0. -1.
    10030    2    1    2    0    0  0.00000000000E+00  0.00000000000E+00  0.20566692255E+03  0.54562793015E+03  0.50538198933E+03 0.  0.
        2    1    3    3  502    0 -0.59857091325E+02 -0.20454453443E+03 -0.43740223088E+02  0.21756503642E+03  0.25500000920E-02 0. -1.
       -2    1    3    3    0  502  0.59857091325E+02  0.20454453443E+03  0.24940714564E+03  0.32806289374E+03  0.25500000920E-02 0.  1.
</event>
<event>
 5   0  0.8208720E-02  0.4957810E+03  0.7818609E-02  0.1014886E+00
        2   -1    0    0  501    0  0.00000000000E+00  0.00000000000E+00  0.28117488519E+03  0.28117488520E+03  0.25500000920E-02 0. -1.
       -2   -1    0    0    0  501  0.00000000000E+00  0.00000000000E+00 -0.21854622867E+03  0.21854622868E+03  0.25500000920E-02 0.  1.
    10030    2    1    2    0    0  0.00000000000E+00  0.00000000000E+00  0.62628656519E+02  0.49972111389E+03  0.49578104345E+03 0.  0.
        3    1    3    3  502    0 -0.41757903941E+02 -0.99360432293E+02 -0.19369390062E+03  0.22166090180E+03  0.10100000352E+00 0.  1.
       -3    1    3    3    0  502  0.41757903941E+02  0.99360432293E+02  0.25632255714E+03  0.27806021209E+03  0.10100000352E+00 0. -1.
</event>
<event>
 5   0  0.5191358E-02  0.4987939E+03  0.7818609E-02  0.1014094E+00
        1   -1    0    0  501    0  0.00000000000E+00  0.00000000000E+00  0.29715495274E+03  0.29715495278E+03  0.50400001928E-02 0.  1.
       -1   -1    0    0    0  501  0.00000000000E+00  0.00000000000E+00 -0.20931450874E+03  0.20931450880E+03  0.50400001928E-02 0. -1.
    10030    2    1    2    0    0  0.00000000000E+00  0.00000000000E+00  0.87840443994E+02  0.50646946158E+03  0.49879391728E+03 0.  0.
        4    1    3    3  502    0 -0.89728383694E+02 -0.21611123908E+03 -0.43674180064E+02  0.23804263778E+03  0.12699999809E+01 0. -1.
       -4    1    3    3    0  502  0.89728383694E+02  0.21611123908E+03  0.13151462406E+03  0.26842682380E+03  0.12699999809E+01 0.  1.
</event>
<event>
 5   0  0.7933103E-02  0.4977483E+03  0.7818609E-02  0.1014368E+00
        2   -1    0    0  501    0  0.00000000000E+00  0.00000000000E+00  0.76941439586E+03  0.76941439587E+03  0.25500000920E-02 0.  1.
       -2   -1    0    0    0  501  0.00000000000E+00  0.00000000000E+00 -0.80500628260E+02  0.80500628300E+02  0.25500000920E-02 0. -1.
    10030    2    1    2    0    0  0.00000000000E+00  0.00000000000E+00  0.68891376760E+03  0.84991502417E+03  0.49774829896E+03 0.  0.
        5    1    3    3  502    0 -0.19095903135E+03  0.10133691566E+03  0.13406627236E+03  0.25442165300E+03  0.46999998093E+01 0. -1.
       -5    1    3    3    0  502  0.19095903135E+03 -0.10133691566E+03  0.55484749524E+03  0.59549337117E+03  0.46999998093E+01 0.  1.
</event>
<event>
 5   0  0.4865501E-02  0.4981880E+03  0.7818609E-02  0.1014253E+00
        1   -1    0    0  501    0  0.00000000000E+00  0.00000000000E+00  0.51031595745E+03  0.51031595748E+03  0.50400001928E-02 0. -1.
       -1   -1    0    0    0  501  0.00000000000E+00  0.00000000000E+00 -0.12158706146E+03  0.12158706157E+03  0.50400001928E-02 0.  1.
    10030    2    1    2    0    0  0.00000000000E+00  0.00000000000E+00  0.38872889599E+03  0.63190301905E+03  0.49818798751E+03 0.  0.
        2    1    3    3  502    0  0.16243619329E+03  0.15546854965E+03  0.33033717016E+03  0.39959808911E+03  0.25500000920E-02 0. -1.
       -2    1    3    3    0  502 -0.16243619329E+03 -0.15546854965E+03  0.58391725829E+02  0.23230492994E+03  0.25500000920E-02 0.  1.
</event>
<event>
 5   0  0.7881060E-02  0.4994447E+03  0.7818609E-02  0.1013924E+00
       -2   -1    0    0    0  501  0.00000000000E+00  0.00000000000E+00  0.18478195358E+03  0.18478195360E+03  0.25500000920E-02 0. -1.
        2   -1    0    0  501    0  0.00000000000E+00  0.00000000000E+00 -0.33748560640E+03  0.33748560641E+03  0.25500000920E-02 0.  1.
    10030    2    1    2    0    0  0.00000000000E+00  0.00000000000E+00 -0.15270365281E+03  0.52226756000E+03  0.49944469028E+03 0.  0.
        1    1    3    3  502    0  0.11637188463E+03  0.15581995400E+03  0.87455706280E+02  0.21323877270E+03  0.50400001928E-02 0. -1.
       -1    1    3    3    0  502 -0.11637188463E+03 -0.15581995400E+03 -0.24015935909E+03  0.30902878730E+03  0.50400001928E-02 0.  1.
</event>
<event>
 5   0  0.7698747E-02  0.4871406E+03  0.7818609E-02  0.1017191E+00
        2   -1    0    0  501    0  0.00000000000E+00  0.00000000000E+00  0.11977851189E+04  0.11977851189E+04  0.25500000920E-02 0. -1.
       -2   -1    0    0    0  501  0.00000000000E+00  0.00000000000E+00 -0.49530154688E+02  0.49530154754E+02  0.25500000920E-02 0.  1.
    10030    2    1    2    0    0  0.00000000000E+00  0.00000000000E+00  0.11482549643E+04  0.12473152737E+04  0.48714056397E+03 0.  0.
        2    1    3    3  502    0  0.12589963266E+02 -0.17544661684E+03  0.14273004386E+03  0.22652127485E+03  0.25500000920E-02 0.  1.
       -2    1    3    3    0  502 -0.12589963266E+02  0.17544661684E+03  0.10055249204E+04  0.10207939988E+04  0.25500000920E-02 0. -1.
</event>
<event>
 5   0  0.4803890E-02  0.4979667E+03  0.7818609E-02  0.1014311E+00
       -1   -1    0    0    0  501  0.00000000000E+00  0.00000000000E+00  0.29170039539E+02  0.29170039975E+02  0.50400001928E-02 0.  1.
        1   -1    0    0  501    0  0.00000000000E+00  0.00000000000E+00 -0.21252181016E+04  0.21252181016E+04  0.50400001928E-02 0. -1.
    10030    2    1    2    0    0  0.00000000000E+00  0.00000000000E+00 -0.20960480620E+04  0.21543881415E+04  0.49796665160E+03 0.  0.
        5    1    3    3  502    0 -0.16449485595E+03 -0.16731387225E+03 -0.14078708296E+04  0.14272963436E+04  0.46999998093E+01 0. -1.
       -5    1    3    3    0  502  0.16449485595E+03  0.16731387225E+03 -0.68817723241E+03  0.72709179798E+03  0.46999998093E+01 0.  1.
</event>
<event>
 5   0  0.5191358E-02  0.4992280E+03  0.7818609E-02  0.1013981E+00
        1   -1    0    0  501    0  0.00000000000E+00  0.00000000000E+00  0.50754601762E+03  0.50754601764E+03  0.50400001928E-02 0. -1.
       -1   -1    0    0    0  501  0.00000000000E+00  0.00000000000E+00 -0.12276157656E+03  0.12276157667E+03  0.50400001928E-02 0.  1.
    10030    2    1    2    0    0  0.00000000000E+00  0.00000000000E+00  0.38478444105E+03  0.63030759431E+03  0.49922800139E+03 0.  0.
        4    1    3    3  502    0  0.21208360831E+03 -0.12729366971E+02  0.26981597723E+02  0.21417542625E+03  0.12699999809E+01 0.  1.
       -4    1    3    3    0  502 -0.21208360831E+03  0.12729366971E+02  0.35780284333E+03  0.41613216805E+03  0.12699999809E+01 0. -1.
</event>
<event>
 5   0  0.3210875E-02  0.5007098E+03  0.7818609E-02  0.1013594E+00
       -3   -1    0    0    0  501  0.00000000000E+00  0.00000000000E+00  0.87887344093E+03  0.87887344673E+03  0.10100000352E+00 0.  1.
        3   -1    0    0  501    0  0.00000000000E+00  0.00000000000E+00 -0.71315768890E+02  0.71315840410E+02  0.10100000352E+00 0. -1.
    10030    2    1    2    0    0  0.00000000000E+00  0.00000000000E+00  0.80755767204E+03  0.95018928714E+03  0.50070978394E+03 0.  0.
        2    1    3    3  502    0 -0.11035212178E+03  0.16365567783E+03  0.11153046438E+03  0.22671527553E+03  0.25500000920E-02 0. -1.
       -2    1    3    3    0  502  0.11035212178E+03 -0.16365567783E+03  0.69602720766E+03  0.72347401161E+03  0.25500000920E-02 0.  1.
</event>
<event>
 5   0  0.7776070E-02  0.4986065E+03  0.7818609E-02  0.1014143E+00
       -2   -1    0    0    0  501  0.00000000000E+00  0.00000000000E+00  0.77315317291E+02  0.77315317333E+02  0.25500000920E-02 0.  1.
        2   -1    0    0  501    0  0.00000000000E+00  0.00000000000E+00 -0.80387837418E+03  0.80387837418E+03  0.25500000920E-02 0. -1.
    10030    2    1    2    0    0  0.00000000000E+00  0.00000000000E+00 -0.72656305689E+03  0.88119369152E+03  0.49860650450E+03 0.  0.
        4    1    3    3  502    0  0.81777083280E+02 -0.22635457657E+03 -0.24838426585E+03  0.34586159385E+03  0.12699999809E+01 0.  1.
       -4    1    3    3    0  502 -0.81777083280E+02  0.22635457657E+03 -0.47817879104E+03  0.53533209766E+03  0.12699999809E+01 0. -1.
</event>
<event>
 5   0  0.7933103E-02  0.5016360E+03  0.7818609E-02  0.1013353E+00
       -2   -1    0    0    0  501  0.00000000000E+00  0.00000000000E+00  0.17315968415E+03  0.17315968417E+03  0.25500000920E-02 0. -1.
        2   -1    0    0  501    0  0.00000000000E+00  0.00000000000E+00 -0.36330430595E+03  0.36330430595E+03  0.25500000920E-02 0.  1.
    10030    2    1    2    0    0  0.00000000000E+00  0.00000000000E+00 -0.19014462180E+03  0.53646399012E+03  0.50163595913E+03 0.  0.
        5    1    3    3  502    0  0.21515285893E+02  0.12908474088E+03  0.13369998014E+03  0.18714580557E+03  0.46999998093E+01 0. -1.
       -5    1    3    3    0  502 -0.21515285893E+02 -0.12908474088E+03 -0.32384460194E+03  0.34931818455E+03  0.46999998093E+01 0.  1.
</event>
<event>
 5   0  0.5191358E-02  0.5000760E+03  0.7818609E-02  0.1013759E+00
        1   -1    0    0  501    0  0.00000000000E+00  0.00000000000E+00  0.29131440368E+03  0.29131440373E+03  0.50400001928E-02 0.  1.
       -1   -1    0    0    0  501  0.00000000000E+00  0.00000000000E+00 -0.21461004597E+03  0.21461004603E+03  0.50400001928E-02 0. -1.
    10030    2    1    2    0    0  0.00000000000E+00  0.00000000000E+00  0.76704357714E+02  0.50592444976E+03  0.50007598459E+03 0.  0.
        4    1    3    3  502    0  0.20939126195E+03  0.44175199313E+02 -0.92470746405E+02  0.23312786332E+03  0.12699999809E+01 0. -1.
       -4    1    3    3    0  502 -0.20939126195E+03 -0.44175199313E+02  0.16917510412E+03  0.27279658643E+03  0.12699999809E+01 0.  1.
</event>
<event>
 5   0  0.7776070E-02  0.5014003E+03  0.7818609E-02  0.1013414E+00
       -2   -1    0    0    0  501  0.00000000000E+00  0.00000000000E+00  0.54382918128E+02  0.54382918188E+02  0.25500000920E-02 0. -1.
        2   -1    0    0  501    0  0.00000000000E+00  0.00000000000E+00 -0.11557040017E+04  0.11557040017E+04  0.25500000920E-02 0.  1.
    10030    2    1    2    0    0  0.00000000000E+00  0.00000000000E+00 -0.11013210836E+04  0.12100869199E+04  0.50140026384E+03 0.  0.
        4    1    3    3  502    0  0.12645664381E+03  0.95839500682E+02 -0.10190897256E+04  0.10313689807E+04  0.12699999809E+01 0.  1.
       -4    1    3    3    0  502 -0.12645664381E+03 -0.95839500682E+02 -0.82231357996E+02  0.17871793920E+03  0.12699999809E+01 0. -1.
</event>
<event>
 5   0  0.3210875E-02  0.5003626E+03  0.7818609E-02  0.1013684E+00
       -3   -1    0    0    0  501  0.00000000000E+00  0.00000000000E+00  0.26006078401E+03  0.26006080363E+03  0.10100000352E+00 0.  1.
        3   -1    0    0  501    0  0.00000000000E+00  0.00000000000E+00 -0.24067707369E+03  0.24067709489E+03  0.10100000352E+00 0. -1.
    10030    2    1    2    0    0  0.00000000000E+00  0.00000000000E+00  0.19383710319E+02  0.50073789851E+03  0.50036258331E+03 0.  0.
        2    1    3    3  502    0  0.58001114626E+01  0.55193032874E+02  0.25382312403E+03  0.25981934199E+03  0.25500000920E-02 0.  1.
       -2    1    3    3    0  502 -0.58001114626E+01 -0.55193032874E+02 -0.23443941371E+03  0.24091855653E+03  0.25500000920E-02 0. -1.
</event>
<event>
 5   0  0.4884478E-02  0.5010881E+03  0.7818609E-02  0.1013495E+00
       -1   -1    0    0    0  501  0.00000000000E+00  0.00000000000E+00  0.85938244961E+02  0.85938245109E+02  0.50400001928E-02 0. -1.
        1   -1    0    0  501    0  0.00000000000E+00  0.00000000000E+00 -0.73043519064E+03  0.73043519066E+03  0.50400001928E-02 0.  1.
    10030    2    1    2    0    0  0.00000000000E+00  0.00000000000E+00 -0.64449694568E+03  0.81637343577E+03  0.50108808970E+03 0.  0.
        3    1    3    3  502    0 -0.81742498601E+02  0.12485188455E+03 -0.65012897195E+03  0.66703637047E+03  0.10100000352E+00 0.  1.
       -3    1    3    3    0  502  0.81742498601E+02 -0.12485188455E+03  0.56320262713E+01  0.14933706530E+03  0.10100000352E+00 0. -1.
</event>
<event>
 5   0  0.4865501E-02  0.4991783E+03  0.7818609E-02  0.1013994E+00
        1   -1    0    0  501    0  0.00000000000E+00  0.00000000000E+00  0.21819710305E+03  0.21819710311E+03  0.50400001928E-02 0.  1.
       -1   -1    0    0    0  501  0.00000000000E+00  0.00000000000E+00 -0.28549753298E+03  0.28549753303E+03  0.50400001928E-02 0. -1.
    10030    2    1    2    0    0  0.00000000000E+00  0.00000000000E+00 -0.67300429932E+02  0.50369463613E+03  0.49917826335E+03 0.  0.
        2    1    3    3  502    0  0.25339004315E+02 -0.51636984054E+02 -0.27871855335E+03  0.28459176947E+03  0.25500000920E-02 0. -1.
       -2    1    3    3    0  502 -0.25339004315E+02  0.51636984054E+02  0.21141812342E+03  0.21910286666E+03  0.25500000920E-02 0.  1.
</event>
<event>
 5   0  0.4865501E-02  0.5006438E+03  0.7818609E-02  0.1013611E+00
        1   -1    0    0  501    0  0.00000000000E+00  0.00000000000E+00  0.64344148848E+03  0.64344148850E+03  0.50400001928E-02 0. -1.
       -1   -1    0    0    0  501  0.00000000000E+00  0.00000000000E+00 -0.97384238785E+02  0.97384238915E+02  0.50400001928E-02 0.  1.
    10030    2    1    2    0    0  0.00000000000E+00  0.00000000000E+00  0.54605724970E+03  0.74082572742E+03  0.50064382395E+03 0.  0.
        2    1    3    3  502    0 -0.16597008204E+03 -0.76951281856E+02  0.20197687866E+02  0.18405302093E+03  0.25500000920E-02 0.  1.
       -2    1    3    3    0  502  0.16597008204E+03  0.76951281856E+02  0.52585956183E+03  0.55677270649E+03  0.25500000920E-02 0. -1.
</event>
<event>
 5   0  0.5038436E-02  0.5010679E+03  0.7818609E-02  0.1013501E+00
        1   -1    0    0  501    0  0.00000000000E+00  0.00000000000E+00  0.18552477416E+03  0.18552477423E+03  0.50400001928E-02 0.  1.
       -1   -1    0    0    0  501  0.00000000000E+00  0.00000000000E+00 -0.33832279267E+03  0.33832279270E+03  0.50400001928E-02 0. -1.
    10030    2    1    2    0    0  0.00000000000E+00  0.00000000000E+00 -0.15279801850E+03  0.52384756693E+03  0.50106789852E+03 0.  0.
        1    1    3    3  502    0  0.58495488982E+02  0.33098953408E+02 -0.32872169798E+03  0.33552230582E+03  0.50400001928E-02 0. -1.
       -1    1    3    3    0  502 -0.58495488982E+02 -0.33098953408E+02  0.17592367948E+03  0.18832526112E+03  0.50400001928E-02 0.  1.
</event>
<event>
 5   0  0.4803890E-02  0.5105076E+03  0.7818609E-02  0.1011072E+00
        1   -1    0    0  501    0  0.00000000000E+00  0.00000000000E+00  0.23015738362E+03  0.23015738368E+03  0.50400001928E-02 0. -1.
       -1   -1    0    0    0  501  0.00000000000E+00  0.00000000000E+00 -0.28308676615E+03  0.28308676619E+03  0.50400001928E-02 0.  1.
    10030    2    1    2    0    0  0.00000000000E+00  0.00000000000E+00 -0.52929382523E+02  0.51324414987E+03  0.51050762760E+03 0.  0.
        5    1    3    3  502    0 -0.87677818104E+02  0.82974433972E+02  0.19959672004E+03  0.23330901639E+03  0.46999998093E+01 0. -1.
       -5    1    3    3    0  502  0.87677818104E+02 -0.82974433972E+02 -0.25252610256E+03  0.27993513348E+03  0.46999998093E+01 0.  1.
</event>
<event>
 5   0  0.4865501E-02  0.4991514E+03  0.7818609E-02  0.1014001E+00
        1   -1    0    0  501    0  0.00000000000E+00  0.00000000000E+00  0.17960158536E+03  0.17960158543E+03  0.50400001928E-02 0. -1.
       -1   -1    0    0    0  501  0.00000000000E+00  0.00000000000E+00 -0.34681220610E+03  0.34681220614E+03  0.50400001928E-02 0.  1.
    10030    2    1    2    0    0  0.00000000000E+00  0.00000000000E+00 -0.16721062074E+03  0.52641379157E+03  0.49915136809E+03 0.  0.
        2    1    3    3  502    0 -0.14398781505E+03  0.15045438921E+03  0.61453520505E+02  0.21713025884E+03  0.25500000920E-02 0. -1.
       -2    1    3    3    0  502  0.14398781505E+03 -0.15045438921E+03 -0.22866414125E+03  0.30928353272E+03  0.25500000920E-02 0.  1.
</event>
<event>
 5   0  0.7776070E-02  0.4942351E+03  0.7818609E-02  0.1015295E+00
       -2   -1    0    0    0  501  0.00000000000E+00  0.00000000000E+00  0.66703468311E+02  0.66703468360E+02  0.25500000920E-02 0.  1.
        2   -1    0    0  501    0  0.00000000000E+00  0.00000000000E+00 -0.91550087289E+03  0.91550087289E+03  0.25500000920E-02 0. -1.
    10030    2    1    2    0    0  0.00000000000E+00  0.00000000000E+00 -0.84879740457E+03  0.98220434125E+03  0.49423509988E+03 0.  0.
        4    1    3    3  502    0  0.18916287469E+03 -0.12408860527E+03 -0.22681355058E+03  0.32035382743E+03  0.12699999809E+01 0.  1.
       -4    1    3    3    0  502 -0.18916287469E+03  0.12408860527E+03 -0.62198385399E+03  0.66185051382E+03  0.12699999809E+01 0. -1.
</event>
<event>
 5   0  0.7776070E-02  0.5027281E+03  0.7818609E-02  0.1013069E+00
        2   -1    0    0  501    0  0.00000000000E+00  0.00000000000E+00  0.55957885311E+03  0.55957885312E+03  0.25500000920E-02 0. -1.
       -2   -1    0    0    0  501  0.00000000000E+00  0.00000000000E+00 -0.11291328380E+03  0.11291328383E+03  0.25500000920E-02 0.  1.
    10030    2    1    2    0    0  0.00000000000E+00  0.00000000000E+00  0.44666556931E+03  0.67249213695E+03  0.50272810091E+03 0.  0.
        4    1    3    3  502    0  0.16977777091E+03  0.79369967707E+02 -0.73729713593E+00  0.18741995565E+03  0.12699999809E+01 0.  1.
       -4    1    3    3    0  502 -0.16977777091E+03 -0.79369967707E+02  0.44740286644E+03  0.48507218130E+03  0.12699999809E+01 0. -1.
</event>
<event>
 5   0  0.7881060E-02  0.4996127E+03  0.7818609E-02  0.1013880E+00
        2   -1    0    0  501    0  0.00000000000E+00  0.00000000000E+00  0.11137853178E+04  0.11137853178E+04  0.25500000920E-02 0. -1.
       -2   -1    0    0    0  501  0.00000000000E+00  0.00000000000E+00 -0.56028052980E+02  0.56028053038E+02  0.25500000920E-02 0.  1.
    10030    2    1    2    0    0  0.00000000000E+00  0.00000000000E+00  0.10577572648E+04  0.11698133708E+04  0.49961274135E+03 0.  0.
        1    1    3    3  502    0 -0.54431884528E+02  0.23087031184E+03  0.71233898154E+03  0.75079341739E+03  0.50400001928E-02 0. -1.
       -1    1    3    3    0  502  0.54431884528E+02 -0.23087031184E+03  0.34541828328E+03  0.41901995346E+03  0.50400001928E-02 0.  1.
</event>
<event>
 5   0  0.5191358E-02  0.5137025E+03  0.7818609E-02  0.1010263E+00
        1   -1    0    0  501    0  0.00000000000E+00  0.00000000000E+00  0.65628489914E+02  0.65628490107E+02  0.50400001928E-02 0.  1.
       -1   -1    0    0    0  501  0.00000000000E+00  0.00000000000E+00 -0.10052427894E+04  0.10052427894E+04  0.50400001928E-02 0. -1.
    10030    2    1    2    0    0  0.00000000000E+00  0.00000000000E+00 -0.93961429948E+03  0.10708712795E+04  0.51370250681E+03 0.  0.
        4    1    3    3  502    0 -0.13173404698E+03  0.14089204379E+03 -0.11624212504E+03  0.22520717500E+03  0.12699999809E+01 0.  1.
       -4    1    3    3    0  502  0.13173404698E+03 -0.14089204379E+03 -0.82337217444E+03  0.84566410452E+03  0.12699999809E+01 0. -1.
</event>
<event>
 5   0  0.5191358E-02  0.5006336E+03  0.7818609E-02  0.1013614E+00
       -1   -1    0    0    0  501  0.00000000000E+00  0.00000000000E+00  0.77838013975E+02  0.77838014138E+02  0.50400001928E-02 0.  1.
        1   -1    0    0  501    0  0.00000000000E+00  0.00000000000E+00 -0.80498585995E+03  0.80498585997E+03  0.50400001928E-02 0. -1.
    10030    2    1    2    0    0  0.00000000000E+00  0.00000000000E+00 -0.72714784598E+03  0.88282387411E+03  0.50063360133E+03 0.  0.
        4    1    3    3  502    0 -0.17081724330E+03 -0.90651525735E+02 -0.64384378795E+03  0.67225937398E+03  0.12699999809E+01 0. -1.
       -4    1    3    3    0  502  0.17081724330E+03  0.90651525735E+02 -0.83304058029E+02  0.21056450012E+03  0.12699999809E+01 0.  1.
</event>
<event>
 5   0  0.7933103E-02  0.5007910E+03  0.7818609E-02  0.1013573E+00
        2   -1    0    0  501    0  0.00000000000E+00  0.00000000000E+00  0.19877286873E+03  0.19877286874E+03  0.25500000920E-02 0.  1.
       -2   -1    0    0    0  501  0.00000000000E+00  0.00000000000E+00 -0.31542493358E+03  0.31542493359E+03  0.25500000920E-02 0. -1.
    10030    2    1    2    0    0  0.00000000000E+00  0.00000000000E+00 -0.11665206486E+03  0.51419780233E+03  0.50079104993E+03 0.  0.
        5    1    3    3  502    0 -0.14397118477E+03 -0.13590814520E+03  0.98998304390E+02  0.22140794983E+03  0.46999998093E+01 0.  1.
       -5    1    3    3    0  502  0.14397118477E+03  0.13590814520E+03 -0.21565036924E+03  0.29278985251E+03  0.46999998093E+01 0. -1.
</event>
<event>
 5   0  0.4803890E-02  0.4397890E+03  0.7818609E-02  0.1030812E+00
        1   -1    0    0  501    0  0.00000000000E+00  0.00000000000E+00  0.49476696048E+03  0.49476696051E+03  0.50400001928E-02 0. -1.
       -1   -1    0    0    0  501  0.00000000000E+00  0.00000000000E+00 -0.97730020497E+02  0.97730020627E+02  0.50400001928E-02 0.  1.
    10030    2    1    2    0    0  0.00000000000E+00  0.00000000000E+00  0.39703693999E+03  0.59249698114E+03  0.43978897319E+03 0.  0.
        5    1    3    3  502    0 -0.16387043599E+03 -0.26883652797E+02  0.44273195080E+01  0.16618646676E+03  0.46999998093E+01 0.  1.
       -5    1    3    3    0  502  0.16387043599E+03  0.26883652797E+02  0.39260962048E+03  0.42631051438E+03  0.46999998093E+01 0. -1.
</event>
<event>
 5   0  0.4803890E-02  0.4938960E+03  0.7818609E-02  0.1015385E+00
        1   -1    0    0  501    0  0.00000000000E+00  0.00000000000E+00  0.63638997131E+03  0.63638997133E+03  0.50400001928E-02 0. -1.
       -1   -1    0    0    0  501  0.00000000000E+00  0.00000000000E+00 -0.95826951351E+02  0.95826951484E+02  0.50400001928E-02 0.  1.
    10030    2    1    2    0    0  0.00000000000E+00  0.00000000000E+00  0.54056301996E+03  0.73221692282E+03  0.49389598450E+03 0.  0.
        5    1    3    3  502    0 -0.61038617894E+02  0.33140886328E+02  0.62154224058E+03  0.62542855551E+03  0.46999998093E+01 0. -1.
       -5    1    3    3    0  502  0.61038617894E+02 -0.33140886328E+02 -0.80979220622E+02  0.10678836731E+03  0.46999998093E+01 0.  1.
</event>
<event>
 5   0  0.7698747E-02  0.4970882E+03  0.7818609E-02  0.1014542E+00
        2   -1    0    0  501    0  0.00000000000E+00  0.00000000000E+00  0.15481562565E+04  0.15481562565E+04  0.25500000920E-02 0.  1.
       -2   -1    0    0    0  501  0.00000000000E+00  0.00000000000E+00 -0.39901761928E+02  0.39901762009E+02  0.25500000920E-02 0. -1.
    10030    2    1    2    0    0  0.00000000000E+00  0.00000000000E+00  0.15082544946E+04  0.15880580186E+04  0.49708817102E+03 0.  0.
        2    1    3    3  502    0 -0.19233298981E+03 -0.14665775528E+03  0.57133765436E+03  0.62042500872E+03  0.25500000920E-02 0. -1.
       -2    1    3    3    0  502  0.19233298981E+03  0.14665775528E+03  0.93691684026E+03  0.96763300983E+03  0.25500000920E-02 0.  1.
</event>
<event>
 5   0  0.4884478E-02  0.4934533E+03  0.7818609E-02  0.1015502E+00
       -1   -1    0    0    0  501  0.00000000000E+00  0.00000000000E+00  0.62169198607E+02  0.62169198811E+02  0.50400001928E-02 0. -1.
        1   -1    0    0  501    0  0.00000000000E+00  0.00000000000E+00 -0.97916705803E+03  0.97916705805E+03  0.50400001928E-02 0.  1.
    10030    2    1    2    0    0  0.00000000000E+00  0.00000000000E+00 -0.91699785943E+03  0.10413362569E+04  0.49345326593E+03 0.  0.
        3    1    3    3  502    0 -0.53684764427E+01 -0.71853532836E+02 -0.95646921665E+03  0.95917940101E+03  0.10100000352E+00 0.  1.
       -3    1    3    3    0  502  0.53684764427E+01  0.71853532836E+02  0.39471357226E+02  0.82156855846E+02  0.10100000352E+00 0. -1.
</event>
<event>
 5   0  0.8208720E-02  0.5023070E+03  0.7818609E-02  0.1013179E+00
       -2   -1    0    0    0  501  0.00000000000E+00  0.00000000000E+00  0.64104299480E+02  0.64104299530E+02  0.25500000920E-02 0. -1.
        2   -1    0    0  501    0  0.00000000000E+00  0.00000000000E+00 -0.98399138772E+03  0.98399138772E+03  0.25500000920E-02 0.  1.
    10030    2    1    2    0    0  0.00000000000E+00  0.00000000000E+00 -0.91988708824E+03  0.10480956873E+04  0.50230699231E+03 0.  0.
        3    1    3    3  502    0 -0.14954178005E+03 -0.61465811410E+02 -0.58925276044E+02  0.17208424771E+03  0.10100000352E+00 0. -1.
       -3    1    3    3    0  502  0.14954178005E+03  0.61465811410E+02 -0.86096181219E+03  0.87601143954E+03  0.10100000352E+00 0.  1.
</event>
<event>
 5   0  0.3210875E-02  0.4969910E+03  0.7818609E-02  0.1014567E+00
       -3   -1    0    0    0  501  0.00000000000E+00  0.00000000000E+00  0.51761207125E+03  0.51761208111E+03  0.10100000352E+00 0.  1.
        3   -1    0    0  501    0  0.00000000000E+00  0.00000000000E+00 -0.11929780694E+03  0.11929784969E+03  0.10100000352E+00 0. -1.
    10030    2    1    2    0    0  0.00000000000E+00  0.00000000000E+00  0.39831426431E+03  0.63690993080E+03  0.49699095243E+03 0.  0.
        2    1    3    3  502    0 -0.20518941151E+03 -0.12366001094E+03  0.28373349122E+03  0.37134779782E+03  0.25500000920E-02 0. -1.
       -2    1    3    3    0  502  0.20518941151E+03  0.12366001094E+03  0.11458077310E+03  0.26556213298E+03  0.25500000920E-02 0.  1.
</event>
<event>
 5   0  0.7776070E-02  0.4979110E+03  0.7818609E-02  0.1014326E+00
        2   -1    0    0  501    0  0.00000000000E+00  0.00000000000E+00  0.99375086009E+03  0.99375086010E+03  0.25500000920E-02 0.  1.
       -2   -1    0    0    0  501  0.00000000000E+00  0.00000000000E+00 -0.62368587808E+02  0.62368587860E+02  0.25500000920E-02 0. -1.
    10030    2    1    2    0    0  0.00000000000E+00  0.00000000000E+00  0.93138227229E+03  0.10561194480E+04  0.49791098725E+03 0.  0.
        4    1    3    3  502    0  0.17772909777E+02  0.16818816364E+03  0.78196185339E+02  0.18633140103E+03  0.12699999809E+01 0. -1.
       -4    1    3    3    0  502 -0.17772909777E+02 -0.16818816364E+03  0.85318608695E+03  0.86978804692E+03  0.12699999809E+01 0.  1.
</event>
<event>
 5   0  0.7776070E-02  0.5002910E+03  0.7818609E-02  0.1013703E+00
       -2   -1    0    0    0  501  0.00000000000E+00  0.00000000000E+00  0.78188916622E+02  0.78188916663E+02  0.25500000920E-02 0.  1.
        2   -1    0    0  501    0  0.00000000000E+00  0.00000000000E+00 -0.80027663239E+03  0.80027663239E+03  0.25500000920E-02 0. -1.
    10030    2    1    2    0    0  0.00000000000E+00  0.00000000000E+00 -0.72208771576E+03  0.87846554905E+03  0.50029096695E+03 0.  0.
        4    1    3    3  502    0 -0.24410485257E+03 -0.15706116506E+02 -0.45291146149E+03  0.51474679795E+03  0.12699999809E+01 0. -1.
       -4    1    3    3    0  502  0.24410485257E+03  0.15706116506E+02 -0.26917625427E+03  0.36371875111E+03  0.12699999809E+01 0.  1.
</event>
<event>
 5   0  0.4865501E-02  0.4916812E+03  0.7818609E-02  0.1015973E+00
        1   -1    0    0  501    0  0.00000000000E+00  0.00000000000E+00  0.13755685843E+04  0.13755685843E+04  0.50400001928E-02 0. -1.
       -1   -1    0    0    0  501  0.00000000000E+00  0.00000000000E+00 -0.43936456747E+02  0.43936457036E+02  0.50400001928E-02 0.  1.
    10030    2    1    2    0    0  0.00000000000E+00  0.00000000000E+00  0.13316321275E+04  0.14195050413E+04  0.49168123746E+03 0.  0.
        2    1    3    3  502    0 -0.34262641554E+01  0.23901694200E+03  0.50004918611E+03  0.55424726105E+03  0.25500000920E-02 0.  1.
       -2    1    3    3    0  502  0.34262641554E+01 -0.23901694200E+03  0.83158294140E+03  0.86525778025E+03  0.25500000920E-02 0. -1.
</event>
<event>
 5   0  0.7881060E-02  0.4969384E+03  0.7818609E-02  0.1014581E+00
       -2   -1    0    0    0  501  0.00000000000E+00  0.00000000000E+00  0.30627104791E+02  0.30627104897E+02  0.25500000920E-02 0. -1.
        2   -1    0    0  501    0  0.00000000000E+00  0.00000000000E+00 -0.20157615521E+04  0.20157615521E+04  0.25500000920E-02 0.  1.
    10030    2    1    2    0    0  0.00000000000E+00  0.00000000000E+00 -0.19851344473E+04  0.20463886570E+04  0.49693838813E+03 0.  0.
        1    1    3    3  502    0 -0.11640731362E+03 -0.14032174594E+03 -0.16877166587E+04  0.16975359717E+04  0.50400001928E-02 0.  1.
       -1    1    3    3    0  502  0.11640731362E+03  0.14032174594E+03 -0.29741778856E+03  0.34885268528E+03  0.50400001928E-02 0. -1.
</event>
<event>
 5   0  0.5038436E-02  0.4990789E+03  0.7818609E-02  0.1014020E+00
       -1   -1    0    0    0  501  0.00000000000E+00  0.00000000000E+00  0.42821438419E+03  0.42821438422E+03  0.50400001928E-02 0.  1.
        1   -1    0    0  501    0  0.00000000000E+00  0.00000000000E+00 -0.14541767713E+03  0.14541767722E+03  0.50400001928E-02 0. -1.
    10030    2    1    2    0    0  0.00000000000E+00  0.00000000000E+00  0.28279670706E+03  0.57363206145E+03  0.49907891600E+03 0.  0.
        1    1    3    3  502    0 -0.14194038844E+03  0.84941058071E+02 -0.73348077572E+02  0.18094749992E+03  0.50400001928E-02 0. -1.
       -1    1    3    3    0  502  0.14194038844E+03 -0.84941058071E+02  0.35614478463E+03  0.39268456153E+03  0.50400001928E-02 0.  1.
</event>
<event>
 5   0  0.4803890E-02  0.4581926E+03  0.7818609E-02  0.1025307E+00
       -1   -1    0    0    0  501  0.00000000000E+00  0.00000000000E+00  0.24663916927E+03  0.24663916932E+03  0.50400001928E-02 0. -1.
        1   -1    0    0  501    0  0.00000000000E+00  0.00000000000E+00 -0.21280120427E+03  0.21280120433E+03  0.50400001928E-02 0.  1.
    10030    2    1    2    0    0  0.00000000000E+00  0.00000000000E+00  0.33837964998E+02  0.45944037365E+03  0.45819258949E+03 0.  0.
        5    1    3    3  502    0  0.12525721864E+03  0.14516039913E+03 -0.10873032601E+03  0.22046606562E+03  0.46999998093E+01 0.  1.
       -5    1    3    3    0  502 -0.12525721864E+03 -0.14516039913E+03  0.14256829101E+03  0.23897430803E+03  0.46999998093E+01 0. -1.
</event>
<event>
 5   0  0.7881060E-02  0.4996431E+03  0.7818609E-02  0.1013872E+00
       -2   -1    0    0    0  501  0.00000000000E+00  0.00000000000E+00  0.81310062934E+03  0.81310062935E+03  0.25500000920E-02 0. -1.
        2   -1    0    0  501    0  0.00000000000E+00  0.00000000000E+00 -0.76756572283E+02  0.76756572325E+02  0.25500000920E-02 0.  1.
    10030    2    1    2    0    0  0.00000000000E+00  0.00000000000E+00  0.73634405706E+03  0.88985720167E+03  0.49964314165E+03 0.  0.
        1    1    3    3  502    0 -0.71115581124E+02  0.96040451035E+01  0.79434944856E+03  0.79758429650E+03  0.50400001928E-02 0. -1.
       -1    1    3    3    0  502  0.71115581124E+02 -0.96040451035E+01 -0.58005391502E+02  0.92272905176E+02  0.50400001928E-02 0.  1.
</event>
<event>
 5   0  0.4803890E-02  0.4973763E+03  0.7818609E-02  0.1014466E+00
       -1   -1    0    0    0  501  0.00000000000E+00  0.00000000000E+00  0.13080168133E+03  0.13080168143E+03  0.50400001928E-02 0. -1.
        1   -1    0    0  501    0  0.00000000000E+00  0.00000000000E+00 -0.47282115692E+03  0.47282115695E+03  0.50400001928E-02 0.  1.
    10030    2    1    2    0    0  0.00000000000E+00  0.00000000000E+00 -0.34201947559E+03  0.60362283837E+03  0.49737632565E+03 0.  0.
        5    1    3    3  502    0  0.23414110971E+03 -0.40573166581E+02 -0.82196153250E+02  0.25148864529E+03  0.46999998093E+01 0. -1.
       -5    1    3    3    0  502 -0.23414110971E+03  0.40573166581E+02 -0.25982332234E+03  0.35213419308E+03  0.46999998093E+01 0.  1.
</event>
<event>
 5   0  0.4884478E-02  0.4857620E+03  0.7818609E-02  0.1017564E+00
        1   -1    0    0  501    0  0.00000000000E+00  0.00000000000E+00  0.14396441242E+04  0.14396441242E+04  0.50400001928E-02 0.  1.
       -1   -1    0    0    0  501  0.00000000000E+00  0.00000000000E+00 -0.40976216673E+02  0.40976216983E+02  0.50400001928E-02 0. -1.
    10030    2    1    2    0    0  0.00000000000E+00  0.00000000000E+00  0.13986679076E+04  0.14806203412E+04  0.48576195735E+03 0.  0.
        3    1    3    3  502    0  0.20846203606E+03 -0.55700618911E+02  0.35947880053E+03  0.41926602254E+03  0.10100000352E+00 0. -1.
       -3    1    3    3    0  502 -0.20846203606E+03  0.55700618911E+02  0.10391891070E+04  0.10613543187E+04  0.10100000352E+00 0.  1.
</event>
<event>
 5   0  0.5191358E-02  0.5005550E+03  0.7818609E-02  0.1013634E+00
        1   -1    0    0  501    0  0.00000000000E+00  0.00000000000E+00  0.42685599713E+03  0.42685599716E+03  0.50400001928E-02 0. -1.
       -1   -1    0    0    0  501  0.00000000000E+00  0.00000000000E+00 -0.14674464695E+03  0.14674464704E+03  0.50400001928E-02 0.  1.
    10030    2    1    2    0    0  0.00000000000E+00  0.00000000000E+00  0.28011135018E+03  0.57360064420E+03  0.50055502247E+03 0.  0.
        4    1    3    3  502    0  0.94982364785E+02  0.53449198957E+02 -0.11811878660E+03  0.16072376034E+03  0.12699999809E+01 0.  1.
       -4    1    3    3    0  502 -0.94982364785E+02 -0.53449198957E+02  0.39823013678E+03  0.41287688386E+03  0.12699999809E+01 0. -1.
</event>
<event>
 5   0  0.7933103E-02  0.5007558E+03  0.7818609E-02  0.1013582E+00
        2   -1    0    0  501    0  0.00000000000E+00  0.00000000000E+00  0.91228953047E+03  0.91228953048E+03  0.25500000920E-02 0. -1.
       -2   -1    0    0    0  501  0.00000000000E+00  0.00000000000E+00 -0.68716217696E+02  0.68716217744E+02  0.25500000920E-02 0.  1.
    10030    2    1    2    0    0  0.00000000000E+00  0.00000000000E+00  0.84357331278E+03  0.98100574822E+03  0.50075577282E+03 0.  0.
        5    1    3    3  502    0 -0.11612713803E+03  0.18779867814E+03  0.19070888524E+03  0.29179757470E+03  0.46999998093E+01 0.  1.
       -5    1    3    3    0  502  0.11612713803E+03 -0.18779867814E+03  0.65286442754E+03  0.68920817351E+03  0.46999998093E+01 0. -1.
</event>
<event>
 5   0  0.7881060E-02  0.4997216E+03  0.7818609E-02  0.1013852E+00
       -2   -1    0    0    0  501  0.00000000000E+00  0.00000000000E+00  0.83743388074E+02  0.83743388113E+02  0.25500000920E-02 0.  1.
        2   -1    0    0  501    0  0.00000000000E+00  0.00000000000E+00 -0.74549680771E+03  0.74549680772E+03  0.25500000920E-02 0. -1.
    10030    2    1    2    0    0  0.00000000000E+00  0.00000000000E+00 -0.66175341964E+03  0.82924019583E+03  0.49972163649E+03 0.  0.
        1    1    3    3  502    0 -0.24607769310E+03  0.20736780728E+02 -0.26777169526E+03  0.36426079383E+03  0.50400001928E-02 0.  1.
       -1    1    3    3    0  502  0.24607769310E+03 -0.20736780728E+02 -0.39398172438E+03  0.46497940200E+03  0.50400001928E-02 0. -1.
</event>
<event>
 5   0  0.4865501E-02  0.5004151E+03  0.7818609E-02  0.1013671E+00
       -1   -1    0    0    0  501  0.00000000000E+00  0.00000000000E+00  0.73376100505E+02  0.73376100678E+02  0.50400001928E-02 0. -1.
        1   -1    0    0  501    0  0.00000000000E+00  0.00000000000E+00 -0.85319080340E+03  0.85319080342E+03  0.50400001928E-02 0.  1.
    10030    2    1    2    0    0  0.00000000000E+00  0.00000000000E+00 -0.77981470290E+03  0.92656690410E+03  0.50041508461E+03 0.  0.
        2    1    3    3  502    0  0.40918497583E+02  0.24448220453E+03 -0.32690019532E+03  0.41025554169E+03  0.25500000920E-02 0.  1.
       -2    1    3    3    0  502 -0.40918497583E+02 -0.24448220453E+03 -0.45291450758E+03  0.51631136241E+03  0.25500000920E-02 0. -1.
</event>
<event>
 5   0  0.4803890E-02  0.5003452E+03  0.7818609E-02  0.1013689E+00
        1   -1    0    0  501    0  0.00000000000E+00  0.00000000000E+00  0.16118260470E+03  0.16118260478E+03  0.50400001928E-02 0. -1.
       -1   -1    0    0    0  501  0.00000000000E+00  0.00000000000E+00 -0.38829463154E+03  0.38829463157E+03  0.50400001928E-02 0.  1.
    10030    2    1    2    0    0  0.00000000000E+00  0.00000000000E+00 -0.22711202684E+03  0.54947723635E+03  0.50034524134E+03 0.  0.
        5    1    3    3  502    0  0.62397853067E+02 -0.15331517481E+02  0.15191619753E+03  0.16501263153E+03  0.46999998093E+01 0. -1.
       -5    1    3    3    0  502 -0.62397853067E+02  0.15331517481E+02 -0.37902822436E+03  0.38446460482E+03  0.46999998093E+01 0.  1.
</event>
<event>
 5   0  0.8208720E-02  0.4995229E+03  0.7818609E-02  0.1013904E+00
       -2   -1    0    0    0  501  0.00000000000E+00  0.00000000000E+00  0.93198465951E+02  0.93198465986E+02  0.25500000920E-02 0.  1.
        2   -1    0    0  501    0  0.00000000000E+00  0.00000000000E+00 -0.66933279157E+03  0.66933279158E+03  0.25500000920E-02 0. -1.
    10030    2    1    2    0    0  0.00000000000E+00  0.00000000000E+00 -0.57613432562E+03  0.76253125756E+03  0.49952293000E+03 0.  0.
        3    1    3    3  502    0  0.24209609251E+03 -0.61000774690E+02 -0.27736337090E+03  0.37317832498E+03  0.10100000352E+00 0.  1.
       -3    1    3    3    0  502 -0.24209609251E+03  0.61000774690E+02 -0.29877095472E+03  0.38935293258E+03  0.10100000352E+00 0. -1.
</event>
<event>
 5   0  0.7881060E-02  0.5012608E+03  0.7818609E-02  0.1013450E+00
       -2   -1    0    0    0  501  0.00000000000E+00  0.00000000000E+00  0.58849742926E+02  0.58849742982E+02  0.25500000920E-02 0.  1.
        2   -1    0    0  501    0  0.00000000000E+00  0.00000000000E+00 -0.10673892901E+04  0.10673892901E+04  0.25500000920E-02 0. -1.
    10030    2    1    2    0    0  0.00000000000E+00  0.00000000000E+00 -0.10085395472E+04  0.11262390331E+04  0.50126075194E+03 0.  0.
        1    1    3    3  502    0 -0.70667825496E+02 -0.74302101738E+02  0.95623026249E+01  0.10298631725E+03  0.50400001928E-02 0.  1.
       -1    1    3    3    0  502  0.70667825496E+02  0.74302101738E+02 -0.10181018498E+04  0.10232527159E+04  0.50400001928E-02 0. -1.
</event>
<event>
 5   0  0.3210875E-02  0.5062838E+03  0.7818609E-02  0.1012152E+00
       -3   -1    0    0    0  501  0.00000000000E+00  0.00000000000E+00  0.85057733416E+03  0.85057734015E+03  0.10100000352E+00 0. -1.
        3   -1    0    0  501    0  0.00000000000E+00  0.00000000000E+00 -0.75337992922E+02  0.75338060624E+02  0.10100000352E+00 0.  1.
    10030    2    1    2    0    0  0.00000000000E+00  0.00000000000E+00  0.77523934124E+03  0.92591540078E+03  0.50628380697E+03 0.  0.
        4    1    3    3  502    0 -0.19289932866E+03 -0.51456772830E+02  0.10299297172E+03  0.22464887178E+03  0.12699999809E+01 0.  1.
       -4    1    3    3    0  502  0.19289932866E+03  0.51456772830E+02  0.67224636952E+03  0.70126652900E+03  0.12699999809E+01 0. -1.
</event>
<event>
 5   0  0.4803890E-02  0.5033305E+03  0.7818609E-02  0.1012913E+00
        1   -1    0    0  501    0  0.00000000000E+00  0.00000000000E+00  0.58141610043E+03  0.58141610045E+03  0.50400001928E-02 0. -1.
       -1   -1    0    0    0  501  0.00000000000E+00  0.00000000000E+00 -0.10893300564E+03  0.10893300575E+03  0.50400001928E-02 0.  1.
    10030    2    1    2    0    0  0.00000000000E+00  0.00000000000E+00  0.47248309479E+03  0.69034910620E+03  0.50333052120E+03 0.  0.
        5    1    3    3  502    0  0.14523924710E+03  0.12990171789E+03  0.45459329072E+03  0.49461706923E+03  0.46999998093E+01 0. -1.
       -5    1    3    3    0  502 -0.14523924710E+03 -0.12990171789E+03  0.17889804068E+02  0.19573203697E+03  0.46999998093E+01 0.  1.
</event>
<event>
 5   0  0.4865501E-02  0.5035783E+03  0.7818609E-02  0.1012849E+00
        1   -1    0    0  501    0  0.00000000000E+00  0.00000000000E+00  0.51904398198E+03  0.51904398201E+03  0.50400001928E-02 0.  1.
       -1   -1    0    0    0  501  0.00000000000E+00  0.00000000000E+00 -0.12214336800E+03  0.12214336811E+03  0.50400001928E-02 0. -1.
    10030    2    1    2    0    0  0.00000000000E+00  0.00000000000E+00  0.39690061398E+03  0.64118735011E+03  0.50357831622E+03 0.  0.
        2    1    3    3  502    0 -0.92317632368E+02  0.35882062816E+02  0.49319808068E+03  0.50304514158E+03  0.25500000920E-02 0.  1.
       -2    1    3    3    0  502  0.92317632368E+02 -0.35882062816E+02 -0.96297466700E+02  0.13814220853E+03  0.25500000920E-02 0. -1.
</event>
<event>
 5   0  0.4803890E-02  0.5023291E+03  0.7818609E-02  0.1013173E+00
       -1   -1    0    0    0  501  0.00000000000E+00  0.00000000000E+00  0.49415983429E+03  0.49415983431E+03  0.50400001928E-02 0. -1.
        1   -1    0    0  501    0  0.00000000000E+00  0.00000000000E+00 -0.12765834606E+03  0.12765834616E+03  0.50400001928E-02 0.  1.
    10030    2    1    2    0    0  0.00000000000E+00  0.00000000000E+00  0.36650148823E+03  0.62181818047E+03  0.50232908406E+03 0.  0.
        5    1    3    3  502    0  0.10858424005E+02 -0.10603190086E+03 -0.98214003059E+02  0.14501292965E+03  0.46999998093E+01 0.  1.
       -5    1    3    3    0  502 -0.10858424005E+02  0.10603190086E+03  0.46471549128E+03  0.47680525082E+03  0.46999998093E+01 0. -1.
</event>
<event>
 5   0  0.4865501E-02  0.5253864E+03  0.7818609E-02  0.1007357E+00
       -1   -1    0    0    0  501  0.00000000000E+00  0.00000000000E+00  0.76015688030E+02  0.76015688198E+02  0.50400001928E-02 0.  1.
        1   -1    0    0  501    0  0.00000000000E+00  0.00000000000E+00 -0.90780900652E+03  0.90780900653E+03  0.50400001928E-02 0. -1.
    10030    2    1    2    0    0  0.00000000000E+00  0.00000000000E+00 -0.83179331849E+03  0.98382469473E+03  0.52538643424E+03 0.  0.
        2    1    3    3  502    0 -0.55352081605E+02  0.25010874602E+03 -0.30687671650E+03  0.39973936122E+03  0.25500000920E-02 0.  1.
       -2    1    3    3    0  502  0.55352081605E+02 -0.25010874602E+03 -0.52491660198E+03  0.58408533351E+03  0.25500000920E-02 0. -1.
</event>
<event>
 5   0  0.4803890E-02  0.4987038E+03  0.7818609E-02  0.1014118E+00
        1   -1    0    0  501    0  0.00000000000E+00  0.00000000000E+00  0.62737776150E+03  0.62737776152E+03  0.50400001928E-02 0. -1.
       -1   -1    0    0    0  501  0.00000000000E+00  0.00000000000E+00 -0.99105143726E+02  0.99105143854E+02  0.50400001928E-02 0.  1.
    10030    2    1    2    0    0  0.00000000000E+00  0.00000000000E+00  0.52827261777E+03  0.72648290537E+03  0.49870377291E+03 0.  0.
        5    1    3    3  502    0 -0.78655706342E+01  0.15070021480E+02 -0.98195372357E+02  0.99766697346E+02  0.46999998093E+01 0.  1.
       -5    1    3    3    0  502  0.78655706342E+01 -0.15070021480E+02  0.62646799013E+03  0.62671620803E+03  0.46999998093E+01 0. -1.
</event>
<event>
 5   0  0.3210875E-02  0.4980601E+03  0.7818609E-02  0.1014287E+00
        4   -1    0    0  501    0  0.00000000000E+00  0.00000000000E+00  0.11475185062E+04  0.11475192090E+04  0.12699999809E+01 0. -1.
       -4   -1    0    0    0  501  0.00000000000E+00  0.00000000000E+00 -0.54035353979E+02  0.54050276407E+02  0.12699999809E+01 0.  1.
    10030    2    1    2    0    0  0.00000000000E+00  0.00000000000E+00  0.10934831522E+04  0.12015694854E+04  0.49806006065E+03 0.  0.
        4    1    3    3  502    0 -0.63683455788E+02  0.12970266430E+03  0.10360448196E+04  0.10460730590E+04  0.12699999809E+01 0. -1.
       -4    1    3    3    0  502  0.63683455788E+02 -0.12970266430E+03  0.57438332662E+02  0.15549642641E+03  0.12699999809E+01 0.  1.
</event>
<event>
 5   0  0.8208720E-02  0.4997318E+03  0.7818609E-02  0.1013849E+00
       -2   -1    0    0    0  501  0.00000000000E+00  0.00000000000E+00  0.33364138861E+03  0.33364138862E+03  0.25500000920E-02 0.  1.
        2   -1    0    0  501    0  0.00000000000E+00  0.00000000000E+00 -0.18712595365E+03  0.18712595366E+03  0.25500000920E-02 0. -1.
    10030    2    1    2    0    0  0.00000000000E+00  0.00000000000E+00  0.14651543496E+03  0.52076734228E+03  0.49973178016E+03 0.  0.
        3    1    3    3  502    0 -0.14700618109E+02  0.16678857670E+03  0.26653285477E+03  0.31476071921E+03  0.10100000352E+00 0.  1.
       -3    1    3    3    0  502  0.14700618109E+02 -0.16678857670E+03 -0.12001741980E+03  0.20600662307E+03  0.10100000352E+00 0. -1.
</event>
<event>
 5   0  0.7698747E-02  0.4978555E+03  0.7818609E-02  0.1014340E+00
       -2   -1    0    0    0  501  0.00000000000E+00  0.00000000000E+00  0.45528479034E+02  0.45528479106E+02  0.25500000920E-02 0.  1.
        2   -1    0    0  501    0  0.00000000000E+00  0.00000000000E+00 -0.13610166240E+04  0.13610166240E+04  0.25500000920E-02 0. -1.
    10030    2    1    2    0    0  0.00000000000E+00  0.00000000000E+00 -0.13154881450E+04  0.14065451031E+04  0.49785546851E+03 0.  0.
        2    1    3    3  502    0 -0.57372422553E+02  0.11583225766E+03 -0.12587654949E+04  0.12653850315E+04  0.25500000920E-02 0. -1.
       -2    1    3    3    0  502  0.57372422553E+02 -0.11583225766E+03 -0.56722650092E+02  0.14116007164E+03  0.25500000920E-02 0.  1.
</event>
<event>
 5   0  0.7881060E-02  0.5003526E+03  0.7818609E-02  0.1013687E+00
       -2   -1    0    0    0  501  0.00000000000E+00  0.00000000000E+00  0.42262365214E+03  0.42262365214E+03  0.25500000920E-02 0.  1.
        2   -1    0    0  501    0  0.00000000000E+00  0.00000000000E+00 -0.14809433698E+03  0.14809433701E+03  0.25500000920E-02 0. -1.
    10030    2    1    2    0    0  0.00000000000E+00  0.00000000000E+00  0.27452931515E+03  0.57071798915E+03  0.50035255397E+03 0.  0.
        1    1    3    3  502    0 -0.15868994016E+03  0.10984749814E+03 -0.44304419916E+02  0.19801982629E+03  0.50400001928E-02 0. -1.
       -1    1    3    3    0  502  0.15868994016E+03 -0.10984749814E+03  0.31883373507E+03  0.37269816286E+03  0.50400001928E-02 0.  1.
</event>
<event>
 5   0  0.4865501E-02  0.5003014E+03  0.7818609E-02  0.1013700E+00
        1   -1    0    0  501    0  0.00000000000E+00  0.00000000000E+00  0.10687100290E+04  0.10687100290E+04  0.50400001928E-02 0.  1.
       -1   -1    0    0    0  501  0.00000000000E+00  0.00000000000E+00 -0.58552257234E+02  0.58552257451E+02  0.50400001928E-02 0. -1.
    10030    2    1    2    0    0  0.00000000000E+00  0.00000000000E+00  0.10101577718E+04  0.11272622865E+04  0.50030144776E+03 0.  0.
        2    1    3    3  502    0 -0.18773863481E+03 -0.15062550942E+03  0.35157317865E+03  0.42607222280E+03  0.25500000920E-02 0. -1.
       -2    1    3    3    0  502  0.18773863481E+03  0.15062550942E+03  0.65858459315E+03  0.70119006370E+03  0.25500000920E-02 0.  1.
</event>
<event>
 5   0  0.7776070E-02  0.5033535E+03  0.7818609E-02  0.1012907E+00
       -2   -1    0    0    0  501  0.00000000000E+00  0.00000000000E+00  0.17128766788E+03  0.17128766790E+03  0.25500000920E-02 0.  1.
        2   -1    0    0  501    0  0.00000000000E+00  0.00000000000E+00 -0.36979421139E+03  0.36979421140E+03  0.25500000920E-02 0. -1.
    10030    2    1    2    0    0  0.00000000000E+00  0.00000000000E+00 -0.19850654350E+03  0.54108187930E+03  0.50335350629E+03 0.  0.
        4    1    3    3  502    0  0.54444737333E+02 -0.95259278675E+02  0.14422088642E+03  0.18121764974E+03  0.12699999809E+01 0.  1.
       -4    1    3    3    0  502 -0.54444737333E+02  0.95259278675E+02 -0.34272742992E+03  0.35986422956E+03  0.12699999809E+01 0. -1.
</event>
<event>
 5   0  0.5191358E-02  0.5101482E+03  0.7818609E-02  0.1011164E+00
        1   -1    0    0  501    0  0.00000000000E+00  0.00000000000E+00  0.72134064505E+03  0.72134064507E+03  0.50400001928E-02 0. -1.
       -1   -1    0    0    0  501  0.00000000000E+00  0.00000000000E+00 -0.90197030378E+02  0.90197030518E+02  0.50400001928E-02 0.  1.
    10030    2    1    2    0    0  0.00000000000E+00  0.00000000000E+00  0.63114361467E+03  0.81153767558E+03  0.51014815157E+03 0.  0.
        4    1    3    3  502    0 -0.76151576258E+02  0.15177624591E+03  0.12794697328E+02  0.17029506325E+03  0.12699999809E+01 0.  1.
       -4    1    3    3    0  502  0.76151576258E+02 -0.15177624591E+03  0.61834891734E+03  0.64124261233E+03  0.12699999809E+01 0. -1.
</event>
<event>
 5   0  0.4865501E-02  0.4992189E+03  0.7818609E-02  0.1013983E+00
        1   -1    0    0  501    0  0.00000000000E+00  0.00000000000E+00  0.98897630427E+03  0.98897630428E+03  0.50400001928E-02 0.  1.
       -1   -1    0    0    0  501  0.00000000000E+00  0.00000000000E+00 -0.62999351898E+02  0.62999352100E+02  0.50400001928E-02 0. -1.
    10030    2    1    2    0    0  0.00000000000E+00  0.00000000000E+00  0.92597695237E+03  0.10519756564E+04  0.49921885511E+03 0.  0.
        2    1    3    3  502    0  0.13846029103E+03 -0.85042260447E+01  0.90026709183E+03  0.91089209608E+03  0.25500000920E-02 0.  1.
       -2    1    3    3    0  502 -0.13846029103E+03  0.85042260447E+01  0.25709860537E+02  0.14108356030E+03  0.25500000920E-02 0. -1.
</event>
<event>
 5   0  0.8208720E-02  0.4916576E+03  0.7818609E-02  0.1015980E+00
        2   -1    0    0  501    0  0.00000000000E+00  0.00000000000E+00  0.50483211074E+03  0.50483211075E+03  0.25500000920E-02 0. -1.
       -2   -1    0    0    0  501  0.00000000000E+00  0.00000000000E+00 -0.11970670176E+03  0.11970670178E+03  0.25500000920E-02 0.  1.
    10030    2    1    2    0    0  0.00000000000E+00  0.00000000000E+00  0.38512540898E+03  0.62453881253E+03  0.49165755126E+03 0.  0.
        3    1    3    3  502    0 -0.10046545874E+03 -0.71717496718E+02 -0.77486092067E+02  0.14574228075E+03  0.10100000352E+00 0.  1.
       -3    1    3    3    0  502  0.10046545874E+03  0.71717496718E+02  0.46261150105E+03  0.47879653177E+03  0.10100000352E+00 0. -1.
</event>
<event>
 5   0  0.4884478E-02  0.5046224E+03  0.7818609E-02  0.1012579E+00
       -1   -1    0    0    0  501  0.00000000000E+00  0.00000000000E+00  0.94324041432E+02  0.94324041567E+02  0.50400001928E-02 0. -1.
        1   -1    0    0  501    0  0.00000000000E+00  0.00000000000E+00 -0.67491750025E+03  0.67491750027E+03  0.50400001928E-02 0.  1.
    10030    2    1    2    0    0  0.00000000000E+00  0.00000000000E+00 -0.58059345882E+03  0.76924154184E+03  0.50462241851E+03 0.  0.
        3    1    3    3  502    0 -0.17425286303E+03  0.12750216201E+03 -0.91306416998E+02  0.23443065836E+03  0.10100000352E+00 0. -1.
       -3    1    3    3    0  502  0.17425286303E+03 -0.12750216201E+03 -0.48928704182E+03  0.53481088348E+03  0.10100000352E+00 0.  1.
</event>
<event>
 5   0  0.8208720E-02  0.4998579E+03  0.7818609E-02  0.1013816E+00
       -2   -1    0    0    0  501  0.00000000000E+00  0.00000000000E+00  0.94802028621E+02  0.94802028656E+02  0.25500000920E-02 0.  1.
        2   -1    0    0  501    0  0.00000000000E+00  0.00000000000E+00 -0.65889385216E+03  0.65889385216E+03  0.25500000920E-02 0. -1.
    10030    2    1    2    0    0  0.00000000000E+00  0.00000000000E+00 -0.56409182354E+03  0.75369588082E+03  0.49985787518E+03 0.  0.
        3    1    3    3  502    0  0.13162748013E+03 -0.12068779629E+03 -0.54569090344E+03  0.57416888630E+03  0.10100000352E+00 0. -1.
       -3    1    3    3    0  502 -0.13162748013E+03  0.12068779629E+03 -0.18400920099E+02  0.17952699452E+03  0.10100000352E+00 0.  1.
</event>
<event>
 5   0  0.3210875E-02  0.5004110E+03  0.7818609E-02  0.1013672E+00
        3   -1    0    0  501    0  0.00000000000E+00  0.00000000000E+00  0.17320744273E+03  0.17320747217E+03  0.10100000352E+00 0.  1.
       -3   -1    0    0    0  501  0.00000000000E+00  0.00000000000E+00 -0.36143239520E+03  0.36143240931E+03  0.10100000352E+00 0. -1.
    10030    2    1    2    0    0  0.00000000000E+00  0.00000000000E+00 -0.18822495247E+03  0.53463988148E+03  0.50041100122E+03 0.  0.
        4    1    3    3  502    0 -0.13206214522E+03  0.14989079252E+03 -0.25506042014E+03  0.32398316423E+03  0.12699999809E+01 0. -1.
       -4    1    3    3    0  502  0.13206214522E+03 -0.14989079252E+03  0.66835467671E+02  0.21065671725E+03  0.12699999809E+01 0.  1.
</event>
<event>
 5   0  0.5191358E-02  0.5004695E+03  0.7818609E-02  0.1013656E+00
        1   -1    0    0  501    0  0.00000000000E+00  0.00000000000E+00  0.27900769876E+03  0.27900769880E+03  0.50400001928E-02 0.  1.
       -1   -1    0    0    0  501  0.00000000000E+00  0.00000000000E+00 -0.22442904648E+03  0.22442904654E+03  0.50400001928E-02 0. -1.
    10030    2    1    2    0    0  0.00000000000E+00  0.00000000000E+00  0.54578652275E+02  0.50343674534E+03  0.50046950684E+03 0.  0.
        4    1    3    3  502    0 -0.11231753640E+02  0.24093979975E+03  0.94300196305E+02  0.25898316416E+03  0.12699999809E+01 0.  1.
       -4    1    3    3    0  502  0.11231753640E+02 -0.24093979975E+03 -0.39721544029E+02  0.24445358118E+03  0.12699999809E+01 0. -1.
</event>
<event>
 5   0  0.4803890E-02  0.4993590E+03  0.7818609E-02  0.1013946E+00
       -1   -1    0    0    0  501  0.00000000000E+00  0.00000000000E+00  0.79195749630E+02  0.79195749790E+02  0.50400001928E-02 0. -1.
        1   -1    0    0  501    0  0.00000000000E+00  0.00000000000E+00 -0.78716157296E+03  0.78716157298E+03  0.50400001928E-02 0.  1.
    10030    2    1    2    0    0  0.00000000000E+00  0.00000000000E+00 -0.70796582333E+03  0.86635732277E+03  0.49935899282E+03 0.  0.
        5    1    3    3  502    0  0.16752105113E+03  0.17604304008E+03 -0.45309191332E+03  0.51416809162E+03  0.46999998093E+01 0.  1.
       -5    1    3    3    0  502 -0.16752105113E+03 -0.17604304008E+03 -0.25487391002E+03  0.35218923115E+03  0.46999998093E+01 0. -1.
</event>
<event>
 5   0  0.7933103E-02  0.4980035E+03  0.7818609E-02  0.1014301E+00
       -2   -1    0    0    0  501  0.00000000000E+00  0.00000000000E+00  0.14878554399E+03  0.14878554401E+03  0.25500000920E-02 0.  1.
        2   -1    0    0  501    0  0.00000000000E+00  0.00000000000E+00 -0.41671967624E+03  0.41671967625E+03  0.25500000920E-02 0. -1.
    10030    2    1    2    0    0  0.00000000000E+00  0.00000000000E+00 -0.26793413225E+03  0.56550522026E+03  0.49800346878E+03 0.  0.
        5    1    3    3  502    0 -0.19766201044E+03 -0.70981507075E+02 -0.28577002809E+03  0.35467625191E+03  0.46999998093E+01 0. -1.
       -5    1    3    3    0  502  0.19766201044E+03  0.70981507075E+02  0.17835895832E+02  0.21082896835E+03  0.46999998093E+01 0.  1.
</event>
<event>
 5   0  0.5038436E-02  0.5010406E+03  0.7818609E-02  0.1013508E+00
        1   -1    0    0  501    0  0.00000000000E+00  0.00000000000E+00  0.46736596200E+03  0.46736596203E+03  0.50400001928E-02 0.  1.
       -1   -1    0    0    0  501  0.00000000000E+00  0.00000000000E+00 -0.13428541628E+03  0.13428541638E+03  0.50400001928E-02 0. -1.
    10030    2    1    2    0    0  0.00000000000E+00  0.00000000000E+00  0.33308054571E+03  0.60165137840E+03  0.50104064825E+03 0.  0.
        1    1    3    3  502    0  0.24531757342E+03  0.57582528488E+01  0.10594354020E+03  0.26727869919E+03  0.50400001928E-02 0. -1.
       -1    1    3    3    0  502 -0.24531757342E+03 -0.57582528488E+01  0.22713700552E+03  0.33437267922E+03  0.50400001928E-02 0.  1.
</event>
<event>
 5   0  0.7933103E-02  0.4605275E+03  0.7818609E-02  0.1024628E+00
        2   -1    0    0  501    0  0.00000000000E+00  0.00000000000E+00  0.25871251302E+03  0.25871251303E+03  0.25500000920E-02 0. -1.
       -2   -1    0    0    0  501  0.00000000000E+00  0.00000000000E+00 -0.20494325789E+03  0.20494325791E+03  0.25500000920E-02 0.  1.
    10030    2    1    2    0    0  0.00000000000E+00  0.00000000000E+00  0.53769255128E+02  0.46365577094E+03  0.46052745969E+03 0.  0.
        5    1    3    3  502    0 -0.21507833926E+03  0.43660758548E+02 -0.43117106528E+02  0.22370992095E+03  0.46999998093E+01 0.  1.
       -5    1    3    3    0  502  0.21507833926E+03 -0.43660758548E+02  0.96886361655E+02  0.23994584999E+03  0.46999998093E+01 0. -1.
</event>
<event>
 5   0  0.4865501E-02  0.4937218E+03  0.7818609E-02  0.1015431E+00
       -1   -1    0    0    0  501  0.00000000000E+00  0.00000000000E+00  0.78998529096E+02  0.78998529257E+02  0.50400001928E-02 0.  1.
        1   -1    0    0  501    0  0.00000000000E+00  0.00000000000E+00 -0.77141069241E+03  0.77141069242E+03  0.50400001928E-02 0. -1.
    10030    2    1    2    0    0  0.00000000000E+00  0.00000000000E+00 -0.69241216331E+03  0.85040922168E+03  0.49372182494E+03 0.  0.
        2    1    3    3  502    0  0.15435819707E+03  0.57924819223E+02 -0.66267981606E+03  0.68288086538E+03  0.25500000920E-02 0. -1.
       -2    1    3    3    0  502 -0.15435819707E+03 -0.57924819223E+02 -0.29732347250E+02  0.16752835630E+03  0.25500000920E-02 0.  1.
</event>
<event>
 5   0  0.4884478E-02  0.4992630E+03  0.7818609E-02  0.1013971E+00
       -1   -1    0    0    0  501  0.00000000000E+00  0.00000000000E+00  0.31846510826E+03  0.31846510830E+03  0.50400001928E-02 0.  1.
        1   -1    0    0  501    0  0.00000000000E+00  0.00000000000E+00 -0.19567570698E+03  0.19567570705E+03  0.50400001928E-02 0. -1.
    10030    2    1    2    0    0  0.00000000000E+00  0.00000000000E+00  0.12278940128E+03  0.51414081535E+03  0.49926299777E+03 0.  0.
        3    1    3    3  502    0  0.98340061484E+02 -0.21383777010E+03  0.14705097060E+03  0.27752721987E+03  0.10100000352E+00 0.  1.
       -3    1    3    3    0  502 -0.98340061484E+02  0.21383777010E+03 -0.24261569321E+02  0.23661359547E+03  0.10100000352E+00 0. -1.
</event>
<event>
 5   0  0.3210875E-02  0.5019473E+03  0.7818609E-02  0.1013272E+00
        3   -1    0    0  501    0  0.00000000000E+00  0.00000000000E+00  0.22297005151E+03  0.22297007438E+03  0.10100000352E+00 0. -1.
       -3   -1    0    0    0  501  0.00000000000E+00  0.00000000000E+00 -0.28249423446E+03  0.28249425252E+03  0.10100000352E+00 0.  1.
    10030    2    1    2    0    0  0.00000000000E+00  0.00000000000E+00 -0.59524182951E+02  0.50546432690E+03  0.50194726557E+03 0.  0.
        4    1    3    3  502    0 -0.16359392761E+03  0.18674580206E+03 -0.66750697380E+02  0.25708799318E+03  0.12699999809E+01 0. -1.
       -4    1    3    3    0  502  0.16359392761E+03 -0.18674580206E+03  0.72265144289E+01  0.24837633372E+03  0.12699999809E+01 0.  1.
</event>
<event>
 5   0  0.4803890E-02  0.4997698E+03  0.7818609E-02  0.1013839E+00
       -1   -1    0    0    0  501  0.00000000000E+00  0.00000000000E+00  0.31743407348E+03  0.31743407352E+03  0.50400001928E-02 0.  1.
        1   -1    0    0  501    0  0.00000000000E+00  0.00000000000E+00 -0.19670998491E+03  0.19670998497E+03  0.50400001928E-02 0. -1.
    10030    2    1    2    0    0  0.00000000000E+00  0.00000000000E+00  0.12072408857E+03  0.51414405850E+03  0.49976975431E+03 0.  0.
        5    1    3    3  502    0  0.15622561064E+03  0.17386181615E+03  0.15113819297E+03  0.27838680987E+03  0.46999998093E+01 0.  1.
       -5    1    3    3    0  502 -0.15622561064E+03 -0.17386181615E+03 -0.30414104402E+02  0.23575724863E+03  0.46999998093E+01 0. -1.
</event>
<event>
 5   0  0.7698747E-02  0.4970938E+03  0.7818609E-02  0.1014540E+00
        2   -1    0    0  501    0  0.00000000000E+00  0.00000000000E+00  0.99115648745E+03  0.99115648745E+03  0.25500000920E-02 0. -1.
       -2   -1    0    0    0  501  0.00000000000E+00  0.00000000000E+00 -0.62326757086E+02  0.62326757138E+02  0.25500000920E-02 0.  1.
    10030    2    1    2    0    0  0.00000000000E+00  0.00000000000E+00  0.92882973036E+03  0.10534832446E+04  0.49709383282E+03 0.  0.
        2    1    3    3  502    0  0.20557111429E+03 -0.10148890515E+03  0.26096257556E+03  0.34736284596E+03  0.25500000920E-02 0. -1.
       -2    1    3    3    0  502 -0.20557111429E+03  0.10148890515E+03  0.66786715480E+03  0.70612039863E+03  0.25500000920E-02 0.  1.
</event>
<event>
 5   0  0.7881060E-02  0.4970625E+03  0.7818609E-02  0.1014549E+00
       -2   -1    0    0    0  501  0.00000000000E+00  0.00000000000E+00  0.34694492806E+02  0.34694492900E+02  0.25500000920E-02 0. -1.
        2   -1    0    0  501    0  0.00000000000E+00  0.00000000000E+00 -0.17803338026E+04  0.17803338026E+04  0.25500000920E-02 0.  1.
    10030    2    1    2    0    0  0.00000000000E+00  0.00000000000E+00 -0.17456393098E+04  0.18150282955E+04  0.49706248458E+03 0.  0.
        1    1    3    3  502    0 -0.13508352879E+03 -0.46811203295E+02 -0.13048541336E+03  0.19355952994E+03  0.50400001928E-02 0. -1.
       -1    1    3    3    0  502  0.13508352879E+03  0.46811203295E+02 -0.16151538965E+04  0.16214687656E+04  0.50400001928E-02 0.  1.
</event>
<event>
 5   0  0.5191358E-02  0.4994688E+03  0.7818609E-02  0.1013918E+00
        1   -1    0    0  501    0  0.00000000000E+00  0.00000000000E+00  0.16962445521E+04  0.16962445521E+04  0.50400001928E-02 0. -1.
       -1   -1    0    0    0  501  0.00000000000E+00  0.00000000000E+00 -0.36767855357E+02  0.36767855703E+02  0.50400001928E-02 0.  1.
    10030    2    1    2    0    0  0.00000000000E+00  0.00000000000E+00  0.16594766967E+04  0.17330124078E+04  0.49946881643E+03 0.  0.
        4    1    3    3  502    0 -0.31408176796E+01 -0.20632747669E+03  0.13177821364E+04  0.13338411691E+04  0.12699999809E+01 0. -1.
       -4    1    3    3    0  502  0.31408176796E+01  0.20632747669E+03  0.34169456034E+03  0.39917123874E+03  0.12699999809E+01 0.  1.
</event>
<event>
 5   0  0.4884478E-02  0.4434622E+03  0.7818609E-02  0.1029690E+00
        1   -1    0    0  501    0  0.00000000000E+00  0.00000000000E+00  0.18601654775E+03  0.18601654782E+03  0.50400001928E-02 0. -1.
       -1   -1    0    0    0  501  0.00000000000E+00  0.00000000000E+00 -0.26430275685E+03  0.26430275690E+03  0.50400001928E-02 0.  1.
    10030    2    1    2    0    0  0.00000000000E+00  0.00000000000E+00 -0.78286209105E+02  0.45031930472E+03  0.44346222575E+03 0.  0.
        3    1    3    3  502    0  0.96020184468E+02  0.18113522959E+03 -0.12491711510E+03  0.24007112086E+03  0.10100000352E+00 0. -1.
       -3    1    3    3    0  502 -0.96020184468E+02 -0.18113522959E+03  0.46630905990E+02  0.21024818387E+03  0.10100000352E+00 0.  1.
</event>
<event>
 5   0  0.4884478E-02  0.4969512E+03  0.7818609E-02  0.1014578E+00
        1   -1    0    0  501    0  0.00000000000E+00  0.00000000000E+00  0.12929107579E+04  0.12929107579E+04  0.50400001928E-02 0.  1.
       -1   -1    0    0    0  501  0.00000000000E+00  0.00000000000E+00 -0.47752810967E+02  0.47752811233E+02  0.50400001928E-02 0. -1.
    10030    2    1    2    0    0  0.00000000000E+00  0.00000000000E+00  0.12451579470E+04  0.13406635692E+04  0.49695119762E+03 0.  0.
        3    1    3    3  502    0  0.15863605332E+03  0.18377051402E+03  0.47974667372E+03  0.53767451156E+03  0.10100000352E+00 0. -1.
       -3    1    3    3    0  502 -0.15863605332E+03 -0.18377051402E+03  0.76541127324E+03  0.80298905761E+03  0.10100000352E+00 0.  1.
</event>
<event>
 5   0  0.4865501E-02  0.4986348E+03  0.7818609E-02  0.1014136E+00
        1   -1    0    0  501    0  0.00000000000E+00  0.00000000000E+00  0.40928498997E+03  0.40928499000E+03  0.50400001928E-02 0. -1.
       -1   -1    0    0    0  501  0.00000000000E+00  0.00000000000E+00 -0.15187254746E+03  0.15187254754E+03  0.50400001928E-02 0.  1.
    10030    2    1    2    0    0  0.00000000000E+00  0.00000000000E+00  0.25741244251E+03  0.56115753753E+03  0.49863475247E+03 0.  0.
        2    1    3    3  502    0  0.94264946601E+02  0.22702955817E+03  0.81886111118E+02  0.25910159328E+03  0.25500000920E-02 0. -1.
       -2    1    3    3    0  502 -0.94264946601E+02 -0.22702955817E+03  0.17552633139E+03  0.30205594425E+03  0.25500000920E-02 0.  1.
</event>
<event>
 5   0  0.7881060E-02  0.4979874E+03  0.7818609E-02  0.1014306E+00
       -2   -1    0    0    0  501  0.00000000000E+00  0.00000000000E+00  0.77406245273E+02  0.77406245315E+02  0.25500000920E-02 0.  1.
        2   -1    0    0  501    0  0.00000000000E+00  0.00000000000E+00 -0.80094127761E+03  0.80094127761E+03  0.25500000920E-02 0. -1.
    10030    2    1    2    0    0  0.00000000000E+00  0.00000000000E+00 -0.72353503233E+03  0.87834752293E+03  0.49798737737E+03 0.  0.
        1    1    3    3  502    0  0.14876233581E+03 -0.14859887131E+03 -0.59699452632E+03  0.63294100956E+03  0.50400001928E-02 0. -1.
       -1    1    3    3    0  502 -0.14876233581E+03  0.14859887131E+03 -0.12654050602E+03  0.24540651336E+03  0.50400001928E-02 0.  1.
</event>
<event>
 5   0  0.8208720E-02  0.5028275E+03  0.7818609E-02  0.1013044E+00
       -2   -1    0    0    0  501  0.00000000000E+00  0.00000000000E+00  0.73531941904E+02  0.73531941949E+02  0.25500000920E-02 0.  1.
        2   -1    0    0  501    0  0.00000000000E+00  0.00000000000E+00 -0.85961120267E+03  0.85961120267E+03  0.25500000920E-02 0. -1.
    10030    2    1    2    0    0  0.00000000000E+00  0.00000000000E+00 -0.78607926077E+03  0.93314314462E+03  0.50282752923E+03 0.  0.
        3    1    3    3  502    0 -0.16919167238E+03 -0.18519795182E+03 -0.42435621677E+03  0.49295264709E+03  0.10100000352E+00 0. -1.
       -3    1    3    3    0  502  0.16919167238E+03  0.18519795182E+03 -0.36172304399E+03  0.44019049753E+03  0.10100000352E+00 0.  1.
</event>
<event>
 5   0  0.4884478E-02  0.5024150E+03  0.7818609E-02  0.1013150E+00
        1   -1    0    0  501    0  0.00000000000E+00  0.00000000000E+00  0.48192810232E+03  0.48192810234E+03  0.50400001928E-02 0.  1.
       -1   -1    0    0    0  501  0.00000000000E+00  0.00000000000E+00 -0.13094320948E+03  0.13094320958E+03  0.50400001928E-02 0. -1.
    10030    2    1    2    0    0  0.00000000000E+00  0.00000000000E+00  0.35098489283E+03  0.61287131192E+03  0.50241501767E+03 0.  0.
        3    1    3    3  502    0  0.15401091620E+03 -0.17279764144E+03  0.29455646829E+03  0.37462235706E+03  0.10100000352E+00 0.  1.
       -3    1    3    3    0  502 -0.15401091620E+03  0.17279764144E+03  0.56428424549E+02  0.23824895486E+03  0.10100000352E+00 0. -1.
</event>
<event>
 5   0  0.7776070E-02  0.4996083E+03  0.7818609E-02  0.1013881E+00
        2   -1    0    0  501    0  0.00000000000E+00  0.00000000000E+00  0.52376246914E+03  0.52376246915E+03  0.25500000920E-02 0. -1.
       -2   -1    0    0    0  501  0.00000000000E+00  0.00000000000E+00 -0.11914199588E+03  0.11914199591E+03  0.25500000920E-02 0.  1.
    10030    2    1    2    0    0  0.00000000000E+00  0.00000000000E+00  0.40462047326E+03  0.64290446505E+03  0.49960827035E+03 0.  0.
        4    1    3    3  502    0 -0.18228598983E+03  0.85814894480E+02  0.12278609977E+02  0.20185330159E+03  0.12699999809E+01 0.  1.
       -4    1    3    3    0  502  0.18228598983E+03 -0.85814894480E+02  0.39234186328E+03  0.44105116346E+03  0.12699999809E+01 0. -1.
</event>
<event>
 5   0  0.4884478E-02  0.4776076E+03  0.7818609E-02  0.1019795E+00
        1   -1    0    0  501    0  0.00000000000E+00  0.00000000000E+00  0.59121297245E+03  0.59121297247E+03  0.50400001928E-02 0. -1.
       -1   -1    0    0    0  501  0.00000000000E+00  0.00000000000E+00 -0.96458069321E+02  0.96458069453E+02  0.50400001928E-02 0.  1.
    10030    2    1    2    0    0  0.00000000000E+00  0.00000000000E+00  0.49475490313E+03  0.68767104193E+03  0.47760762947E+03 0.  0.
        3    1    3    3  502    0  0.15235443185E+03 -0.88743057699E+02  0.47927431411E+03  0.51067708149E+03  0.10100000352E+00 0. -1.
       -3    1    3    3    0  502 -0.15235443185E+03  0.88743057699E+02  0.15480589023E+02  0.17699396044E+03  0.10100000352E+00 0.  1.
</event>
<event>
 5   0  0.4884478E-02  0.4997914E+03  0.7818609E-02  0.1013833E+00
       -1   -1    0    0    0  501  0.00000000000E+00  0.00000000000E+00  0.50971396804E+02  0.50971397054E+02  0.50400001928E-02 0.  1.
        1   -1    0    0  501    0  0.00000000000E+00  0.00000000000E+00 -0.12251549370E+04  0.12251549371E+04  0.50400001928E-02 0. -1.
    10030    2    1    2    0    0  0.00000000000E+00  0.00000000000E+00 -0.11741835402E+04  0.12761263341E+04  0.49979139092E+03 0.  0.
        3    1    3    3  502    0 -0.12156047607E+03  0.63529235729E+02 -0.11204537668E+04  0.11288177740E+04  0.10100000352E+00 0. -1.
       -3    1    3    3    0  502  0.12156047607E+03 -0.63529235729E+02 -0.53729773462E+02  0.14730856014E+03  0.10100000352E+00 0.  1.
</event>
<event>
 5   0  0.8208720E-02  0.4991625E+03  0.7818609E-02  0.1013998E+00
       -2   -1    0    0    0  501  0.00000000000E+00  0.00000000000E+00  0.63822088176E+02  0.63822088227E+02  0.25500000920E-02 0. -1.
        2   -1    0    0  501    0  0.00000000000E+00  0.00000000000E+00 -0.97600700083E+03  0.97600700083E+03  0.25500000920E-02 0.  1.
    10030    2    1    2    0    0  0.00000000000E+00  0.00000000000E+00 -0.91218491265E+03  0.10398290891E+04  0.49916251821E+03 0.  0.
        3    1    3    3  502    0  0.23550249765E+02 -0.20762625769E+03 -0.17177895338E+03  0.27050193377E+03  0.10100000352E+00 0. -1.
       -3    1    3    3    0  502 -0.23550249765E+02  0.20762625769E+03 -0.74040595927E+03  0.76932715529E+03  0.10100000352E+00 0.  1.
</event>
<event>
 5   0  0.5191358E-02  0.4898556E+03  0.7818609E-02  0.1016461E+00
        1   -1    0    0  501    0  0.00000000000E+00  0.00000000000E+00  0.12725365768E+04  0.12725365768E+04  0.50400001928E-02 0.  1.
       -1   -1    0    0    0  501  0.00000000000E+00  0.00000000000E+00 -0.47141762732E+02  0.47141763002E+02  0.50400001928E-02 0. -1.
    10030    2    1    2    0    0  0.00000000000E+00  0.00000000000E+00  0.12253948141E+04  0.13196783398E+04  0.48985556058E+03 0.  0.
        4    1    3    3  502    0  0.14852382189E+03  0.14114836820E+03  0.25119893667E+03  0.32416771307E+03  0.12699999809E+01 0. -1.
       -4    1    3    3    0  502 -0.14852382189E+03 -0.14114836820E+03  0.97419587743E+03  0.99551062677E+03  0.12699999809E+01 0.  1.
</event>
<event>
 5   0  0.4884478E-02  0.4992713E+03  0.7818609E-02  0.1013969E+00
       -1   -1    0    0    0  501  0.00000000000E+00  0.00000000000E+00  0.16388759991E+03  0.16388759999E+03  0.50400001928E-02 0. -1.
        1   -1    0    0  501    0  0.00000000000E+00  0.00000000000E+00 -0.38024820750E+03  0.38024820753E+03  0.50400001928E-02 0.  1.
    10030    2    1    2    0    0  0.00000000000E+00  0.00000000000E+00 -0.21636060759E+03  0.54413580752E+03  0.49927133356E+03 0.  0.
        3    1    3    3  502    0 -0.19309135899E+01 -0.19254572972E+03 -0.28132872221E+03  0.34091560041E+03  0.10100000352E+00 0.  1.
       -3    1    3    3    0  502  0.19309135899E+01  0.19254572972E+03  0.64968114624E+02  0.20322020711E+03  0.10100000352E+00 0. -1.
</event>
<event>
 5   0  0.7698747E-02  0.4954864E+03  0.7818609E-02  0.1014964E+00
        2   -1    0    0  501    0  0.00000000000E+00  0.00000000000E+00  0.65950430368E+03  0.65950430368E+03  0.25500000920E-02 0. -1.
       -2   -1    0    0    0  501  0.00000000000E+00  0.00000000000E+00 -0.93064874884E+02  0.93064874919E+02  0.25500000920E-02 0.  1.
    10030    2    1    2    0    0  0.00000000000E+00  0.00000000000E+00  0.56643942879E+03  0.75256917860E+03  0.49548636923E+03 0.  0.
        2    1    3    3  502    0 -0.18486099034E+03  0.15866987652E+03  0.35160117647E+03  0.42775355377E+03  0.25500000920E-02 0. -1.
       -2    1    3    3    0  502  0.18486099034E+03 -0.15866987652E+03  0.21483825233E+03  0.32481562483E+03  0.25500000920E-02 0.  1.
</event>
<event>
 5   0  0.5191358E-02  0.5009775E+03  0.7818609E-02  0.1013524E+00
        1   -1    0    0  501    0  0.00000000000E+00  0.00000000000E+00  0.13033829250E+04  0.13033829250E+04  0.50400001928E-02 0.  1.
       -1   -1    0    0    0  501  0.00000000000E+00  0.00000000000E+00 -0.48139811777E+02  0.48139812040E+02  0.50400001928E-02 0. -1.
    10030    2    1    2    0    0  0.00000000000E+00  0.00000000000E+00  0.12552431132E+04  0.13515227370E+04  0.50097748000E+03 0.  0.
        4    1    3    3  502    0 -0.22410695308E+03  0.72848694330E+02  0.85672791637E+03  0.88854667535E+03  0.12699999809E+01 0.  1.
       -4    1    3    3    0  502  0.22410695308E+03 -0.72848694330E+02  0.39851519683E+03  0.46297606168E+03  0.12699999809E+01 0. -1.
</event>
<event>
 5   0  0.7881060E-02  0.4984292E+03  0.7818609E-02  0.1014190E+00
        2   -1    0    0  501    0  0.00000000000E+00  0.00000000000E+00  0.28399650636E+03  0.28399650637E+03  0.25500000920E-02 0. -1.
       -2   -1    0    0    0  501  0.00000000000E+00  0.00000000000E+00 -0.21869257506E+03  0.21869257508E+03  0.25500000920E-02 0.  1.
    10030    2    1    2    0    0  0.00000000000E+00  0.00000000000E+00  0.65303931297E+02  0.50268908145E+03  0.49842924189E+03 0.  0.
        1    1    3    3  502    0 -0.24660051483E+03  0.25311152152E+02  0.68312258455E+01  0.24799018934E+03  0.50400001928E-02 0.  1.
       -1    1    3    3    0  502  0.24660051483E+03 -0.25311152152E+02  0.58472705451E+02  0.25469889211E+03  0.50400001928E-02 0. -1.
</event>
<event>
 5   0  0.3210875E-02  0.5006072E+03  0.7818609E-02  0.1013621E+00
       -4   -1    0    0    0  501  0.00000000000E+00  0.00000000000E+00  0.20771918951E+03  0.20772307188E+03  0.12699999809E+01 0.  1.
        4   -1    0    0  501    0  0.00000000000E+00  0.00000000000E+00 -0.30161016207E+03  0.30161283587E+03  0.12699999809E+01 0. -1.
    10030    2    1    2    0    0  0.00000000000E+00  0.00000000000E+00 -0.93890972558E+02  0.50933590776E+03  0.50060718353E+03 0.  0.
        1    1    3    3  502    0 -0.23979542914E+02 -0.68877893003E+02 -0.29056295993E+03  0.29957639482E+03  0.50400001928E-02 0. -1.
       -1    1    3    3    0  502  0.23979542914E+02  0.68877893003E+02  0.19667198738E+03  0.20975951293E+03  0.50400001928E-02 0.  1.
</event>
<event>
 5   0  0.5191358E-02  0.5018548E+03  0.7818609E-02  0.1013296E+00
       -1   -1    0    0    0  501  0.00000000000E+00  0.00000000000E+00  0.54790195338E+02  0.54790195570E+02  0.50400001928E-02 0. -1.
        1   -1    0    0  501    0  0.00000000000E+00  0.00000000000E+00 -0.11491939866E+04  0.11491939866E+04  0.50400001928E-02 0.  1.
    10030    2    1    2    0    0  0.00000000000E+00  0.00000000000E+00 -0.10944037912E+04  0.12039841822E+04  0.50185481228E+03 0.  0.
        4    1    3    3  502    0 -0.21282226972E+03  0.22525455833E+02 -0.86149121185E+03  0.88767642508E+03  0.12699999809E+01 0.  1.
       -4    1    3    3    0  502  0.21282226972E+03 -0.22525455833E+02 -0.23291257938E+03  0.31630775707E+03  0.12699999809E+01 0. -1.
</event>
<event>
 5   0  0.8208720E-02  0.5046721E+03  0.7818609E-02  0.1012567E+00
       -2   -1    0    0    0  501  0.00000000000E+00  0.00000000000E+00  0.73062317918E+02  0.73062317962E+02  0.25500000920E-02 0. -1.
        2   -1    0    0  501    0  0.00000000000E+00  0.00000000000E+00 -0.87149559899E+03  0.87149559899E+03  0.25500000920E-02 0.  1.
    10030    2    1    2    0    0  0.00000000000E+00  0.00000000000E+00 -0.79843328107E+03  0.94455791695E+03  0.50467212540E+03 0.  0.
        3    1    3    3  502    0 -0.12509594079E+03  0.52718270496E+02 -0.11041014443E+01  0.13575507242E+03  0.10100000352E+00 0. -1.
       -3    1    3    3    0  502  0.12509594079E+03 -0.52718270496E+02 -0.79732917963E+03  0.80880284454E+03  0.10100000352E+00 0.  1.
</event>
<event>
 5   0  0.4884478E-02  0.5079542E+03  0.7818609E-02  0.1011723E+00
       -1   -1    0    0    0  501  0.00000000000E+00  0.00000000000E+00  0.34941761737E+03  0.34941761740E+03  0.50400001928E-02 0. -1.
        1   -1    0    0  501    0  0.00000000000E+00  0.00000000000E+00 -0.18460535433E+03  0.18460535440E+03  0.50400001928E-02 0.  1.
    10030    2    1    2    0    0  0.00000000000E+00  0.00000000000E+00  0.16481226304E+03  0.53402297180E+03  0.50795418333E+03 0.  0.
        3    1    3    3  502    0 -0.45926836273E+02 -0.27679327261E+02  0.34339844906E+03  0.34755995808E+03  0.10100000352E+00 0. -1.
       -3    1    3    3    0  502  0.45926836273E+02  0.27679327261E+02 -0.17858618602E+03  0.18646301372E+03  0.10100000352E+00 0.  1.
</event>
<event>
 5   0  0.7698747E-02  0.4990277E+03  0.7818609E-02  0.1014033E+00
       -2   -1    0    0    0  501  0.00000000000E+00  0.00000000000E+00  0.77948430458E+02  0.77948430500E+02  0.25500000920E-02 0. -1.
        2   -1    0    0  501    0  0.00000000000E+00  0.00000000000E+00 -0.79869667056E+03  0.79869667056E+03  0.25500000920E-02 0.  1.
    10030    2    1    2    0    0  0.00000000000E+00  0.00000000000E+00 -0.72074824010E+03  0.87664510106E+03  0.49902766217E+03 0.  0.
        2    1    3    3  502    0 -0.22308020385E+03  0.11061513854E+03 -0.38851794257E+03  0.46146145877E+03  0.25500000920E-02 0.  1.
       -2    1    3    3    0  502  0.22308020385E+03 -0.11061513854E+03 -0.33223029752E+03  0.41518364229E+03  0.25500000920E-02 0. -1.
</event>
<event>
 5   0  0.8208720E-02  0.4993440E+03  0.7818609E-02  0.1013950E+00
        2   -1    0    0  501    0  0.00000000000E+00  0.00000000000E+00  0.15174185980E+04  0.15174185980E+04  0.25500000920E-02 0.  1.
       -2   -1    0    0    0  501  0.00000000000E+00  0.00000000000E+00 -0.41080371429E+02  0.41080371508E+02  0.25500000920E-02 0. -1.
    10030    2    1    2    0    0  0.00000000000E+00  0.00000000000E+00  0.14763382266E+04  0.15584989696E+04  0.49934404847E+03 0.  0.
        3    1    3    3  502    0  0.90286255538E+02  0.21304665744E+03  0.44545750096E+03  0.50196900457E+03  0.10100000352E+00 0. -1.
       -3    1    3    3    0  502 -0.90286255538E+02 -0.21304665744E+03  0.10308807257E+04  0.10565299650E+04  0.10100000352E+00 0.  1.
</event>
<event>
 5   0  0.7698747E-02  0.5032054E+03  0.7818609E-02  0.1012946E+00
       -2   -1    0    0    0  501  0.00000000000E+00  0.00000000000E+00  0.79157548340E+02  0.79157548381E+02  0.25500000920E-02 0. -1.
        2   -1    0    0  501    0  0.00000000000E+00  0.00000000000E+00 -0.79972066925E+03  0.79972066926E+03  0.25500000920E-02 0.  1.
    10030    2    1    2    0    0  0.00000000000E+00  0.00000000000E+00 -0.72056312091E+03  0.87887821764E+03  0.50320543540E+03 0.  0.
        2    1    3    3  502    0  0.71863294134E+02 -0.12944496949E+03 -0.49796998566E+01  0.14813888952E+03  0.25500000920E-02 0. -1.
       -2    1    3    3    0  502 -0.71863294134E+02  0.12944496949E+03 -0.71558342105E+03  0.73073932812E+03  0.25500000920E-02 0.  1.
</event>
<event>
 5   0  0.7698747E-02  0.5101456E+03  0.7818609E-02  0.1011164E+00
        2   -1    0    0  501    0  0.00000000000E+00  0.00000000000E+00  0.62309131984E+03  0.62309131985E+03  0.25500000920E-02 0.  1.
       -2   -1    0    0    0  501  0.00000000000E+00  0.00000000000E+00 -0.10441829226E+03  0.10441829230E+03  0.25500000920E-02 0. -1.
    10030    2    1    2    0    0  0.00000000000E+00  0.00000000000E+00  0.51867302758E+03  0.72750961214E+03  0.51014559316E+03 0.  0.
        2    1    3    3  502    0  0.17928317969E+03 -0.18836430777E+02  0.19894504264E+01  0.18028096839E+03  0.25500000920E-02 0. -1.
       -2    1    3    3    0  502 -0.17928317969E+03  0.18836430777E+02  0.51668357715E+03  0.54722864375E+03  0.25500000920E-02 0.  1.
</event>
<event>
 5   0  0.4803890E-02  0.5181757E+03  0.7818609E-02  0.1009141E+00
       -1   -1    0    0    0  501  0.00000000000E+00  0.00000000000E+00  0.24389715037E+03  0.24389715042E+03  0.50400001928E-02 0. -1.
        1   -1    0    0  501    0  0.00000000000E+00  0.00000000000E+00 -0.27522464663E+03  0.27522464668E+03  0.50400001928E-02 0.  1.
    10030    2    1    2    0    0  0.00000000000E+00  0.00000000000E+00 -0.31327496265E+02  0.51912179710E+03  0.51817567311E+03 0.  0.
        5    1    3    3  502    0 -0.16630199757E+03  0.12879250307E+03  0.13580938825E+03  0.25041993367E+03  0.46999998093E+01 0. -1.
       -5    1    3    3    0  502  0.16630199757E+03 -0.12879250307E+03 -0.16713688452E+03  0.26870186343E+03  0.46999998093E+01 0.  1.
</event>
<event>
 5   0  0.5191358E-02  0.5000120E+03  0.7818609E-02  0.1013776E+00
        1   -1    0    0  501    0  0.00000000000E+00  0.00000000000E+00  0.32860678798E+03  0.32860678801E+03  0.50400001928E-02 0. -1.
       -1   -1    0    0    0  501  0.00000000000E+00  0.00000000000E+00 -0.19020604121E+03  0.19020604127E+03  0.50400001928E-02 0.  1.
    10030    2    1    2    0    0  0.00000000000E+00  0.00000000000E+00  0.13840074677E+03  0.51881282929E+03  0.50001198498E+03 0.  0.
        4    1    3    3  502    0  0.21484637161E+03  0.10714116781E+03  0.14155910040E+03  0.27870914058E+03  0.12699999809E+01 0. -1.
       -4    1    3    3    0  502 -0.21484637161E+03 -0.10714116781E+03 -0.31583536352E+01  0.24010368871E+03  0.12699999809E+01 0.  1.
</event>
<event>
 5   0  0.7698747E-02  0.5037061E+03  0.7818609E-02  0.1012816E+00
       -2   -1    0    0    0  501  0.00000000000E+00  0.00000000000E+00  0.73316262814E+02  0.73316262858E+02  0.25500000920E-02 0.  1.
        2   -1    0    0  501    0  0.00000000000E+00  0.00000000000E+00 -0.86515521083E+03  0.86515521084E+03  0.25500000920E-02 0. -1.
    10030    2    1    2    0    0  0.00000000000E+00  0.00000000000E+00 -0.79183894802E+03  0.93847147369E+03  0.50370605251E+03 0.  0.
        2    1    3    3  502    0  0.24322894177E+03 -0.39742412610E+01 -0.51743567455E+03  0.57176550265E+03  0.25500000920E-02 0. -1.
       -2    1    3    3    0  502 -0.24322894177E+03  0.39742412610E+01 -0.27440327346E+03  0.36670597105E+03  0.25500000920E-02 0.  1.
</event>
<event>
 5   0  0.7698747E-02  0.4997047E+03  0.7818609E-02  0.1013856E+00
       -2   -1    0    0    0  501  0.00000000000E+00  0.00000000000E+00  0.66751403744E+02  0.66751403793E+02  0.25500000920E-02 0. -1.
        2   -1    0    0  501    0  0.00000000000E+00  0.00000000000E+00 -0.93520428530E+03  0.93520428530E+03  0.25500000920E-02 0.  1.
    10030    2    1    2    0    0  0.00000000000E+00  0.00000000000E+00 -0.86845288155E+03  0.10019556891E+04  0.49970470823E+03 0.  0.
        2    1    3    3  502    0  0.13147793948E+03 -0.55277140731E+02 -0.84556038514E+03  0.85750473805E+03  0.25500000920E-02 0.  1.
       -2    1    3    3    0  502 -0.13147793948E+03  0.55277140731E+02 -0.22892496410E+02  0.14445095104E+03  0.25500000920E-02 0. -1.
</event>
<event>
 5   0  0.4803890E-02  0.4966323E+03  0.7818609E-02  0.1014662E+00
       -1   -1    0    0    0  501  0.00000000000E+00  0.00000000000E+00  0.34567218705E+02  0.34567219072E+02  0.50400001928E-02 0. -1.
        1   -1    0    0  501    0  0.00000000000E+00  0.00000000000E+00 -0.17837972691E+04  0.17837972691E+04  0.50400001928E-02 0.  1.
    10030    2    1    2    0    0  0.00000000000E+00  0.00000000000E+00 -0.17492300504E+04  0.18183644882E+04  0.49663230127E+03 0.  0.
        5    1    3    3  502    0 -0.37459117191E+02  0.14963998115E+03 -0.15868801674E+04  0.15943669794E+04  0.46999998093E+01 0.  1.
       -5    1    3    3    0  502  0.37459117191E+02 -0.14963998115E+03 -0.16234988300E+03  0.22399750875E+03  0.46999998093E+01 0. -1.
</event>
<event>
 5   0  0.8208720E-02  0.4982437E+03  0.7818609E-02  0.1014238E+00
        2   -1    0    0  501    0  0.00000000000E+00  0.00000000000E+00  0.11360932828E+04  0.11360932828E+04  0.25500000920E-02 0.  1.
       -2   -1    0    0    0  501  0.00000000000E+00  0.00000000000E+00 -0.54627293441E+02  0.54627293501E+02  0.25500000920E-02 0. -1.
    10030    2    1    2    0    0  0.00000000000E+00  0.00000000000E+00  0.10814659894E+04  0.11907205763E+04  0.49824372018E+03 0.  0.
        3    1    3    3  502    0  0.50284520075E+02 -0.23936987390E+03  0.65371995014E+03  0.69798012357E+03  0.10100000352E+00 0.  1.
       -3    1    3    3    0  502 -0.50284520075E+02  0.23936987390E+03  0.42774603923E+03  0.49274045274E+03  0.10100000352E+00 0. -1.
</event>
<event>
 5   0  0.3210875E-02  0.5037103E+03  0.7818609E-02  0.1012815E+00
       -4   -1    0    0    0  501  0.00000000000E+00  0.00000000000E+00  0.62758929289E+03  0.62759057788E+03  0.12699999809E+01 0.  1.
        4   -1    0    0  501    0  0.00000000000E+00  0.00000000000E+00 -0.10106552009E+03  0.10107349925E+03  0.12699999809E+01 0. -1.
    10030    2    1    2    0    0  0.00000000000E+00  0.00000000000E+00  0.52652377280E+03  0.72866407713E+03  0.50371028775E+03 0.  0.
        4    1    3    3  502    0 -0.24565312482E+03  0.50498133091E+02  0.22983707692E+03  0.34017967900E+03  0.12699999809E+01 0. -1.
       -4    1    3    3    0  502  0.24565312482E+03 -0.50498133091E+02  0.29668669588E+03  0.38848439813E+03  0.12699999809E+01 0.  1.
</event>
<event>
 5   0  0.5191358E-02  0.4920846E+03  0.7818609E-02  0.1015866E+00
       -1   -1    0    0    0  501  0.00000000000E+00  0.00000000000E+00  0.17762720548E+03  0.17762720555E+03  0.50400001928E-02 0.  1.
        1   -1    0    0  501    0  0.00000000000E+00  0.00000000000E+00 -0.34080819778E+03  0.34080819782E+03  0.50400001928E-02 0. -1.
    10030    2    1    2    0    0  0.00000000000E+00  0.00000000000E+00 -0.16318099230E+03  0.51843540337E+03  0.49208457730E+03 0.  0.
        4    1    3    3  502    0  0.23671392835E+03  0.32187999653E+02 -0.19568340921E+02  0.23969581570E+03  0.12699999809E+01 0.  1.
       -4    1    3    3    0  502 -0.23671392835E+03 -0.32187999653E+02 -0.14361265138E+03  0.27873958767E+03  0.12699999809E+01 0. -1.
</event>
<event>
 5   0  0.7698747E-02  0.5023698E+03  0.7818609E-02  0.1013162E+00
        2   -1    0    0  501    0  0.00000000000E+00  0.00000000000E+00  0.59638045639E+03  0.59638045639E+03  0.25500000920E-02 0. -1.
       -2   -1    0    0    0  501  0.00000000000E+00  0.00000000000E+00 -0.10579462967E+03  0.10579462970E+03  0.25500000920E-02 0.  1.
    10030    2    1    2    0    0  0.00000000000E+00  0.00000000000E+00  0.49058582672E+03  0.70217508609E+03  0.50236978228E+03 0.  0.
        2    1    3    3  502    0  0.12036697114E+03  0.62586009805E+02 -0.50181883988E+02  0.14464936174E+03  0.25500000920E-02 0.  1.
       -2    1    3    3    0  502 -0.12036697114E+03 -0.62586009805E+02  0.54076771071E+03  0.55752572435E+03  0.25500000920E-02 0. -1.
</event>
<event>
 5   0  0.7933103E-02  0.4947466E+03  0.7818609E-02  0.1015159E+00
        2   -1    0    0  501    0  0.00000000000E+00  0.00000000000E+00  0.15969864945E+04  0.15969864945E+04  0.25500000920E-02 0. -1.
       -2   -1    0    0    0  501  0.00000000000E+00  0.00000000000E+00 -0.38318133945E+02  0.38318134030E+02  0.25500000920E-02 0.  1.
    10030    2    1    2    0    0  0.00000000000E+00  0.00000000000E+00  0.15586683606E+04  0.16353046286E+04  0.49474657140E+03 0.  0.
        5    1    3    3  502    0 -0.11066141562E+03  0.55720162594E+02  0.14868677501E+04  0.14920283113E+04  0.46999998093E+01 0. -1.
       -5    1    3    3    0  502  0.11066141562E+03 -0.55720162594E+02  0.71800610501E+02  0.14327631728E+03  0.46999998093E+01 0.  1.
</event>
<event>
 5   0  0.3210875E-02  0.4993811E+03  0.7818609E-02  0.1013941E+00
        4   -1    0    0  501    0  0.00000000000E+00  0.00000000000E+00  0.88314052386E+02  0.88323183529E+02  0.12699999809E+01 0. -1.
       -4   -1    0    0    0  501  0.00000000000E+00  0.00000000000E+00 -0.70590455259E+03  0.70590569502E+03  0.12699999809E+01 0.  1.
    10030    2    1    2    0    0  0.00000000000E+00  0.00000000000E+00 -0.61759050020E+03  0.79422887855E+03  0.49938110255E+03 0.  0.
        4    1    3    3  502    0 -0.19924088485E+03  0.96625936207E+02 -0.12530762194E+03  0.25443489296E+03  0.12699999809E+01 0. -1.
       -4    1    3    3    0  502  0.19924088485E+03 -0.96625936207E+02 -0.49228287826E+03  0.53979398558E+03  0.12699999809E+01 0.  1.
</event>
<event>
 5   0  0.4803890E-02  0.4962017E+03  0.7818609E-02  0.1014775E+00
       -1   -1    0    0    0  501  0.00000000000E+00  0.00000000000E+00  0.55717392143E+03  0.55717392146E+03  0.50400001928E-02 0.  1.
        1   -1    0    0  501    0  0.00000000000E+00  0.00000000000E+00 -0.11047541495E+03  0.11047541506E+03  0.50400001928E-02 0. -1.
    10030    2    1    2    0    0  0.00000000000E+00  0.00000000000E+00  0.44669850649E+03  0.66764933652E+03  0.49620165342E+03 0.  0.
        5    1    3    3  502    0  0.24216411623E+03 -0.20399625487E+02  0.15644663567E+03  0.28906269859E+03  0.46999998093E+01 0.  1.
       -5    1    3    3    0  502 -0.24216411623E+03  0.20399625487E+02  0.29025187082E+03  0.37858663793E+03  0.46999998093E+01 0. -1.
</event>
<event>
 5   0  0.7776070E-02  0.4954757E+03  0.7818609E-02  0.1014967E+00
       -2   -1    0    0    0  501  0.00000000000E+00  0.00000000000E+00  0.38642291712E+02  0.38642291796E+02  0.25500000920E-02 0.  1.
        2   -1    0    0  501    0  0.00000000000E+00  0.00000000000E+00 -0.15882611502E+04  0.15882611502E+04  0.25500000920E-02 0. -1.
    10030    2    1    2    0    0  0.00000000000E+00  0.00000000000E+00 -0.15496188585E+04  0.16269034420E+04  0.49547573403E+03 0.  0.
        4    1    3    3  502    0  0.56938662219E+02  0.17642359880E+03 -0.23522102527E+03  0.29949597843E+03  0.12699999809E+01 0.  1.
       -4    1    3    3    0  502 -0.56938662219E+02 -0.17642359880E+03 -0.13143978333E+04  0.13274074636E+04  0.12699999809E+01 0. -1.
</event>
<event>
 5   0  0.4884478E-02  0.5089303E+03  0.7818609E-02  0.1011474E+00
        1   -1    0    0  501    0  0.00000000000E+00  0.00000000000E+00  0.45301592430E+03  0.45301592433E+03  0.50400001928E-02 0. -1.
       -1   -1    0    0    0  501  0.00000000000E+00  0.00000000000E+00 -0.14293651671E+03  0.14293651680E+03  0.50400001928E-02 0.  1.
    10030    2    1    2    0    0  0.00000000000E+00  0.00000000000E+00  0.31007940759E+03  0.59595244113E+03  0.50893032242E+03 0.  0.
        3    1    3    3  502    0  0.36906644707E+01 -0.18203361276E+03 -0.53128805710E+02  0.18966427543E+03  0.10100000352E+00 0.  1.
       -3    1    3    3    0  502 -0.36906644707E+01  0.18203361276E+03  0.36320821330E+03  0.40628816570E+03  0.10100000352E+00 0. -1.
</event>
<event>
 5   0  0.4865501E-02  0.5022205E+03  0.7818609E-02  0.1013201E+00
        1   -1    0    0  501    0  0.00000000000E+00  0.00000000000E+00  0.69196036655E+03  0.69196036657E+03  0.50400001928E-02 0.  1.
       -1   -1    0    0    0  501  0.00000000000E+00  0.00000000000E+00 -0.91127138879E+02  0.91127139019E+02  0.50400001928E-02 0. -1.
    10030    2    1    2    0    0  0.00000000000E+00  0.00000000000E+00  0.60083322767E+03  0.78308750559E+03  0.50222054312E+03 0.  0.
        2    1    3    3  502    0 -0.21659546030E+03  0.63986515377E+02  0.12926447583E+03  0.26022523377E+03  0.25500000920E-02 0. -1.
       -2    1    3    3    0  502  0.21659546030E+03 -0.63986515377E+02  0.47156875185E+03  0.52286227182E+03  0.25500000920E-02 0.  1.
</event>
<event>
 5   0  0.7698747E-02  0.4950786E+03  0.7818609E-02  0.1015072E+00
        2   -1    0    0  501    0  0.00000000000E+00  0.00000000000E+00  0.59295317236E+03  0.59295317237E+03  0.25500000920E-02 0. -1.
       -2   -1    0    0    0  501  0.00000000000E+00  0.00000000000E+00 -0.10333985718E+03  0.10333985722E+03  0.25500000920E-02 0.  1.
    10030    2    1    2    0    0  0.00000000000E+00  0.00000000000E+00  0.48961331518E+03  0.69629302958E+03  0.49507856412E+03 0.  0.
        2    1    3    3  502    0 -0.20695180539E+03 -0.54246973570E+02  0.41992779766E+03  0.47128668467E+03  0.25500000920E-02 0.  1.
       -2    1    3    3    0  502  0.20695180539E+03  0.54246973570E+02  0.69685517520E+02  0.22500634492E+03  0.25500000920E-02 0. -1.
</event>
<event>
 5   0  0.8208720E-02  0.4974130E+03  0.7818609E-02  0.1014456E+00
        2   -1    0    0  501    0  0.00000000000E+00  0.00000000000E+00  0.10828275189E+04  0.10828275189E+04  0.25500000920E-02 0.  1.
       -2   -1    0    0    0  501  0.00000000000E+00  0.00000000000E+00 -0.57123529306E+02  0.57123529363E+02  0.25500000920E-02 0. -1.
    10030    2    1    2    0    0  0.00000000000E+00  0.00000000000E+00  0.10257039896E+04  0.11399510483E+04  0.49741302575E+03 0.  0.
        3    1    3    3  502    0 -0.14513034648E+03  0.65881755346E+02  0.75301761942E+02  0.17627702263E+03  0.10100000352E+00 0. -1.
       -3    1    3    3    0  502  0.14513034648E+03 -0.65881755346E+02  0.95040222770E+03  0.96367402568E+03  0.10100000352E+00 0.  1.
</event>
<event>
 5   0  0.5191358E-02  0.5031743E+03  0.7818609E-02  0.1012954E+00
        1   -1    0    0  501    0  0.00000000000E+00  0.00000000000E+00  0.85560610248E+02  0.85560610396E+02  0.50400001928E-02 0. -1.
       -1   -1    0    0    0  501  0.00000000000E+00  0.00000000000E+00 -0.73978087561E+03  0.73978087563E+03  0.50400001928E-02 0.  1.
    10030    2    1    2    0    0  0.00000000000E+00  0.00000000000E+00 -0.65422026537E+03  0.82534148603E+03  0.50317433653E+03 0.  0.
        4    1    3    3  502    0 -0.18156155967E+03 -0.12437216402E+03 -0.52707139115E+03  0.57117326566E+03  0.12699999809E+01 0.  1.
       -4    1    3    3    0  502  0.18156155967E+03  0.12437216402E+03 -0.12714887422E+03  0.25416822037E+03  0.12699999809E+01 0. -1.
</event>
<event>
 5   0  0.8208720E-02  0.5018087E+03  0.7818609E-02  0.1013308E+00
        2   -1    0    0  501    0  0.00000000000E+00  0.00000000000E+00  0.13551044169E+04  0.13551044169E+04  0.25500000920E-02 0. -1.
       -2   -1    0    0    0  501  0.00000000000E+00  0.00000000000E+00 -0.46456187488E+02  0.46456187558E+02  0.25500000920E-02 0.  1.
    10030    2    1    2    0    0  0.00000000000E+00  0.00000000000E+00  0.13086482294E+04  0.14015606045E+04  0.50180866836E+03 0.  0.
        3    1    3    3  502    0  0.19221604852E+03  0.82804675874E+02  0.26782299807E+03  0.33990115056E+03  0.10100000352E+00 0.  1.
       -3    1    3    3    0  502 -0.19221604852E+03 -0.82804675874E+02  0.10408252314E+04  0.10616594539E+04  0.10100000352E+00 0. -1.
</event>
<event>
 5   0  0.3210875E-02  0.4905938E+03  0.7818609E-02  0.1016264E+00
       -3   -1    0    0    0  501  0.00000000000E+00  0.00000000000E+00  0.23218810442E+03  0.23218812638E+03  0.10100000352E+00 0. -1.
        3   -1    0    0  501    0  0.00000000000E+00  0.00000000000E+00 -0.25914575086E+03  0.25914577054E+03  0.10100000352E+00 0.  1.
    10030    2    1    2    0    0  0.00000000000E+00  0.00000000000E+00 -0.26957646444E+02  0.49133389693E+03  0.49059380710E+03 0.  0.
        1    1    3    3  502    0  0.15188078064E+03 -0.88689861641E+02 -0.18472480284E+03  0.25506257250E+03  0.50400001928E-02 0.  1.
       -1    1    3    3    0  502 -0.15188078064E+03  0.88689861641E+02  0.15776715639E+03  0.23627132442E+03  0.50400001928E-02 0. -1.
</event>
<event>
 5   0  0.4884478E-02  0.4931187E+03  0.7818609E-02  0.1015591E+00
        1   -1    0    0  501    0  0.00000000000E+00  0.00000000000E+00  0.54353813134E+03  0.54353813136E+03  0.50400001928E-02 0.  1.
       -1   -1    0    0    0  501  0.00000000000E+00  0.00000000000E+00 -0.11184405271E+03  0.11184405282E+03  0.50400001928E-02 0. -1.
    10030    2    1    2    0    0  0.00000000000E+00  0.00000000000E+00  0.43169407863E+03  0.65538218418E+03  0.49311867722E+03 0.  0.
        3    1    3    3  502    0 -0.12360371448E+03  0.20027722018E+02 -0.66440476584E+02  0.14175096124E+03  0.10100000352E+00 0. -1.
       -3    1    3    3    0  502  0.12360371448E+03 -0.20027722018E+02  0.49813455521E+03  0.51363122294E+03  0.10100000352E+00 0.  1.
</event>
<event>
 5   0  0.7698747E-02  0.5007250E+03  0.7818609E-02  0.1013590E+00
       -2   -1    0    0    0  501  0.00000000000E+00  0.00000000000E+00  0.11912934512E+03  0.11912934515E+03  0.25500000920E-02 0.  1.
        2   -1    0    0  501    0  0.00000000000E+00  0.00000000000E+00 -0.52616238762E+03  0.52616238762E+03  0.25500000920E-02 0. -1.
    10030    2    1    2    0    0  0.00000000000E+00  0.00000000000E+00 -0.40703304250E+03  0.64529173277E+03  0.50072499708E+03 0.  0.
        2    1    3    3  502    0 -0.14943523017E+03 -0.63732058409E+02 -0.44901151356E+03  0.47749764669E+03  0.25500000920E-02 0. -1.
       -2    1    3    3    0  502  0.14943523017E+03  0.63732058409E+02  0.41978471060E+02  0.16779408608E+03  0.25500000920E-02 0.  1.
</event>
<event>
 5   0  0.8208720E-02  0.5512694E+03  0.7818609E-02  0.1001201E+00
       -2   -1    0    0    0  501  0.00000000000E+00  0.00000000000E+00  0.19575624414E+03  0.19575624415E+03  0.25500000920E-02 0.  1.
        2   -1    0    0  501    0  0.00000000000E+00  0.00000000000E+00 -0.38810754649E+03  0.38810754650E+03  0.25500000920E-02 0. -1.
    10030    2    1    2    0    0  0.00000000000E+00  0.00000000000E+00 -0.19235130235E+03  0.58386379065E+03  0.55126935569E+03 0.  0.
        3    1    3    3  502    0  0.20658862397E+03 -0.14486132526E+03 -0.21368999235E+03  0.33064646700E+03  0.10100000352E+00 0.  1.
       -3    1    3    3    0  502 -0.20658862397E+03  0.14486132526E+03  0.21338689997E+02  0.25321732365E+03  0.10100000352E+00 0. -1.
</event>
<event>
 5   0  0.7881060E-02  0.5037837E+03  0.7818609E-02  0.1012796E+00
       -2   -1    0    0    0  501  0.00000000000E+00  0.00000000000E+00  0.51967966043E+02  0.51967966106E+02  0.25500000920E-02 0.  1.
        2   -1    0    0  501    0  0.00000000000E+00  0.00000000000E+00 -0.12209348769E+04  0.12209348769E+04  0.25500000920E-02 0. -1.
    10030    2    1    2    0    0  0.00000000000E+00  0.00000000000E+00 -0.11689669108E+04  0.12729028430E+04  0.50378369272E+03 0.  0.
        1    1    3    3  502    0 -0.21774894779E+03 -0.13468909226E+02 -0.26634692233E+03  0.34429158985E+03  0.50400001928E-02 0. -1.
       -1    1    3    3    0  502  0.21774894779E+03  0.13468909226E+02 -0.90261998850E+03  0.92861125313E+03  0.50400001928E-02 0.  1.
</event>
<event>
 5   0  0.5191358E-02  0.4995115E+03  0.7818609E-02  0.1013907E+00
        1   -1    0    0  501    0  0.00000000000E+00  0.00000000000E+00  0.16814803688E+04  0.16814803688E+04  0.50400001928E-02 0.  1.
       -1   -1    0    0    0  501  0.00000000000E+00  0.00000000000E+00 -0.37097033018E+02  0.37097033361E+02  0.50400001928E-02 0. -1.
    10030    2    1    2    0    0  0.00000000000E+00  0.00000000000E+00  0.16443833358E+04  0.17185774022E+04  0.49951149361E+03 0.  0.
        4    1    3    3  502    0 -0.22840675662E+03  0.10057684743E+03  0.78937638296E+03  0.82789011081E+03  0.12699999809E+01 0.  1.
       -4    1    3    3    0  502  0.22840675662E+03 -0.10057684743E+03  0.85500695282E+03  0.89068729136E+03  0.12699999809E+01 0. -1.
</event>
<event>
 5   0  0.8208720E-02  0.4960557E+03  0.7818609E-02  0.1014814E+00
        2   -1    0    0  501    0  0.00000000000E+00  0.00000000000E+00  0.15703421855E+03  0.15703421857E+03  0.25500000920E-02 0.  1.
       -2   -1    0    0    0  501  0.00000000000E+00  0.00000000000E+00 -0.39174781649E+03  0.39174781650E+03  0.25500000920E-02 0. -1.
    10030    2    1    2    0    0  0.00000000000E+00  0.00000000000E+00 -0.23471359794E+03  0.54878203507E+03  0.49605569139E+03 0.  0.
        3    1    3    3  502    0 -0.19859808545E+03  0.12326340591E+02 -0.28116510549E+03  0.34445168742E+03  0.10100000352E+00 0. -1.
       -3    1    3    3    0  502  0.19859808545E+03 -0.12326340591E+02  0.46451507550E+02  0.20433034765E+03  0.10100000352E+00 0.  1.
</event>
<event>
 5   0  0.5191358E-02  0.4988433E+03  0.7818609E-02  0.1014081E+00
        1   -1    0    0  501    0  0.00000000000E+00  0.00000000000E+00  0.86250189247E+02  0.86250189395E+02  0.50400001928E-02 0.  1.
       -1   -1    0    0    0  501  0.00000000000E+00  0.00000000000E+00 -0.72128709813E+03  0.72128709815E+03  0.50400001928E-02 0. -1.
    10030    2    1    2    0    0  0.00000000000E+00  0.00000000000E+00 -0.63503690888E+03  0.80753728754E+03  0.49884325707E+03 0.  0.
        4    1    3    3  502    0 -0.64642839543E+02 -0.96116980487E+02  0.40062528799E+02  0.12257156993E+03  0.12699999809E+01 0.  1.
       -4    1    3    3    0  502  0.64642839543E+02  0.96116980487E+02 -0.67509943768E+03  0.68496571761E+03  0.12699999809E+01 0. -1.
</event>
<event>
 5   0  0.7933103E-02  0.5203832E+03  0.7818609E-02  0.1008591E+00
       -2   -1    0    0    0  501  0.00000000000E+00  0.00000000000E+00  0.26135315661E+03  0.26135315663E+03  0.25500000920E-02 0.  1.
        2   -1    0    0  501    0  0.00000000000E+00  0.00000000000E+00 -0.25903521636E+03  0.25903521637E+03  0.25500000920E-02 0. -1.
    10030    2    1    2    0    0  0.00000000000E+00  0.00000000000E+00  0.23179402526E+01  0.52038837300E+03  0.52038321063E+03 0.  0.
        5    1    3    3  502    0  0.14713740652E+03 -0.16248615102E+03  0.14125467031E+03  0.26081820786E+03  0.46999998093E+01 0.  1.
       -5    1    3    3    0  502 -0.14713740652E+03  0.16248615102E+03 -0.13893673006E+03  0.25957016513E+03  0.46999998093E+01 0. -1.
</event>
<event>
 5   0  0.5191358E-02  0.5003836E+03  0.7818609E-02  0.1013679E+00
        1   -1    0    0  501    0  0.00000000000E+00  0.00000000000E+00  0.72671773715E+03  0.72671773716E+03  0.50400001928E-02 0.  1.
       -1   -1    0    0    0  501  0.00000000000E+00  0.00000000000E+00 -0.86135141568E+02  0.86135141715E+02  0.50400001928E-02 0. -1.
    10030    2    1    2    0    0  0.00000000000E+00  0.00000000000E+00  0.64058259558E+03  0.81285287888E+03  0.50038359380E+03 0.  0.
        4    1    3    3  502    0  0.21355697525E+03 -0.10159915437E+03  0.18766780936E+03  0.30191023403E+03  0.12699999809E+01 0. -1.
       -4    1    3    3    0  502 -0.21355697525E+03  0.10159915437E+03  0.45291478622E+03  0.51094264485E+03  0.12699999809E+01 0.  1.
</event>
<event>
 5   0  0.4884478E-02  0.4946893E+03  0.7818609E-02  0.1015174E+00
        1   -1    0    0  501    0  0.00000000000E+00  0.00000000000E+00  0.77520737916E+03  0.77520737918E+03  0.50400001928E-02 0.  1.
       -1   -1    0    0    0  501  0.00000000000E+00  0.00000000000E+00 -0.78920004880E+02  0.78920005040E+02  0.50400001928E-02 0. -1.
    10030    2    1    2    0    0  0.00000000000E+00  0.00000000000E+00  0.69628737428E+03  0.85412738422E+03  0.49468927711E+03 0.  0.
        3    1    3    3  502    0  0.11358755333E+02  0.21799923483E+03  0.54895382484E+03  0.59076475836E+03  0.10100000352E+00 0. -1.
       -3    1    3    3    0  502 -0.11358755333E+02 -0.21799923483E+03  0.14733354944E+03  0.26336262586E+03  0.10100000352E+00 0.  1.
</event>
<event>
 5   0  0.7881060E-02  0.4993502E+03  0.7818609E-02  0.1013949E+00
        2   -1    0    0  501    0  0.00000000000E+00  0.00000000000E+00  0.76682424737E+03  0.76682424738E+03  0.25500000920E-02 0. -1.
       -2   -1    0    0    0  501  0.00000000000E+00  0.00000000000E+00 -0.81293280172E+02  0.81293280212E+02  0.25500000920E-02 0.  1.
    10030    2    1    2    0    0  0.00000000000E+00  0.00000000000E+00  0.68553096720E+03  0.84811752759E+03  0.49935021139E+03 0.  0.
        1    1    3    3  502    0 -0.22668960392E+03 -0.52470860198E+02  0.49653118611E+03  0.54834714051E+03  0.50400001928E-02 0. -1.
       -1    1    3    3    0  502  0.22668960392E+03  0.52470860198E+02  0.18899978109E+03  0.29977038708E+03  0.50400001928E-02 0.  1.
</event>
<event>
 5   0  0.7776070E-02  0.5034386E+03  0.7818609E-02  0.1012885E+00
        2   -1    0    0  501    0  0.00000000000E+00  0.00000000000E+00  0.42284288080E+03  0.42284288081E+03  0.25500000920E-02 0.  1.
       -2   -1    0    0    0  501  0.00000000000E+00  0.00000000000E+00 -0.14984903562E+03  0.14984903564E+03  0.25500000920E-02 0. -1.
    10030    2    1    2    0    0  0.00000000000E+00  0.00000000000E+00  0.27299384518E+03  0.57269191644E+03  0.50343856791E+03 0.  0.
        4    1    3    3  502    0 -0.10915293630E+03  0.40407456166E+01 -0.12148190976E+03  0.16337122888E+03  0.12699999809E+01 0. -1.
       -4    1    3    3    0  502  0.10915293630E+03 -0.40407456166E+01  0.39447575494E+03  0.40932068756E+03  0.12699999809E+01 0.  1.
</event>
<event>
 5   0  0.8208720E-02  0.5017947E+03  0.7818609E-02  0.1013312E+00
        2   -1    0    0  501    0  0.00000000000E+00  0.00000000000E+00  0.23290411719E+04  0.23290411719E+04  0.25500000920E-02 0.  1.
       -2   -1    0    0    0  501  0.00000000000E+00  0.00000000000E+00 -0.27028071811E+02  0.27028071932E+02  0.25500000920E-02 0. -1.
    10030    2    1    2    0    0  0.00000000000E+00  0.00000000000E+00  0.23020131001E+04  0.23560692438E+04  0.50179474764E+03 0.  0.
        3    1    3    3  502    0  0.18193292297E+03 -0.65110200624E+02  0.19024069752E+04  0.19121953970E+04  0.10100000352E+00 0.  1.
       -3    1    3    3    0  502 -0.18193292297E+03  0.65110200624E+02  0.39960612489E+03  0.44387384687E+03  0.10100000352E+00 0. -1.
</event>
<event>
 5   0  0.4865501E-02  0.5123681E+03  0.7818609E-02  0.1010600E+00
       -1   -1    0    0    0  501  0.00000000000E+00  0.00000000000E+00  0.11232424415E+03  0.11232424426E+03  0.50400001928E-02 0.  1.
        1   -1    0    0  501    0  0.00000000000E+00  0.00000000000E+00 -0.58429301374E+03  0.58429301376E+03  0.50400001928E-02 0. -1.
    10030    2    1    2    0    0  0.00000000000E+00  0.00000000000E+00 -0.47196876959E+03  0.69661725802E+03  0.51236811445E+03 0.  0.
        2    1    3    3  502    0  0.77943794608E+02 -0.15952626299E+03 -0.48707479292E+03  0.51842619301E+03  0.25500000920E-02 0. -1.
       -2    1    3    3    0  502 -0.77943794608E+02  0.15952626299E+03  0.15106023327E+02  0.17819106501E+03  0.25500000920E-02 0.  1.
</event>
<event>
 5   0  0.4865501E-02  0.5014268E+03  0.7818609E-02  0.1013407E+00
       -1   -1    0    0    0  501  0.00000000000E+00  0.00000000000E+00  0.16823565507E+03  0.16823565515E+03  0.50400001928E-02 0. -1.
        1   -1    0    0  501    0  0.00000000000E+00  0.00000000000E+00 -0.37362598907E+03  0.37362598911E+03  0.50400001928E-02 0.  1.
    10030    2    1    2    0    0  0.00000000000E+00  0.00000000000E+00 -0.20539033400E+03  0.54186164426E+03  0.50142681641E+03 0.  0.
        2    1    3    3  502    0  0.27203197202E+02 -0.22497530788E+03 -0.21859752325E+03  0.31486311354E+03  0.25500000920E-02 0. -1.
       -2    1    3    3    0  502 -0.27203197202E+02  0.22497530788E+03  0.13207189245E+02  0.22699853072E+03  0.25500000920E-02 0.  1.
</event>
<event>
 5   0  0.7933103E-02  0.5007668E+03  0.7818609E-02  0.1013579E+00
       -2   -1    0    0    0  501  0.00000000000E+00  0.00000000000E+00  0.37369952667E+02  0.37369952754E+02  0.25500000920E-02 0. -1.
        2   -1    0    0  501    0  0.00000000000E+00  0.00000000000E+00 -0.16776004733E+04  0.16776004733E+04  0.25500000920E-02 0.  1.
    10030    2    1    2    0    0  0.00000000000E+00  0.00000000000E+00 -0.16402305206E+04  0.17149704260E+04  0.50076681343E+03 0.  0.
        5    1    3    3  502    0  0.76625242852E+02  0.10269573845E+03 -0.83592846045E+02  0.15306108730E+03  0.46999998093E+01 0. -1.
       -5    1    3    3    0  502 -0.76625242852E+02 -0.10269573845E+03 -0.15566376746E+04  0.15619093387E+04  0.46999998093E+01 0.  1.
</event>
<event>
 5   0  0.5038436E-02  0.4986761E+03  0.7818609E-02  0.1014125E+00
        1   -1    0    0  501    0  0.00000000000E+00  0.00000000000E+00  0.17571695089E+03  0.17571695096E+03  0.50400001928E-02 0.  1.
       -1   -1    0    0    0  501  0.00000000000E+00  0.00000000000E+00 -0.35380454114E+03  0.35380454117E+03  0.50400001928E-02 0. -1.
    10030    2    1    2    0    0  0.00000000000E+00  0.00000000000E+00 -0.17808759024E+03  0.52952149213E+03  0.49867606804E+03 0.  0.
        1    1    3    3  502    0 -0.38766321516E+02 -0.88994029011E+02  0.15482861620E+03  0.18274207316E+03  0.50400001928E-02 0.  1.
       -1    1    3    3    0  502  0.38766321516E+02  0.88994029011E+02 -0.33291620645E+03  0.34677941897E+03  0.50400001928E-02 0. -1.
</event>
<event>
 5   0  0.8208720E-02  0.5002676E+03  0.7818609E-02  0.1013709E+00
       -2   -1    0    0    0  501  0.00000000000E+00  0.00000000000E+00  0.12453431846E+03  0.12453431848E+03  0.25500000920E-02 0.  1.
        2   -1    0    0  501    0  0.00000000000E+00  0.00000000000E+00 -0.50240709686E+03  0.50240709687E+03  0.25500000920E-02 0. -1.
    10030    2    1    2    0    0  0.00000000000E+00  0.00000000000E+00 -0.37787277841E+03  0.62694141535E+03  0.50026763000E+03 0.  0.
        3    1    3    3  502    0  0.28518090679E+02  0.16810636714E+03  0.40418132739E+02  0.17523318129E+03  0.10100000352E+00 0.  1.
       -3    1    3    3    0  502 -0.28518090679E+02 -0.16810636714E+03 -0.41829091115E+03  0.45170823406E+03  0.10100000352E+00 0. -1.
</event>
<event>
 5   0  0.3210875E-02  0.5002823E+03  0.7818609E-02  0.1013705E+00
        4   -1    0    0  501    0  0.00000000000E+00  0.00000000000E+00  0.27038457819E+03  0.27038756078E+03  0.12699999809E+01 0. -1.
       -4   -1    0    0    0  501  0.00000000000E+00  0.00000000000E+00 -0.23140730356E+03  0.23141078851E+03  0.12699999809E+01 0.  1.
    10030    2    1    2    0    0  0.00000000000E+00  0.00000000000E+00  0.38977274636E+02  0.50179834929E+03  0.50028227574E+03 0.  0.
        1    1    3    3  502    0  0.57944499776E+02 -0.63551901032E+02  0.25509230880E+03  0.26919973108E+03  0.50400001928E-02 0. -1.
       -1    1    3    3    0  502 -0.57944499776E+02  0.63551901032E+02 -0.21611503416E+03  0.23259861822E+03  0.50400001928E-02 0.  1.
</event>
<event>
 5   0  0.5191358E-02  0.5055041E+03  0.7818609E-02  0.1012352E+00
       -1   -1    0    0    0  501  0.00000000000E+00  0.00000000000E+00  0.64402904627E+02  0.64402904824E+02  0.50400001928E-02 0. -1.
        1   -1    0    0  501    0  0.00000000000E+00  0.00000000000E+00 -0.99193679978E+03  0.99193679979E+03  0.50400001928E-02 0.  1.
    10030    2    1    2    0    0  0.00000000000E+00  0.00000000000E+00 -0.92753389515E+03  0.10563397046E+04  0.50550414923E+03 0.  0.
        4    1    3    3  502    0  0.16950502774E+03  0.13672046606E+03 -0.73184519591E+03  0.76355971865E+03  0.12699999809E+01 0.  1.
       -4    1    3    3    0  502 -0.16950502774E+03 -0.13672046606E+03 -0.19568869925E+03  0.29277998597E+03  0.12699999809E+01 0. -1.
</event>
<event>
 5   0  0.4803890E-02  0.5002970E+03  0.7818609E-02  0.1013701E+00
        1   -1    0    0  501    0  0.00000000000E+00  0.00000000000E+00  0.13491611896E+03  0.13491611906E+03  0.50400001928E-02 0.  1.
       -1   -1    0    0    0  501  0.00000000000E+00  0.00000000000E+00 -0.46380125471E+03  0.46380125473E+03  0.50400001928E-02 0. -1.
    10030    2    1    2    0    0  0.00000000000E+00  0.00000000000E+00 -0.32888513574E+03  0.59871737379E+03  0.50029697297E+03 0.  0.
        5    1    3    3  502    0  0.91021368943E+02 -0.49919297543E+02 -0.43674749832E+03  0.44894018884E+03  0.46999998093E+01 0. -1.
       -5    1    3    3    0  502 -0.91021368943E+02  0.49919297543E+02  0.10786236258E+03  0.14977718495E+03  0.46999998093E+01 0.  1.
</event>
<event>
 5   0  0.7776070E-02  0.4945192E+03  0.7818609E-02  0.1015219E+00
        2   -1    0    0  501    0  0.00000000000E+00  0.00000000000E+00  0.10677331783E+04  0.10677331783E+04  0.25500000920E-02 0.  1.
       -2   -1    0    0    0  501  0.00000000000E+00  0.00000000000E+00 -0.57258976794E+02  0.57258976851E+02  0.25500000920E-02 0. -1.
    10030    2    1    2    0    0  0.00000000000E+00  0.00000000000E+00  0.10104742015E+04  0.11249921551E+04  0.49451919806E+03 0.  0.
        4    1    3    3  502    0 -0.14177851725E+03 -0.28980048279E+02  0.96132732308E+03  0.97215884821E+03  0.12699999809E+01 0.  1.
       -4    1    3    3    0  502  0.14177851725E+03  0.28980048279E+02  0.49146878414E+02  0.15283330693E+03  0.12699999809E+01 0. -1.
</event>
<event>
 5   0  0.4803890E-02  0.4988022E+03  0.7818609E-02  0.1014092E+00
       -1   -1    0    0    0  501  0.00000000000E+00  0.00000000000E+00  0.10375614576E+03  0.10375614589E+03  0.50400001928E-02 0. -1.
        1   -1    0    0  501    0  0.00000000000E+00  0.00000000000E+00 -0.59949134233E+03  0.59949134235E+03  0.50400001928E-02 0.  1.
    10030    2    1    2    0    0  0.00000000000E+00  0.00000000000E+00 -0.49573519657E+03  0.70324748824E+03  0.49880220990E+03 0.  0.
        5    1    3    3  502    0  0.91015194579E+02  0.31098321899E+02  0.76488716084E+02  0.12297757908E+03  0.46999998093E+01 0. -1.
       -5    1    3    3    0  502 -0.91015194579E+02 -0.31098321899E+02 -0.57222391265E+03  0.58026990916E+03  0.46999998093E+01 0.  1.
</event>
<event>
 5   0  0.7698747E-02  0.5038093E+03  0.7818609E-02  0.1012789E+00
        2   -1    0    0  501    0  0.00000000000E+00  0.00000000000E+00  0.60592987439E+03  0.60592987440E+03  0.25500000920E-02 0.  1.
       -2   -1    0    0    0  501  0.00000000000E+00  0.00000000000E+00 -0.10472491593E+03  0.10472491596E+03  0.25500000920E-02 0. -1.
    10030    2    1    2    0    0  0.00000000000E+00  0.00000000000E+00  0.50120495846E+03  0.71065479036E+03  0.50380930984E+03 0.  0.
        2    1    3    3  502    0  0.12713082984E+03  0.15589422589E+03  0.46448169053E+03  0.50617042427E+03  0.25500000920E-02 0.  1.
       -2    1    3    3    0  502 -0.12713082984E+03 -0.15589422589E+03  0.36723267930E+02  0.20448436609E+03  0.25500000920E-02 0. -1.
</event>
<event>
 5   0  0.4865501E-02  0.4981998E+03  0.7818609E-02  0.1014250E+00
        1   -1    0    0  501    0  0.00000000000E+00  0.00000000000E+00  0.17596357643E+04  0.17596357643E+04  0.50400001928E-02 0. -1.
       -1   -1    0    0    0  501  0.00000000000E+00  0.00000000000E+00 -0.35263412197E+02  0.35263412557E+02  0.50400001928E-02 0.  1.
    10030    2    1    2    0    0  0.00000000000E+00  0.00000000000E+00  0.17243723521E+04  0.17948991769E+04  0.49819980571E+03 0.  0.
        2    1    3    3  502    0  0.33399842598E+02 -0.96006224745E+02  0.16815134963E+04  0.16845831481E+04  0.25500000920E-02 0. -1.
       -2    1    3    3    0  502 -0.33399842598E+02  0.96006224745E+02  0.42858855836E+02  0.11031602878E+03  0.25500000920E-02 0.  1.
</event>
<event>
 5   0  0.5191358E-02  0.5105487E+03  0.7818609E-02  0.1011062E+00
        1   -1    0    0  501    0  0.00000000000E+00  0.00000000000E+00  0.23413622671E+03  0.23413622676E+03  0.50400001928E-02 0.  1.
       -1   -1    0    0    0  501  0.00000000000E+00  0.00000000000E+00 -0.27832088126E+03  0.27832088131E+03  0.50400001928E-02 0. -1.
    10030    2    1    2    0    0  0.00000000000E+00  0.00000000000E+00 -0.44184654555E+02  0.51245710807E+03  0.51054872825E+03 0.  0.
        4    1    3    3  502    0  0.16693211525E+02 -0.25417266241E+03 -0.38917515149E+02  0.25767924152E+03  0.12699999809E+01 0. -1.
       -4    1    3    3    0  502 -0.16693211525E+02  0.25417266241E+03 -0.52671394062E+01  0.25477786655E+03  0.12699999809E+01 0.  1.
</event>
<event>
 5   0  0.7698747E-02  0.4994282E+03  0.7818609E-02  0.1013928E+00
       -2   -1    0    0    0  501  0.00000000000E+00  0.00000000000E+00  0.37788505026E+03  0.37788505027E+03  0.25500000920E-02 0. -1.
        2   -1    0    0  501    0  0.00000000000E+00  0.00000000000E+00 -0.16501614644E+03  0.16501614646E+03  0.25500000920E-02 0.  1.
    10030    2    1    2    0    0  0.00000000000E+00  0.00000000000E+00  0.21286890382E+03  0.54290119672E+03  0.49942821225E+03 0.  0.
        2    1    3    3  502    0 -0.63904617497E+00 -0.24606109853E+02  0.37656310893E+03  0.37736672354E+03  0.25500000920E-02 0. -1.
       -2    1    3    3    0  502  0.63904617497E+00  0.24606109853E+02 -0.16369420510E+03  0.16553447319E+03  0.25500000920E-02 0.  1.
</event>
<event>
 5   0  0.7776070E-02  0.4900822E+03  0.7818609E-02  0.1016401E+00
       -2   -1    0    0    0  501  0.00000000000E+00  0.00000000000E+00  0.81981271310E+03  0.81981271310E+03  0.25500000920E-02 0. -1.
        2   -1    0    0  501    0  0.00000000000E+00  0.00000000000E+00 -0.73242520794E+02  0.73242520839E+02  0.25500000920E-02 0.  1.
    10030    2    1    2    0    0  0.00000000000E+00  0.00000000000E+00  0.74657019230E+03  0.89305523394E+03  0.49008223680E+03 0.  0.
        4    1    3    3  502    0 -0.79686894295E+02 -0.15539803039E+03  0.60063811680E+02  0.18468303480E+03  0.12699999809E+01 0.  1.
       -4    1    3    3    0  502  0.79686894295E+02  0.15539803039E+03  0.68650638062E+03  0.70837219913E+03  0.12699999809E+01 0. -1.
</event>
<event>
 5   0  0.3210875E-02  0.4949186E+03  0.7818609E-02  0.1015114E+00
       -3   -1    0    0    0  501  0.00000000000E+00  0.00000000000E+00  0.86817236932E+03  0.86817237519E+03  0.10100000352E+00 0.  1.
        3   -1    0    0  501    0  0.00000000000E+00  0.00000000000E+00 -0.70534450966E+02  0.70534523278E+02  0.10100000352E+00 0. -1.
    10030    2    1    2    0    0  0.00000000000E+00  0.00000000000E+00  0.79763791835E+03  0.93870689847E+03  0.49491857153E+03 0.  0.
        3    1    3    3  502    0 -0.89000456600E+01  0.23693599685E+03  0.53317917597E+03  0.58352199727E+03  0.10100000352E+00 0.  1.
       -3    1    3    3    0  502  0.89000456600E+01 -0.23693599685E+03  0.26445874238E+03  0.35518490120E+03  0.10100000352E+00 0. -1.
</event>
<event>
 5   0  0.4865501E-02  0.4862922E+03  0.7818609E-02  0.1017420E+00
       -1   -1    0    0    0  501  0.00000000000E+00  0.00000000000E+00  0.36253801260E+03  0.36253801263E+03  0.50400001928E-02 0.  1.
        1   -1    0    0  501    0  0.00000000000E+00  0.00000000000E+00 -0.16307265831E+03  0.16307265839E+03  0.50400001928E-02 0. -1.
    10030    2    1    2    0    0  0.00000000000E+00  0.00000000000E+00  0.19946535429E+03  0.52561067102E+03  0.48629224745E+03 0.  0.
        2    1    3    3  502    0 -0.14901223832E+02  0.12820462724E+03  0.32245555208E+03  0.34732701592E+03  0.25500000920E-02 0.  1.
       -2    1    3    3    0  502  0.14901223832E+02 -0.12820462724E+03 -0.12299019779E+03  0.17828365510E+03  0.25500000920E-02 0. -1.
</event>
<event>
 5   0  0.5038436E-02  0.5028004E+03  0.7818609E-02  0.1013051E+00
       -1   -1    0    0    0  501  0.00000000000E+00  0.00000000000E+00  0.53617975217E+03  0.53617975219E+03  0.50400001928E-02 0.  1.
        1   -1    0    0  501    0  0.00000000000E+00  0.00000000000E+00 -0.11787477978E+03  0.11787477989E+03  0.50400001928E-02 0. -1.
    10030    2    1    2    0    0  0.00000000000E+00  0.00000000000E+00  0.41830497239E+03  0.65405453208E+03  0.50280043855E+03 0.  0.
        1    1    3    3  502    0  0.10442502268E+03 -0.15621408545E+03  0.42641196133E+03  0.46597702373E+03  0.50400001928E-02 0.  1.
       -1    1    3    3    0  502 -0.10442502268E+03  0.15621408545E+03 -0.81069889360E+01  0.18807750835E+03  0.50400001928E-02 0. -1.
</event>
<event>
 5   0  0.5191358E-02  0.5013224E+03  0.7818609E-02  0.1013434E+00
       -1   -1    0    0    0  501  0.00000000000E+00  0.00000000000E+00  0.10280628688E+03  0.10280628701E+03  0.50400001928E-02 0. -1.
        1   -1    0    0  501    0  0.00000000000E+00  0.00000000000E+00 -0.61115943820E+03  0.61115943822E+03  0.50400001928E-02 0.  1.
    10030    2    1    2    0    0  0.00000000000E+00  0.00000000000E+00 -0.50835315131E+03  0.71396572523E+03  0.50132238165E+03 0.  0.
        4    1    3    3  502    0  0.83985798498E+00  0.24644722138E+03 -0.18903007805E+03  0.31059768447E+03  0.12699999809E+01 0.  1.
       -4    1    3    3    0  502 -0.83985798498E+00 -0.24644722138E+03 -0.31932307326E+03  0.40336804076E+03  0.12699999809E+01 0. -1.
</event>
<event>
 5   0  0.7776070E-02  0.4991920E+03  0.7818609E-02  0.1013990E+00
        2   -1    0    0  501    0  0.00000000000E+00  0.00000000000E+00  0.19268646523E+04  0.19268646523E+04  0.25500000920E-02 0.  1.
       -2   -1    0    0    0  501  0.00000000000E+00  0.00000000000E+00 -0.32331365950E+02  0.32331366050E+02  0.25500000920E-02 0. -1.
    10030    2    1    2    0    0  0.00000000000E+00  0.00000000000E+00  0.18945332864E+04  0.19591960184E+04  0.49919201240E+03 0.  0.
        4    1    3    3  502    0 -0.58831908901E+02  0.41000246224E+02  0.18855518472E+04  0.18869153651E+04  0.12699999809E+01 0.  1.
       -4    1    3    3    0  502  0.58831908901E+02 -0.41000246224E+02  0.89814392357E+01  0.72280653331E+02  0.12699999809E+01 0. -1.
</event>
<event>
 5   0  0.4884478E-02  0.5012332E+03  0.7818609E-02  0.1013458E+00
       -1   -1    0    0    0  501  0.00000000000E+00  0.00000000000E+00  0.23781040514E+03  0.23781040520E+03  0.50400001928E-02 0. -1.
        1   -1    0    0  501    0  0.00000000000E+00  0.00000000000E+00 -0.26411245866E+03  0.26411245870E+03  0.50400001928E-02 0.  1.
    10030    2    1    2    0    0  0.00000000000E+00  0.00000000000E+00 -0.26302053511E+02  0.50192286390E+03  0.50123324240E+03 0.  0.
        3    1    3    3  502    0 -0.22289482828E+03 -0.67801870408E+01 -0.12767885683E+03  0.25696298584E+03  0.10100000352E+00 0.  1.
       -3    1    3    3    0  502  0.22289482828E+03  0.67801870408E+01  0.10137680332E+03  0.24495987806E+03  0.10100000352E+00 0. -1.
</event>
<event>
 5   0  0.5038436E-02  0.4863700E+03  0.7818609E-02  0.1017399E+00
        1   -1    0    0  501    0  0.00000000000E+00  0.00000000000E+00  0.40633847870E+03  0.40633847873E+03  0.50400001928E-02 0.  1.
       -1   -1    0    0    0  501  0.00000000000E+00  0.00000000000E+00 -0.14554107203E+03  0.14554107212E+03  0.50400001928E-02 0. -1.
    10030    2    1    2    0    0  0.00000000000E+00  0.00000000000E+00  0.26079740667E+03  0.55187955085E+03  0.48636997370E+03 0.  0.
        1    1    3    3  502    0 -0.47578857346E+02  0.52329961777E+02  0.39441072193E+03  0.40070187192E+03  0.50400001928E-02 0.  1.
       -1    1    3    3    0  502  0.47578857346E+02 -0.52329961777E+02 -0.13361331526E+03  0.15117767893E+03  0.50400001928E-02 0. -1.
</event>
<event>
 5   0  0.5038436E-02  0.5016465E+03  0.7818609E-02  0.1013350E+00
       -1   -1    0    0    0  501  0.00000000000E+00  0.00000000000E+00  0.90882080983E+02  0.90882081123E+02  0.50400001928E-02 0. -1.
        1   -1    0    0  501    0  0.00000000000E+00  0.00000000000E+00 -0.69224110716E+03  0.69224110718E+03  0.50400001928E-02 0.  1.
    10030    2    1    2    0    0  0.00000000000E+00  0.00000000000E+00 -0.60135902618E+03  0.78312318830E+03  0.50164653860E+03 0.  0.
        1    1    3    3  502    0 -0.12992916612E+03  0.15388109901E+03 -0.53407043747E+03  0.57078210646E+03  0.50400001928E-02 0.  1.
       -1    1    3    3    0  502  0.12992916612E+03 -0.15388109901E+03 -0.67288588701E+02  0.21234108184E+03  0.50400001928E-02 0. -1.
</event>
<event>
 5   0  0.7776070E-02  0.4967205E+03  0.7818609E-02  0.1014638E+00
        2   -1    0    0  501    0  0.00000000000E+00  0.00000000000E+00  0.78260791626E+03  0.78260791626E+03  0.25500000920E-02 0. -1.
       -2   -1    0    0    0  501  0.00000000000E+00  0.00000000000E+00 -0.78817000470E+02  0.78817000512E+02  0.25500000920E-02 0.  1.
    10030    2    1    2    0    0  0.00000000000E+00  0.00000000000E+00  0.70379091579E+03  0.86142491677E+03  0.49672047883E+03 0.  0.
        4    1    3    3  502    0 -0.90837893241E+02 -0.21560529607E+03  0.20738105605E+03  0.31264305821E+03  0.12699999809E+01 0.  1.
       -4    1    3    3    0  502  0.90837893241E+02  0.21560529607E+03  0.49640985974E+03  0.54878185856E+03  0.12699999809E+01 0. -1.
</event>
<event>
 5   0  0.8208720E-02  0.5019336E+03  0.7818609E-02  0.1013275E+00
        2   -1    0    0  501    0  0.00000000000E+00  0.00000000000E+00  0.52852100790E+03  0.52852100791E+03  0.25500000920E-02 0.  1.
       -2   -1    0    0    0  501  0.00000000000E+00  0.00000000000E+00 -0.11917092209E+03  0.11917092211E+03  0.25500000920E-02 0. -1.
    10030    2    1    2    0    0  0.00000000000E+00  0.00000000000E+00  0.40935008582E+03  0.64769193002E+03  0.50193360463E+03 0.  0.
        3    1    3    3  502    0 -0.41634780350E+02 -0.57178243165E+02  0.51539346905E+03  0.52022422527E+03  0.10100000352E+00 0.  1.
       -3    1    3    3    0  502  0.41634780350E+02  0.57178243165E+02 -0.10604338323E+03  0.12746770475E+03  0.10100000352E+00 0. -1.
</event>
<event>
 5   0  0.3210875E-02  0.4809194E+03  0.7818609E-02  0.1018883E+00
        3   -1    0    0  501    0  0.00000000000E+00  0.00000000000E+00  0.13824098556E+03  0.13824102245E+03  0.10100000352E+00 0.  1.
       -3   -1    0    0    0  501  0.00000000000E+00  0.00000000000E+00 -0.41826128918E+03  0.41826130137E+03  0.10100000352E+00 0. -1.
    10030    2    1    2    0    0  0.00000000000E+00  0.00000000000E+00 -0.28002030362E+03  0.55650232382E+03  0.48091939655E+03 0.  0.
        1    1    3    3  502    0 -0.20581455340E+03  0.17011235696E+02 -0.28254268875E+03  0.34997054665E+03  0.50400001928E-02 0. -1.
       -1    1    3    3    0  502  0.20581455340E+03 -0.17011235696E+02  0.25223851289E+01  0.20653177717E+03  0.50400001928E-02 0.  1.
</event>
<event>
 5   0  0.7933103E-02  0.5116282E+03  0.7818609E-02  0.1010788E+00
       -2   -1    0    0    0  501  0.00000000000E+00  0.00000000000E+00  0.88664709976E+02  0.88664710012E+02  0.25500000920E-02 0. -1.
        2   -1    0    0  501    0  0.00000000000E+00  0.00000000000E+00 -0.73807097428E+03  0.73807097428E+03  0.25500000920E-02 0.  1.
    10030    2    1    2    0    0  0.00000000000E+00  0.00000000000E+00 -0.64940626430E+03  0.82673568429E+03  0.51162818098E+03 0.  0.
        5    1    3    3  502    0  0.24715490641E+03  0.39863306913E+02 -0.24005558074E+03  0.34687663923E+03  0.46999998093E+01 0. -1.
       -5    1    3    3    0  502 -0.24715490641E+03 -0.39863306913E+02 -0.40935068356E+03  0.47985904507E+03  0.46999998093E+01 0.  1.
</event>
<event>
 5   0  0.8208720E-02  0.4992390E+03  0.7818609E-02  0.1013978E+00
        2   -1    0    0  501    0  0.00000000000E+00  0.00000000000E+00  0.89078877297E+03  0.89078877297E+03  0.25500000920E-02 0. -1.
       -2   -1    0    0    0  501  0.00000000000E+00  0.00000000000E+00 -0.69949111291E+02  0.69949111337E+02  0.25500000920E-02 0.  1.
    10030    2    1    2    0    0  0.00000000000E+00  0.00000000000E+00  0.82083966168E+03  0.96073788431E+03  0.49923895297E+03 0.  0.
        3    1    3    3  502    0  0.23963630029E+03  0.56237752790E+01  0.27636338286E+03  0.36583317626E+03  0.10100000352E+00 0.  1.
       -3    1    3    3    0  502 -0.23963630029E+03 -0.56237752790E+01  0.54447627881E+03  0.59490470804E+03  0.10100000352E+00 0. -1.
</event>
<event>
 5   0  0.4884478E-02  0.4961666E+03  0.7818609E-02  0.1014784E+00
        1   -1    0    0  501    0  0.00000000000E+00  0.00000000000E+00  0.14979351290E+03  0.14979351299E+03  0.50400001928E-02 0.  1.
       -1   -1    0    0    0  501  0.00000000000E+00  0.00000000000E+00 -0.41086775560E+03  0.41086775563E+03  0.50400001928E-02 0. -1.
    10030    2    1    2    0    0  0.00000000000E+00  0.00000000000E+00 -0.26107424270E+03  0.56066126862E+03  0.49616660300E+03 0.  0.
        3    1    3    3  502    0  0.15260200475E+02  0.24447540504E+03 -0.86132601675E+02  0.25965348574E+03  0.10100000352E+00 0.  1.
       -3    1    3    3    0  502 -0.15260200475E+02 -0.24447540504E+03 -0.17494164102E+03  0.30100778288E+03  0.10100000352E+00 0. -1.
</event>
<event>
 5   0  0.7933103E-02  0.5066653E+03  0.7818609E-02  0.1012054E+00
       -2   -1    0    0    0  501  0.00000000000E+00  0.00000000000E+00  0.35390866430E+03  0.35390866431E+03  0.25500000920E-02 0.  1.
        2   -1    0    0  501    0  0.00000000000E+00  0.00000000000E+00 -0.18133898353E+03  0.18133898355E+03  0.25500000920E-02 0. -1.
    10030    2    1    2    0    0  0.00000000000E+00  0.00000000000E+00  0.17256968077E+03  0.53524764786E+03  0.50666532328E+03 0.  0.
        5    1    3    3  502    0  0.58102747373E+02  0.80947501927E+02  0.33228820965E+03  0.34693799387E+03  0.46999998093E+01 0.  1.
       -5    1    3    3    0  502 -0.58102747373E+02 -0.80947501927E+02 -0.15971852888E+03  0.18830965399E+03  0.46999998093E+01 0. -1.
</event>
<event>
 5   0  0.7698747E-02  0.4877373E+03  0.7818609E-02  0.1017030E+00
       -2   -1    0    0    0  501  0.00000000000E+00  0.00000000000E+00  0.88463009544E+03  0.88463009544E+03  0.25500000920E-02 0.  1.
        2   -1    0    0  501    0  0.00000000000E+00  0.00000000000E+00 -0.67227995271E+02  0.67227995320E+02  0.25500000920E-02 0. -1.
    10030    2    1    2    0    0  0.00000000000E+00  0.00000000000E+00  0.81740210017E+03  0.95185809076E+03  0.48773725672E+03 0.  0.
        2    1    3    3  502    0  0.11631153407E+00 -0.24354716170E+03  0.43312890218E+03  0.49690630849E+03  0.25500000920E-02 0. -1.
       -2    1    3    3    0  502 -0.11631153407E+00  0.24354716170E+03  0.38427319798E+03  0.45495178227E+03  0.25500000920E-02 0.  1.
</event>
<event>
 5   0  0.7933103E-02  0.5132994E+03  0.7818609E-02  0.1010365E+00
       -2   -1    0    0    0  501  0.00000000000E+00  0.00000000000E+00  0.78063161468E+02  0.78063161510E+02  0.25500000920E-02 0. -1.
        2   -1    0    0  501    0  0.00000000000E+00  0.00000000000E+00 -0.84379187816E+03  0.84379187817E+03  0.25500000920E-02 0.  1.
    10030    2    1    2    0    0  0.00000000000E+00  0.00000000000E+00 -0.76572871670E+03  0.92185503968E+03  0.51329937328E+03 0.  0.
        5    1    3    3  502    0  0.63807844463E+02  0.34656391180E+01 -0.82919625030E+03  0.83166818094E+03  0.46999998093E+01 0.  1.
       -5    1    3    3    0  502 -0.63807844463E+02 -0.34656391180E+01  0.63467533606E+02  0.90186858741E+02  0.46999998093E+01 0. -1.
</event>
<event>
 5   0  0.5038436E-02  0.4991548E+03  0.7818609E-02  0.1014000E+00
       -1   -1    0    0    0  501  0.00000000000E+00  0.00000000000E+00  0.48585657091E+02  0.48585657352E+02  0.50400001928E-02 0. -1.
        1   -1    0    0  501    0  0.00000000000E+00  0.00000000000E+00 -0.12820425974E+04  0.12820425974E+04  0.50400001928E-02 0.  1.
    10030    2    1    2    0    0  0.00000000000E+00  0.00000000000E+00 -0.12334569403E+04  0.13306282547E+04  0.49915481443E+03 0.  0.
        1    1    3    3  502    0 -0.52813954961E+02 -0.16481308353E+02  0.32032585183E+02  0.63929913988E+02  0.50400001928E-02 0. -1.
       -1    1    3    3    0  502  0.52813954961E+02  0.16481308353E+02 -0.12654895254E+04  0.12666983407E+04  0.50400001928E-02 0.  1.
</event>
<event>
 5   0  0.3210875E-02  0.4990536E+03  0.7818609E-02  0.1014026E+00
       -3   -1    0    0    0  501  0.00000000000E+00  0.00000000000E+00  0.76918135576E+03  0.76918136239E+03  0.10100000352E+00 0. -1.
        3   -1    0    0  501    0  0.00000000000E+00  0.00000000000E+00 -0.80947868963E+02  0.80947931973E+02  0.10100000352E+00 0.  1.
    10030    2    1    2    0    0  0.00000000000E+00  0.00000000000E+00  0.68823348679E+03  0.85012929436E+03  0.49905358909E+03 0.  0.
        3    1    3    3  502    0 -0.12686659528E+03 -0.12954780392E+02  0.70947572699E+03  0.72084587584E+03  0.10100000352E+00 0. -1.
       -3    1    3    3    0  502  0.12686659528E+03  0.12954780392E+02 -0.21242240196E+02  0.12928341852E+03  0.10100000352E+00 0.  1.
</event>
<event>
 5   0  0.7698747E-02  0.4977084E+03  0.7818609E-02  0.1014379E+00
        2   -1    0    0  501    0  0.00000000000E+00  0.00000000000E+00  0.10245862835E+04  0.10245862835E+04  0.25500000920E-02 0. -1.
       -2   -1    0    0    0  501  0.00000000000E+00  0.00000000000E+00 -0.60442357724E+02  0.60442357778E+02  0.25500000920E-02 0.  1.
    10030    2    1    2    0    0  0.00000000000E+00  0.00000000000E+00  0.96414392578E+03  0.10850286413E+04  0.49770839132E+03 0.  0.
        2    1    3    3  502    0 -0.17979215017E+03  0.10542750289E+03  0.77849637448E+03  0.80591363105E+03  0.25500000920E-02 0. -1.
       -2    1    3    3    0  502  0.17979215017E+03 -0.10542750289E+03  0.18564755130E+03  0.27911501024E+03  0.25500000920E-02 0.  1.
</event>
<event>
 5   0  0.4803890E-02  0.4991094E+03  0.7818609E-02  0.1014012E+00
       -1   -1    0    0    0  501  0.00000000000E+00  0.00000000000E+00  0.24932597973E+03  0.24932597978E+03  0.50400001928E-02 0.  1.
        1   -1    0    0  501    0  0.00000000000E+00  0.00000000000E+00 -0.24978363586E+03  0.24978363591E+03  0.50400001928E-02 0. -1.
    10030    2    1    2    0    0  0.00000000000E+00  0.00000000000E+00 -0.45765613716E+00  0.49910961569E+03  0.49910940587E+03 0.  0.
        5    1    3    3  502    0  0.17774481430E+03 -0.10460901527E+03  0.14019628098E+03  0.24942604572E+03  0.46999998093E+01 0.  1.
       -5    1    3    3    0  502 -0.17774481430E+03  0.10460901527E+03 -0.14065393711E+03  0.24968356997E+03  0.46999998093E+01 0. -1.
</event>
<event>
 5   0  0.4884478E-02  0.5034470E+03  0.7818609E-02  0.1012883E+00
       -1   -1    0    0    0  501  0.00000000000E+00  0.00000000000E+00  0.11646809866E+03  0.11646809877E+03  0.50400001928E-02 0.  1.
        1   -1    0    0  501    0  0.00000000000E+00  0.00000000000E+00 -0.54405225316E+03  0.54405225319E+03  0.50400001928E-02 0. -1.
    10030    2    1    2    0    0  0.00000000000E+00  0.00000000000E+00 -0.42758415451E+03  0.66052035195E+03  0.50344704404E+03 0.  0.
        3    1    3    3  502    0  0.22069182621E+03  0.16237340589E+02 -0.56373434949E+02  0.22835609857E+03  0.10100000352E+00 0.  1.
       -3    1    3    3    0  502 -0.22069182621E+03 -0.16237340589E+02 -0.37121071956E+03  0.43216425338E+03  0.10100000352E+00 0. -1.
</event>
<event>
 5   0  0.7776070E-02  0.5056574E+03  0.7818609E-02  0.1012313E+00
       -2   -1    0    0    0  501  0.00000000000E+00  0.00000000000E+00  0.13974061193E+03  0.13974061195E+03  0.25500000920E-02 0.  1.
        2   -1    0    0  501    0  0.00000000000E+00  0.00000000000E+00 -0.45743574627E+03  0.45743574627E+03  0.25500000920E-02 0. -1.
    10030    2    1    2    0    0  0.00000000000E+00  0.00000000000E+00 -0.31769513433E+03  0.59717635823E+03  0.50565739829E+03 0.  0.
        4    1    3    3  502    0  0.54146763758E+02  0.12684652046E+03  0.91396468327E+02  0.16545947873E+03  0.12699999809E+01 0.  1.
       -4    1    3    3    0  502 -0.54146763758E+02 -0.12684652046E+03 -0.40909160266E+03  0.43171687950E+03  0.12699999809E+01 0. -1.
</event>
<event>
 5   0  0.4884478E-02  0.5012100E+03  0.7818609E-02  0.1013464E+00
        1   -1    0    0  501    0  0.00000000000E+00  0.00000000000E+00  0.74829164633E+03  0.74829164634E+03  0.50400001928E-02 0. -1.
       -1   -1    0    0    0  501  0.00000000000E+00  0.00000000000E+00 -0.83928324837E+02  0.83928324989E+02  0.50400001928E-02 0.  1.
    10030    2    1    2    0    0  0.00000000000E+00  0.00000000000E+00  0.66436332149E+03  0.83221997133E+03  0.50120999366E+03 0.  0.
        3    1    3    3  502    0 -0.91374338868E+02 -0.20599446159E+03  0.15014107303E+03  0.27078652112E+03  0.10100000352E+00 0.  1.
       -3    1    3    3    0  502  0.91374338868E+02  0.20599446159E+03  0.51422224846E+03  0.56143345021E+03  0.10100000352E+00 0. -1.
</event>
<event>
 5   0  0.5191358E-02  0.4996266E+03  0.7818609E-02  0.1013876E+00
       -1   -1    0    0    0  501  0.00000000000E+00  0.00000000000E+00  0.11680880227E+03  0.11680880238E+03  0.50400001928E-02 0.  1.
        1   -1    0    0  501    0  0.00000000000E+00  0.00000000000E+00 -0.53426347015E+03  0.53426347017E+03  0.50400001928E-02 0. -1.
    10030    2    1    2    0    0  0.00000000000E+00  0.00000000000E+00 -0.41745466788E+03  0.65107227255E+03  0.49962656489E+03 0.  0.
        4    1    3    3  502    0  0.10798539746E+03  0.33334436801E+02 -0.49904207212E+03  0.51168020617E+03  0.12699999809E+01 0. -1.
       -4    1    3    3    0  502 -0.10798539746E+03 -0.33334436801E+02  0.81587404236E+02  0.13939206638E+03  0.12699999809E+01 0.  1.
</event>
<event>
 5   0  0.4884478E-02  0.4998887E+03  0.7818609E-02  0.1013808E+00
       -1   -1    0    0    0  501  0.00000000000E+00  0.00000000000E+00  0.11779908653E+03  0.11779908663E+03  0.50400001928E-02 0. -1.
        1   -1    0    0  501    0  0.00000000000E+00  0.00000000000E+00 -0.53032813823E+03  0.53032813826E+03  0.50400001928E-02 0.  1.
    10030    2    1    2    0    0  0.00000000000E+00  0.00000000000E+00 -0.41252905171E+03  0.64812722489E+03  0.49988866875E+03 0.  0.
        3    1    3    3  502    0 -0.14278441986E+03 -0.17724896507E+03 -0.34017662022E+03  0.40929784915E+03  0.10100000352E+00 0.  1.
       -3    1    3    3    0  502  0.14278441986E+03  0.17724896507E+03 -0.72352431487E+02  0.23882937574E+03  0.10100000352E+00 0. -1.
</event>
<event>
 5   0  0.7933103E-02  0.4984889E+03  0.7818609E-02  0.1014174E+00
       -2   -1    0    0    0  501  0.00000000000E+00  0.00000000000E+00  0.73745311396E+02  0.73745311440E+02  0.25500000920E-02 0. -1.
        2   -1    0    0  501    0  0.00000000000E+00  0.00000000000E+00 -0.84239647756E+03  0.84239647756E+03  0.25500000920E-02 0.  1.
    10030    2    1    2    0    0  0.00000000000E+00  0.00000000000E+00 -0.76865116616E+03  0.91614178900E+03  0.49848887883E+03 0.  0.
        5    1    3    3  502    0 -0.75361586648E+02  0.23277920857E+03 -0.29743700623E+03  0.38517060032E+03  0.46999998093E+01 0. -1.
       -5    1    3    3    0  502  0.75361586648E+02 -0.23277920857E+03 -0.47121415994E+03  0.53097118868E+03  0.46999998093E+01 0.  1.
</event>
<event>
 5   0  0.5191358E-02  0.4981548E+03  0.7818609E-02  0.1014262E+00
        1   -1    0    0  501    0  0.00000000000E+00  0.00000000000E+00  0.27818506357E+04  0.27818506357E+04  0.50400001928E-02 0.  1.
       -1   -1    0    0    0  501  0.00000000000E+00  0.00000000000E+00 -0.22301540566E+02  0.22301541136E+02  0.50400001928E-02 0. -1.
    10030    2    1    2    0    0  0.00000000000E+00  0.00000000000E+00  0.27595490952E+04  0.28041521769E+04  0.49815481773E+03 0.  0.
        4    1    3    3  502    0  0.12966057725E+03 -0.20885065917E+03  0.16054633312E+04  0.16241750471E+04  0.12699999809E+01 0. -1.
       -4    1    3    3    0  502 -0.12966057725E+03  0.20885065917E+03  0.11540857640E+04  0.11799771297E+04  0.12699999809E+01 0.  1.
</event>
<event>
 5   0  0.4803890E-02  0.4957767E+03  0.7818609E-02  0.1014887E+00
        1   -1    0    0  501    0  0.00000000000E+00  0.00000000000E+00  0.11541665594E+04  0.11541665594E+04  0.50400001928E-02 0.  1.
       -1   -1    0    0    0  501  0.00000000000E+00  0.00000000000E+00 -0.53240706028E+02  0.53240706266E+02  0.50400001928E-02 0. -1.
    10030    2    1    2    0    0  0.00000000000E+00  0.00000000000E+00  0.11009258534E+04  0.12074072657E+04  0.49577673462E+03 0.  0.
        5    1    3    3  502    0 -0.13067486143E+03  0.23387443282E+02  0.10601725646E+04  0.10684619079E+04  0.46999998093E+01 0.  1.
       -5    1    3    3    0  502  0.13067486143E+03 -0.23387443282E+02  0.40753288823E+02  0.13894535782E+03  0.46999998093E+01 0. -1.
</event>
<event>
 5   0  0.7933103E-02  0.5008744E+03  0.7818609E-02  0.1013551E+00
       -2   -1    0    0    0  501  0.00000000000E+00  0.00000000000E+00  0.11803150077E+03  0.11803150080E+03  0.25500000920E-02 0. -1.
        2   -1    0    0  501    0  0.00000000000E+00  0.00000000000E+00 -0.53137336992E+03  0.53137336993E+03  0.25500000920E-02 0.  1.
    10030    2    1    2    0    0  0.00000000000E+00  0.00000000000E+00 -0.41334186915E+03  0.64940487073E+03  0.50087442073E+03 0.  0.
        5    1    3    3  502    0 -0.15209374160E+03  0.48201718154E+02  0.43534165054E+02  0.16544855814E+03  0.46999998093E+01 0. -1.
       -5    1    3    3    0  502  0.15209374160E+03 -0.48201718154E+02 -0.45687603420E+03  0.48395631259E+03  0.46999998093E+01 0.  1.
</event>
<event>
 5   0  0.4803890E-02  0.5011005E+03  0.7818609E-02  0.1013492E+00
       -1   -1    0    0    0  501  0.00000000000E+00  0.00000000000E+00  0.11553653620E+03  0.11553653631E+03  0.50400001928E-02 0. -1.
        1   -1    0    0  501    0  0.00000000000E+00  0.00000000000E+00 -0.54333822240E+03  0.54333822242E+03  0.50400001928E-02 0.  1.
    10030    2    1    2    0    0  0.00000000000E+00  0.00000000000E+00 -0.42780168619E+03  0.65887475873E+03  0.50110045398E+03 0.  0.
        5    1    3    3  502    0  0.23532090215E+03  0.67899262480E+02 -0.28306636690E+03  0.37434595617E+03  0.46999998093E+01 0.  1.
       -5    1    3    3    0  502 -0.23532090215E+03 -0.67899262480E+02 -0.14473531929E+03  0.28452880256E+03  0.46999998093E+01 0. -1.
</event>
<event>
 5   0  0.7776070E-02  0.4995610E+03  0.7818609E-02  0.1013894E+00
        2   -1    0    0  501    0  0.00000000000E+00  0.00000000000E+00  0.31969996682E+03  0.31969996683E+03  0.25500000920E-02 0.  1.
       -2   -1    0    0    0  501  0.00000000000E+00  0.00000000000E+00 -0.19515265910E+03  0.19515265912E+03  0.25500000920E-02 0. -1.
    10030    2    1    2    0    0  0.00000000000E+00  0.00000000000E+00  0.12454730771E+03  0.51485262595E+03  0.49956100187E+03 0.  0.
        4    1    3    3  502    0 -0.83645368125E+02 -0.19334093915E+03  0.20058836483E+03  0.29088583906E+03  0.12699999809E+01 0.  1.
       -4    1    3    3    0  502  0.83645368125E+02  0.19334093915E+03 -0.76041057119E+02  0.22396678689E+03  0.12699999809E+01 0. -1.
</event>
<event>
 5   0  0.4865501E-02  0.4994650E+03  0.7818609E-02  0.1013919E+00
        1   -1    0    0  501    0  0.00000000000E+00  0.00000000000E+00  0.73977275308E+03  0.73977275310E+03  0.50400001928E-02 0. -1.
       -1   -1    0    0    0  501  0.00000000000E+00  0.00000000000E+00 -0.84304718107E+02  0.84304718258E+02  0.50400001928E-02 0.  1.
    10030    2    1    2    0    0  0.00000000000E+00  0.00000000000E+00  0.65546803497E+03  0.82407747136E+03  0.49946504775E+03 0.  0.
        2    1    3    3  502    0 -0.11148144534E+03  0.81533995256E+02 -0.15554187316E+02  0.13898862467E+03  0.25500000920E-02 0.  1.
       -2    1    3    3    0  502  0.11148144534E+03 -0.81533995256E+02  0.67102222229E+03  0.68508884668E+03  0.25500000920E-02 0. -1.
</event>
<event>
 5   0  0.3210875E-02  0.4996176E+03  0.7818609E-02  0.1013879E+00
        4   -1    0    0  501    0  0.00000000000E+00  0.00000000000E+00  0.17953699017E+03  0.17954148195E+03  0.12699999809E+01 0.  1.
       -4   -1    0    0    0  501  0.00000000000E+00  0.00000000000E+00 -0.34757540010E+03  0.34757772031E+03  0.12699999809E+01 0. -1.
    10030    2    1    2    0    0  0.00000000000E+00  0.00000000000E+00 -0.16803840993E+03  0.52711920226E+03  0.49961759995E+03 0.  0.
        5    1    3    3  502    0  0.44311869070E+02 -0.72190208227E+02 -0.33191529205E+03  0.34258549152E+03  0.46999998093E+01 0. -1.
       -5    1    3    3    0  502 -0.44311869070E+02  0.72190208227E+02  0.16387688213E+03  0.18453371074E+03  0.46999998093E+01 0.  1.
</event>
<event>
 5   0  0.5038436E-02  0.4997044E+03  0.7818609E-02  0.1013856E+00
        1   -1    0    0  501    0  0.00000000000E+00  0.00000000000E+00  0.57474042191E+03  0.57474042194E+03  0.50400001928E-02 0. -1.
       -1   -1    0    0    0  501  0.00000000000E+00  0.00000000000E+00 -0.10861621317E+03  0.10861621328E+03  0.50400001928E-02 0.  1.
    10030    2    1    2    0    0  0.00000000000E+00  0.00000000000E+00  0.46612420875E+03  0.68335663522E+03  0.49970442555E+03 0.  0.
        1    1    3    3  502    0 -0.15344525045E+03 -0.42008930087E+02 -0.30397728280E+02  0.16196980275E+03  0.50400001928E-02 0.  1.
       -1    1    3    3    0  502  0.15344525045E+03  0.42008930087E+02  0.49652193703E+03  0.52138683247E+03  0.50400001928E-02 0. -1.
</event>
<event>
 5   0  0.8208720E-02  0.5075385E+03  0.7818609E-02  0.1011830E+00
       -2   -1    0    0    0  501  0.00000000000E+00  0.00000000000E+00  0.77477044377E+02  0.77477044419E+02  0.25500000920E-02 0. -1.
        2   -1    0    0  501    0  0.00000000000E+00  0.00000000000E+00 -0.83119873869E+03  0.83119873870E+03  0.25500000920E-02 0.  1.
    10030    2    1    2    0    0  0.00000000000E+00  0.00000000000E+00 -0.75372169432E+03  0.90867578312E+03  0.50753845799E+03 0.  0.
        3    1    3    3  502    0  0.45543888917E+02 -0.11590130740E+01 -0.82381702832E+03  0.82507581196E+03  0.10100000352E+00 0.  1.
       -3    1    3    3    0  502 -0.45543888917E+02  0.11590130740E+01  0.70095333998E+02  0.83599971162E+02  0.10100000352E+00 0. -1.
</event>
<event>
 5   0  0.4865501E-02  0.4984843E+03  0.7818609E-02  0.1014175E+00
        1   -1    0    0  501    0  0.00000000000E+00  0.00000000000E+00  0.24610549192E+03  0.24610549197E+03  0.50400001928E-02 0.  1.
       -1   -1    0    0    0  501  0.00000000000E+00  0.00000000000E+00 -0.25241874609E+03  0.25241874615E+03  0.50400001928E-02 0. -1.
    10030    2    1    2    0    0  0.00000000000E+00  0.00000000000E+00 -0.63132541759E+01  0.49852423812E+03  0.49848426135E+03 0.  0.
        2    1    3    3  502    0 -0.34086021282E+02  0.81552407068E+02  0.22990495039E+03  0.24631065378E+03  0.25500000920E-02 0.  1.
       -2    1    3    3    0  502  0.34086021282E+02 -0.81552407068E+02 -0.23621820457E+03  0.25221358433E+03  0.25500000920E-02 0. -1.
</event>
<event>
 5   0  0.3210875E-02  0.5134979E+03  0.7818609E-02  0.1010315E+00
        3   -1    0    0  501    0  0.00000000000E+00  0.00000000000E+00  0.43197260717E+02  0.43197378791E+02  0.10100000352E+00 0.  1.
       -3   -1    0    0    0  501  0.00000000000E+00  0.00000000000E+00 -0.15260207675E+04  0.15260207708E+04  0.10100000352E+00 0. -1.
    10030    2    1    2    0    0  0.00000000000E+00  0.00000000000E+00 -0.14828235068E+04  0.15692181496E+04  0.51349785673E+03 0.  0.
        4    1    3    3  502    0 -0.57637437485E+02 -0.15595861785E+02 -0.15044981160E+04  0.15056830672E+04  0.12699999809E+01 0. -1.
       -4    1    3    3    0  502  0.57637437485E+02  0.15595861785E+02  0.21674609229E+02  0.63535082355E+02  0.12699999809E+01 0.  1.
</event>
<event>
 5   0  0.4865501E-02  0.4973836E+03  0.7818609E-02  0.1014464E+00
        1   -1    0    0  501    0  0.00000000000E+00  0.00000000000E+00  0.12554821916E+03  0.12554821926E+03  0.50400001928E-02 0. -1.
       -1   -1    0    0    0  501  0.00000000000E+00  0.00000000000E+00 -0.49262031230E+03  0.49262031233E+03  0.50400001928E-02 0.  1.
    10030    2    1    2    0    0  0.00000000000E+00  0.00000000000E+00 -0.36707209314E+03  0.61816853159E+03  0.49738356615E+03 0.  0.
        2    1    3    3  502    0 -0.18302785598E+03 -0.74111442570E+02 -0.37143079167E+03  0.42065726547E+03  0.25500000920E-02 0.  1.
       -2    1    3    3    0  502  0.18302785598E+03  0.74111442570E+02  0.43586985276E+01  0.19751126612E+03  0.25500000920E-02 0. -1.
</event>
<event>
 5   0  0.7933103E-02  0.5049064E+03  0.7818609E-02  0.1012506E+00
        2   -1    0    0  501    0  0.00000000000E+00  0.00000000000E+00  0.63000805773E+03  0.63000805773E+03  0.25500000920E-02 0. -1.
       -2   -1    0    0    0  501  0.00000000000E+00  0.00000000000E+00 -0.10116160518E+03  0.10116160522E+03  0.25500000920E-02 0.  1.
    10030    2    1    2    0    0  0.00000000000E+00  0.00000000000E+00  0.52884645254E+03  0.73116966295E+03  0.50490643257E+03 0.  0.
        5    1    3    3  502    0 -0.14456149256E+03 -0.20673933305E+03  0.27665622747E+03  0.37443281795E+03  0.46999998093E+01 0.  1.
       -5    1    3    3    0  502  0.14456149256E+03  0.20673933305E+03  0.25219022508E+03  0.35673684500E+03  0.46999998093E+01 0. -1.
</event>
<event>
 5   0  0.7776070E-02  0.5006704E+03  0.7818609E-02  0.1013604E+00
       -2   -1    0    0    0  501  0.00000000000E+00  0.00000000000E+00  0.72674368354E+02  0.72674368398E+02  0.25500000920E-02 0.  1.
        2   -1    0    0  501    0  0.00000000000E+00  0.00000000000E+00 -0.86230848119E+03  0.86230848120E+03  0.25500000920E-02 0. -1.
    10030    2    1    2    0    0  0.00000000000E+00  0.00000000000E+00 -0.78963411284E+03  0.93498284959E+03  0.50067044738E+03 0.  0.
        4    1    3    3  502    0 -0.62351275073E+02 -0.64735096656E+02  0.41497268125E+02  0.99004799904E+02  0.12699999809E+01 0.  1.
       -4    1    3    3    0  502  0.62351275073E+02  0.64735096656E+02 -0.83113138096E+03  0.83597804969E+03  0.12699999809E+01 0. -1.
</event>
<event>
 5   0  0.4865501E-02  0.5044492E+03  0.7818609E-02  0.1012624E+00
        1   -1    0    0  501    0  0.00000000000E+00  0.00000000000E+00  0.30214781401E+03  0.30214781406E+03  0.50400001928E-02 0. -1.
       -1   -1    0    0    0  501  0.00000000000E+00  0.00000000000E+00 -0.21055011132E+03  0.21055011138E+03  0.50400001928E-02 0.  1.
    10030    2    1    2    0    0  0.00000000000E+00  0.00000000000E+00  0.91597702698E+02  0.51269792543E+03  0.50444922797E+03 0.  0.
        2    1    3    3  502    0  0.69149187968E+02 -0.18094734819E+03  0.20997571500E+03  0.28568051020E+03  0.25500000920E-02 0. -1.
       -2    1    3    3    0  502 -0.69149187968E+02  0.18094734819E+03 -0.11837801230E+03  0.22701741523E+03  0.25500000920E-02 0.  1.
</event>
<event>
 5   0  0.5038436E-02  0.5018766E+03  0.7818609E-02  0.1013290E+00
        1   -1    0    0  501    0  0.00000000000E+00  0.00000000000E+00  0.31115250453E+03  0.31115250457E+03  0.50400001928E-02 0. -1.
       -1   -1    0    0    0  501  0.00000000000E+00  0.00000000000E+00 -0.20237672831E+03  0.20237672837E+03  0.50400001928E-02 0.  1.
    10030    2    1    2    0    0  0.00000000000E+00  0.00000000000E+00  0.10877577622E+03  0.51352923295E+03  0.50187658204E+03 0.  0.
        1    1    3    3  502    0 -0.20503054315E+03 -0.11330588302E+03  0.14644499622E+03  0.27626415564E+03  0.50400001928E-02 0. -1.
       -1    1    3    3    0  502  0.20503054315E+03  0.11330588302E+03 -0.37669219993E+02  0.23726507731E+03  0.50400001928E-02 0.  1.
</event>
<event>
 5   0  0.4884478E-02  0.5022554E+03  0.7818609E-02  0.1013192E+00
        1   -1    0    0  501    0  0.00000000000E+00  0.00000000000E+00  0.64704589005E+03  0.64704589007E+03  0.50400001928E-02 0.  1.
       -1   -1    0    0    0  501  0.00000000000E+00  0.00000000000E+00 -0.97466216829E+02  0.97466216959E+02  0.50400001928E-02 0. -1.
    10030    2    1    2    0    0  0.00000000000E+00  0.00000000000E+00  0.54957967323E+03  0.74451210703E+03  0.50225537359E+03 0.  0.
        3    1    3    3  502    0 -0.12002108476E+03  0.21932687009E+03  0.23984411632E+03  0.34646002232E+03  0.10100000352E+00 0. -1.
       -3    1    3    3    0  502  0.12002108476E+03 -0.21932687009E+03  0.30973555691E+03  0.39805208471E+03  0.10100000352E+00 0.  1.
</event>
<event>
 5   0  0.7698747E-02  0.4988846E+03  0.7818609E-02  0.1014070E+00
        2   -1    0    0  501    0  0.00000000000E+00  0.00000000000E+00  0.32545204009E+03  0.32545204010E+03  0.25500000920E-02 0. -1.
       -2   -1    0    0    0  501  0.00000000000E+00  0.00000000000E+00 -0.19118472068E+03  0.19118472070E+03  0.25500000920E-02 0.  1.
    10030    2    1    2    0    0  0.00000000000E+00  0.00000000000E+00  0.13426731940E+03  0.51663676080E+03  0.49888458540E+03 0.  0.
        2    1    3    3  502    0 -0.19472873263E+01 -0.21149328539E+02 -0.19024665385E+03  0.19142851233E+03  0.25500000920E-02 0.  1.
       -2    1    3    3    0  502  0.19472873263E+01  0.21149328539E+02  0.32451397325E+03  0.32520824847E+03  0.25500000920E-02 0. -1.
</event>
<event>
 5   0  0.5038436E-02  0.5016925E+03  0.7818609E-02  0.1013338E+00
        1   -1    0    0  501    0  0.00000000000E+00  0.00000000000E+00  0.68213051811E+03  0.68213051812E+03  0.50400001928E-02 0.  1.
       -1   -1    0    0    0  501  0.00000000000E+00  0.00000000000E+00 -0.92246036093E+02  0.92246036231E+02  0.50400001928E-02 0. -1.
    10030    2    1    2    0    0  0.00000000000E+00  0.00000000000E+00  0.58988448201E+03  0.77437655436E+03  0.50169248132E+03 0.  0.
        1    1    3    3  502    0 -0.12414832746E+03 -0.64549814040E+01 -0.41353449721E+02  0.13101367038E+03  0.50400001928E-02 0. -1.
       -1    1    3    3    0  502  0.12414832746E+03  0.64549814040E+01  0.63123793173E+03  0.64336288398E+03  0.50400001928E-02 0.  1.
</event>
<event>
 5   0  0.7933103E-02  0.4991656E+03  0.7818609E-02  0.1013997E+00
        2   -1    0    0  501    0  0.00000000000E+00  0.00000000000E+00  0.52565179566E+03  0.52565179566E+03  0.25500000920E-02 0. -1.
       -2   -1    0    0    0  501  0.00000000000E+00  0.00000000000E+00 -0.11850347425E+03  0.11850347427E+03  0.25500000920E-02 0.  1.
    10030    2    1    2    0    0  0.00000000000E+00  0.00000000000E+00  0.40714832141E+03  0.64415526994E+03  0.49916555987E+03 0.  0.
        5    1    3    3  502    0 -0.11070446948E+03 -0.40545790300E+02 -0.80240054771E+02  0.14268846155E+03  0.46999998093E+01 0.  1.
       -5    1    3    3    0  502  0.11070446948E+03  0.40545790300E+02  0.48738837618E+03  0.50146680838E+03  0.46999998093E+01 0. -1.
</event>
<event>
 5   0  0.5038436E-02  0.5009882E+03  0.7818609E-02  0.1013521E+00
        1   -1    0    0  501    0  0.00000000000E+00  0.00000000000E+00  0.17730855654E+04  0.17730855654E+04  0.50400001928E-02 0. -1.
       -1   -1    0    0    0  501  0.00000000000E+00  0.00000000000E+00 -0.35388755686E+02  0.35388756045E+02  0.50400001928E-02 0.  1.
    10030    2    1    2    0    0  0.00000000000E+00  0.00000000000E+00  0.17376968097E+04  0.18084743214E+04  0.50098819233E+03 0.  0.
        1    1    3    3  502    0  0.29416413553E+02  0.45216597390E+02 -0.14173157210E+02  0.55774048415E+02  0.50400001928E-02 0.  1.
       -1    1    3    3    0  502 -0.29416413553E+02 -0.45216597390E+02  0.17518699669E+04  0.17527002730E+04  0.50400001928E-02 0. -1.
</event>
<event>
 5   0  0.7698747E-02  0.4988973E+03  0.7818609E-02  0.1014067E+00
        2   -1    0    0  501    0  0.00000000000E+00  0.00000000000E+00  0.53829784412E+03  0.53829784412E+03  0.25500000920E-02 0. -1.
       -2   -1    0    0    0  501  0.00000000000E+00  0.00000000000E+00 -0.11559518703E+03  0.11559518706E+03  0.25500000920E-02 0.  1.
    10030    2    1    2    0    0  0.00000000000E+00  0.00000000000E+00  0.42270265709E+03  0.65389303118E+03  0.49889734407E+03 0.  0.
        2    1    3    3  502    0  0.85772237810E+02  0.17620434987E+03  0.90659540989E+01  0.19618114390E+03  0.25500000920E-02 0.  1.
       -2    1    3    3    0  502 -0.85772237810E+02 -0.17620434987E+03  0.41363670299E+03  0.45771188728E+03  0.25500000920E-02 0. -1.
</event>
<event>
 5   0  0.4803890E-02  0.4993080E+03  0.7818609E-02  0.1013960E+00
       -1   -1    0    0    0  501  0.00000000000E+00  0.00000000000E+00  0.36845501195E+03  0.36845501199E+03  0.50400001928E-02 0.  1.
        1   -1    0    0  501    0  0.00000000000E+00  0.00000000000E+00 -0.16915800833E+03  0.16915800841E+03  0.50400001928E-02 0. -1.
    10030    2    1    2    0    0  0.00000000000E+00  0.00000000000E+00  0.19929700362E+03  0.53761302040E+03  0.49930798516E+03 0.  0.
        5    1    3    3  502    0  0.21856679504E+03 -0.50215088227E+02 -0.18358945841E+02  0.22506030274E+03  0.46999998093E+01 0. -1.
       -5    1    3    3    0  502 -0.21856679504E+03  0.50215088227E+02  0.21765594946E+03  0.31255271765E+03  0.46999998093E+01 0.  1.
</event>
<event>
 5   0  0.7933103E-02  0.4995242E+03  0.7818609E-02  0.1013903E+00
       -2   -1    0    0    0  501  0.00000000000E+00  0.00000000000E+00  0.36900651686E+03  0.36900651686E+03  0.25500000920E-02 0. -1.
        2   -1    0    0  501    0  0.00000000000E+00  0.00000000000E+00 -0.16905147375E+03  0.16905147377E+03  0.25500000920E-02 0.  1.
    10030    2    1    2    0    0  0.00000000000E+00  0.00000000000E+00  0.19995504310E+03  0.53805799064E+03  0.49952415560E+03 0.  0.
        5    1    3    3  502    0  0.14270614157E+03 -0.19311433264E+03  0.17382901334E+03  0.29647395196E+03  0.46999998093E+01 0.  1.
       -5    1    3    3    0  502 -0.14270614157E+03  0.19311433264E+03  0.26126029763E+02  0.24158403868E+03  0.46999998093E+01 0. -1.
</event>
<event>
 5   0  0.5038436E-02  0.4792348E+03  0.7818609E-02  0.1019346E+00
        1   -1    0    0  501    0  0.00000000000E+00  0.00000000000E+00  0.73747749313E+03  0.73747749315E+03  0.50400001928E-02 0. -1.
       -1   -1    0    0    0  501  0.00000000000E+00  0.00000000000E+00 -0.77855250223E+02  0.77855250386E+02  0.50400001928E-02 0.  1.
    10030    2    1    2    0    0  0.00000000000E+00  0.00000000000E+00  0.65962224291E+03  0.81533274353E+03  0.47923478519E+03 0.  0.
        1    1    3    3  502    0  0.24421555025E+02 -0.21540081406E+03  0.50350079428E+03  0.54818516298E+03  0.50400001928E-02 0. -1.
       -1    1    3    3    0  502 -0.24421555025E+02  0.21540081406E+03  0.15612144862E+03  0.26714758055E+03  0.50400001928E-02 0.  1.
</event>
<event>
 5   0  0.4865501E-02  0.5516421E+03  0.7818609E-02  0.1001115E+00
        1   -1    0    0  501    0  0.00000000000E+00  0.00000000000E+00  0.38774076238E+03  0.38774076241E+03  0.50400001928E-02 0. -1.
       -1   -1    0    0    0  501  0.00000000000E+00  0.00000000000E+00 -0.19620648077E+03  0.19620648084E+03  0.50400001928E-02 0.  1.
    10030    2    1    2    0    0  0.00000000000E+00  0.00000000000E+00  0.19153428160E+03  0.58394724325E+03  0.55164209581E+03 0.  0.
        2    1    3    3  502    0 -0.10505931675E+03 -0.68650785155E+02 -0.16423179697E+03  0.20669415445E+03  0.25500000920E-02 0.  1.
       -2    1    3    3    0  502  0.10505931675E+03  0.68650785155E+02  0.35576607857E+03  0.37725308880E+03  0.25500000920E-02 0. -1.
</event>
<event>
 5   0  0.8208720E-02  0.5277462E+03  0.7818609E-02  0.1006780E+00
        2   -1    0    0  501    0  0.00000000000E+00  0.00000000000E+00  0.53136479526E+03  0.53136479527E+03  0.25500000920E-02 0.  1.
       -2   -1    0    0    0  501  0.00000000000E+00  0.00000000000E+00 -0.13103804403E+03  0.13103804406E+03  0.25500000920E-02 0. -1.
    10030    2    1    2    0    0  0.00000000000E+00  0.00000000000E+00  0.40032675123E+03  0.66240283933E+03  0.52774616417E+03 0.  0.
        3    1    3    3  502    0  0.15056191295E+03  0.21168260819E+02 -0.70531257975E+02  0.16760564862E+03  0.10100000352E+00 0. -1.
       -3    1    3    3    0  502 -0.15056191295E+03 -0.21168260819E+02  0.47085800920E+03  0.49479719071E+03  0.10100000352E+00 0.  1.
</event>
<event>
 5   0  0.4884478E-02  0.5018007E+03  0.7818609E-02  0.1013310E+00
       -1   -1    0    0    0  501  0.00000000000E+00  0.00000000000E+00  0.32844315879E+03  0.32844315883E+03  0.50400001928E-02 0.  1.
        1   -1    0    0  501    0  0.00000000000E+00  0.00000000000E+00 -0.19166480022E+03  0.19166480029E+03  0.50400001928E-02 0. -1.
    10030    2    1    2    0    0  0.00000000000E+00  0.00000000000E+00  0.13677835857E+03  0.52010795912E+03  0.50180072715E+03 0.  0.
        3    1    3    3  502    0 -0.11250245013E+03 -0.61966850761E+02  0.29178504344E+03  0.31880278176E+03  0.10100000352E+00 0.  1.
       -3    1    3    3    0  502  0.11250245013E+03  0.61966850761E+02 -0.15500668487E+03  0.20130517736E+03  0.10100000352E+00 0. -1.
</event>
<event>
 5   0  0.3210875E-02  0.5000597E+03  0.7818609E-02  0.1013763E+00
       -3   -1    0    0    0  501  0.00000000000E+00  0.00000000000E+00  0.10732352948E+03  0.10732357700E+03  0.10100000352E+00 0. -1.
        3   -1    0    0  501    0  0.00000000000E+00  0.00000000000E+00 -0.58249016526E+03  0.58249017402E+03  0.10100000352E+00 0.  1.
    10030    2    1    2    0    0  0.00000000000E+00  0.00000000000E+00 -0.47516663578E+03  0.68981375102E+03  0.50005967578E+03 0.  0.
        5    1    3    3  502    0 -0.76297243459E+02 -0.15664210741E+03 -0.48486838159E+03  0.51524504523E+03  0.46999998093E+01 0.  1.
       -5    1    3    3    0  502  0.76297243459E+02  0.15664210741E+03  0.97017458058E+01  0.17456870579E+03  0.46999998093E+01 0. -1.
</event>
<event>
 5   0  0.7881060E-02  0.4996541E+03  0.7818609E-02  0.1013869E+00
        2   -1    0    0  501    0  0.00000000000E+00  0.00000000000E+00  0.62826034791E+03  0.62826034791E+03  0.25500000920E-02 0. -1.
       -2   -1    0    0    0  501  0.00000000000E+00  0.00000000000E+00 -0.99343448757E+02  0.99343448790E+02  0.25500000920E-02 0.  1.
    10030    2    1    2    0    0  0.00000000000E+00  0.00000000000E+00  0.52891689915E+03  0.72760379670E+03  0.49965407911E+03 0.  0.
        1    1    3    3  502    0 -0.78418920873E+02  0.14115480135E+03 -0.13138100383E+02  0.16200868743E+03  0.50400001928E-02 0.  1.
       -1    1    3    3    0  502  0.78418920873E+02 -0.14115480135E+03  0.54205499953E+03  0.56559510928E+03  0.50400001928E-02 0. -1.
</event>
<event>
 5   0  0.5038436E-02  0.5003913E+03  0.7818609E-02  0.1013677E+00
       -1   -1    0    0    0  501  0.00000000000E+00  0.00000000000E+00  0.13019714005E+03  0.13019714015E+03  0.50400001928E-02 0. -1.
        1   -1    0    0  501    0  0.00000000000E+00  0.00000000000E+00 -0.48079297069E+03  0.48079297071E+03  0.50400001928E-02 0.  1.
    10030    2    1    2    0    0  0.00000000000E+00  0.00000000000E+00 -0.35059583064E+03  0.61099011086E+03  0.50039132597E+03 0.  0.
        1    1    3    3  502    0  0.12398029021E+02  0.21438951159E+03 -0.18543390032E+02  0.21554681892E+03  0.50400001928E-02 0. -1.
       -1    1    3    3    0  502 -0.12398029021E+02 -0.21438951159E+03 -0.33205244060E+03  0.39544329194E+03  0.50400001928E-02 0.  1.
</event>
<event>
 5   0  0.7698747E-02  0.4808483E+03  0.7818609E-02  0.1018902E+00
       -2   -1    0    0    0  501  0.00000000000E+00  0.00000000000E+00  0.54053653362E+02  0.54053653422E+02  0.25500000920E-02 0.  1.
        2   -1    0    0  501    0  0.00000000000E+00  0.00000000000E+00 -0.10693777342E+04  0.10693777342E+04  0.25500000920E-02 0. -1.
    10030    2    1    2    0    0  0.00000000000E+00  0.00000000000E+00 -0.10153240809E+04  0.11234313877E+04  0.48084830620E+03 0.  0.
        2    1    3    3  502    0  0.90632195138E+02 -0.12370081551E+03 -0.75041080649E+02  0.17072565813E+03  0.25500000920E-02 0.  1.
       -2    1    3    3    0  502 -0.90632195138E+02  0.12370081551E+03 -0.94028300021E+03  0.95270572952E+03  0.25500000920E-02 0. -1.
</event>
<event>
 5   0  0.4884478E-02  0.5013472E+03  0.7818609E-02  0.1013428E+00
       -1   -1    0    0    0  501  0.00000000000E+00  0.00000000000E+00  0.10610035332E+03  0.10610035344E+03  0.50400001928E-02 0.  1.
        1   -1    0    0  501    0  0.00000000000E+00  0.00000000000E+00 -0.59224352671E+03  0.59224352674E+03  0.50400001928E-02 0. -1.
    10030    2    1    2    0    0  0.00000000000E+00  0.00000000000E+00 -0.48614317340E+03  0.69834388017E+03  0.50134717505E+03 0.  0.
        3    1    3    3  502    0  0.99986655134E+02  0.12431977796E+03  0.26253334389E+02  0.16168483591E+03  0.10100000352E+00 0.  1.
       -3    1    3    3    0  502 -0.99986655134E+02 -0.12431977796E+03 -0.51239650779E+03  0.53665904426E+03  0.10100000352E+00 0. -1.
</event>
<event>
 5   0  0.7776070E-02  0.4877642E+03  0.7818609E-02  0.1017023E+00
       -2   -1    0    0    0  501  0.00000000000E+00  0.00000000000E+00  0.73803415262E+02  0.73803415306E+02  0.25500000920E-02 0. -1.
        2   -1    0    0  501    0  0.00000000000E+00  0.00000000000E+00 -0.80590427548E+03  0.80590427548E+03  0.25500000920E-02 0.  1.
    10030    2    1    2    0    0  0.00000000000E+00  0.00000000000E+00 -0.73210086022E+03  0.87970769079E+03  0.48776423783E+03 0.  0.
        4    1    3    3  502    0 -0.11340844444E+03 -0.10078922987E+02  0.22922532233E+02  0.11614695581E+03  0.12699999809E+01 0. -1.
       -4    1    3    3    0  502  0.11340844444E+03  0.10078922987E+02 -0.75502339245E+03  0.76356073498E+03  0.12699999809E+01 0.  1.
</event>
<event>
 5   0  0.7881060E-02  0.4873436E+03  0.7818609E-02  0.1017136E+00
       -2   -1    0    0    0  501  0.00000000000E+00  0.00000000000E+00  0.68293395734E+02  0.68293395782E+02  0.25500000920E-02 0.  1.
        2   -1    0    0  501    0  0.00000000000E+00  0.00000000000E+00 -0.86942457188E+03  0.86942457188E+03  0.25500000920E-02 0. -1.
    10030    2    1    2    0    0  0.00000000000E+00  0.00000000000E+00 -0.80113117615E+03  0.93771796767E+03  0.48734364209E+03 0.  0.
        1    1    3    3  502    0  0.54065886349E+02  0.16820164979E+03 -0.72346056401E+03  0.74472149342E+03  0.50400001928E-02 0. -1.
       -1    1    3    3    0  502 -0.54065886349E+02 -0.16820164979E+03 -0.77670612140E+02  0.19299647425E+03  0.50400001928E-02 0.  1.
</event>
<event>
 5   0  0.4884478E-02  0.5003333E+03  0.7818609E-02  0.1013692E+00
        1   -1    0    0  501    0  0.00000000000E+00  0.00000000000E+00  0.42618204313E+03  0.42618204316E+03  0.50400001928E-02 0. -1.
       -1   -1    0    0    0  501  0.00000000000E+00  0.00000000000E+00 -0.14684650867E+03  0.14684650876E+03  0.50400001928E-02 0.  1.
    10030    2    1    2    0    0  0.00000000000E+00  0.00000000000E+00  0.27933553446E+03  0.57302855192E+03  0.50033326943E+03 0.  0.
        3    1    3    3  502    0  0.15667446390E+03 -0.17070606197E+03  0.24768959601E+03  0.33917192308E+03  0.10100000352E+00 0. -1.
       -3    1    3    3    0  502 -0.15667446390E+03  0.17070606197E+03  0.31645938451E+02  0.23385662884E+03  0.10100000352E+00 0.  1.
</event>
<event>
 5   0  0.4803890E-02  0.4979276E+03  0.7818609E-02  0.1014321E+00
       -1   -1    0    0    0  501  0.00000000000E+00  0.00000000000E+00  0.31953921885E+03  0.31953921889E+03  0.50400001928E-02 0. -1.
        1   -1    0    0  501    0  0.00000000000E+00  0.00000000000E+00 -0.19397612616E+03  0.19397612623E+03  0.50400001928E-02 0.  1.
    10030    2    1    2    0    0  0.00000000000E+00  0.00000000000E+00  0.12556309269E+03  0.51351534512E+03  0.49792762469E+03 0.  0.
        5    1    3    3  502    0 -0.22610146418E+02 -0.15708103279E+03  0.26055356481E+03  0.30511623968E+03  0.46999998093E+01 0. -1.
       -5    1    3    3    0  502  0.22610146418E+02  0.15708103279E+03 -0.13499047212E+03  0.20839910543E+03  0.46999998093E+01 0.  1.
</event>
<event>
 5   0  0.4884478E-02  0.4963613E+03  0.7818609E-02  0.1014733E+00
        1   -1    0    0  501    0  0.00000000000E+00  0.00000000000E+00  0.25341299924E+03  0.25341299929E+03  0.50400001928E-02 0. -1.
       -1   -1    0    0    0  501  0.00000000000E+00  0.00000000000E+00 -0.24305637325E+03  0.24305637330E+03  0.50400001928E-02 0.  1.
    10030    2    1    2    0    0  0.00000000000E+00  0.00000000000E+00  0.10356625991E+02  0.49646937260E+03  0.49636133837E+03 0.  0.
        3    1    3    3  502    0 -0.18420869559E+03  0.35042130361E+02  0.16779549388E+03  0.25162697073E+03  0.10100000352E+00 0. -1.
       -3    1    3    3    0  502  0.18420869559E+03 -0.35042130361E+02 -0.15743886789E+03  0.24484240187E+03  0.10100000352E+00 0.  1.
</event>
<event>
 5   0  0.4803890E-02  0.5002685E+03  0.7818609E-02  0.1013709E+00
       -1   -1    0    0    0  501  0.00000000000E+00  0.00000000000E+00  0.36286987563E+02  0.36286987913E+02  0.50400001928E-02 0.  1.
        1   -1    0    0  501    0  0.00000000000E+00  0.00000000000E+00 -0.17242311713E+04  0.17242311713E+04  0.50400001928E-02 0. -1.
    10030    2    1    2    0    0  0.00000000000E+00  0.00000000000E+00 -0.16879441838E+04  0.17605181593E+04  0.50026854942E+03 0.  0.
        5    1    3    3  502    0 -0.16542049494E+03 -0.20492178305E+02 -0.15000941865E+04  0.15093338027E+04  0.46999998093E+01 0. -1.
       -5    1    3    3    0  502  0.16542049494E+03  0.20492178305E+02 -0.18784999726E+03  0.25118435657E+03  0.46999998093E+01 0.  1.
</event>
<event>
 5   0  0.7698747E-02  0.5115741E+03  0.7818609E-02  0.1010801E+00
        2   -1    0    0  501    0  0.00000000000E+00  0.00000000000E+00  0.25499664708E+03  0.25499664709E+03  0.25500000920E-02 0. -1.
       -2   -1    0    0    0  501  0.00000000000E+00  0.00000000000E+00 -0.25657986980E+03  0.25657986981E+03  0.25500000920E-02 0.  1.
    10030    2    1    2    0    0  0.00000000000E+00  0.00000000000E+00 -0.15832227133E+01  0.51157651690E+03  0.51157406702E+03 0.  0.
        2    1    3    3  502    0 -0.35784897343E+02  0.16928714468E+03  0.18759270374E+03  0.25520524825E+03  0.25500000920E-02 0. -1.
       -2    1    3    3    0  502  0.35784897343E+02 -0.16928714468E+03 -0.18917592646E+03  0.25637126865E+03  0.25500000920E-02 0.  1.
</event>
<event>
 5   0  0.5038436E-02  0.5025276E+03  0.7818609E-02  0.1013121E+00
        1   -1    0    0  501    0  0.00000000000E+00  0.00000000000E+00  0.21592114093E+04  0.21592114093E+04  0.50400001928E-02 0.  1.
       -1   -1    0    0    0  501  0.00000000000E+00  0.00000000000E+00 -0.29239148083E+02  0.29239148518E+02  0.50400001928E-02 0. -1.
    10030    2    1    2    0    0  0.00000000000E+00  0.00000000000E+00  0.21299722612E+04  0.21884505578E+04  0.50252762161E+03 0.  0.
        1    1    3    3  502    0  0.51662235862E+01  0.21362371582E+03  0.16406177498E+04  0.16544752591E+04  0.50400001928E-02 0.  1.
       -1    1    3    3    0  502 -0.51662235862E+01 -0.21362371582E+03  0.48935451137E+03  0.53397529873E+03  0.50400001928E-02 0. -1.
</event>
<event>
 5   0  0.7881060E-02  0.4972447E+03  0.7818609E-02  0.1014501E+00
       -2   -1    0    0    0  501  0.00000000000E+00  0.00000000000E+00  0.54541205280E+02  0.54541205340E+02  0.25500000920E-02 0.  1.
        2   -1    0    0  501    0  0.00000000000E+00  0.00000000000E+00 -0.11333280339E+04  0.11333280339E+04  0.25500000920E-02 0. -1.
    10030    2    1    2    0    0  0.00000000000E+00  0.00000000000E+00 -0.10787868286E+04  0.11878692392E+04  0.49724471634E+03 0.  0.
        1    1    3    3  502    0 -0.22990006387E+03  0.56817095741E+02 -0.35854771819E+03  0.42969604138E+03  0.50400001928E-02 0.  1.
       -1    1    3    3    0  502  0.22990006387E+03 -0.56817095741E+02 -0.72023911040E+03  0.75817319783E+03  0.50400001928E-02 0. -1.
</event>
<event>
 5   0  0.7776070E-02  0.5011964E+03  0.7818609E-02  0.1013467E+00
        2   -1    0    0  501    0  0.00000000000E+00  0.00000000000E+00  0.89220099609E+03  0.89220099609E+03  0.25500000920E-02 0.  1.
       -2   -1    0    0    0  501  0.00000000000E+00  0.00000000000E+00 -0.70387107280E+02  0.70387107326E+02  0.25500000920E-02 0. -1.
    10030    2    1    2    0    0  0.00000000000E+00  0.00000000000E+00  0.82181388881E+03  0.96258810342E+03  0.50119635773E+03 0.  0.
        4    1    3    3  502    0  0.75601066282E+01  0.13533614525E+03  0.81571146913E+03  0.82689772112E+03  0.12699999809E+01 0.  1.
       -4    1    3    3    0  502 -0.75601066282E+01 -0.13533614525E+03  0.61024196800E+01  0.13569038230E+03  0.12699999809E+01 0. -1.
</event>
<event>
 5   0  0.4884478E-02  0.4843838E+03  0.7818609E-02  0.1017937E+00
        1   -1    0    0  501    0  0.00000000000E+00  0.00000000000E+00  0.26884153786E+03  0.26884153791E+03  0.50400001928E-02 0. -1.
       -1   -1    0    0    0  501  0.00000000000E+00  0.00000000000E+00 -0.21818396413E+03  0.21818396419E+03  0.50400001928E-02 0.  1.
    10030    2    1    2    0    0  0.00000000000E+00  0.00000000000E+00  0.50657573729E+02  0.48702550210E+03  0.48438378371E+03 0.  0.
        3    1    3    3  502    0  0.67993216856E+02  0.20212005273E+03 -0.90107242075E+02  0.23150576349E+03  0.10100000352E+00 0.  1.
       -3    1    3    3    0  502 -0.67993216856E+02 -0.20212005273E+03  0.14076481580E+03  0.25551973861E+03  0.10100000352E+00 0. -1.
</event>
<event>
 5   0  0.8208720E-02  0.5007686E+03  0.7818609E-02  0.1013578E+00
       -2   -1    0    0    0  501  0.00000000000E+00  0.00000000000E+00  0.88214847599E+02  0.88214847636E+02  0.25500000920E-02 0. -1.
        2   -1    0    0  501    0  0.00000000000E+00  0.00000000000E+00 -0.71067735167E+03  0.71067735167E+03  0.25500000920E-02 0.  1.
    10030    2    1    2    0    0  0.00000000000E+00  0.00000000000E+00 -0.62246250407E+03  0.79889219931E+03  0.50076858642E+03 0.  0.
        3    1    3    3  502    0 -0.24614556062E+03  0.44281777088E+02 -0.29210247566E+03  0.38454177833E+03  0.10100000352E+00 0.  1.
       -3    1    3    3    0  502  0.24614556062E+03 -0.44281777088E+02 -0.33036002841E+03  0.41435042098E+03  0.10100000352E+00 0. -1.
</event>
<event>
 5   0  0.7881060E-02  0.5035805E+03  0.7818609E-02  0.1012849E+00
       -2   -1    0    0    0  501  0.00000000000E+00  0.00000000000E+00  0.47685392525E+02  0.47685392593E+02  0.25500000920E-02 0.  1.
        2   -1    0    0  501    0  0.00000000000E+00  0.00000000000E+00 -0.13295126338E+04  0.13295126338E+04  0.25500000920E-02 0. -1.
    10030    2    1    2    0    0  0.00000000000E+00  0.00000000000E+00 -0.12818272413E+04  0.13771980264E+04  0.50358050741E+03 0.  0.
        1    1    3    3  502    0 -0.54607436396E+02  0.26066606485E+01  0.31258251556E+02  0.62974956175E+02  0.50400001928E-02 0.  1.
       -1    1    3    3    0  502  0.54607436396E+02 -0.26066606485E+01 -0.13130854929E+04  0.13142230703E+04  0.50400001928E-02 0. -1.
</event>
<event>
 5   0  0.4865501E-02  0.5029050E+03  0.7818609E-02  0.1013023E+00
        1   -1    0    0  501    0  0.00000000000E+00  0.00000000000E+00  0.80550282155E+03  0.80550282157E+03  0.50400001928E-02 0.  1.
       -1   -1    0    0    0  501  0.00000000000E+00  0.00000000000E+00 -0.78495526417E+02  0.78495526578E+02  0.50400001928E-02 0. -1.
    10030    2    1    2    0    0  0.00000000000E+00  0.00000000000E+00  0.72700729514E+03  0.88399834815E+03  0.50290503313E+03 0.  0.
        2    1    3    3  502    0  0.19029255386E+03 -0.83523517246E+02  0.11466120749E+03  0.23734916579E+03  0.25500000920E-02 0. -1.
       -2    1    3    3    0  502 -0.19029255386E+03  0.83523517246E+02  0.61234608764E+03  0.64664918236E+03  0.25500000920E-02 0.  1.
</event>
<event>
 5   0  0.4803890E-02  0.5007425E+03  0.7818609E-02  0.1013585E+00
        1   -1    0    0  501    0  0.00000000000E+00  0.00000000000E+00  0.79207294381E+03  0.79207294383E+03  0.50400001928E-02 0.  1.
       -1   -1    0    0    0  501  0.00000000000E+00  0.00000000000E+00 -0.79141414324E+02  0.79141414484E+02  0.50400001928E-02 0. -1.
    10030    2    1    2    0    0  0.00000000000E+00  0.00000000000E+00  0.71293152949E+03  0.87121435831E+03  0.50074254102E+03 0.  0.
        5    1    3    3  502    0  0.25009504972E+03 -0.96710189003E+01  0.36474066178E+03  0.44237868716E+03  0.46999998093E+01 0. -1.
       -5    1    3    3    0  502 -0.25009504972E+03  0.96710189003E+01  0.34819086771E+03  0.42883567115E+03  0.46999998093E+01 0.  1.
</event>
<event>
 5   0  0.5038436E-02  0.4934586E+03  0.7818609E-02  0.1015501E+00
        1   -1    0    0  501    0  0.00000000000E+00  0.00000000000E+00  0.11773470867E+04  0.11773470868E+04  0.50400001928E-02 0.  1.
       -1   -1    0    0    0  501  0.00000000000E+00  0.00000000000E+00 -0.51705526794E+02  0.51705527039E+02  0.50400001928E-02 0. -1.
    10030    2    1    2    0    0  0.00000000000E+00  0.00000000000E+00  0.11256415600E+04  0.12290526138E+04  0.49345861629E+03 0.  0.
        1    1    3    3  502    0  0.24300081530E+02 -0.24291789283E+03  0.47385902275E+03  0.53304968820E+03  0.50400001928E-02 0.  1.
       -1    1    3    3    0  502 -0.24300081530E+02  0.24291789283E+03  0.65178253720E+03  0.69600292560E+03  0.50400001928E-02 0. -1.
</event>
<event>
 5   0  0.7933103E-02  0.4984199E+03  0.7818609E-02  0.1014192E+00
        2   -1    0    0  501    0  0.00000000000E+00  0.00000000000E+00  0.90319315235E+03  0.90319315235E+03  0.25500000920E-02 0.  1.
       -2   -1    0    0    0  501  0.00000000000E+00  0.00000000000E+00 -0.68762269424E+02  0.68762269471E+02  0.25500000920E-02 0. -1.
    10030    2    1    2    0    0  0.00000000000E+00  0.00000000000E+00  0.83443088292E+03  0.97195542182E+03  0.49841994707E+03 0.  0.
        5    1    3    3  502    0  0.17416848843E+02  0.12412271522E+03 -0.27242522426E+01  0.12545639324E+03  0.46999998093E+01 0. -1.
       -5    1    3    3    0  502 -0.17416848843E+02 -0.12412271522E+03  0.83715513517E+03  0.84649902858E+03  0.46999998093E+01 0.  1.
</event>
<event>
 5   0  0.8208720E-02  0.4956472E+03  0.7818609E-02  0.1014921E+00
       -2   -1    0    0    0  501  0.00000000000E+00  0.00000000000E+00  0.37661901750E+02  0.37661901836E+02  0.25500000920E-02 0. -1.
        2   -1    0    0  501    0  0.00000000000E+00  0.00000000000E+00 -0.16307338348E+04  0.16307338348E+04  0.25500000920E-02 0.  1.
    10030    2    1    2    0    0  0.00000000000E+00  0.00000000000E+00 -0.15930719331E+04  0.16683957367E+04  0.49564720332E+03 0.  0.
        3    1    3    3  502    0 -0.19861260419E+02 -0.53138546672E+02 -0.16085840708E+04  0.16095840760E+04  0.10100000352E+00 0.  1.
       -3    1    3    3    0  502  0.19861260419E+02  0.53138546672E+02  0.15512137723E+02  0.58811660626E+02  0.10100000352E+00 0. -1.
</event>
<event>
 5   0  0.7776070E-02  0.4996659E+03  0.7818609E-02  0.1013866E+00
        2   -1    0    0  501    0  0.00000000000E+00  0.00000000000E+00  0.12524426599E+03  0.12524426602E+03  0.25500000920E-02 0.  1.
       -2   -1    0    0    0  501  0.00000000000E+00  0.00000000000E+00 -0.49835818998E+03  0.49835818998E+03  0.25500000920E-02 0. -1.
    10030    2    1    2    0    0  0.00000000000E+00  0.00000000000E+00 -0.37311392399E+03  0.62360245600E+03  0.49966591124E+03 0.  0.
        4    1    3    3  502    0 -0.14050150373E+03 -0.28526016433E+02  0.68789727600E+02  0.15902215471E+03  0.12699999809E+01 0.  1.
       -4    1    3    3    0  502  0.14050150373E+03  0.28526016433E+02 -0.44190365159E+03  0.46458030129E+03  0.12699999809E+01 0. -1.
</event>
<event>
 5   0  0.8208720E-02  0.4968224E+03  0.7818609E-02  0.1014612E+00
       -2   -1    0    0    0  501  0.00000000000E+00  0.00000000000E+00  0.22257140622E+03  0.22257140623E+03  0.25500000920E-02 0.  1.
        2   -1    0    0  501    0  0.00000000000E+00  0.00000000000E+00 -0.27725093458E+03  0.27725093460E+03  0.25500000920E-02 0. -1.
    10030    2    1    2    0    0  0.00000000000E+00  0.00000000000E+00 -0.54679528365E+02  0.49982234083E+03  0.49682242458E+03 0.  0.
        3    1    3    3  502    0 -0.23545303618E+03  0.43241620302E+02 -0.94073928406E+02  0.25721174969E+03  0.10100000352E+00 0. -1.
       -3    1    3    3    0  502  0.23545303618E+03 -0.43241620302E+02  0.39394400040E+02  0.24261059113E+03  0.10100000352E+00 0.  1.
</event>
<event>
 5   0  0.4803890E-02  0.4984113E+03  0.7818609E-02  0.1014194E+00
        1   -1    0    0  501    0  0.00000000000E+00  0.00000000000E+00  0.15218364545E+04  0.15218364546E+04  0.50400001928E-02 0. -1.
       -1   -1    0    0    0  501  0.00000000000E+00  0.00000000000E+00 -0.40808230248E+02  0.40808230559E+02  0.50400001928E-02 0.  1.
    10030    2    1    2    0    0  0.00000000000E+00  0.00000000000E+00  0.14810282243E+04  0.15626446851E+04  0.49841128674E+03 0.  0.
        5    1    3    3  502    0 -0.24448097840E+03  0.24791796740E+02  0.86962331954E+03  0.90368821497E+03  0.46999998093E+01 0.  1.
       -5    1    3    3    0  502  0.24448097840E+03 -0.24791796740E+02  0.61140490476E+03  0.65895647014E+03  0.46999998093E+01 0. -1.
</event>
<event>
 5   0  0.5191358E-02  0.5047469E+03  0.7818609E-02  0.1012547E+00
        1   -1    0    0  501    0  0.00000000000E+00  0.00000000000E+00  0.22429877629E+03  0.22429877635E+03  0.50400001928E-02 0. -1.
       -1   -1    0    0    0  501  0.00000000000E+00  0.00000000000E+00 -0.28396208910E+03  0.28396208915E+03  0.50400001928E-02 0.  1.
    10030    2    1    2    0    0  0.00000000000E+00  0.00000000000E+00 -0.59663312808E+02  0.50826086550E+03  0.50474686378E+03 0.  0.
        4    1    3    3  502    0  0.63190768836E+02  0.65429761711E+02 -0.26687786700E+03  0.28195662039E+03  0.12699999809E+01 0.  1.
       -4    1    3    3    0  502 -0.63190768836E+02 -0.65429761711E+02  0.20721455420E+03  0.22630424511E+03  0.12699999809E+01 0. -1.
</event>
<event>
 5   0  0.4803890E-02  0.5161057E+03  0.7818609E-02  0.1009659E+00
        1   -1    0    0  501    0  0.00000000000E+00  0.00000000000E+00  0.87874152471E+02  0.87874152616E+02  0.50400001928E-02 0.  1.
       -1   -1    0    0    0  501  0.00000000000E+00  0.00000000000E+00 -0.75780267591E+03  0.75780267593E+03  0.50400001928E-02 0. -1.
    10030    2    1    2    0    0  0.00000000000E+00  0.00000000000E+00 -0.66992852344E+03  0.84567682855E+03  0.51610567892E+03 0.  0.
        5    1    3    3  502    0 -0.53774586002E+02 -0.20070771417E+03 -0.58558498080E+03  0.62137521061E+03  0.46999998093E+01 0.  1.
       -5    1    3    3    0  502  0.53774586002E+02  0.20070771417E+03 -0.84343542648E+02  0.22430161794E+03  0.46999998093E+01 0. -1.
</event>
<event>
 5   0  0.5191358E-02  0.4797070E+03  0.7818609E-02  0.1019216E+00
        1   -1    0    0  501    0  0.00000000000E+00  0.00000000000E+00  0.13080579894E+04  0.13080579894E+04  0.50400001928E-02 0. -1.
       -1   -1    0    0    0  501  0.00000000000E+00  0.00000000000E+00 -0.43980994596E+02  0.43980994885E+02  0.50400001928E-02 0.  1.
    10030    2    1    2    0    0  0.00000000000E+00  0.00000000000E+00  0.12640769948E+04  0.13520389843E+04  0.47970695874E+03 0.  0.
        4    1    3    3  502    0  0.17117661170E+03  0.16728644248E+03  0.67587383363E+03  0.71700295544E+03  0.12699999809E+01 0. -1.
       -4    1    3    3    0  502 -0.17117661170E+03 -0.16728644248E+03  0.58820316121E+03  0.63503602889E+03  0.12699999809E+01 0.  1.
</event>
<event>
 5   0  0.8208720E-02  0.4793389E+03  0.7818609E-02  0.1019317E+00
        2   -1    0    0  501    0  0.00000000000E+00  0.00000000000E+00  0.12336210996E+03  0.12336210999E+03  0.25500000920E-02 0. -1.
       -2   -1    0    0    0  501  0.00000000000E+00  0.00000000000E+00 -0.46563286990E+03  0.46563286991E+03  0.25500000920E-02 0.  1.
    10030    2    1    2    0    0  0.00000000000E+00  0.00000000000E+00 -0.34227075994E+03  0.58899497990E+03  0.47933893357E+03 0.  0.
        3    1    3    3  502    0 -0.15969654175E+03  0.15608688177E+03 -0.27808273266E+03  0.35664564558E+03  0.10100000352E+00 0.  1.
       -3    1    3    3    0  502  0.15969654175E+03 -0.15608688177E+03 -0.64188027275E+02  0.23234933431E+03  0.10100000352E+00 0. -1.
</event>
<event>
 5   0  0.4884478E-02  0.4944929E+03  0.7818609E-02  0.1015226E+00
        1   -1    0    0  501    0  0.00000000000E+00  0.00000000000E+00  0.46653044234E+03  0.46653044236E+03  0.50400001928E-02 0.  1.
       -1   -1    0    0    0  501  0.00000000000E+00  0.00000000000E+00 -0.13103284227E+03  0.13103284237E+03  0.50400001928E-02 0. -1.
    10030    2    1    2    0    0  0.00000000000E+00  0.00000000000E+00  0.33549760006E+03  0.59756328474E+03  0.49449291159E+03 0.  0.
        3    1    3    3  502    0  0.14948575551E+02  0.46255219191E+02 -0.12520121964E+03  0.13430696487E+03  0.10100000352E+00 0. -1.
       -3    1    3    3    0  502 -0.14948575551E+02 -0.46255219191E+02  0.46069881970E+03  0.46325631986E+03  0.10100000352E+00 0.  1.
</event>
<event>
 5   0  0.7933103E-02  0.5039633E+03  0.7818609E-02  0.1012750E+00
        2   -1    0    0  501    0  0.00000000000E+00  0.00000000000E+00  0.12013343970E+04  0.12013343970E+04  0.25500000920E-02 0.  1.
       -2   -1    0    0    0  501  0.00000000000E+00  0.00000000000E+00 -0.52853521299E+02  0.52853521361E+02  0.25500000920E-02 0. -1.
    10030    2    1    2    0    0  0.00000000000E+00  0.00000000000E+00  0.11484808757E+04  0.12541879184E+04  0.50396330494E+03 0.  0.
        5    1    3    3  502    0 -0.11348310169E+03 -0.25427506054E+02  0.11304281690E+04  0.11364043769E+04  0.46999998093E+01 0.  1.
       -5    1    3    3    0  502  0.11348310169E+03  0.25427506054E+02  0.18052706678E+02  0.11778354150E+03  0.46999998093E+01 0. -1.
</event>
<event>
 5   0  0.8208720E-02  0.4968111E+03  0.7818609E-02  0.1014615E+00
        2   -1    0    0  501    0  0.00000000000E+00  0.00000000000E+00  0.20774465531E+04  0.20774465531E+04  0.25500000920E-02 0.  1.
       -2   -1    0    0    0  501  0.00000000000E+00  0.00000000000E+00 -0.29702483796E+02  0.29702483906E+02  0.25500000920E-02 0. -1.
    10030    2    1    2    0    0  0.00000000000E+00  0.00000000000E+00  0.20477440693E+04  0.21071490370E+04  0.49681112185E+03 0.  0.
        3    1    3    3  502    0 -0.48701273993E+02  0.11611543141E+03  0.19320625317E+04  0.19361612133E+04  0.10100000352E+00 0.  1.
       -3    1    3    3    0  502  0.48701273993E+02 -0.11611543141E+03  0.11568153765E+03  0.17098782370E+03  0.10100000352E+00 0. -1.
</event>
<event>
 5   0  0.4884478E-02  0.5007025E+03  0.7818609E-02  0.1013596E+00
       -1   -1    0    0    0  501  0.00000000000E+00  0.00000000000E+00  0.35423411220E+03  0.35423411223E+03  0.50400001928E-02 0. -1.
        1   -1    0    0  501    0  0.00000000000E+00  0.00000000000E+00 -0.17693314296E+03  0.17693314303E+03  0.50400001928E-02 0.  1.
    10030    2    1    2    0    0  0.00000000000E+00  0.00000000000E+00  0.17730096924E+03  0.53116725527E+03  0.50070252583E+03 0.  0.
        3    1    3    3  502    0 -0.70879325588E+02  0.70284743456E+02 -0.15490949702E+03  0.18428452573E+03  0.10100000352E+00 0.  1.
       -3    1    3    3    0  502  0.70879325588E+02 -0.70284743456E+02  0.33221046625E+03  0.34688272953E+03  0.10100000352E+00 0. -1.
</event>
<event>
 5   0  0.7776070E-02  0.4858933E+03  0.7818609E-02  0.1017528E+00
        2   -1    0    0  501    0  0.00000000000E+00  0.00000000000E+00  0.95947234199E+02  0.95947234233E+02  0.25500000920E-02 0. -1.
       -2   -1    0    0    0  501  0.00000000000E+00  0.00000000000E+00 -0.61516177411E+03  0.61516177412E+03  0.25500000920E-02 0.  1.
    10030    2    1    2    0    0  0.00000000000E+00  0.00000000000E+00 -0.51921453991E+03  0.71110900835E+03  0.48589328386E+03 0.  0.
        4    1    3    3  502    0  0.65298556139E+02 -0.24934993117E+02  0.80908770018E+02  0.10692753285E+03  0.12699999809E+01 0. -1.
       -4    1    3    3    0  502 -0.65298556139E+02  0.24934993117E+02 -0.60012330993E+03  0.60418147550E+03  0.12699999809E+01 0.  1.
</event>
<event>
 5   0  0.7933103E-02  0.4977161E+03  0.7818609E-02  0.1014377E+00
       -2   -1    0    0    0  501  0.00000000000E+00  0.00000000000E+00  0.74860769223E+02  0.74860769266E+02  0.25500000920E-02 0. -1.
        2   -1    0    0  501    0  0.00000000000E+00  0.00000000000E+00 -0.82727356043E+03  0.82727356044E+03  0.25500000920E-02 0.  1.
    10030    2    1    2    0    0  0.00000000000E+00  0.00000000000E+00 -0.75241279121E+03  0.90213432970E+03  0.49771612436E+03 0.  0.
        5    1    3    3  502    0  0.22831203907E+03 -0.98285053194E+02 -0.39621894795E+03  0.46775836025E+03  0.46999998093E+01 0.  1.
       -5    1    3    3    0  502 -0.22831203907E+03  0.98285053194E+02 -0.35619384326E+03  0.43437596945E+03  0.46999998093E+01 0. -1.
</event>
<event>
 5   0  0.4865501E-02  0.5001929E+03  0.7818609E-02  0.1013729E+00
        1   -1    0    0  501    0  0.00000000000E+00  0.00000000000E+00  0.11517716755E+03  0.11517716766E+03  0.50400001928E-02 0. -1.
       -1   -1    0    0    0  501  0.00000000000E+00  0.00000000000E+00 -0.54306095177E+03  0.54306095180E+03  0.50400001928E-02 0.  1.
    10030    2    1    2    0    0  0.00000000000E+00  0.00000000000E+00 -0.42788378422E+03  0.65823811946E+03  0.50019285192E+03 0.  0.
        2    1    3    3  502    0  0.51107743953E+02 -0.14166994632E+03  0.48810117597E+02  0.15831867473E+03  0.25500000920E-02 0. -1.
       -2    1    3    3    0  502 -0.51107743953E+02  0.14166994632E+03 -0.47669390182E+03  0.49991944473E+03  0.25500000920E-02 0.  1.
</event>
<event>
 5   0  0.5191358E-02  0.4769959E+03  0.7818609E-02  0.1019964E+00
        1   -1    0    0  501    0  0.00000000000E+00  0.00000000000E+00  0.57530071605E+03  0.57530071608E+03  0.50400001928E-02 0. -1.
       -1   -1    0    0    0  501  0.00000000000E+00  0.00000000000E+00 -0.98872259115E+02  0.98872259243E+02  0.50400001928E-02 0.  1.
    10030    2    1    2    0    0  0.00000000000E+00  0.00000000000E+00  0.47642845694E+03  0.67417297532E+03  0.47699593926E+03 0.  0.
        4    1    3    3  502    0 -0.15966427873E+03  0.11978261677E+03  0.53721128032E+02  0.20670783652E+03  0.12699999809E+01 0.  1.
       -4    1    3    3    0  502  0.15966427873E+03 -0.11978261677E+03  0.42270732891E+03  0.46746513880E+03  0.12699999809E+01 0. -1.
</event>
<event>
 5   0  0.4884478E-02  0.4924890E+03  0.7818609E-02  0.1015758E+00
        1   -1    0    0  501    0  0.00000000000E+00  0.00000000000E+00  0.76698332481E+03  0.76698332483E+03  0.50400001928E-02 0.  1.
       -1   -1    0    0    0  501  0.00000000000E+00  0.00000000000E+00 -0.79058257636E+02  0.79058257797E+02  0.50400001928E-02 0. -1.
    10030    2    1    2    0    0  0.00000000000E+00  0.00000000000E+00  0.68792506718E+03  0.84604158263E+03  0.49248904707E+03 0.  0.
        3    1    3    3  502    0 -0.21044953717E+03 -0.24827010410E+02  0.12849946380E+03  0.24782556474E+03  0.10100000352E+00 0. -1.
       -3    1    3    3    0  502  0.21044953717E+03  0.24827010410E+02  0.55942560338E+03  0.59821601789E+03  0.10100000352E+00 0.  1.
</event>
<event>
 5   0  0.4803890E-02  0.5027989E+03  0.7818609E-02  0.1013051E+00
       -1   -1    0    0    0  501  0.00000000000E+00  0.00000000000E+00  0.35475743603E+03  0.35475743607E+03  0.50400001928E-02 0. -1.
        1   -1    0    0  501    0  0.00000000000E+00  0.00000000000E+00 -0.17815461656E+03  0.17815461664E+03  0.50400001928E-02 0.  1.
    10030    2    1    2    0    0  0.00000000000E+00  0.00000000000E+00  0.17660281947E+03  0.53291205270E+03  0.50279886642E+03 0.  0.
        5    1    3    3  502    0  0.32113070251E+02 -0.23082990845E+03  0.18809953892E+03  0.29952833332E+03  0.46999998093E+01 0. -1.
       -5    1    3    3    0  502 -0.32113070251E+02  0.23082990845E+03 -0.11496719456E+02  0.23338371939E+03  0.46999998093E+01 0.  1.
</event>
<event>
 5   0  0.7881060E-02  0.4989360E+03  0.7818609E-02  0.1014057E+00
       -2   -1    0    0    0  501  0.00000000000E+00  0.00000000000E+00  0.71398811777E+02  0.71398811822E+02  0.25500000920E-02 0.  1.
        2   -1    0    0  501    0  0.00000000000E+00  0.00000000000E+00 -0.87164297082E+03  0.87164297082E+03  0.25500000920E-02 0. -1.
    10030    2    1    2    0    0  0.00000000000E+00  0.00000000000E+00 -0.80024415904E+03  0.94304178264E+03  0.49893595755E+03 0.  0.
        1    1    3    3  502    0 -0.56773200874E+02 -0.15040630468E+03 -0.39567257236E+02  0.16556213546E+03  0.50400001928E-02 0.  1.
       -1    1    3    3    0  502  0.56773200874E+02  0.15040630468E+03 -0.76067690180E+03  0.77747964719E+03  0.50400001928E-02 0. -1.
</event>
<event>
 5   0  0.5038436E-02  0.4999612E+03  0.7818609E-02  0.1013789E+00
       -1   -1    0    0    0  501  0.00000000000E+00  0.00000000000E+00  0.11937877331E+03  0.11937877342E+03  0.50400001928E-02 0.  1.
        1   -1    0    0  501    0  0.00000000000E+00  0.00000000000E+00 -0.52346246005E+03  0.52346246007E+03  0.50400001928E-02 0. -1.
    10030    2    1    2    0    0  0.00000000000E+00  0.00000000000E+00 -0.40408368674E+03  0.64284123349E+03  0.49996122409E+03 0.  0.
        1    1    3    3  502    0 -0.20529336725E+03  0.14150884545E+03 -0.22504931201E+03  0.33588288560E+03  0.50400001928E-02 0. -1.
       -1    1    3    3    0  502  0.20529336725E+03 -0.14150884545E+03 -0.17903437473E+03  0.30695834789E+03  0.50400001928E-02 0.  1.
</event>
<event>
 5   0  0.7881060E-02  0.4867115E+03  0.7818609E-02  0.1017307E+00
        2   -1    0    0  501    0  0.00000000000E+00  0.00000000000E+00  0.27283829097E+03  0.27283829098E+03  0.25500000920E-02 0. -1.
       -2   -1    0    0    0  501  0.00000000000E+00  0.00000000000E+00 -0.21705905241E+03  0.21705905243E+03  0.25500000920E-02 0.  1.
    10030    2    1    2    0    0  0.00000000000E+00  0.00000000000E+00  0.55779238559E+02  0.48989734341E+03  0.48671149937E+03 0.  0.
        1    1    3    3  502    0  0.43231050161E+02  0.21741997286E+03 -0.73175045734E+02  0.23344154652E+03  0.50400001928E-02 0.  1.
       -1    1    3    3    0  502 -0.43231050161E+02 -0.21741997286E+03  0.12895428429E+03  0.25645579689E+03  0.50400001928E-02 0. -1.
</event>
<event>
 5   0  0.4884478E-02  0.5025562E+03  0.7818609E-02  0.1013114E+00
       -1   -1    0    0    0  501  0.00000000000E+00  0.00000000000E+00  0.33367140442E+03  0.33367140446E+03  0.50400001928E-02 0.  1.
        1   -1    0    0  501    0  0.00000000000E+00  0.00000000000E+00 -0.18923013575E+03  0.18923013581E+03  0.50400001928E-02 0. -1.
    10030    2    1    2    0    0  0.00000000000E+00  0.00000000000E+00  0.14444126868E+03  0.52290154028E+03  0.50255620653E+03 0.  0.
        3    1    3    3  502    0 -0.41293875887E+02  0.22363490219E+03  0.18342552128E+03  0.29216893353E+03  0.10100000352E+00 0.  1.
       -3    1    3    3    0  502  0.41293875887E+02 -0.22363490219E+03 -0.38984252608E+02  0.23073260674E+03  0.10100000352E+00 0. -1.
</event>
<event>
 5   0  0.4865501E-02  0.5001895E+03  0.7818609E-02  0.1013729E+00
       -1   -1    0    0    0  501  0.00000000000E+00  0.00000000000E+00  0.16556353919E+03  0.16556353927E+03  0.50400001928E-02 0.  1.
        1   -1    0    0  501    0  0.00000000000E+00  0.00000000000E+00 -0.37778481310E+03  0.37778481313E+03  0.50400001928E-02 0. -1.
    10030    2    1    2    0    0  0.00000000000E+00  0.00000000000E+00 -0.21222127391E+03  0.54334835240E+03  0.50018952704E+03 0.  0.
        2    1    3    3  502    0  0.96609738647E+02  0.71977322098E+02 -0.34418607105E+03  0.36466179949E+03  0.25500000920E-02 0. -1.
       -2    1    3    3    0  502 -0.96609738647E+02 -0.71977322098E+02  0.13196479714E+03  0.17868655291E+03  0.25500000920E-02 0.  1.
</event>
<event>
 5   0  0.4803890E-02  0.4996795E+03  0.7818609E-02  0.1013863E+00
       -1   -1    0    0    0  501  0.00000000000E+00  0.00000000000E+00  0.82038476306E+02  0.82038476460E+02  0.50400001928E-02 0.  1.
        1   -1    0    0  501    0  0.00000000000E+00  0.00000000000E+00 -0.76086136137E+03  0.76086136139E+03  0.50400001928E-02 0. -1.
    10030    2    1    2    0    0  0.00000000000E+00  0.00000000000E+00 -0.67882288507E+03  0.84289983785E+03  0.49967952465E+03 0.  0.
        5    1    3    3  502    0 -0.11993220532E+03  0.16770524953E+03 -0.57730968989E+03  0.61303943807E+03  0.46999998093E+01 0. -1.
       -5    1    3    3    0  502  0.11993220532E+03 -0.16770524953E+03 -0.10151319518E+03  0.22986039978E+03  0.46999998093E+01 0.  1.
</event>
<event>
 5   0  0.7933103E-02  0.5388911E+03  0.7818609E-02  0.1004098E+00
       -2   -1    0    0    0  501  0.00000000000E+00  0.00000000000E+00  0.13817349621E+03  0.13817349623E+03  0.25500000920E-02 0. -1.
        2   -1    0    0  501    0  0.00000000000E+00  0.00000000000E+00 -0.52543296488E+03  0.52543296489E+03  0.25500000920E-02 0.  1.
    10030    2    1    2    0    0  0.00000000000E+00  0.00000000000E+00 -0.38725946868E+03  0.66360646112E+03  0.53889111995E+03 0.  0.
        5    1    3    3  502    0 -0.13180340294E+03  0.23209454835E+03 -0.14857214207E+03  0.30550906336E+03  0.46999998093E+01 0. -1.
       -5    1    3    3    0  502  0.13180340294E+03 -0.23209454835E+03 -0.23868732661E+03  0.35809739776E+03  0.46999998093E+01 0.  1.
</event>
<event>
 5   0  0.7933103E-02  0.4982600E+03  0.7818609E-02  0.1014234E+00
        2   -1    0    0  501    0  0.00000000000E+00  0.00000000000E+00  0.11133117142E+04  0.11133117142E+04  0.25500000920E-02 0.  1.
       -2   -1    0    0    0  501  0.00000000000E+00  0.00000000000E+00 -0.55748761064E+02  0.55748761122E+02  0.25500000920E-02 0. -1.
    10030    2    1    2    0    0  0.00000000000E+00  0.00000000000E+00  0.10575629531E+04  0.11690604753E+04  0.49825996740E+03 0.  0.
        5    1    3    3  502    0  0.18334009877E+03  0.12540572197E+03  0.26433231317E+03  0.34530254662E+03  0.46999998093E+01 0. -1.
       -5    1    3    3    0  502 -0.18334009877E+03 -0.12540572197E+03  0.79323063994E+03  0.82375792868E+03  0.46999998093E+01 0.  1.
</event>
<event>
 5   0  0.7933103E-02  0.4980401E+03  0.7818609E-02  0.1014292E+00
       -2   -1    0    0    0  501  0.00000000000E+00  0.00000000000E+00  0.41303703833E+03  0.41303703834E+03  0.25500000920E-02 0.  1.
        2   -1    0    0  501    0  0.00000000000E+00  0.00000000000E+00 -0.15013421832E+03  0.15013421834E+03  0.25500000920E-02 0. -1.
    10030    2    1    2    0    0  0.00000000000E+00  0.00000000000E+00  0.26290282001E+03  0.56317125668E+03  0.49804013049E+03 0.  0.
        5    1    3    3  502    0  0.23584129501E+03  0.74654100577E+02  0.99577361292E+02  0.26670600302E+03  0.46999998093E+01 0. -1.
       -5    1    3    3    0  502 -0.23584129501E+03 -0.74654100577E+02  0.16332545872E+03  0.29646525366E+03  0.46999998093E+01 0.  1.
</event>
<event>
 5   0  0.5191358E-02  0.4980205E+03  0.7818609E-02  0.1014297E+00
       -1   -1    0    0    0  501  0.00000000000E+00  0.00000000000E+00  0.11555632452E+03  0.11555632463E+03  0.50400001928E-02 0. -1.
        1   -1    0    0  501    0  0.00000000000E+00  0.00000000000E+00 -0.53658768807E+03  0.53658768809E+03  0.50400001928E-02 0.  1.
    10030    2    1    2    0    0  0.00000000000E+00  0.00000000000E+00 -0.42103136355E+03  0.65214401273E+03  0.49802048577E+03 0.  0.
        4    1    3    3  502    0 -0.65221486160E+02  0.20617228380E+03 -0.48841534610E+02  0.22169339473E+03  0.12699999809E+01 0. -1.
       -4    1    3    3    0  502  0.65221486160E+02 -0.20617228380E+03 -0.37218982894E+03  0.43045061799E+03  0.12699999809E+01 0.  1.
</event>
<event>
 5   0  0.7698747E-02  0.5024562E+03  0.7818609E-02  0.1013140E+00
        2   -1    0    0  501    0  0.00000000000E+00  0.00000000000E+00  0.10531006559E+03  0.10531006562E+03  0.25500000920E-02 0.  1.
       -2   -1    0    0    0  501  0.00000000000E+00  0.00000000000E+00 -0.59933067651E+03  0.59933067651E+03  0.25500000920E-02 0. -1.
    10030    2    1    2    0    0  0.00000000000E+00  0.00000000000E+00 -0.49402061091E+03  0.70464074214E+03  0.50245617866E+03 0.  0.
        2    1    3    3  502    0 -0.81425825221E+02 -0.26259346758E+02  0.84250801062E+02  0.12007462593E+03  0.25500000920E-02 0.  1.
       -2    1    3    3    0  502  0.81425825221E+02  0.26259346758E+02 -0.57827141198E+03  0.58456611621E+03  0.25500000920E-02 0. -1.
</event>
<event>
 5   0  0.8208720E-02  0.5068269E+03  0.7818609E-02  0.1012012E+00
       -2   -1    0    0    0  501  0.00000000000E+00  0.00000000000E+00  0.70703944607E+02  0.70703944653E+02  0.25500000920E-02 0.  1.
        2   -1    0    0  501    0  0.00000000000E+00  0.00000000000E+00 -0.90827138553E+03  0.90827138553E+03  0.25500000920E-02 0. -1.
    10030    2    1    2    0    0  0.00000000000E+00  0.00000000000E+00 -0.83756744092E+03  0.97897533018E+03  0.50682687282E+03 0.  0.
        3    1    3    3  502    0  0.74354118316E+02 -0.29441116475E+00  0.49159542728E+02  0.89136369854E+02  0.10100000352E+00 0.  1.
       -3    1    3    3    0  502 -0.74354118316E+02  0.29441116475E+00 -0.88672698365E+03  0.88983896033E+03  0.10100000352E+00 0. -1.
</event>
<event>
 5   0  0.5038436E-02  0.4990400E+03  0.7818609E-02  0.1014030E+00
        1   -1    0    0  501    0  0.00000000000E+00  0.00000000000E+00  0.77210837428E+03  0.77210837430E+03  0.50400001928E-02 0. -1.
       -1   -1    0    0    0  501  0.00000000000E+00  0.00000000000E+00 -0.80636658074E+02  0.80636658232E+02  0.50400001928E-02 0.  1.
    10030    2    1    2    0    0  0.00000000000E+00  0.00000000000E+00  0.69147171621E+03  0.85274503253E+03  0.49904003466E+03 0.  0.
        1    1    3    3  502    0  0.57892946937E+02 -0.22528532709E+03  0.19142366513E+03  0.30124423896E+03  0.50400001928E-02 0.  1.
       -1    1    3    3    0  502 -0.57892946937E+02  0.22528532709E+03  0.50004805108E+03  0.55150079358E+03  0.50400001928E-02 0. -1.
</event>
<event>
 5   0  0.8208720E-02  0.5004339E+03  0.7818609E-02  0.1013666E+00
        2   -1    0    0  501    0  0.00000000000E+00  0.00000000000E+00  0.64906509256E+03  0.64906509256E+03  0.25500000920E-02 0.  1.
       -2   -1    0    0    0  501  0.00000000000E+00  0.00000000000E+00 -0.96459548877E+02  0.96459548911E+02  0.25500000920E-02 0. -1.
    10030    2    1    2    0    0  0.00000000000E+00  0.00000000000E+00  0.55260554368E+03  0.74552464147E+03  0.50043391585E+03 0.  0.
        3    1    3    3  502    0 -0.27714293733E+02  0.76164985130E+02  0.62896725950E+03  0.63416796731E+03  0.10100000352E+00 0.  1.
       -3    1    3    3    0  502  0.27714293733E+02 -0.76164985130E+02 -0.76361715820E+02  0.11135667416E+03  0.10100000352E+00 0. -1.
</event>
<event>
 5   0  0.5191358E-02  0.4996635E+03  0.7818609E-02  0.1013867E+00
        1   -1    0    0  501    0  0.00000000000E+00  0.00000000000E+00  0.84674308826E+02  0.84674308976E+02  0.50400001928E-02 0. -1.
       -1   -1    0    0    0  501  0.00000000000E+00  0.00000000000E+00 -0.73712921489E+03  0.73712921491E+03  0.50400001928E-02 0.  1.
    10030    2    1    2    0    0  0.00000000000E+00  0.00000000000E+00 -0.65245490606E+03  0.82180352388E+03  0.49966351420E+03 0.  0.
        4    1    3    3  502    0  0.18790506253E+03  0.15688924233E+03 -0.40832729843E+03  0.47608333559E+03  0.12699999809E+01 0. -1.
       -4    1    3    3    0  502 -0.18790506253E+03 -0.15688924233E+03 -0.24412760763E+03  0.34572018829E+03  0.12699999809E+01 0.  1.
</event>
<event>
 5   0  0.7933103E-02  0.4994296E+03  0.7818609E-02  0.1013928E+00
       -2   -1    0    0    0  501  0.00000000000E+00  0.00000000000E+00  0.80748887291E+02  0.80748887331E+02  0.25500000920E-02 0.  1.
        2   -1    0    0  501    0  0.00000000000E+00  0.00000000000E+00 -0.77223961289E+03  0.77223961289E+03  0.25500000920E-02 0. -1.
    10030    2    1    2    0    0  0.00000000000E+00  0.00000000000E+00 -0.69149072560E+03  0.85298850023E+03  0.49942963261E+03 0.  0.
        5    1    3    3  502    0  0.21554647985E+03 -0.39409838756E+02 -0.14135030640E+03  0.26079766004E+03  0.46999998093E+01 0.  1.
       -5    1    3    3    0  502 -0.21554647985E+03  0.39409838756E+02 -0.55014041919E+03  0.59219084018E+03  0.46999998093E+01 0. -1.
</event>
<event>
 5   0  0.4884478E-02  0.4988559E+03  0.7818609E-02  0.1014078E+00
       -1   -1    0    0    0  501  0.00000000000E+00  0.00000000000E+00  0.10476828705E+03  0.10476828717E+03  0.50400001928E-02 0. -1.
        1   -1    0    0  501    0  0.00000000000E+00  0.00000000000E+00 -0.59382752227E+03  0.59382752229E+03  0.50400001928E-02 0.  1.
    10030    2    1    2    0    0  0.00000000000E+00  0.00000000000E+00 -0.48905923522E+03  0.69859580946E+03  0.49885586039E+03 0.  0.
        3    1    3    3  502    0  0.15855593265E+03  0.16878664877E+03 -0.37428646765E+03  0.44013553213E+03  0.10100000352E+00 0.  1.
       -3    1    3    3    0  502 -0.15855593265E+03 -0.16878664877E+03 -0.11477276757E+03  0.25846027733E+03  0.10100000352E+00 0. -1.
</event>
<event>
 5   0  0.7698747E-02  0.4990641E+03  0.7818609E-02  0.1014023E+00
       -2   -1    0    0    0  501  0.00000000000E+00  0.00000000000E+00  0.25779977690E+02  0.25779977816E+02  0.25500000920E-02 0.  1.
        2   -1    0    0  501    0  0.00000000000E+00  0.00000000000E+00 -0.24152950379E+04  0.24152950379E+04  0.25500000920E-02 0. -1.
    10030    2    1    2    0    0  0.00000000000E+00  0.00000000000E+00 -0.23895150602E+04  0.24410750157E+04  0.49906413355E+03 0.  0.
        2    1    3    3  502    0 -0.23902931022E+02 -0.23327702988E+03 -0.16120042044E+04  0.16289711715E+04  0.25500000920E-02 0. -1.
       -2    1    3    3    0  502  0.23902931022E+02  0.23327702988E+03 -0.77751085586E+03  0.81210384420E+03  0.25500000920E-02 0.  1.
</event>
<event>
 5   0  0.4803890E-02  0.4988264E+03  0.7818609E-02  0.1014086E+00
       -1   -1    0    0    0  501  0.00000000000E+00  0.00000000000E+00  0.69613514799E+03  0.69613514801E+03  0.50400001928E-02 0.  1.
        1   -1    0    0  501    0  0.00000000000E+00  0.00000000000E+00 -0.89360425796E+02  0.89360425938E+02  0.50400001928E-02 0. -1.
    10030    2    1    2    0    0  0.00000000000E+00  0.00000000000E+00  0.60677472219E+03  0.78549557394E+03  0.49882635575E+03 0.  0.
        5    1    3    3  502    0 -0.21811177924E+03 -0.11883545949E+03  0.26852203885E+03  0.36581524028E+03  0.46999998093E+01 0. -1.
       -5    1    3    3    0  502  0.21811177924E+03  0.11883545949E+03  0.33825268334E+03  0.41968033366E+03  0.46999998093E+01 0.  1.
</event>
<event>
 5   0  0.4865501E-02  0.5080733E+03  0.7818609E-02  0.1011693E+00
        1   -1    0    0  501    0  0.00000000000E+00  0.00000000000E+00  0.49654051554E+03  0.49654051556E+03  0.50400001928E-02 0. -1.
       -1   -1    0    0    0  501  0.00000000000E+00  0.00000000000E+00 -0.12996850355E+03  0.12996850364E+03  0.50400001928E-02 0.  1.
    10030    2    1    2    0    0  0.00000000000E+00  0.00000000000E+00  0.36657201199E+03  0.62650901921E+03  0.50807333248E+03 0.  0.
        2    1    3    3  502    0  0.16216645000E+02  0.24520329532E+02 -0.12786393415E+03  0.13119989252E+03  0.25500000920E-02 0.  1.
       -2    1    3    3    0  502 -0.16216645000E+02 -0.24520329532E+02  0.49443594614E+03  0.49530912669E+03  0.25500000920E-02 0. -1.
</event>
<event>
 5   0  0.4803890E-02  0.4993338E+03  0.7818609E-02  0.1013953E+00
       -1   -1    0    0    0  501  0.00000000000E+00  0.00000000000E+00  0.22342922502E+03  0.22342922507E+03  0.50400001928E-02 0. -1.
        1   -1    0    0  501    0  0.00000000000E+00  0.00000000000E+00 -0.27898567957E+03  0.27898567961E+03  0.50400001928E-02 0.  1.
    10030    2    1    2    0    0  0.00000000000E+00  0.00000000000E+00 -0.55556454551E+02  0.50241490469E+03  0.49933377295E+03 0.  0.
        5    1    3    3  502    0 -0.12449721011E+03 -0.11214592484E+03 -0.21394750382E+03  0.27179383395E+03  0.46999998093E+01 0.  1.
       -5    1    3    3    0  502  0.12449721011E+03  0.11214592484E+03  0.15839104927E+03  0.23062107074E+03  0.46999998093E+01 0. -1.
</event>
<event>
 5   0  0.7933103E-02  0.5000823E+03  0.7818609E-02  0.1013757E+00
       -2   -1    0    0    0  501  0.00000000000E+00  0.00000000000E+00  0.91732520617E+02  0.91732520653E+02  0.25500000920E-02 0. -1.
        2   -1    0    0  501    0  0.00000000000E+00  0.00000000000E+00 -0.68155300627E+03  0.68155300627E+03  0.25500000920E-02 0.  1.
    10030    2    1    2    0    0  0.00000000000E+00  0.00000000000E+00 -0.58982048565E+03  0.77328552693E+03  0.50008229409E+03 0.  0.
        5    1    3    3  502    0 -0.13835256186E+03  0.17689690074E+03 -0.12506484102E+03  0.25709385314E+03  0.46999998093E+01 0.  1.
       -5    1    3    3    0  502  0.13835256186E+03 -0.17689690074E+03 -0.46475564464E+03  0.51619167379E+03  0.46999998093E+01 0. -1.
</event>
<event>
 5   0  0.4803890E-02  0.5088076E+03  0.7818609E-02  0.1011505E+00
       -1   -1    0    0    0  501  0.00000000000E+00  0.00000000000E+00  0.72219507067E+02  0.72219507242E+02  0.50400001928E-02 0.  1.
        1   -1    0    0  501    0  0.00000000000E+00  0.00000000000E+00 -0.89617471357E+03  0.89617471358E+03  0.50400001928E-02 0. -1.
    10030    2    1    2    0    0  0.00000000000E+00  0.00000000000E+00 -0.82395520650E+03  0.96839422083E+03  0.50880761060E+03 0.  0.
        5    1    3    3  502    0 -0.25370641130E+03  0.18133639433E+02 -0.41550462125E+03  0.48719806269E+03  0.46999998093E+01 0. -1.
       -5    1    3    3    0  502  0.25370641130E+03 -0.18133639433E+02 -0.40845058525E+03  0.48119615813E+03  0.46999998093E+01 0.  1.
</event>
<event>
 5   0  0.7881060E-02  0.4999173E+03  0.7818609E-02  0.1013801E+00
       -2   -1    0    0    0  501  0.00000000000E+00  0.00000000000E+00  0.27391566057E+03  0.27391566059E+03  0.25500000920E-02 0. -1.
        2   -1    0    0  501    0  0.00000000000E+00  0.00000000000E+00 -0.22809690426E+03  0.22809690428E+03  0.25500000920E-02 0.  1.
    10030    2    1    2    0    0  0.00000000000E+00  0.00000000000E+00  0.45818756311E+02  0.50201256486E+03  0.49991725000E+03 0.  0.
        1    1    3    3  502    0  0.32933517280E+02  0.11599613726E+02 -0.22563587915E+03  0.22832152238E+03  0.50400001928E-02 0.  1.
       -1    1    3    3    0  502 -0.32933517280E+02 -0.11599613726E+02  0.27145463546E+03  0.27369104248E+03  0.50400001928E-02 0. -1.
</event>
<event>
 5   0  0.7933103E-02  0.5015595E+03  0.7818609E-02  0.1013373E+00
        2   -1    0    0  501    0  0.00000000000E+00  0.00000000000E+00  0.75846462379E+03  0.75846462379E+03  0.25500000920E-02 0.  1.
       -2   -1    0    0    0  501  0.00000000000E+00  0.00000000000E+00 -0.82918152633E+02  0.82918152672E+02  0.25500000920E-02 0. -1.
    10030    2    1    2    0    0  0.00000000000E+00  0.00000000000E+00  0.67554647115E+03  0.84138277646E+03  0.50155950977E+03 0.  0.
        5    1    3    3  502    0  0.13005339521E+03 -0.14018731019E+03  0.65712564156E+02  0.20225379757E+03  0.46999998093E+01 0. -1.
       -5    1    3    3    0  502 -0.13005339521E+03  0.14018731019E+03  0.60983390700E+03  0.63912897890E+03  0.46999998093E+01 0.  1.
</event>
<event>
 5   0  0.7933103E-02  0.5034997E+03  0.7818609E-02  0.1012869E+00
        2   -1    0    0  501    0  0.00000000000E+00  0.00000000000E+00  0.59308495870E+03  0.59308495871E+03  0.25500000920E-02 0. -1.
       -2   -1    0    0    0  501  0.00000000000E+00  0.00000000000E+00 -0.10686157455E+03  0.10686157458E+03  0.25500000920E-02 0.  1.
    10030    2    1    2    0    0  0.00000000000E+00  0.00000000000E+00  0.48622338415E+03  0.69994653328E+03  0.50349972211E+03 0.  0.
        5    1    3    3  502    0 -0.38291724234E+02 -0.24836742495E+03  0.26293156218E+03  0.36374129585E+03  0.46999998093E+01 0. -1.
       -5    1    3    3    0  502  0.38291724234E+02  0.24836742495E+03  0.22329182197E+03  0.33620523743E+03  0.46999998093E+01 0.  1.
</event>
<event>
 5   0  0.4884478E-02  0.4923550E+03  0.7818609E-02  0.1015794E+00
       -1   -1    0    0    0  501  0.00000000000E+00  0.00000000000E+00  0.91420812455E+02  0.91420812594E+02  0.50400001928E-02 0. -1.
        1   -1    0    0  501    0  0.00000000000E+00  0.00000000000E+00 -0.66290546269E+03  0.66290546271E+03  0.50400001928E-02 0.  1.
    10030    2    1    2    0    0  0.00000000000E+00  0.00000000000E+00 -0.57148465023E+03  0.75432627530E+03  0.49235497779E+03 0.  0.
        3    1    3    3  502    0 -0.83754714463E+02 -0.22121237088E+03 -0.39025633809E+03  0.45634393263E+03  0.10100000352E+00 0.  1.
       -3    1    3    3    0  502  0.83754714463E+02  0.22121237088E+03 -0.18122831214E+03  0.29798234267E+03  0.10100000352E+00 0. -1.
</event>
<event>
 5   0  0.4803890E-02  0.4989587E+03  0.7818609E-02  0.1014051E+00
       -1   -1    0    0    0  501  0.00000000000E+00  0.00000000000E+00  0.60477813671E+02  0.60477813881E+02  0.50400001928E-02 0.  1.
        1   -1    0    0  501    0  0.00000000000E+00  0.00000000000E+00 -0.10291370324E+04  0.10291370324E+04  0.50400001928E-02 0. -1.
    10030    2    1    2    0    0  0.00000000000E+00  0.00000000000E+00 -0.96865921869E+03  0.10896148463E+04  0.49895874702E+03 0.  0.
        5    1    3    3  502    0  0.27199312254E+02 -0.21032323996E+03 -0.77108045684E+03  0.79972672131E+03  0.46999998093E+01 0. -1.
       -5    1    3    3    0  502 -0.27199312254E+02  0.21032323996E+03 -0.19757876186E+03  0.28988812495E+03  0.46999998093E+01 0.  1.
</event>
<event>
 5   0  0.7933103E-02  0.5006748E+03  0.7818609E-02  0.1013603E+00
       -2   -1    0    0    0  501  0.00000000000E+00  0.00000000000E+00  0.18094296249E+03  0.18094296251E+03  0.25500000920E-02 0. -1.
        2   -1    0    0  501    0  0.00000000000E+00  0.00000000000E+00 -0.34634564966E+03  0.34634564967E+03  0.25500000920E-02 0.  1.
    10030    2    1    2    0    0  0.00000000000E+00  0.00000000000E+00 -0.16540268717E+03  0.52728861218E+03  0.50067477629E+03 0.  0.
        5    1    3    3  502    0 -0.46126210426E+02  0.11341229462E+03 -0.31260975162E+03  0.33576319433E+03  0.46999998093E+01 0.  1.
       -5    1    3    3    0  502  0.46126210426E+02 -0.11341229462E+03  0.14720706446E+03  0.19152541785E+03  0.46999998093E+01 0. -1.
</event>
<event>
 5   0  0.4865501E-02  0.4875446E+03  0.7818609E-02  0.1017082E+00
       -1   -1    0    0    0  501  0.00000000000E+00  0.00000000000E+00  0.24869035486E+03  0.24869035491E+03  0.50400001928E-02 0.  1.
        1   -1    0    0  501    0  0.00000000000E+00  0.00000000000E+00 -0.23895153889E+03  0.23895153895E+03  0.50400001928E-02 0. -1.
    10030    2    1    2    0    0  0.00000000000E+00  0.00000000000E+00  0.97388159666E+01  0.48764189386E+03  0.48754463602E+03 0.  0.
        2    1    3    3  502    0 -0.38537354199E+02 -0.19432182097E+03  0.14695000766E+03  0.24665847346E+03  0.25500000920E-02 0.  1.
       -2    1    3    3    0  502  0.38537354199E+02  0.19432182097E+03 -0.13721119169E+03  0.24098342040E+03  0.25500000920E-02 0. -1.
</event>
<event>
 5   0  0.7881060E-02  0.4901955E+03  0.7818609E-02  0.1016370E+00
        2   -1    0    0  501    0  0.00000000000E+00  0.00000000000E+00  0.46838583022E+03  0.46838583023E+03  0.25500000920E-02 0.  1.
       -2   -1    0    0    0  501  0.00000000000E+00  0.00000000000E+00 -0.12825518155E+03  0.12825518158E+03  0.25500000920E-02 0. -1.
    10030    2    1    2    0    0  0.00000000000E+00  0.00000000000E+00  0.34013064867E+03  0.59664101180E+03  0.49019551079E+03 0.  0.
        1    1    3    3  502    0 -0.19314940871E+02 -0.18375133144E+03 -0.25949688287E+02  0.18657707548E+03  0.50400001928E-02 0. -1.
       -1    1    3    3    0  502  0.19314940871E+02  0.18375133144E+03  0.36608033696E+03  0.41006393633E+03  0.50400001928E-02 0.  1.
</event>
<event>
 5   0  0.4803890E-02  0.5111155E+03  0.7818609E-02  0.1010918E+00
       -1   -1    0    0    0  501  0.00000000000E+00  0.00000000000E+00  0.14289220520E+03  0.14289220529E+03  0.50400001928E-02 0.  1.
        1   -1    0    0  501    0  0.00000000000E+00  0.00000000000E+00 -0.45705615305E+03  0.45705615308E+03  0.50400001928E-02 0. -1.
    10030    2    1    2    0    0  0.00000000000E+00  0.00000000000E+00 -0.31416394785E+03  0.59994835837E+03  0.51111549241E+03 0.  0.
        5    1    3    3  502    0  0.10596362288E+03  0.10214330620E+03 -0.40225244148E+03  0.42835809908E+03  0.46999998093E+01 0. -1.
       -5    1    3    3    0  502 -0.10596362288E+03 -0.10214330620E+03  0.88088493630E+02  0.17159025929E+03  0.46999998093E+01 0.  1.
</event>
<event>
 5   0  0.5038436E-02  0.5007709E+03  0.7818609E-02  0.1013578E+00
       -1   -1    0    0    0  501  0.00000000000E+00  0.00000000000E+00  0.62740702659E+02  0.62740702862E+02  0.50400001928E-02 0.  1.
        1   -1    0    0  501    0  0.00000000000E+00  0.00000000000E+00 -0.99923774809E+03  0.99923774810E+03  0.50400001928E-02 0. -1.
    10030    2    1    2    0    0  0.00000000000E+00  0.00000000000E+00 -0.93649704543E+03  0.10619784510E+04  0.50077091989E+03 0.  0.
        1    1    3    3  502    0 -0.73384835000E+02  0.20932947875E+03 -0.71454708342E+03  0.74818560473E+03  0.50400001928E-02 0. -1.
       -1    1    3    3    0  502  0.73384835000E+02 -0.20932947875E+03 -0.22194996201E+03  0.31379284623E+03  0.50400001928E-02 0.  1.
</event>
<event>
 5   0  0.5038436E-02  0.4997592E+03  0.7818609E-02  0.1013842E+00
       -1   -1    0    0    0  501  0.00000000000E+00  0.00000000000E+00  0.54055685416E+03  0.54055685419E+03  0.50400001928E-02 0. -1.
        1   -1    0    0  501    0  0.00000000000E+00  0.00000000000E+00 -0.11551015778E+03  0.11551015789E+03  0.50400001928E-02 0.  1.
    10030    2    1    2    0    0  0.00000000000E+00  0.00000000000E+00  0.42504669638E+03  0.65606701208E+03  0.49975917223E+03 0.  0.
        1    1    3    3  502    0  0.18196381125E+03 -0.62869870892E+02  0.42164648099E+03  0.46351828899E+03  0.50400001928E-02 0. -1.
       -1    1    3    3    0  502 -0.18196381125E+03  0.62869870892E+02  0.34002153936E+01  0.19254872309E+03  0.50400001928E-02 0.  1.
</event>
<event>
 5   0  0.4865501E-02  0.5012472E+03  0.7818609E-02  0.1013454E+00
       -1   -1    0    0    0  501  0.00000000000E+00  0.00000000000E+00  0.55688661895E+02  0.55688662123E+02  0.50400001928E-02 0.  1.
        1   -1    0    0  501    0  0.00000000000E+00  0.00000000000E+00 -0.11279167864E+04  0.11279167864E+04  0.50400001928E-02 0. -1.
    10030    2    1    2    0    0  0.00000000000E+00  0.00000000000E+00 -0.10722281245E+04  0.11836054485E+04  0.50124715142E+03 0.  0.
        2    1    3    3  502    0  0.21797364453E+03 -0.12315180398E+03 -0.50885126739E+03  0.56710535958E+03  0.25500000920E-02 0. -1.
       -2    1    3    3    0  502 -0.21797364453E+03  0.12315180398E+03 -0.56337685707E+03  0.61650008890E+03  0.25500000920E-02 0.  1.
</event>
<event>
 5   0  0.7776070E-02  0.4993983E+03  0.7818609E-02  0.1013936E+00
        2   -1    0    0  501    0  0.00000000000E+00  0.00000000000E+00  0.86938567054E+03  0.86938567054E+03  0.25500000920E-02 0.  1.
       -2   -1    0    0    0  501  0.00000000000E+00  0.00000000000E+00 -0.71716924227E+02  0.71716924272E+02  0.25500000920E-02 0. -1.
    10030    2    1    2    0    0  0.00000000000E+00  0.00000000000E+00  0.79766874631E+03  0.94110259482E+03  0.49939830308E+03 0.  0.
        4    1    3    3  502    0  0.19176019898E+03 -0.96327093457E+02  0.63940689099E+03  0.67445805503E+03  0.12699999809E+01 0.  1.
       -4    1    3    3    0  502 -0.19176019898E+03  0.96327093457E+02  0.15826185533E+03  0.26664453979E+03  0.12699999809E+01 0. -1.
</event>
<event>
 5   0  0.7881060E-02  0.5073823E+03  0.7818609E-02  0.1011870E+00
       -2   -1    0    0    0  501  0.00000000000E+00  0.00000000000E+00  0.16467342580E+03  0.16467342582E+03  0.25500000920E-02 0. -1.
        2   -1    0    0  501    0  0.00000000000E+00  0.00000000000E+00 -0.39082934138E+03  0.39082934139E+03  0.25500000920E-02 0.  1.
    10030    2    1    2    0    0  0.00000000000E+00  0.00000000000E+00 -0.22615591558E+03  0.55550276720E+03  0.50738232746E+03 0.  0.
        1    1    3    3  502    0 -0.10314667195E+03 -0.19231814506E+03  0.28549317973E+02  0.22009218168E+03  0.50400001928E-02 0. -1.
       -1    1    3    3    0  502  0.10314667195E+03  0.19231814506E+03 -0.25470523355E+03  0.33541058552E+03  0.50400001928E-02 0.  1.
</event>
<event>
 5   0  0.5191358E-02  0.5000156E+03  0.7818609E-02  0.1013775E+00
        1   -1    0    0  501    0  0.00000000000E+00  0.00000000000E+00  0.87179955091E+03  0.87179955092E+03  0.50400001928E-02 0. -1.
       -1   -1    0    0    0  501  0.00000000000E+00  0.00000000000E+00 -0.71695279265E+02  0.71695279442E+02  0.50400001928E-02 0.  1.
    10030    2    1    2    0    0  0.00000000000E+00  0.00000000000E+00  0.80010427164E+03  0.94349483037E+03  0.50001564918E+03 0.  0.
        4    1    3    3  502    0 -0.72689437959E+02 -0.23525345585E+03  0.31835966431E+03  0.40247041089E+03  0.12699999809E+01 0.  1.
       -4    1    3    3    0  502  0.72689437959E+02  0.23525345585E+03  0.48174460733E+03  0.54102441948E+03  0.12699999809E+01 0. -1.
</event>
<event>
 5   0  0.7933103E-02  0.5038234E+03  0.7818609E-02  0.1012786E+00
       -2   -1    0    0    0  501  0.00000000000E+00  0.00000000000E+00  0.18971723464E+03  0.18971723466E+03  0.25500000920E-02 0.  1.
        2   -1    0    0  501    0  0.00000000000E+00  0.00000000000E+00 -0.33449526635E+03  0.33449526636E+03  0.25500000920E-02 0. -1.
    10030    2    1    2    0    0  0.00000000000E+00  0.00000000000E+00 -0.14477803171E+03  0.52421250102E+03  0.50382344900E+03 0.  0.
        5    1    3    3  502    0 -0.46946761725E+02  0.22566570726E+02 -0.32878417460E+03  0.33291796589E+03  0.46999998093E+01 0. -1.
       -5    1    3    3    0  502  0.46946761725E+02 -0.22566570726E+02  0.18400614289E+03  0.19129453513E+03  0.46999998093E+01 0.  1.
</event>
<event>
 5   0  0.8208720E-02  0.4988286E+03  0.7818609E-02  0.1014085E+00
        2   -1    0    0  501    0  0.00000000000E+00  0.00000000000E+00  0.12433166858E+03  0.12433166861E+03  0.25500000920E-02 0. -1.
       -2   -1    0    0    0  501  0.00000000000E+00  0.00000000000E+00 -0.50033496270E+03  0.50033496270E+03  0.25500000920E-02 0.  1.
    10030    2    1    2    0    0  0.00000000000E+00  0.00000000000E+00 -0.37600329411E+03  0.62466663131E+03  0.49882855080E+03 0.  0.
        3    1    3    3  502    0  0.92646974887E+02  0.73892569659E+02  0.86824350486E+02  0.14690831101E+03  0.10100000352E+00 0. -1.
       -3    1    3    3    0  502 -0.92646974887E+02 -0.73892569659E+02 -0.46282764460E+03  0.47775832030E+03  0.10100000352E+00 0.  1.
</event>
<event>
 5   0  0.7776070E-02  0.5010607E+03  0.7818609E-02  0.1013502E+00
       -2   -1    0    0    0  501  0.00000000000E+00  0.00000000000E+00  0.12549657953E+03  0.12549657956E+03  0.25500000920E-02 0.  1.
        2   -1    0    0  501    0  0.00000000000E+00  0.00000000000E+00 -0.50013688765E+03  0.50013688766E+03  0.25500000920E-02 0. -1.
    10030    2    1    2    0    0  0.00000000000E+00  0.00000000000E+00 -0.37464030812E+03  0.62563346722E+03  0.50106074965E+03 0.  0.
        4    1    3    3  502    0 -0.10622167785E+03  0.18120821336E+03 -0.35781204560E+03  0.41491027260E+03  0.12699999809E+01 0. -1.
       -4    1    3    3    0  502  0.10622167785E+03 -0.18120821336E+03 -0.16828262522E+02  0.21072319462E+03  0.12699999809E+01 0.  1.
</event>
<event>
 5   0  0.7698747E-02  0.4986027E+03  0.7818609E-02  0.1014144E+00
        2   -1    0    0  501    0  0.00000000000E+00  0.00000000000E+00  0.13565494325E+04  0.13565494325E+04  0.25500000920E-02 0.  1.
       -2   -1    0    0    0  501  0.00000000000E+00  0.00000000000E+00 -0.45815631674E+02  0.45815631745E+02  0.25500000920E-02 0. -1.
    10030    2    1    2    0    0  0.00000000000E+00  0.00000000000E+00  0.13107338009E+04  0.14023650643E+04  0.49860272442E+03 0.  0.
        2    1    3    3  502    0  0.23194618902E+03  0.36499301824E+02  0.89101991490E+03  0.92143785595E+03  0.25500000920E-02 0.  1.
       -2    1    3    3    0  502 -0.23194618902E+03 -0.36499301824E+02  0.41971388597E+03  0.48092720833E+03  0.25500000920E-02 0. -1.
</event>
<event>
 5   0  0.7698747E-02  0.5006998E+03  0.7818609E-02  0.1013596E+00
        2   -1    0    0  501    0  0.00000000000E+00  0.00000000000E+00  0.17815244957E+04  0.17815244957E+04  0.25500000920E-02 0. -1.
       -2   -1    0    0    0  501  0.00000000000E+00  0.00000000000E+00 -0.35180588630E+02  0.35180588722E+02  0.25500000920E-02 0.  1.
    10030    2    1    2    0    0  0.00000000000E+00  0.00000000000E+00  0.17463439070E+04  0.18167050844E+04  0.50069983224E+03 0.  0.
        2    1    3    3  502    0  0.18651897795E+03  0.59096055335E+02  0.14398589173E+04  0.14530916607E+04  0.25500000920E-02 0. -1.
       -2    1    3    3    0  502 -0.18651897795E+03 -0.59096055335E+02  0.30648498977E+03  0.36361342365E+03  0.25500000920E-02 0.  1.
</event>
<event>
 5   0  0.7698747E-02  0.5069791E+03  0.7818609E-02  0.1011973E+00
        2   -1    0    0  501    0  0.00000000000E+00  0.00000000000E+00  0.52168888604E+03  0.52168888605E+03  0.25500000920E-02 0.  1.
       -2   -1    0    0    0  501  0.00000000000E+00  0.00000000000E+00 -0.12317102043E+03  0.12317102046E+03  0.25500000920E-02 0. -1.
    10030    2    1    2    0    0  0.00000000000E+00  0.00000000000E+00  0.39851786561E+03  0.64485990650E+03  0.50697910194E+03 0.  0.
        2    1    3    3  502    0 -0.17384652460E+03 -0.14913653074E+03  0.33738661344E+03  0.40779166967E+03  0.25500000920E-02 0.  1.
       -2    1    3    3    0  502  0.17384652460E+03  0.14913653074E+03  0.61131252170E+02  0.23706823683E+03  0.25500000920E-02 0. -1.
</event>
<event>
 5   0  0.8208720E-02  0.5004042E+03  0.7818609E-02  0.1013673E+00
       -2   -1    0    0    0  501  0.00000000000E+00  0.00000000000E+00  0.53656429543E+02  0.53656429603E+02  0.25500000920E-02 0.  1.
        2   -1    0    0  501    0  0.00000000000E+00  0.00000000000E+00 -0.11667026126E+04  0.11667026127E+04  0.25500000920E-02 0. -1.
    10030    2    1    2    0    0  0.00000000000E+00  0.00000000000E+00 -0.11130461831E+04  0.12203590423E+04  0.50040422289E+03 0.  0.
        3    1    3    3  502    0 -0.84855689163E+02 -0.45101839091E+02 -0.11199021536E+04  0.11240175745E+04  0.10100000352E+00 0. -1.
       -3    1    3    3    0  502  0.84855689163E+02  0.45101839091E+02  0.68559705437E+01  0.96341467738E+02  0.10100000352E+00 0.  1.
</event>
<event>
 5   0  0.7776070E-02  0.5018837E+03  0.7818609E-02  0.1013288E+00
       -2   -1    0    0    0  501  0.00000000000E+00  0.00000000000E+00  0.62365758642E+02  0.62365758694E+02  0.25500000920E-02 0. -1.
        2   -1    0    0  501    0  0.00000000000E+00  0.00000000000E+00 -0.10097177775E+04  0.10097177775E+04  0.25500000920E-02 0.  1.
    10030    2    1    2    0    0  0.00000000000E+00  0.00000000000E+00 -0.94735201888E+03  0.10720835362E+04  0.50188371258E+03 0.  0.
        4    1    3    3  502    0  0.12936853136E+03 -0.21261276692E+03 -0.40512698344E+03  0.47546807588E+03  0.12699999809E+01 0.  1.
       -4    1    3    3    0  502 -0.12936853136E+03  0.21261276692E+03 -0.54222503544E+03  0.59661546034E+03  0.12699999809E+01 0. -1.
</event>
<event>
 5   0  0.7881060E-02  0.4993232E+03  0.7818609E-02  0.1013956E+00
       -2   -1    0    0    0  501  0.00000000000E+00  0.00000000000E+00  0.30565967412E+03  0.30565967413E+03  0.25500000920E-02 0. -1.
        2   -1    0    0  501    0  0.00000000000E+00  0.00000000000E+00 -0.20392258394E+03  0.20392258396E+03  0.25500000920E-02 0.  1.
    10030    2    1    2    0    0  0.00000000000E+00  0.00000000000E+00  0.10173709018E+03  0.50958225809E+03  0.49932318416E+03 0.  0.
        1    1    3    3  502    0  0.42867214149E+02 -0.22659172255E+03 -0.46749776786E+02  0.23530182411E+03  0.50400001928E-02 0.  1.
       -1    1    3    3    0  502 -0.42867214149E+02  0.22659172255E+03  0.14848686696E+03  0.27428043398E+03  0.50400001928E-02 0. -1.
</event>
<event>
 5   0  0.5038436E-02  0.4987634E+03  0.7818609E-02  0.1014102E+00
        1   -1    0    0  501    0  0.00000000000E+00  0.00000000000E+00  0.67070296641E+03  0.67070296643E+03  0.50400001928E-02 0. -1.
       -1   -1    0    0    0  501  0.00000000000E+00  0.00000000000E+00 -0.92725432205E+02  0.92725432342E+02  0.50400001928E-02 0.  1.
    10030    2    1    2    0    0  0.00000000000E+00  0.00000000000E+00  0.57797753420E+03  0.76342839877E+03  0.49876336073E+03 0.  0.
        1    1    3    3  502    0  0.22370423441E+03 -0.54798995308E+02  0.14261653618E+03  0.27089848799E+03  0.50400001928E-02 0.  1.
       -1    1    3    3    0  502 -0.22370423441E+03  0.54798995308E+02  0.43536099803E+03  0.49252991078E+03  0.50400001928E-02 0. -1.
</event>
<event>
 5   0  0.4884478E-02  0.4954518E+03  0.7818609E-02  0.1014973E+00
       -1   -1    0    0    0  501  0.00000000000E+00  0.00000000000E+00  0.12286311697E+03  0.12286311707E+03  0.50400001928E-02 0.  1.
        1   -1    0    0  501    0  0.00000000000E+00  0.00000000000E+00 -0.49948363372E+03  0.49948363375E+03  0.50400001928E-02 0. -1.
    10030    2    1    2    0    0  0.00000000000E+00  0.00000000000E+00 -0.37662051676E+03  0.62234675082E+03  0.49545177830E+03 0.  0.
        3    1    3    3  502    0  0.18336005507E+03 -0.78490441360E+02 -0.37570431916E+01  0.19948880860E+03  0.10100000352E+00 0.  1.
       -3    1    3    3    0  502 -0.18336005507E+03  0.78490441360E+02 -0.37286347356E+03  0.42285794222E+03  0.10100000352E+00 0. -1.
</event>
<event>
 5   0  0.5191358E-02  0.4896546E+03  0.7818609E-02  0.1016515E+00
       -1   -1    0    0    0  501  0.00000000000E+00  0.00000000000E+00  0.11212698112E+03  0.11212698124E+03  0.50400001928E-02 0.  1.
        1   -1    0    0  501    0  0.00000000000E+00  0.00000000000E+00 -0.53457614911E+03  0.53457614913E+03  0.50400001928E-02 0. -1.
    10030    2    1    2    0    0  0.00000000000E+00  0.00000000000E+00 -0.42244916798E+03  0.64670313037E+03  0.48965461225E+03 0.  0.
        4    1    3    3  502    0 -0.15051554042E+03 -0.17843086284E+03 -0.30869341158E+03  0.38702162210E+03  0.12699999809E+01 0.  1.
       -4    1    3    3    0  502  0.15051554042E+03  0.17843086284E+03 -0.11375575641E+03  0.25968150827E+03  0.12699999809E+01 0. -1.
</event>
<event>
 5   0  0.7776070E-02  0.4947465E+03  0.7818609E-02  0.1015159E+00
       -2   -1    0    0    0  501  0.00000000000E+00  0.00000000000E+00  0.71518262009E+02  0.71518262055E+02  0.25500000920E-02 0.  1.
        2   -1    0    0  501    0  0.00000000000E+00  0.00000000000E+00 -0.85563480783E+03  0.85563480783E+03  0.25500000920E-02 0. -1.
    10030    2    1    2    0    0  0.00000000000E+00  0.00000000000E+00 -0.78411654582E+03  0.92715306989E+03  0.49474645787E+03 0.  0.
        4    1    3    3  502    0  0.18182906878E+03 -0.18971290804E+02 -0.70434829265E+03  0.72768801721E+03  0.12699999809E+01 0. -1.
       -4    1    3    3    0  502 -0.18182906878E+03  0.18971290804E+02 -0.79768253165E+02  0.19946505268E+03  0.12699999809E+01 0.  1.
</event>
<event>
 5   0  0.7698747E-02  0.4963853E+03  0.7818609E-02  0.1014727E+00
       -2   -1    0    0    0  501  0.00000000000E+00  0.00000000000E+00  0.64269428886E+02  0.64269428937E+02  0.25500000920E-02 0.  1.
        2   -1    0    0  501    0  0.00000000000E+00  0.00000000000E+00 -0.95845849337E+03  0.95845849337E+03  0.25500000920E-02 0. -1.
    10030    2    1    2    0    0  0.00000000000E+00  0.00000000000E+00 -0.89418906448E+03  0.10227279223E+04  0.49638525364E+03 0.  0.
        2    1    3    3  502    0 -0.20673373344E+03  0.39439956971E+01 -0.16425410592E+03  0.26407158681E+03  0.25500000920E-02 0.  1.
       -2    1    3    3    0  502  0.20673373344E+03 -0.39439956971E+01 -0.72993495856E+03  0.75865633549E+03  0.25500000920E-02 0. -1.
</event>
<event>
 5   0  0.7698747E-02  0.5001622E+03  0.7818609E-02  0.1013737E+00
        2   -1    0    0  501    0  0.00000000000E+00  0.00000000000E+00  0.57975310932E+03  0.57975310932E+03  0.25500000920E-02 0.  1.
       -2   -1    0    0    0  501  0.00000000000E+00  0.00000000000E+00 -0.10787447292E+03  0.10787447295E+03  0.25500000920E-02 0. -1.
    10030    2    1    2    0    0  0.00000000000E+00  0.00000000000E+00  0.47187863640E+03  0.68762758227E+03  0.50016221810E+03 0.  0.
        2    1    3    3  502    0 -0.19946971171E+03  0.16853336625E+02  0.29862995580E+02  0.20239565053E+03  0.25500000920E-02 0. -1.
       -2    1    3    3    0  502  0.19946971171E+03 -0.16853336625E+02  0.44201564082E+03  0.48523193174E+03  0.25500000920E-02 0.  1.
</event>
<event>
 5   0  0.7881060E-02  0.4986886E+03  0.7818609E-02  0.1014122E+00
       -2   -1    0    0    0  501  0.00000000000E+00  0.00000000000E+00  0.12544872976E+03  0.12544872978E+03  0.25500000920E-02 0.  1.
        2   -1    0    0  501    0  0.00000000000E+00  0.00000000000E+00 -0.49560141541E+03  0.49560141542E+03  0.25500000920E-02 0. -1.
    10030    2    1    2    0    0  0.00000000000E+00  0.00000000000E+00 -0.37015268565E+03  0.62105014520E+03  0.49868855226E+03 0.  0.
        1    1    3    3  502    0 -0.35264169730E+00  0.97637789271E+02  0.10065135719E+03  0.14022823531E+03  0.50400001928E-02 0.  1.
       -1    1    3    3    0  502  0.35264169730E+00 -0.97637789271E+02 -0.47080404284E+03  0.48082190989E+03  0.50400001928E-02 0. -1.
</event>
<event>
 5   0  0.7933103E-02  0.5203107E+03  0.7818609E-02  0.1008609E+00
       -2   -1    0    0    0  501  0.00000000000E+00  0.00000000000E+00  0.12466189808E+03  0.12466189810E+03  0.25500000920E-02 0. -1.
        2   -1    0    0  501    0  0.00000000000E+00  0.00000000000E+00 -0.54291500071E+03  0.54291500072E+03  0.25500000920E-02 0.  1.
    10030    2    1    2    0    0  0.00000000000E+00  0.00000000000E+00 -0.41825310263E+03  0.66757689882E+03  0.52031073214E+03 0.  0.
        5    1    3    3  502    0  0.34668621118E+02  0.23421170566E+03 -0.70929394142E+02  0.24720458190E+03  0.46999998093E+01 0. -1.
       -5    1    3    3    0  502 -0.34668621118E+02 -0.23421170566E+03 -0.34732370849E+03  0.42037231692E+03  0.46999998093E+01 0.  1.
</event>
<event>
 5   0  0.4865501E-02  0.5000036E+03  0.7818609E-02  0.1013778E+00
        1   -1    0    0  501    0  0.00000000000E+00  0.00000000000E+00  0.14189615036E+04  0.14189615036E+04  0.50400001928E-02 0.  1.
       -1   -1    0    0    0  501  0.00000000000E+00  0.00000000000E+00 -0.44046927528E+02  0.44046927816E+02  0.50400001928E-02 0. -1.
    10030    2    1    2    0    0  0.00000000000E+00  0.00000000000E+00  0.13749145761E+04  0.14630084314E+04  0.50000357891E+03 0.  0.
        2    1    3    3  502    0 -0.37364922988E+02 -0.34461167544E+02  0.14036821913E+04  0.14046022226E+04  0.25500000920E-02 0.  1.
       -2    1    3    3    0  502  0.37364922988E+02  0.34461167544E+02 -0.28767615223E+02  0.58406208836E+02  0.25500000920E-02 0. -1.
</event>
<event>
 5   0  0.4884478E-02  0.5007476E+03  0.7818609E-02  0.1013584E+00
        1   -1    0    0  501    0  0.00000000000E+00  0.00000000000E+00  0.33666805306E+03  0.33666805310E+03  0.50400001928E-02 0. -1.
       -1   -1    0    0    0  501  0.00000000000E+00  0.00000000000E+00 -0.18619839340E+03  0.18619839346E+03  0.50400001928E-02 0.  1.
    10030    2    1    2    0    0  0.00000000000E+00  0.00000000000E+00  0.15046965967E+03  0.52286644657E+03  0.50074764349E+03 0.  0.
        3    1    3    3  502    0  0.16177705868E+03  0.16003075774E+03  0.18427644257E+03  0.29281304210E+03  0.10100000352E+00 0. -1.
       -3    1    3    3    0  502 -0.16177705868E+03 -0.16003075774E+03 -0.33806782898E+02  0.23005340447E+03  0.10100000352E+00 0.  1.
</event>
<event>
 5   0  0.5038436E-02  0.5001517E+03  0.7818609E-02  0.1013739E+00
       -1   -1    0    0    0  501  0.00000000000E+00  0.00000000000E+00  0.22222027441E+03  0.22222027447E+03  0.50400001928E-02 0.  1.
        1   -1    0    0  501    0  0.00000000000E+00  0.00000000000E+00 -0.28142311019E+03  0.28142311024E+03  0.50400001928E-02 0. -1.
    10030    2    1    2    0    0  0.00000000000E+00  0.00000000000E+00 -0.59202835782E+02  0.50364338471E+03  0.50015166019E+03 0.  0.
        1    1    3    3  502    0 -0.92078958751E+02 -0.14216791988E+03  0.15566034820E+03  0.23004433511E+03  0.50400001928E-02 0.  1.
       -1    1    3    3    0  502  0.92078958751E+02  0.14216791988E+03 -0.21486318398E+03  0.27359904960E+03  0.50400001928E-02 0. -1.
</event>
<event>
 5   0  0.4865501E-02  0.5016752E+03  0.7818609E-02  0.1013343E+00
       -1   -1    0    0    0  501  0.00000000000E+00  0.00000000000E+00  0.91133290608E+03  0.91133290609E+03  0.50400001928E-02 0.  1.
        1   -1    0    0  501    0  0.00000000000E+00  0.00000000000E+00 -0.69041186793E+02  0.69041186977E+02  0.50400001928E-02 0. -1.
    10030    2    1    2    0    0  0.00000000000E+00  0.00000000000E+00  0.84229171929E+03  0.98037409307E+03  0.50167521564E+03 0.  0.
        2    1    3    3  502    0  0.23538757201E+03  0.82140868658E+02  0.47519900097E+03  0.53662698580E+03  0.25500000920E-02 0.  1.
       -2    1    3    3    0  502 -0.23538757201E+03 -0.82140868658E+02  0.36709271832E+03  0.44374710727E+03  0.25500000920E-02 0. -1.
</event>
<event>
 5   0  0.8208720E-02  0.4936761E+03  0.7818609E-02  0.1015443E+00
        2   -1    0    0  501    0  0.00000000000E+00  0.00000000000E+00  0.13703115065E+04  0.13703115065E+04  0.25500000920E-02 0. -1.
       -2   -1    0    0    0  501  0.00000000000E+00  0.00000000000E+00 -0.44463627290E+02  0.44463627363E+02  0.25500000920E-02 0.  1.
    10030    2    1    2    0    0  0.00000000000E+00  0.00000000000E+00  0.13258478792E+04  0.14147751338E+04  0.49367608874E+03 0.  0.
        3    1    3    3  502    0 -0.69793758567E+02 -0.31809203095E+02 -0.94459720852E+01  0.77280209148E+02  0.10100000352E+00 0.  1.
       -3    1    3    3    0  502  0.69793758567E+02  0.31809203095E+02  0.13352938513E+04  0.13374949247E+04  0.10100000352E+00 0. -1.
</event>
<event>
 5   0  0.4865501E-02  0.5057119E+03  0.7818609E-02  0.1012299E+00
        1   -1    0    0  501    0  0.00000000000E+00  0.00000000000E+00  0.25248701570E+03  0.25248701575E+03  0.50400001928E-02 0.  1.
       -1   -1    0    0    0  501  0.00000000000E+00  0.00000000000E+00 -0.25322544613E+03  0.25322544618E+03  0.50400001928E-02 0. -1.
    10030    2    1    2    0    0  0.00000000000E+00  0.00000000000E+00 -0.73843042475E+00  0.50571246193E+03  0.50571192281E+03 0.  0.
        2    1    3    3  502    0  0.23594204549E+03  0.22584218875E+01 -0.91266990356E+02  0.25298895793E+03  0.25500000920E-02 0.  1.
       -2    1    3    3    0  502 -0.23594204549E+03 -0.22584218875E+01  0.90528559931E+02  0.25272350399E+03  0.25500000920E-02 0. -1.
</event>
<event>
 5   0  0.7933103E-02  0.5001902E+03  0.7818609E-02  0.1013729E+00
        2   -1    0    0  501    0  0.00000000000E+00  0.00000000000E+00  0.96746775682E+03  0.96746775682E+03  0.25500000920E-02 0. -1.
       -2   -1    0    0    0  501  0.00000000000E+00  0.00000000000E+00 -0.64650791008E+02  0.64650791058E+02  0.25500000920E-02 0.  1.
    10030    2    1    2    0    0  0.00000000000E+00  0.00000000000E+00  0.90281696581E+03  0.10321185479E+04  0.50019018695E+03 0.  0.
        5    1    3    3  502    0  0.92594200765E+02  0.18979228615E+03  0.17510099860E+03  0.27436699439E+03  0.46999998093E+01 0. -1.
       -5    1    3    3    0  502 -0.92594200765E+02 -0.18979228615E+03  0.72771596720E+03  0.75775155349E+03  0.46999998093E+01 0.  1.
</event>
<event>
 5   0  0.7776070E-02  0.4990708E+03  0.7818609E-02  0.1014022E+00
        2   -1    0    0  501    0  0.00000000000E+00  0.00000000000E+00  0.81751328529E+03  0.81751328530E+03  0.25500000920E-02 0.  1.
       -2   -1    0    0    0  501  0.00000000000E+00  0.00000000000E+00 -0.76167452737E+02  0.76167452780E+02  0.25500000920E-02 0. -1.
    10030    2    1    2    0    0  0.00000000000E+00  0.00000000000E+00  0.74134583256E+03  0.89368073808E+03  0.49907075467E+03 0.  0.
        4    1    3    3  502    0 -0.12605489047E+03  0.21485132584E+03  0.39695179586E+03  0.46863980706E+03  0.12699999809E+01 0.  1.
       -4    1    3    3    0  502  0.12605489047E+03 -0.21485132584E+03  0.34439403670E+03  0.42504093102E+03  0.12699999809E+01 0. -1.
</event>
<event>
 5   0  0.4803890E-02  0.5002505E+03  0.7818609E-02  0.1013714E+00
       -1   -1    0    0    0  501  0.00000000000E+00  0.00000000000E+00  0.16648268907E+03  0.16648268914E+03  0.50400001928E-02 0. -1.
        1   -1    0    0  501    0  0.00000000000E+00  0.00000000000E+00 -0.37579070990E+03  0.37579070993E+03  0.50400001928E-02 0.  1.
    10030    2    1    2    0    0  0.00000000000E+00  0.00000000000E+00 -0.20930802083E+03  0.54227339908E+03  0.50025052900E+03 0.  0.
        5    1    3    3  502    0  0.20308974578E+03  0.13194823691E+03 -0.37090263199E+02  0.24505827815E+03  0.46999998093E+01 0. -1.
       -5    1    3    3    0  502 -0.20308974578E+03 -0.13194823691E+03 -0.17221775763E+03  0.29721512093E+03  0.46999998093E+01 0.  1.
</event>
<event>
 5   0  0.4884478E-02  0.5024388E+03  0.7818609E-02  0.1013144E+00
       -1   -1    0    0    0  501  0.00000000000E+00  0.00000000000E+00  0.55251889241E+03  0.55251889243E+03  0.50400001928E-02 0. -1.
        1   -1    0    0  501    0  0.00000000000E+00  0.00000000000E+00 -0.11422449428E+03  0.11422449439E+03  0.50400001928E-02 0.  1.
    10030    2    1    2    0    0  0.00000000000E+00  0.00000000000E+00  0.43829439814E+03  0.66674338682E+03  0.50243881661E+03 0.  0.
        3    1    3    3  502    0  0.17685521992E+03 -0.10749467104E+03  0.30177840865E+02  0.20914967223E+03  0.10100000352E+00 0. -1.
       -3    1    3    3    0  502 -0.17685521992E+03  0.10749467104E+03  0.40811655727E+03  0.45759371459E+03  0.10100000352E+00 0.  1.
</event>
<event>
 5   0  0.5191358E-02  0.5012678E+03  0.7818609E-02  0.1013449E+00
        1   -1    0    0  501    0  0.00000000000E+00  0.00000000000E+00  0.12564156298E+04  0.12564156298E+04  0.50400001928E-02 0. -1.
       -1   -1    0    0    0  501  0.00000000000E+00  0.00000000000E+00 -0.49997263756E+02  0.49997264010E+02  0.50400001928E-02 0.  1.
    10030    2    1    2    0    0  0.00000000000E+00  0.00000000000E+00  0.12064183661E+04  0.13064128938E+04  0.50126776798E+03 0.  0.
        4    1    3    3  502    0  0.12938893121E+03  0.83532084759E+02  0.11185331237E+04  0.11290868286E+04  0.12699999809E+01 0. -1.
       -4    1    3    3    0  502 -0.12938893121E+03 -0.83532084759E+02  0.87885242356E+02  0.17732606528E+03  0.12699999809E+01 0.  1.
</event>
<event>
 5   0  0.4803890E-02  0.4994257E+03  0.7818609E-02  0.1013929E+00
       -1   -1    0    0    0  501  0.00000000000E+00  0.00000000000E+00  0.50539732135E+03  0.50539732138E+03  0.50400001928E-02 0.  1.
        1   -1    0    0  501    0  0.00000000000E+00  0.00000000000E+00 -0.12338113799E+03  0.12338113809E+03  0.50400001928E-02 0. -1.
    10030    2    1    2    0    0  0.00000000000E+00  0.00000000000E+00  0.38201618336E+03  0.62877845947E+03  0.49942565688E+03 0.  0.
        5    1    3    3  502    0 -0.21191863518E+03  0.40099999931E+02  0.32669296531E+02  0.21819003383E+03  0.46999998093E+01 0. -1.
       -5    1    3    3    0  502  0.21191863518E+03 -0.40099999931E+02  0.34934688683E+03  0.41058842564E+03  0.46999998093E+01 0.  1.
</event>
<event>
 5   0  0.7698747E-02  0.5011206E+03  0.7818609E-02  0.1013487E+00
        2   -1    0    0  501    0  0.00000000000E+00  0.00000000000E+00  0.10469812397E+04  0.10469812397E+04  0.25500000920E-02 0. -1.
       -2   -1    0    0    0  501  0.00000000000E+00  0.00000000000E+00 -0.59963309949E+02  0.59963310003E+02  0.25500000920E-02 0.  1.
    10030    2    1    2    0    0  0.00000000000E+00  0.00000000000E+00  0.98701792974E+03  0.11069445497E+04  0.50112058676E+03 0.  0.
        2    1    3    3  502    0  0.15504122000E+03 -0.19680246876E+03  0.50098973740E+03  0.56014257881E+03  0.25500000920E-02 0.  1.
       -2    1    3    3    0  502 -0.15504122000E+03  0.19680246876E+03  0.48602819234E+03  0.54680197088E+03  0.25500000920E-02 0. -1.
</event>
<event>
 5   0  0.4865501E-02  0.4986058E+03  0.7818609E-02  0.1014143E+00
        1   -1    0    0  501    0  0.00000000000E+00  0.00000000000E+00  0.21762095277E+03  0.21762095282E+03  0.50400001928E-02 0.  1.
       -1   -1    0    0    0  501  0.00000000000E+00  0.00000000000E+00 -0.28559725130E+03  0.28559725134E+03  0.50400001928E-02 0. -1.
    10030    2    1    2    0    0  0.00000000000E+00  0.00000000000E+00 -0.67976298530E+02  0.50321820416E+03  0.49860584016E+03 0.  0.
        2    1    3    3  502    0  0.18750696200E+03 -0.15034043322E+03  0.32888230221E+02  0.24257523030E+03  0.25500000920E-02 0.  1.
       -2    1    3    3    0  502 -0.18750696200E+03  0.15034043322E+03 -0.10086452875E+03  0.26064297387E+03  0.25500000920E-02 0. -1.
</event>
<event>
 5   0  0.7933103E-02  0.5025243E+03  0.7818609E-02  0.1013122E+00
       -2   -1    0    0    0  501  0.00000000000E+00  0.00000000000E+00  0.81592660862E+02  0.81592660902E+02  0.25500000920E-02 0.  1.
        2   -1    0    0  501    0  0.00000000000E+00  0.00000000000E+00 -0.77375421566E+03  0.77375421566E+03  0.25500000920E-02 0. -1.
    10030    2    1    2    0    0  0.00000000000E+00  0.00000000000E+00 -0.69216155480E+03  0.85534687656E+03  0.50252428928E+03 0.  0.
        5    1    3    3  502    0  0.20110293123E+03  0.35138166187E+02 -0.96890140874E+02  0.22602404534E+03  0.46999998093E+01 0.  1.
       -5    1    3    3    0  502 -0.20110293123E+03 -0.35138166187E+02 -0.59527141392E+03  0.62932283123E+03  0.46999998093E+01 0. -1.
</event>
<event>
 5   0  0.5038436E-02  0.4997708E+03  0.7818609E-02  0.1013839E+00
       -1   -1    0    0    0  501  0.00000000000E+00  0.00000000000E+00  0.62884507461E+02  0.62884507663E+02  0.50400001928E-02 0.  1.
        1   -1    0    0  501    0  0.00000000000E+00  0.00000000000E+00 -0.99297451397E+03  0.99297451399E+03  0.50400001928E-02 0. -1.
    10030    2    1    2    0    0  0.00000000000E+00  0.00000000000E+00 -0.93009000651E+03  0.10558590217E+04  0.49977080085E+03 0.  0.
        1    1    3    3  502    0 -0.24901770620E+03  0.19010523993E+02 -0.48290880125E+03  0.54366545630E+03  0.50400001928E-02 0. -1.
       -1    1    3    3    0  502  0.24901770620E+03 -0.19010523993E+02 -0.44718120526E+03  0.51219356535E+03  0.50400001928E-02 0.  1.
</event>
<event>
 5   0  0.8208720E-02  0.5021221E+03  0.7818609E-02  0.1013226E+00
        2   -1    0    0  501    0  0.00000000000E+00  0.00000000000E+00  0.17369113355E+03  0.17369113357E+03  0.25500000920E-02 0.  1.
       -2   -1    0    0    0  501  0.00000000000E+00  0.00000000000E+00 -0.36289503940E+03  0.36289503940E+03  0.25500000920E-02 0. -1.
    10030    2    1    2    0    0  0.00000000000E+00  0.00000000000E+00 -0.18920390584E+03  0.53658617298E+03  0.50212209974E+03 0.  0.
        3    1    3    3  502    0 -0.15363345835E+03  0.13910117640E+03 -0.24602920223E+03  0.32168735653E+03  0.10100000352E+00 0. -1.
       -3    1    3    3    0  502  0.15363345835E+03 -0.13910117640E+03  0.56825296387E+02  0.21489881645E+03  0.10100000352E+00 0.  1.
</event>
<event>
 5   0  0.7933103E-02  0.5007950E+03  0.7818609E-02  0.1013572E+00
       -2   -1    0    0    0  501  0.00000000000E+00  0.00000000000E+00  0.95589124317E+02  0.95589124351E+02  0.25500000920E-02 0. -1.
        2   -1    0    0  501    0  0.00000000000E+00  0.00000000000E+00 -0.65592090725E+03  0.65592090726E+03  0.25500000920E-02 0.  1.
    10030    2    1    2    0    0  0.00000000000E+00  0.00000000000E+00 -0.56033178293E+03  0.75151003161E+03  0.50079498863E+03 0.  0.
        5    1    3    3  502    0  0.15787401753E+03  0.19312260739E+03 -0.31222009128E+03  0.39965487898E+03  0.46999998093E+01 0.  1.
       -5    1    3    3    0  502 -0.15787401753E+03 -0.19312260739E+03 -0.24811169165E+03  0.35185515262E+03  0.46999998093E+01 0. -1.
</event>
<event>
 5   0  0.7933103E-02  0.4995812E+03  0.7818609E-02  0.1013888E+00
        2   -1    0    0  501    0  0.00000000000E+00  0.00000000000E+00  0.92872675565E+03  0.92872675566E+03  0.25500000920E-02 0. -1.
       -2   -1    0    0    0  501  0.00000000000E+00  0.00000000000E+00 -0.67183747844E+02  0.67183747892E+02  0.25500000920E-02 0.  1.
    10030    2    1    2    0    0  0.00000000000E+00  0.00000000000E+00  0.86154300781E+03  0.99591050355E+03  0.49958120138E+03 0.  0.
        5    1    3    3  502    0  0.22768710837E+03 -0.71646830278E+02  0.57724311413E+03  0.62466502256E+03  0.46999998093E+01 0. -1.
       -5    1    3    3    0  502 -0.22768710837E+03  0.71646830278E+02  0.28429989368E+03  0.37124548099E+03  0.46999998093E+01 0.  1.
</event>
<event>
 5   0  0.8208720E-02  0.5031972E+03  0.7818609E-02  0.1012948E+00
       -2   -1    0    0    0  501  0.00000000000E+00  0.00000000000E+00  0.10084443949E+03  0.10084443952E+03  0.25500000920E-02 0. -1.
        2   -1    0    0  501    0  0.00000000000E+00  0.00000000000E+00 -0.62771781216E+03  0.62771781217E+03  0.25500000920E-02 0.  1.
    10030    2    1    2    0    0  0.00000000000E+00  0.00000000000E+00 -0.52687337268E+03  0.72856225168E+03  0.50319718177E+03 0.  0.
        3    1    3    3  502    0  0.84554778034E+01 -0.22579763937E+03 -0.10321490913E+03  0.24841376113E+03  0.10100000352E+00 0. -1.
       -3    1    3    3    0  502 -0.84554778034E+01  0.22579763937E+03 -0.42365846354E+03  0.48014849056E+03  0.10100000352E+00 0.  1.
</event>
<event>
 5   0  0.5038436E-02  0.5025489E+03  0.7818609E-02  0.1013116E+00
       -1   -1    0    0    0  501  0.00000000000E+00  0.00000000000E+00  0.37073841305E+02  0.37073841648E+02  0.50400001928E-02 0.  1.
        1   -1    0    0  501    0  0.00000000000E+00  0.00000000000E+00 -0.17030568260E+04  0.17030568260E+04  0.50400001928E-02 0. -1.
    10030    2    1    2    0    0  0.00000000000E+00  0.00000000000E+00 -0.16659829847E+04  0.17401306676E+04  0.50254893813E+03 0.  0.
        1    1    3    3  502    0  0.16145862889E+03  0.83608101784E+02 -0.23245427329E+03  0.29511725250E+03  0.50400001928E-02 0.  1.
       -1    1    3    3    0  502 -0.16145862889E+03 -0.83608101784E+02 -0.14335287114E+04  0.14450134151E+04  0.50400001928E-02 0. -1.
</event>
<event>
 5   0  0.4865501E-02  0.4985385E+03  0.7818609E-02  0.1014161E+00
        1   -1    0    0  501    0  0.00000000000E+00  0.00000000000E+00  0.35616828742E+03  0.35616828745E+03  0.50400001928E-02 0. -1.
       -1   -1    0    0    0  501  0.00000000000E+00  0.00000000000E+00 -0.17445448156E+03  0.17445448163E+03  0.50400001928E-02 0.  1.
    10030    2    1    2    0    0  0.00000000000E+00  0.00000000000E+00  0.18171380586E+03  0.53062276908E+03  0.49853847979E+03 0.  0.
        2    1    3    3  502    0 -0.30373137586E+02  0.24434433879E+03  0.13219548888E+03  0.27946794212E+03  0.25500000920E-02 0.  1.
       -2    1    3    3    0  502  0.30373137586E+02 -0.24434433879E+03  0.49518316977E+02  0.25115482696E+03  0.25500000920E-02 0. -1.
</event>
<event>
 5   0  0.4803890E-02  0.5004618E+03  0.7818609E-02  0.1013658E+00
       -1   -1    0    0    0  501  0.00000000000E+00  0.00000000000E+00  0.45026472154E+03  0.45026472157E+03  0.50400001928E-02 0.  1.
        1   -1    0    0  501    0  0.00000000000E+00  0.00000000000E+00 -0.13906378024E+03  0.13906378033E+03  0.50400001928E-02 0. -1.
    10030    2    1    2    0    0  0.00000000000E+00  0.00000000000E+00  0.31120094129E+03  0.58932850190E+03  0.50046184399E+03 0.  0.
        5    1    3    3  502    0 -0.23204301301E+03 -0.14357406882E+02  0.46757585063E+02  0.23718865230E+03  0.46999998093E+01 0. -1.
       -5    1    3    3    0  502  0.23204301301E+03  0.14357406882E+02  0.26444335623E+03  0.35213984960E+03  0.46999998093E+01 0.  1.
</event>
<event>
 5   0  0.7698747E-02  0.4942438E+03  0.7818609E-02  0.1015292E+00
        2   -1    0    0  501    0  0.00000000000E+00  0.00000000000E+00  0.22451927182E+04  0.22451927182E+04  0.25500000920E-02 0. -1.
       -2   -1    0    0    0  501  0.00000000000E+00  0.00000000000E+00 -0.27199998295E+02  0.27199998415E+02  0.25500000920E-02 0.  1.
    10030    2    1    2    0    0  0.00000000000E+00  0.00000000000E+00  0.22179927199E+04  0.22723927166E+04  0.49424381937E+03 0.  0.
        2    1    3    3  502    0  0.15074561543E+03  0.41712687786E+02  0.22934082465E+03  0.27759935654E+03  0.25500000920E-02 0.  1.
       -2    1    3    3    0  502 -0.15074561543E+03 -0.41712687786E+02  0.19886518953E+04  0.19947933601E+04  0.25500000920E-02 0. -1.
</event>
<event>
 5   0  0.4884478E-02  0.4868492E+03  0.7818609E-02  0.1017270E+00
       -1   -1    0    0    0  501  0.00000000000E+00  0.00000000000E+00  0.38267778786E+02  0.38267779118E+02  0.50400001928E-02 0. -1.
        1   -1    0    0  501    0  0.00000000000E+00  0.00000000000E+00 -0.15484447944E+04  0.15484447944E+04  0.50400001928E-02 0.  1.
    10030    2    1    2    0    0  0.00000000000E+00  0.00000000000E+00 -0.15101770156E+04  0.15867125735E+04  0.48684922973E+03 0.  0.
        3    1    3    3  502    0 -0.12586459970E+03  0.59315196080E+01 -0.76290117804E+02  0.14729994113E+03  0.10100000352E+00 0. -1.
       -3    1    3    3    0  502  0.12586459970E+03 -0.59315196080E+01 -0.14338868978E+04  0.14394126324E+04  0.10100000352E+00 0.  1.
</event>
<event>
 5   0  0.5191358E-02  0.5141790E+03  0.7818609E-02  0.1010143E+00
        1   -1    0    0  501    0  0.00000000000E+00  0.00000000000E+00  0.53869620267E+03  0.53869620270E+03  0.50400001928E-02 0.  1.
       -1   -1    0    0    0  501  0.00000000000E+00  0.00000000000E+00 -0.12269442373E+03  0.12269442383E+03  0.50400001928E-02 0. -1.
    10030    2    1    2    0    0  0.00000000000E+00  0.00000000000E+00  0.41600177894E+03  0.66139062653E+03  0.51417903572E+03 0.  0.
        4    1    3    3  502    0  0.80396584641E+02 -0.58768320001E+02 -0.96872408990E+02  0.13893596648E+03  0.12699999809E+01 0. -1.
       -4    1    3    3    0  502 -0.80396584641E+02  0.58768320001E+02  0.51287418793E+03  0.52245466005E+03  0.12699999809E+01 0.  1.
</event>
<event>
 5   0  0.7776070E-02  0.4994301E+03  0.7818609E-02  0.1013928E+00
       -2   -1    0    0    0  501  0.00000000000E+00  0.00000000000E+00  0.35547452871E+02  0.35547452963E+02  0.25500000920E-02 0.  1.
        2   -1    0    0  501    0  0.00000000000E+00  0.00000000000E+00 -0.17542073806E+04  0.17542073806E+04  0.25500000920E-02 0. -1.
    10030    2    1    2    0    0  0.00000000000E+00  0.00000000000E+00 -0.17186599277E+04  0.17897548335E+04  0.49943009229E+03 0.  0.
        4    1    3    3  502    0 -0.45908655783E+02 -0.21775421104E+03 -0.12652657947E+04  0.12846881509E+04  0.12699999809E+01 0. -1.
       -4    1    3    3    0  502  0.45908655783E+02  0.21775421104E+03 -0.45339413303E+03  0.50506668260E+03  0.12699999809E+01 0.  1.
</event>
<event>
 5   0  0.3210875E-02  0.5006562E+03  0.7818609E-02  0.1013608E+00
       -3   -1    0    0    0  501  0.00000000000E+00  0.00000000000E+00  0.10049233148E+03  0.10049238224E+03  0.10100000352E+00 0.  1.
        3   -1    0    0  501    0  0.00000000000E+00  0.00000000000E+00 -0.62357140131E+03  0.62357140949E+03  0.10100000352E+00 0. -1.
    10030    2    1    2    0    0  0.00000000000E+00  0.00000000000E+00 -0.52307906982E+03  0.72406379173E+03  0.50065623056E+03 0.  0.
        4    1    3    3  502    0  0.21217429459E+03  0.74702624328E+02 -0.42038885921E+03  0.47678802336E+03  0.12699999809E+01 0.  1.
       -4    1    3    3    0  502 -0.21217429459E+03 -0.74702624328E+02 -0.10269021061E+03  0.24727576837E+03  0.12699999809E+01 0. -1.
</event>
<event>
 5   0  0.5191358E-02  0.5022387E+03  0.7818609E-02  0.1013196E+00
       -1   -1    0    0    0  501  0.00000000000E+00  0.00000000000E+00  0.17707602223E+03  0.17707602230E+03  0.50400001928E-02 0. -1.
        1   -1    0    0  501    0  0.00000000000E+00  0.00000000000E+00 -0.35612343039E+03  0.35612343043E+03  0.50400001928E-02 0.  1.
    10030    2    1    2    0    0  0.00000000000E+00  0.00000000000E+00 -0.17904740816E+03  0.53319945273E+03  0.50223867037E+03 0.  0.
        4    1    3    3  502    0  0.20486729378E+03  0.68602372393E+02  0.46360349964E+02  0.22097010772E+03  0.12699999809E+01 0.  1.
       -4    1    3    3    0  502 -0.20486729378E+03 -0.68602372393E+02 -0.22540775813E+03  0.31222934501E+03  0.12699999809E+01 0. -1.
</event>
<event>
 5   0  0.3210875E-02  0.4952827E+03  0.7818609E-02  0.1015018E+00
       -3   -1    0    0    0  501  0.00000000000E+00  0.00000000000E+00  0.11967195850E+04  0.11967195892E+04  0.10100000352E+00 0. -1.
        3   -1    0    0  501    0  0.00000000000E+00  0.00000000000E+00 -0.51245231948E+02  0.51245331479E+02  0.10100000352E+00 0.  1.
    10030    2    1    2    0    0  0.00000000000E+00  0.00000000000E+00  0.11454743530E+04  0.12479649207E+04  0.49528269694E+03 0.  0.
        3    1    3    3  502    0  0.16098299120E+03 -0.15845739280E+03  0.82848333541E+03  0.85872516910E+03  0.10100000352E+00 0. -1.
       -3    1    3    3    0  502 -0.16098299120E+03  0.15845739280E+03  0.31699101761E+03  0.38923975161E+03  0.10100000352E+00 0.  1.
</event>
<event>
 5   0  0.5191358E-02  0.5030982E+03  0.7818609E-02  0.1012973E+00
        1   -1    0    0  501    0  0.00000000000E+00  0.00000000000E+00  0.30292354581E+03  0.30292354585E+03  0.50400001928E-02 0.  1.
       -1   -1    0    0    0  501  0.00000000000E+00  0.00000000000E+00 -0.20888751277E+03  0.20888751283E+03  0.50400001928E-02 0. -1.
    10030    2    1    2    0    0  0.00000000000E+00  0.00000000000E+00  0.94036033039E+02  0.51181105868E+03  0.50309818552E+03 0.  0.
        4    1    3    3  502    0  0.24007169166E+03 -0.74538526850E+02  0.56393037634E+02  0.25762802005E+03  0.12699999809E+01 0.  1.
       -4    1    3    3    0  502 -0.24007169166E+03  0.74538526850E+02  0.37642995405E+02  0.25418303863E+03  0.12699999809E+01 0. -1.
</event>
<event>
 5   0  0.5038436E-02  0.4957625E+03  0.7818609E-02  0.1014891E+00
        1   -1    0    0  501    0  0.00000000000E+00  0.00000000000E+00  0.19054860531E+03  0.19054860538E+03  0.50400001928E-02 0.  1.
       -1   -1    0    0    0  501  0.00000000000E+00  0.00000000000E+00 -0.32246428209E+03  0.32246428213E+03  0.50400001928E-02 0. -1.
    10030    2    1    2    0    0  0.00000000000E+00  0.00000000000E+00 -0.13191567678E+03  0.51301288751E+03  0.49576252074E+03 0.  0.
        1    1    3    3  502    0 -0.21222377382E+03 -0.11159137665E+03 -0.13102298382E+03  0.27323723727E+03  0.50400001928E-02 0.  1.
       -1    1    3    3    0  502  0.21222377382E+03  0.11159137665E+03 -0.89269296244E+00  0.23977565023E+03  0.50400001928E-02 0. -1.
</event>
<event>
 5   0  0.7881060E-02  0.5003683E+03  0.7818609E-02  0.1013683E+00
        2   -1    0    0  501    0  0.00000000000E+00  0.00000000000E+00  0.67796239056E+03  0.67796239057E+03  0.25500000920E-02 0.  1.
       -2   -1    0    0    0  501  0.00000000000E+00  0.00000000000E+00 -0.92323854056E+02  0.92323854091E+02  0.25500000920E-02 0. -1.
    10030    2    1    2    0    0  0.00000000000E+00  0.00000000000E+00  0.58563853651E+03  0.77028624466E+03  0.50036826765E+03 0.  0.
        1    1    3    3  502    0 -0.21103294438E+03  0.13326646021E+03  0.26627799955E+03  0.36496414358E+03  0.50400001928E-02 0.  1.
       -1    1    3    3    0  502  0.21103294438E+03 -0.13326646021E+03  0.31936053696E+03  0.40532210108E+03  0.50400001928E-02 0. -1.
</event>
<event>
 5   0  0.4884478E-02  0.4953849E+03  0.7818609E-02  0.1014991E+00
       -1   -1    0    0    0  501  0.00000000000E+00  0.00000000000E+00  0.91682982608E+02  0.91682982747E+02  0.50400001928E-02 0.  1.
        1   -1    0    0  501    0  0.00000000000E+00  0.00000000000E+00 -0.66917052424E+03  0.66917052426E+03  0.50400001928E-02 0. -1.
    10030    2    1    2    0    0  0.00000000000E+00  0.00000000000E+00 -0.57748754163E+03  0.76085350700E+03  0.49538489923E+03 0.  0.
        3    1    3    3  502    0 -0.24747133979E+02  0.22285928645E+03 -0.12712636466E+03  0.25775919962E+03  0.10100000352E+00 0. -1.
       -3    1    3    3    0  502  0.24747133979E+02 -0.22285928645E+03 -0.45036117697E+03  0.50309430738E+03  0.10100000352E+00 0.  1.
</event>
<event>
 5   0  0.7698747E-02  0.4993637E+03  0.7818609E-02  0.1013945E+00
        2   -1    0    0  501    0  0.00000000000E+00  0.00000000000E+00  0.27911860569E+03  0.27911860570E+03  0.25500000920E-02 0. -1.
       -2   -1    0    0    0  501  0.00000000000E+00  0.00000000000E+00 -0.22334961775E+03  0.22334961776E+03  0.25500000920E-02 0.  1.
    10030    2    1    2    0    0  0.00000000000E+00  0.00000000000E+00  0.55768987937E+02  0.50246822346E+03  0.49936373074E+03 0.  0.
        2    1    3    3  502    0 -0.18310866281E+03 -0.94547372728E+02  0.16973269183E+03  0.26697785445E+03  0.25500000920E-02 0. -1.
       -2    1    3    3    0  502  0.18310866281E+03  0.94547372728E+02 -0.11396370390E+03  0.23549036901E+03  0.25500000920E-02 0.  1.
</event>
<event>
 5   0  0.8208720E-02  0.5018059E+03  0.7818609E-02  0.1013309E+00
        2   -1    0    0  501    0  0.00000000000E+00  0.00000000000E+00  0.24588807892E+03  0.24588807893E+03  0.25500000920E-02 0.  1.
       -2   -1    0    0    0  501  0.00000000000E+00  0.00000000000E+00 -0.25602012261E+03  0.25602012263E+03  0.25500000920E-02 0. -1.
    10030    2    1    2    0    0  0.00000000000E+00  0.00000000000E+00 -0.10132043697E+02  0.50190820156E+03  0.50180592312E+03 0.  0.
        3    1    3    3  502    0  0.88165658092E+02  0.13741859353E+03  0.18548588644E+03  0.24710742074E+03  0.10100000352E+00 0.  1.
       -3    1    3    3    0  502 -0.88165658092E+02 -0.13741859353E+03 -0.19561793013E+03  0.25480078082E+03  0.10100000352E+00 0. -1.
</event>
<event>
 5   0  0.4803890E-02  0.5024511E+03  0.7818609E-02  0.1013141E+00
        1   -1    0    0  501    0  0.00000000000E+00  0.00000000000E+00  0.33289439675E+03  0.33289439679E+03  0.50400001928E-02 0. -1.
       -1   -1    0    0    0  501  0.00000000000E+00  0.00000000000E+00 -0.18959251875E+03  0.18959251881E+03  0.50400001928E-02 0.  1.
    10030    2    1    2    0    0  0.00000000000E+00  0.00000000000E+00  0.14330187801E+03  0.52248691561E+03  0.50245114065E+03 0.  0.
        5    1    3    3  502    0  0.67731182979E+02 -0.58170322500E+02 -0.17248950116E+03  0.19428334353E+03  0.46999998093E+01 0.  1.
       -5    1    3    3    0  502 -0.67731182979E+02  0.58170322500E+02  0.31579137916E+03  0.32820357207E+03  0.46999998093E+01 0. -1.
</event>
<event>
 5   0  0.4803890E-02  0.5009984E+03  0.7818609E-02  0.1013519E+00
       -1   -1    0    0    0  501  0.00000000000E+00  0.00000000000E+00  0.18636786265E+03  0.18636786272E+03  0.50400001928E-02 0.  1.
        1   -1    0    0  501    0  0.00000000000E+00  0.00000000000E+00 -0.33669892664E+03  0.33669892668E+03  0.50400001928E-02 0. -1.
    10030    2    1    2    0    0  0.00000000000E+00  0.00000000000E+00 -0.15033106399E+03  0.52306678940E+03  0.50099844049E+03 0.  0.
        5    1    3    3  502    0  0.10876284966E+03 -0.54361391621E+01  0.16031053652E+03  0.19385682138E+03  0.46999998093E+01 0.  1.
       -5    1    3    3    0  502 -0.10876284966E+03  0.54361391621E+01 -0.31064160051E+03  0.32920996802E+03  0.46999998093E+01 0. -1.
</event>
<event>
 5   0  0.7776070E-02  0.4999753E+03  0.7818609E-02  0.1013785E+00
        2   -1    0    0  501    0  0.00000000000E+00  0.00000000000E+00  0.25609849292E+03  0.25609849294E+03  0.25500000920E-02 0. -1.
       -2   -1    0    0    0  501  0.00000000000E+00  0.00000000000E+00 -0.24402262469E+03  0.24402262471E+03  0.25500000920E-02 0.  1.
    10030    2    1    2    0    0  0.00000000000E+00  0.00000000000E+00  0.12075868229E+02  0.50012111764E+03  0.49997530511E+03 0.  0.
        4    1    3    3  502    0 -0.37113829345E+02 -0.78529569928E+02  0.24051594687E+03  0.25572223853E+03  0.12699999809E+01 0. -1.
       -4    1    3    3    0  502  0.37113829345E+02  0.78529569928E+02 -0.22844007864E+03  0.24439887911E+03  0.12699999809E+01 0.  1.
</event>
<event>
 5   0  0.7776070E-02  0.4992991E+03  0.7818609E-02  0.1013962E+00
       -2   -1    0    0    0  501  0.00000000000E+00  0.00000000000E+00  0.14107710347E+03  0.14107710349E+03  0.25500000920E-02 0.  1.
        2   -1    0    0  501    0  0.00000000000E+00  0.00000000000E+00 -0.44177904439E+03  0.44177904440E+03  0.25500000920E-02 0. -1.
    10030    2    1    2    0    0  0.00000000000E+00  0.00000000000E+00 -0.30070194092E+03  0.58285614790E+03  0.49929914066E+03 0.  0.
        4    1    3    3  502    0 -0.28001475770E+02 -0.13527384431E+03  0.92390739791E+02  0.16619493764E+03  0.12699999809E+01 0.  1.
       -4    1    3    3    0  502  0.28001475770E+02  0.13527384431E+03 -0.39309268072E+03  0.41666121025E+03  0.12699999809E+01 0. -1.
</event>
<event>
 5   0  0.7698747E-02  0.5081094E+03  0.7818609E-02  0.1011684E+00
       -2   -1    0    0    0  501  0.00000000000E+00  0.00000000000E+00  0.13179905551E+03  0.13179905553E+03  0.25500000920E-02 0.  1.
        2   -1    0    0  501    0  0.00000000000E+00  0.00000000000E+00 -0.48971363916E+03  0.48971363917E+03  0.25500000920E-02 0. -1.
    10030    2    1    2    0    0  0.00000000000E+00  0.00000000000E+00 -0.35791458366E+03  0.62151269470E+03  0.50810941782E+03 0.  0.
        2    1    3    3  502    0 -0.19893407003E+03  0.32910587220E+02  0.10087093613E+02  0.20189011970E+03  0.25500000920E-02 0.  1.
       -2    1    3    3    0  502  0.19893407003E+03 -0.32910587220E+02 -0.36800167727E+03  0.41962257500E+03  0.25500000920E-02 0. -1.
</event>
<event>
 5   0  0.4884478E-02  0.5065134E+03  0.7818609E-02  0.1012093E+00
        1   -1    0    0  501    0  0.00000000000E+00  0.00000000000E+00  0.29251935896E+03  0.29251935900E+03  0.50400001928E-02 0. -1.
       -1   -1    0    0    0  501  0.00000000000E+00  0.00000000000E+00 -0.21926400289E+03  0.21926400295E+03  0.50400001928E-02 0.  1.
    10030    2    1    2    0    0  0.00000000000E+00  0.00000000000E+00  0.73255356064E+02  0.51178336195E+03  0.50651343751E+03 0.  0.
        3    1    3    3  502    0  0.24461162296E+03  0.23076516031E+02  0.98679861412E+02  0.26477367114E+03  0.10100000352E+00 0. -1.
       -3    1    3    3    0  502 -0.24461162296E+03 -0.23076516031E+02 -0.25424505348E+02  0.24700969081E+03  0.10100000352E+00 0.  1.
</event>
<event>
 5   0  0.8208720E-02  0.4669835E+03  0.7818609E-02  0.1022775E+00
       -2   -1    0    0    0  501  0.00000000000E+00  0.00000000000E+00  0.43073074511E+03  0.43073074511E+03  0.25500000920E-02 0. -1.
        2   -1    0    0  501    0  0.00000000000E+00  0.00000000000E+00 -0.12657189804E+03  0.12657189807E+03  0.25500000920E-02 0.  1.
    10030    2    1    2    0    0  0.00000000000E+00  0.00000000000E+00  0.30415884707E+03  0.55730264318E+03  0.46698354558E+03 0.  0.
        3    1    3    3  502    0  0.13926332100E+03 -0.27045693921E+02 -0.69241452289E+02  0.15786111317E+03  0.10100000352E+00 0.  1.
       -3    1    3    3    0  502 -0.13926332100E+03  0.27045693921E+02  0.37340029936E+03  0.39944153001E+03  0.10100000352E+00 0. -1.
</event>
<event>
 5   0  0.4803890E-02  0.4960757E+03  0.7818609E-02  0.1014808E+00
       -1   -1    0    0    0  501  0.00000000000E+00  0.00000000000E+00  0.82367428243E+02  0.82367428397E+02  0.50400001928E-02 0.  1.
        1   -1    0    0  501    0  0.00000000000E+00  0.00000000000E+00 -0.74693089126E+03  0.74693089128E+03  0.50400001928E-02 0. -1.
    10030    2    1    2    0    0  0.00000000000E+00  0.00000000000E+00 -0.66456346302E+03  0.82929831968E+03  0.49607570656E+03 0.  0.
        5    1    3    3  502    0 -0.45351168959E+02  0.21935592288E+03 -0.51019939756E+03  0.55722460884E+03  0.46999998093E+01 0. -1.
       -5    1    3    3    0  502  0.45351168959E+02 -0.21935592288E+03 -0.15436406546E+03  0.27207371084E+03  0.46999998093E+01 0.  1.
</event>
<event>
 5   0  0.4884478E-02  0.4986412E+03  0.7818609E-02  0.1014134E+00
        1   -1    0    0  501    0  0.00000000000E+00  0.00000000000E+00  0.11039148049E+04  0.11039148049E+04  0.50400001928E-02 0. -1.
       -1   -1    0    0    0  501  0.00000000000E+00  0.00000000000E+00 -0.56309393345E+02  0.56309393570E+02  0.50400001928E-02 0.  1.
    10030    2    1    2    0    0  0.00000000000E+00  0.00000000000E+00  0.10476054115E+04  0.11602241984E+04  0.49864124620E+03 0.  0.
        3    1    3    3  502    0 -0.84344819874E+02  0.22978490665E+03  0.63406346465E+03  0.67967024311E+03  0.10100000352E+00 0. -1.
       -3    1    3    3    0  502  0.84344819874E+02 -0.22978490665E+03  0.41354194687E+03  0.48055395533E+03  0.10100000352E+00 0.  1.
</event>
<event>
 5   0  0.4803890E-02  0.4993191E+03  0.7818609E-02  0.1013957E+00
        1   -1    0    0  501    0  0.00000000000E+00  0.00000000000E+00  0.50764599525E+03  0.50764599528E+03  0.50400001928E-02 0. -1.
       -1   -1    0    0    0  501  0.00000000000E+00  0.00000000000E+00 -0.12278218632E+03  0.12278218642E+03  0.50400001928E-02 0.  1.
    10030    2    1    2    0    0  0.00000000000E+00  0.00000000000E+00  0.38486380893E+03  0.63042818170E+03  0.49931907720E+03 0.  0.
        5    1    3    3  502    0  0.63726423730E+02 -0.22341713111E+03  0.30767626322E+03  0.38556846928E+03  0.46999998093E+01 0. -1.
       -5    1    3    3    0  502 -0.63726423730E+02  0.22341713111E+03  0.77187545711E+02  0.24485971242E+03  0.46999998093E+01 0.  1.
</event>
<event>
 5   0  0.7776070E-02  0.5039623E+03  0.7818609E-02  0.1012750E+00
        2   -1    0    0  501    0  0.00000000000E+00  0.00000000000E+00  0.22962602953E+04  0.22962602953E+04  0.25500000920E-02 0. -1.
       -2   -1    0    0    0  501  0.00000000000E+00  0.00000000000E+00 -0.27651262853E+02  0.27651262970E+02  0.25500000920E-02 0.  1.
    10030    2    1    2    0    0  0.00000000000E+00  0.00000000000E+00  0.22686090324E+04  0.23239115582E+04  0.50396228883E+03 0.  0.
        4    1    3    3  502    0  0.23789869409E+03  0.73387007281E+02  0.13135785570E+04  0.13369636045E+04  0.12699999809E+01 0.  1.
       -4    1    3    3    0  502 -0.23789869409E+03 -0.73387007281E+02  0.95503047538E+03  0.98694795369E+03  0.12699999809E+01 0. -1.
</event>
<event>
 5   0  0.4865501E-02  0.4991565E+03  0.7818609E-02  0.1013999E+00
       -1   -1    0    0    0  501  0.00000000000E+00  0.00000000000E+00  0.25658752455E+03  0.25658752460E+03  0.50400001928E-02 0. -1.
        1   -1    0    0  501    0  0.00000000000E+00  0.00000000000E+00 -0.24276048538E+03  0.24276048543E+03  0.50400001928E-02 0.  1.
    10030    2    1    2    0    0  0.00000000000E+00  0.00000000000E+00  0.13827039168E+02  0.49934801003E+03  0.49915653668E+03 0.  0.
        2    1    3    3  502    0 -0.59404847997E+02  0.14504884257E+03  0.20120750847E+03  0.25505404166E+03  0.25500000920E-02 0. -1.
       -2    1    3    3    0  502  0.59404847997E+02 -0.14504884257E+03 -0.18738046930E+03  0.24429396837E+03  0.25500000920E-02 0.  1.
</event>
<event>
 5   0  0.4884478E-02  0.5010386E+03  0.7818609E-02  0.1013508E+00
        1   -1    0    0  501    0  0.00000000000E+00  0.00000000000E+00  0.70378374339E+03  0.70378374340E+03  0.50400001928E-02 0.  1.
       -1   -1    0    0    0  501  0.00000000000E+00  0.00000000000E+00 -0.89174994304E+02  0.89174994446E+02  0.50400001928E-02 0. -1.
    10030    2    1    2    0    0  0.00000000000E+00  0.00000000000E+00  0.61460874908E+03  0.79295873785E+03  0.50103856686E+03 0.  0.
        3    1    3    3  502    0 -0.80210773507E+02  0.23709395532E+03  0.32409736549E+03  0.40949532886E+03  0.10100000352E+00 0.  1.
       -3    1    3    3    0  502  0.80210773507E+02 -0.23709395532E+03  0.29051138359E+03  0.38346340899E+03  0.10100000352E+00 0. -1.
</event>
<event>
 5   0  0.7698747E-02  0.4900523E+03  0.7818609E-02  0.1016409E+00
       -2   -1    0    0    0  501  0.00000000000E+00  0.00000000000E+00  0.69262728666E+02  0.69262728713E+02  0.25500000920E-02 0.  1.
        2   -1    0    0  501    0  0.00000000000E+00  0.00000000000E+00 -0.86681279157E+03  0.86681279157E+03  0.25500000920E-02 0. -1.
    10030    2    1    2    0    0  0.00000000000E+00  0.00000000000E+00 -0.79755006290E+03  0.93607552028E+03  0.49005232051E+03 0.  0.
        2    1    3    3  502    0  0.23215413142E+02  0.22376716874E+03 -0.21331176294E+03  0.31002033712E+03  0.25500000920E-02 0. -1.
       -2    1    3    3    0  502 -0.23215413142E+02 -0.22376716874E+03 -0.58423829996E+03  0.62605518316E+03  0.25500000920E-02 0.  1.
</event>
<event>
 5   0  0.4884478E-02  0.4994050E+03  0.7818609E-02  0.1013934E+00
       -1   -1    0    0    0  501  0.00000000000E+00  0.00000000000E+00  0.41397868605E+02  0.41397868912E+02  0.50400001928E-02 0. -1.
        1   -1    0    0  501    0  0.00000000000E+00  0.00000000000E+00 -0.15061487575E+04  0.15061487575E+04  0.50400001928E-02 0.  1.
    10030    2    1    2    0    0  0.00000000000E+00  0.00000000000E+00 -0.14647508889E+04  0.15475466264E+04  0.49940504044E+03 0.  0.
        3    1    3    3  502    0  0.13302595975E+03  0.13370022623E+03 -0.12394753490E+04  0.12537427198E+04  0.10100000352E+00 0.  1.
       -3    1    3    3    0  502 -0.13302595975E+03 -0.13370022623E+03 -0.22527553981E+03  0.29380390654E+03  0.10100000352E+00 0. -1.
</event>
<event>
 5   0  0.7776070E-02  0.5002085E+03  0.7818609E-02  0.1013725E+00
        2   -1    0    0  501    0  0.00000000000E+00  0.00000000000E+00  0.85591902328E+03  0.85591902329E+03  0.25500000920E-02 0.  1.
       -2   -1    0    0    0  501  0.00000000000E+00  0.00000000000E+00 -0.73081832579E+02  0.73081832623E+02  0.25500000920E-02 0. -1.
    10030    2    1    2    0    0  0.00000000000E+00  0.00000000000E+00  0.78283719070E+03  0.92900085591E+03  0.50020847967E+03 0.  0.
        4    1    3    3  502    0 -0.38108095057E+02  0.24405350819E+03  0.46421091657E+03  0.52584002294E+03  0.12699999809E+01 0.  1.
       -4    1    3    3    0  502  0.38108095057E+02 -0.24405350819E+03  0.31862627414E+03  0.40316083297E+03  0.12699999809E+01 0. -1.
</event>
<event>
 5   0  0.7881060E-02  0.5012159E+03  0.7818609E-02  0.1013462E+00
       -2   -1    0    0    0  501  0.00000000000E+00  0.00000000000E+00  0.54911857521E+02  0.54911857580E+02  0.25500000920E-02 0.  1.
        2   -1    0    0  501    0  0.00000000000E+00  0.00000000000E+00 -0.11437301295E+04  0.11437301295E+04  0.25500000920E-02 0. -1.
    10030    2    1    2    0    0  0.00000000000E+00  0.00000000000E+00 -0.10888182720E+04  0.11986419871E+04  0.50121590538E+03 0.  0.
        1    1    3    3  502    0  0.53380537006E+02 -0.23849414931E+03 -0.41178706784E+03  0.47885021692E+03  0.50400001928E-02 0. -1.
       -1    1    3    3    0  502 -0.53380537006E+02  0.23849414931E+03 -0.67703120417E+03  0.71979177019E+03  0.50400001928E-02 0.  1.
</event>
<event>
 5   0  0.7881060E-02  0.4978909E+03  0.7818609E-02  0.1014331E+00
        2   -1    0    0  501    0  0.00000000000E+00  0.00000000000E+00  0.12824963082E+04  0.12824963082E+04  0.25500000920E-02 0. -1.
       -2   -1    0    0    0  501  0.00000000000E+00  0.00000000000E+00 -0.48322817060E+02  0.48322817128E+02  0.25500000920E-02 0.  1.
    10030    2    1    2    0    0  0.00000000000E+00  0.00000000000E+00  0.12341734911E+04  0.13308191253E+04  0.49789088977E+03 0.  0.
        1    1    3    3  502    0  0.16064353579E+03  0.36510915670E+02  0.11821456941E+03  0.20276606472E+03  0.50400001928E-02 0.  1.
       -1    1    3    3    0  502 -0.16064353579E+03 -0.36510915670E+02  0.11159589217E+04  0.11280530606E+04  0.50400001928E-02 0. -1.
</event>
<event>
 5   0  0.8208720E-02  0.4993044E+03  0.7818609E-02  0.1013961E+00
       -2   -1    0    0    0  501  0.00000000000E+00  0.00000000000E+00  0.17185397631E+03  0.17185397633E+03  0.25500000920E-02 0.  1.
        2   -1    0    0  501    0  0.00000000000E+00  0.00000000000E+00 -0.36266970080E+03  0.36266970080E+03  0.25500000920E-02 0. -1.
    10030    2    1    2    0    0  0.00000000000E+00  0.00000000000E+00 -0.19081572449E+03  0.53452367713E+03  0.49930443689E+03 0.  0.
        3    1    3    3  502    0  0.15317420457E+03 -0.11300212435E+03 -0.26833979848E+03  0.32899555423E+03  0.10100000352E+00 0. -1.
       -3    1    3    3    0  502 -0.15317420457E+03  0.11300212435E+03  0.77524073993E+02  0.20552812290E+03  0.10100000352E+00 0.  1.
</event>
<event>
 5   0  0.7933103E-02  0.5005314E+03  0.7818609E-02  0.1013640E+00
        2   -1    0    0  501    0  0.00000000000E+00  0.00000000000E+00  0.54258637726E+03  0.54258637727E+03  0.25500000920E-02 0.  1.
       -2   -1    0    0    0  501  0.00000000000E+00  0.00000000000E+00 -0.11543400650E+03  0.11543400653E+03  0.25500000920E-02 0. -1.
    10030    2    1    2    0    0  0.00000000000E+00  0.00000000000E+00  0.42715237076E+03  0.65802038380E+03  0.50053139526E+03 0.  0.
        5    1    3    3  502    0 -0.24074051011E+01  0.24970733064E+03  0.19273658250E+03  0.31548221314E+03  0.46999998093E+01 0.  1.
       -5    1    3    3    0  502  0.24074051011E+01 -0.24970733064E+03  0.23441578826E+03  0.34253817066E+03  0.46999998093E+01 0. -1.
</event>
<event>
 5   0  0.4884478E-02  0.5119772E+03  0.7818609E-02  0.1010699E+00
       -1   -1    0    0    0  501  0.00000000000E+00  0.00000000000E+00  0.14053677147E+03  0.14053677156E+03  0.50400001928E-02 0. -1.
        1   -1    0    0  501    0  0.00000000000E+00  0.00000000000E+00 -0.46628478393E+03  0.46628478395E+03  0.50400001928E-02 0.  1.
    10030    2    1    2    0    0  0.00000000000E+00  0.00000000000E+00 -0.32574801246E+03  0.60682155552E+03  0.51197717978E+03 0.  0.
        3    1    3    3  502    0  0.60925269648E+02 -0.14012970078E+02  0.13134987797E+03  0.14546838988E+03  0.10100000352E+00 0. -1.
       -3    1    3    3    0  502 -0.60925269648E+02  0.14012970078E+02 -0.45709789042E+03  0.46135316563E+03  0.10100000352E+00 0.  1.
</event>
<event>
 5   0  0.5191358E-02  0.4604709E+03  0.7818609E-02  0.1024645E+00
       -1   -1    0    0    0  501  0.00000000000E+00  0.00000000000E+00  0.18976210891E+03  0.18976210897E+03  0.50400001928E-02 0.  1.
        1   -1    0    0  501    0  0.00000000000E+00  0.00000000000E+00 -0.27934109030E+03  0.27934109034E+03  0.50400001928E-02 0. -1.
    10030    2    1    2    0    0  0.00000000000E+00  0.00000000000E+00 -0.89578981392E+02  0.46910319932E+03  0.46047086521E+03 0.  0.
        4    1    3    3  502    0  0.22304244517E+03 -0.55906155782E+02 -0.56551976340E+02  0.23679773971E+03  0.12699999809E+01 0. -1.
       -4    1    3    3    0  502 -0.22304244517E+03  0.55906155782E+02 -0.33027005051E+02  0.23230545961E+03  0.12699999809E+01 0.  1.
</event>
<event>
 5   0  0.7776070E-02  0.5017149E+03  0.7818609E-02  0.1013332E+00
       -2   -1    0    0    0  501  0.00000000000E+00  0.00000000000E+00  0.27686967610E+02  0.27686967727E+02  0.25500000920E-02 0. -1.
        2   -1    0    0  501    0  0.00000000000E+00  0.00000000000E+00 -0.22728908827E+04  0.22728908827E+04  0.25500000920E-02 0.  1.
    10030    2    1    2    0    0  0.00000000000E+00  0.00000000000E+00 -0.22452039151E+04  0.23005778505E+04  0.50171488472E+03 0.  0.
        4    1    3    3  502    0  0.14879154465E+03  0.18969128270E+03 -0.14404928030E+04  0.14605282726E+04  0.12699999809E+01 0.  1.
       -4    1    3    3    0  502 -0.14879154465E+03 -0.18969128270E+03 -0.80471111211E+03  0.84004957790E+03  0.12699999809E+01 0. -1.
</event>
<event>
 5   0  0.4884478E-02  0.4464582E+03  0.7818609E-02  0.1028784E+00
        1   -1    0    0  501    0  0.00000000000E+00  0.00000000000E+00  0.10289181867E+03  0.10289181879E+03  0.50400001928E-02 0.  1.
       -1   -1    0    0    0  501  0.00000000000E+00  0.00000000000E+00 -0.48430694655E+03  0.48430694658E+03  0.50400001928E-02 0. -1.
    10030    2    1    2    0    0  0.00000000000E+00  0.00000000000E+00 -0.38141512789E+03  0.58719876537E+03  0.44645816183E+03 0.  0.
        3    1    3    3  502    0 -0.17331931469E+03  0.13806936673E+03 -0.15520886497E+03  0.27054119250E+03  0.10100000352E+00 0.  1.
       -3    1    3    3    0  502  0.17331931469E+03 -0.13806936673E+03 -0.22620626292E+03  0.31665757287E+03  0.10100000352E+00 0. -1.
</event>
<event>
 5   0  0.4865501E-02  0.4867508E+03  0.7818609E-02  0.1017296E+00
       -1   -1    0    0    0  501  0.00000000000E+00  0.00000000000E+00  0.38288377709E+02  0.38288378041E+02  0.50400001928E-02 0. -1.
        1   -1    0    0  501    0  0.00000000000E+00  0.00000000000E+00 -0.15469861237E+04  0.15469861237E+04  0.50400001928E-02 0.  1.
    10030    2    1    2    0    0  0.00000000000E+00  0.00000000000E+00 -0.15086977460E+04  0.15852745017E+04  0.48675081626E+03 0.  0.
        2    1    3    3  502    0 -0.24305315860E+03  0.17811269317E+00 -0.79512063740E+03  0.83143953337E+03  0.25500000920E-02 0.  1.
       -2    1    3    3    0  502  0.24305315860E+03 -0.17811269317E+00 -0.71357710856E+03  0.75383496835E+03  0.25500000920E-02 0. -1.
</event>
<event>
 5   0  0.4884478E-02  0.4983498E+03  0.7818609E-02  0.1014211E+00
        1   -1    0    0  501    0  0.00000000000E+00  0.00000000000E+00  0.86272183105E+03  0.86272183107E+03  0.50400001928E-02 0.  1.
       -1   -1    0    0    0  501  0.00000000000E+00  0.00000000000E+00 -0.71967742553E+02  0.71967742730E+02  0.50400001928E-02 0. -1.
    10030    2    1    2    0    0  0.00000000000E+00  0.00000000000E+00  0.79075408850E+03  0.93468957380E+03  0.49834984788E+03 0.  0.
        3    1    3    3  502    0  0.84963657972E+02  0.23112822889E+03  0.32398087229E+03  0.40694311295E+03  0.10100000352E+00 0. -1.
       -3    1    3    3    0  502 -0.84963657972E+02 -0.23112822889E+03  0.46677321621E+03  0.52774646085E+03  0.10100000352E+00 0.  1.
</event>
<event>
 5   0  0.5038436E-02  0.4997380E+03  0.7818609E-02  0.1013847E+00
       -1   -1    0    0    0  501  0.00000000000E+00  0.00000000000E+00  0.63727188980E+03  0.63727188982E+03  0.50400001928E-02 0. -1.
        1   -1    0    0  501    0  0.00000000000E+00  0.00000000000E+00 -0.97971567145E+02  0.97971567275E+02  0.50400001928E-02 0.  1.
    10030    2    1    2    0    0  0.00000000000E+00  0.00000000000E+00  0.53930032266E+03  0.73524345710E+03  0.49973803456E+03 0.  0.
        1    1    3    3  502    0  0.81827536366E+02  0.46989463984E+02 -0.70750590478E+02  0.11793812578E+03  0.50400001928E-02 0.  1.
       -1    1    3    3    0  502 -0.81827536366E+02 -0.46989463984E+02  0.61005091314E+03  0.61730533132E+03  0.50400001928E-02 0. -1.
</event>
<event>
 5   0  0.4803890E-02  0.4993317E+03  0.7818609E-02  0.1013953E+00
       -1   -1    0    0    0  501  0.00000000000E+00  0.00000000000E+00  0.48655640400E+03  0.48655640403E+03  0.50400001928E-02 0. -1.
        1   -1    0    0  501    0  0.00000000000E+00  0.00000000000E+00 -0.12811063261E+03  0.12811063271E+03  0.50400001928E-02 0.  1.
    10030    2    1    2    0    0  0.00000000000E+00  0.00000000000E+00  0.35844577139E+03  0.61466703674E+03  0.49933174847E+03 0.  0.
        5    1    3    3  502    0  0.51235366161E+02 -0.11933528537E+03 -0.83195179257E+02  0.15430327583E+03  0.46999998093E+01 0.  1.
       -5    1    3    3    0  502 -0.51235366161E+02  0.11933528537E+03  0.44164095064E+03  0.46036376092E+03  0.46999998093E+01 0. -1.
</event>
<event>
 5   0  0.3210875E-02  0.5187871E+03  0.7818609E-02  0.1008988E+00
       -4   -1    0    0    0  501  0.00000000000E+00  0.00000000000E+00  0.10886247868E+03  0.10886988639E+03  0.12699999809E+01 0.  1.
        4   -1    0    0  501    0  0.00000000000E+00  0.00000000000E+00 -0.61804445597E+03  0.61804576081E+03  0.12699999809E+01 0. -1.
    10030    2    1    2    0    0  0.00000000000E+00  0.00000000000E+00 -0.50918197729E+03  0.72691564721E+03  0.51878711641E+03 0.  0.
        3    1    3    3  502    0 -0.15020481902E+03  0.15702491826E+03 -0.56103671140E+02  0.22442358327E+03  0.10100000352E+00 0.  1.
       -3    1    3    3    0  502  0.15020481902E+03 -0.15702491826E+03 -0.45307830615E+03  0.50249206394E+03  0.10100000352E+00 0. -1.
</event>
<event>
 5   0  0.3210875E-02  0.4965612E+03  0.7818609E-02  0.1014680E+00
        3   -1    0    0  501    0  0.00000000000E+00  0.00000000000E+00  0.79067031467E+02  0.79067095975E+02  0.10100000352E+00 0. -1.
       -3   -1    0    0    0  501  0.00000000000E+00  0.00000000000E+00 -0.77963262409E+03  0.77963263063E+03  0.10100000352E+00 0.  1.
    10030    2    1    2    0    0  0.00000000000E+00  0.00000000000E+00 -0.70056559262E+03  0.85869972660E+03  0.49656124588E+03 0.  0.
        2    1    3    3  502    0 -0.17041977876E+03  0.17827619689E+03 -0.39974069839E+03  0.46969982897E+03  0.25500000920E-02 0. -1.
       -2    1    3    3    0  502  0.17041977876E+03 -0.17827619689E+03 -0.30082489423E+03  0.38899989764E+03  0.25500000920E-02 0.  1.
</event>
<event>
 5   0  0.3210875E-02  0.4983943E+03  0.7818609E-02  0.1014199E+00
       -4   -1    0    0    0  501  0.00000000000E+00  0.00000000000E+00  0.13314870369E+03  0.13315476031E+03  0.12699999809E+01 0.  1.
        4   -1    0    0  501    0  0.00000000000E+00  0.00000000000E+00 -0.46637247921E+03  0.46637420841E+03  0.12699999809E+01 0. -1.
    10030    2    1    2    0    0  0.00000000000E+00  0.00000000000E+00 -0.33322377552E+03  0.59952896872E+03  0.49839432156E+03 0.  0.
        4    1    3    3  502    0  0.21733318323E+03  0.10299459787E+03 -0.24508818893E+03  0.34338234226E+03  0.12699999809E+01 0. -1.
       -4    1    3    3    0  502 -0.21733318323E+03 -0.10299459787E+03 -0.88135586595E+02  0.25614662646E+03  0.12699999809E+01 0.  1.
</event>
<event>
 5   0  0.7933103E-02  0.4973588E+03  0.7818609E-02  0.1014471E+00
       -2   -1    0    0    0  501  0.00000000000E+00  0.00000000000E+00  0.13448909072E+03  0.13448909075E+03  0.25500000920E-02 0.  1.
        2   -1    0    0  501    0  0.00000000000E+00  0.00000000000E+00 -0.45982489789E+03  0.45982489789E+03  0.25500000920E-02 0. -1.
    10030    2    1    2    0    0  0.00000000000E+00  0.00000000000E+00 -0.32533580716E+03  0.59431398864E+03  0.49735875349E+03 0.  0.
        5    1    3    3  502    0  0.46018857173E+02 -0.40435204946E+02  0.12527699626E+03  0.13953192038E+03  0.46999998093E+01 0.  1.
       -5    1    3    3    0  502 -0.46018857173E+02  0.40435204946E+02 -0.45061280342E+03  0.45478206827E+03  0.46999998093E+01 0. -1.
</event>
<event>
 5   0  0.5038436E-02  0.4950479E+03  0.7818609E-02  0.1015080E+00
       -1   -1    0    0    0  501  0.00000000000E+00  0.00000000000E+00  0.83353158905E+02  0.83353159058E+02  0.50400001928E-02 0.  1.
        1   -1    0    0  501    0  0.00000000000E+00  0.00000000000E+00 -0.73504235848E+03  0.73504235850E+03  0.50400001928E-02 0. -1.
    10030    2    1    2    0    0  0.00000000000E+00  0.00000000000E+00 -0.65168919958E+03  0.81839551756E+03  0.49504788689E+03 0.  0.
        1    1    3    3  502    0 -0.10284992333E+03 -0.22459922470E+03 -0.35173043449E+03  0.42981067580E+03  0.50400001928E-02 0.  1.
       -1    1    3    3    0  502  0.10284992333E+03  0.22459922470E+03 -0.29995876509E+03  0.38858484175E+03  0.50400001928E-02 0. -1.
</event>
<event>
 5   0  0.7933103E-02  0.4999490E+03  0.7818609E-02  0.1013792E+00
       -2   -1    0    0    0  501  0.00000000000E+00  0.00000000000E+00  0.95022983673E+02  0.95022983707E+02  0.25500000920E-02 0.  1.
        2   -1    0    0  501    0  0.00000000000E+00  0.00000000000E+00 -0.65760148744E+03  0.65760148744E+03  0.25500000920E-02 0. -1.
    10030    2    1    2    0    0  0.00000000000E+00  0.00000000000E+00 -0.56257850376E+03  0.75262447115E+03  0.49994901908E+03 0.  0.
        5    1    3    3  502    0  0.56295976812E+02  0.20261893190E+03 -0.77967964589E+02  0.22433181244E+03  0.46999998093E+01 0.  1.
       -5    1    3    3    0  502 -0.56295976812E+02 -0.20261893190E+03 -0.48461053918E+03  0.52829265871E+03  0.46999998093E+01 0. -1.
</event>
<event>
 5   0  0.4884478E-02  0.5017156E+03  0.7818609E-02  0.1013332E+00
       -1   -1    0    0    0  501  0.00000000000E+00  0.00000000000E+00  0.36237611189E+02  0.36237611539E+02  0.50400001928E-02 0. -1.
        1   -1    0    0  501    0  0.00000000000E+00  0.00000000000E+00 -0.17365834607E+04  0.17365834607E+04  0.50400001928E-02 0.  1.
    10030    2    1    2    0    0  0.00000000000E+00  0.00000000000E+00 -0.17003458495E+04  0.17728210723E+04  0.50171560296E+03 0.  0.
        3    1    3    3  502    0 -0.49636359900E+01 -0.14828958362E+03 -0.13543047942E+03  0.20088768815E+03  0.10100000352E+00 0. -1.
       -3    1    3    3    0  502  0.49636359900E+01  0.14828958362E+03 -0.15649153701E+04  0.15719333841E+04  0.10100000352E+00 0.  1.
</event>
<event>
 5   0  0.7776070E-02  0.5069278E+03  0.7818609E-02  0.1011986E+00
        2   -1    0    0  501    0  0.00000000000E+00  0.00000000000E+00  0.15153738877E+04  0.15153738877E+04  0.25500000920E-02 0.  1.
       -2   -1    0    0    0  501  0.00000000000E+00  0.00000000000E+00 -0.42394788152E+02  0.42394788229E+02  0.25500000920E-02 0. -1.
    10030    2    1    2    0    0  0.00000000000E+00  0.00000000000E+00  0.14729790996E+04  0.15577686759E+04  0.50692782524E+03 0.  0.
        4    1    3    3  502    0  0.20823520606E+03  0.14363310279E+03  0.68790443311E+03  0.73294371629E+03  0.12699999809E+01 0. -1.
       -4    1    3    3    0  502 -0.20823520606E+03 -0.14363310279E+03  0.78507466644E+03  0.82482495964E+03  0.12699999809E+01 0.  1.
</event>
<event>
 5   0  0.5191358E-02  0.4990949E+03  0.7818609E-02  0.1014015E+00
       -1   -1    0    0    0  501  0.00000000000E+00  0.00000000000E+00  0.49894496131E+02  0.49894496385E+02  0.50400001928E-02 0.  1.
        1   -1    0    0  501    0  0.00000000000E+00  0.00000000000E+00 -0.12481124345E+04  0.12481124345E+04  0.50400001928E-02 0. -1.
    10030    2    1    2    0    0  0.00000000000E+00  0.00000000000E+00 -0.11982179384E+04  0.12980069309E+04  0.49909494570E+03 0.  0.
        4    1    3    3  502    0 -0.37585469940E+02  0.13453698043E+03 -0.61322397339E+02  0.15256118763E+03  0.12699999809E+01 0.  1.
       -4    1    3    3    0  502  0.37585469940E+02 -0.13453698043E+03 -0.11368955411E+04  0.11454457433E+04  0.12699999809E+01 0. -1.
</event>
<event>
 5   0  0.7776070E-02  0.4952115E+03  0.7818609E-02  0.1015036E+00
       -2   -1    0    0    0  501  0.00000000000E+00  0.00000000000E+00  0.67557073505E+03  0.67557073506E+03  0.25500000920E-02 0.  1.
        2   -1    0    0  501    0  0.00000000000E+00  0.00000000000E+00 -0.90750833127E+02  0.90750833163E+02  0.25500000920E-02 0. -1.
    10030    2    1    2    0    0  0.00000000000E+00  0.00000000000E+00  0.58481990193E+03  0.76632156822E+03  0.49521149849E+03 0.  0.
        4    1    3    3  502    0  0.13811980564E+03 -0.16410395998E+03  0.48381934976E+03  0.52923526573E+03  0.12699999809E+01 0.  1.
       -4    1    3    3    0  502 -0.13811980564E+03  0.16410395998E+03  0.10100055217E+03  0.23708630249E+03  0.12699999809E+01 0. -1.
</event>
<event>
 5   0  0.7698747E-02  0.4938741E+03  0.7818609E-02  0.1015390E+00
       -2   -1    0    0    0  501  0.00000000000E+00  0.00000000000E+00  0.72621774706E+02  0.72621774750E+02  0.25500000920E-02 0. -1.
        2   -1    0    0  501    0  0.00000000000E+00  0.00000000000E+00 -0.83966436570E+03  0.83966436570E+03  0.25500000920E-02 0.  1.
    10030    2    1    2    0    0  0.00000000000E+00  0.00000000000E+00 -0.76704259099E+03  0.91228614045E+03  0.49387413950E+03 0.  0.
        2    1    3    3  502    0 -0.19871375664E+03 -0.14551409548E+03 -0.41637906447E+03  0.48376960880E+03  0.25500000920E-02 0.  1.
       -2    1    3    3    0  502  0.19871375664E+03  0.14551409548E+03 -0.35066352652E+03  0.42851653165E+03  0.25500000920E-02 0. -1.
</event>
<event>
 5   0  0.5038436E-02  0.5003013E+03  0.7818609E-02  0.1013700E+00
       -1   -1    0    0    0  501  0.00000000000E+00  0.00000000000E+00  0.32267187514E+02  0.32267187907E+02  0.50400001928E-02 0.  1.
        1   -1    0    0  501    0  0.00000000000E+00  0.00000000000E+00 -0.19392873709E+04  0.19392873709E+04  0.50400001928E-02 0. -1.
    10030    2    1    2    0    0  0.00000000000E+00  0.00000000000E+00 -0.19070201834E+04  0.19715545588E+04  0.50030130775E+03 0.  0.
        1    1    3    3  502    0  0.12268625915E+03  0.11200959106E+03 -0.21650549467E+03  0.27289685950E+03  0.50400001928E-02 0.  1.
       -1    1    3    3    0  502 -0.12268625915E+03 -0.11200959106E+03 -0.16905146887E+04  0.16986576993E+04  0.50400001928E-02 0. -1.
</event>
<event>
 5   0  0.4803890E-02  0.5051357E+03  0.7818609E-02  0.1012447E+00
       -1   -1    0    0    0  501  0.00000000000E+00  0.00000000000E+00  0.15193389712E+03  0.15193389720E+03  0.50400001928E-02 0.  1.
        1   -1    0    0  501    0  0.00000000000E+00  0.00000000000E+00 -0.41985703537E+03  0.41985703540E+03  0.50400001928E-02 0. -1.
    10030    2    1    2    0    0  0.00000000000E+00  0.00000000000E+00 -0.26792313825E+03  0.57179093260E+03  0.50513568731E+03 0.  0.
        5    1    3    3  502    0 -0.33038056526E+02 -0.22555879714E+03 -0.25692410742E+03  0.34351182093E+03  0.46999998093E+01 0. -1.
       -5    1    3    3    0  502  0.33038056526E+02  0.22555879714E+03 -0.10999030827E+02  0.22827911167E+03  0.46999998093E+01 0.  1.
</event>
<event>
 5   0  0.5038436E-02  0.4983894E+03  0.7818609E-02  0.1014200E+00
       -1   -1    0    0    0  501  0.00000000000E+00  0.00000000000E+00  0.62482682868E+02  0.62482683071E+02  0.50400001928E-02 0.  1.
        1   -1    0    0  501    0  0.00000000000E+00  0.00000000000E+00 -0.99384315587E+03  0.99384315588E+03  0.50400001928E-02 0. -1.
    10030    2    1    2    0    0  0.00000000000E+00  0.00000000000E+00 -0.93136047300E+03  0.10563258390E+04  0.49838935319E+03 0.  0.
        1    1    3    3  502    0 -0.15114666639E+02 -0.22342656015E+03 -0.23398611031E+03  0.32387865131E+03  0.50400001928E-02 0.  1.
       -1    1    3    3    0  502  0.15114666639E+02  0.22342656015E+03 -0.69737436269E+03  0.73244718765E+03  0.50400001928E-02 0. -1.
</event>
<event>
 5   0  0.7933103E-02  0.5003341E+03  0.7818609E-02  0.1013692E+00
        2   -1    0    0  501    0  0.00000000000E+00  0.00000000000E+00  0.31995495219E+03  0.31995495220E+03  0.25500000920E-02 0.  1.
       -2   -1    0    0    0  501  0.00000000000E+00  0.00000000000E+00 -0.19560110801E+03  0.19560110803E+03  0.25500000920E-02 0. -1.
    10030    2    1    2    0    0  0.00000000000E+00  0.00000000000E+00  0.12435384418E+03  0.51555606022E+03  0.50033406107E+03 0.  0.
        5    1    3    3  502    0 -0.18196181135E+03 -0.82441606790E+02 -0.92917189444E+02  0.22036881225E+03  0.46999998093E+01 0. -1.
       -5    1    3    3    0  502  0.18196181135E+03  0.82441606790E+02  0.21727103362E+03  0.29518724798E+03  0.46999998093E+01 0.  1.
</event>
<event>
 5   0  0.8208720E-02  0.4880029E+03  0.7818609E-02  0.1016959E+00
       -2   -1    0    0    0  501  0.00000000000E+00  0.00000000000E+00  0.17729458111E+03  0.17729458113E+03  0.25500000920E-02 0.  1.
        2   -1    0    0  501    0  0.00000000000E+00  0.00000000000E+00 -0.33580671163E+03  0.33580671164E+03  0.25500000920E-02 0. -1.
    10030    2    1    2    0    0  0.00000000000E+00  0.00000000000E+00 -0.15851213052E+03  0.51310129277E+03  0.48800291097E+03 0.  0.
        3    1    3    3  502    0 -0.40082596216E+02 -0.24176263610E+02 -0.33104156956E+03  0.33433461864E+03  0.10100000352E+00 0. -1.
       -3    1    3    3    0  502  0.40082596216E+02  0.24176263610E+02  0.17252943904E+03  0.17876667413E+03  0.10100000352E+00 0.  1.
</event>
<event>
 5   0  0.7933103E-02  0.5322029E+03  0.7818609E-02  0.1005699E+00
       -2   -1    0    0    0  501  0.00000000000E+00  0.00000000000E+00  0.68921343388E+02  0.68921343436E+02  0.25500000920E-02 0.  1.
        2   -1    0    0  501    0  0.00000000000E+00  0.00000000000E+00 -0.10274029516E+04  0.10274029516E+04  0.25500000920E-02 0. -1.
    10030    2    1    2    0    0  0.00000000000E+00  0.00000000000E+00 -0.95848160821E+03  0.10963242950E+04  0.53220293743E+03 0.  0.
        5    1    3    3  502    0 -0.14775317633E+02  0.14885203441E+03 -0.25987206974E+02  0.15189688306E+03  0.46999998093E+01 0.  1.
       -5    1    3    3    0  502  0.14775317633E+02 -0.14885203441E+03 -0.93249440123E+03  0.94442741197E+03  0.46999998093E+01 0. -1.
</event>
<event>
 5   0  0.4865501E-02  0.5004441E+03  0.7818609E-02  0.1013663E+00
       -1   -1    0    0    0  501  0.00000000000E+00  0.00000000000E+00  0.41356048381E+02  0.41356048688E+02  0.50400001928E-02 0.  1.
        1   -1    0    0  501    0  0.00000000000E+00  0.00000000000E+00 -0.15139520396E+04  0.15139520396E+04  0.50400001928E-02 0. -1.
    10030    2    1    2    0    0  0.00000000000E+00  0.00000000000E+00 -0.14725959913E+04  0.15553080883E+04  0.50044409895E+03 0.  0.
        2    1    3    3  502    0 -0.18647305411E+03  0.15720703025E+03 -0.56256847453E+03  0.61316354981E+03  0.25500000920E-02 0. -1.
       -2    1    3    3    0  502  0.18647305411E+03 -0.15720703025E+03 -0.91002751672E+03  0.94214453852E+03  0.25500000920E-02 0.  1.
</event>
<event>
 5   0  0.7776070E-02  0.4992866E+03  0.7818609E-02  0.1013965E+00
        2   -1    0    0  501    0  0.00000000000E+00  0.00000000000E+00  0.60297578613E+02  0.60297578667E+02  0.25500000920E-02 0. -1.
       -2   -1    0    0    0  501  0.00000000000E+00  0.00000000000E+00 -0.10335700940E+04  0.10335700940E+04  0.25500000920E-02 0.  1.
    10030    2    1    2    0    0  0.00000000000E+00  0.00000000000E+00 -0.97327251536E+03  0.10938676726E+04  0.49928658714E+03 0.  0.
        4    1    3    3  502    0  0.19337785925E+03 -0.14924058644E+03 -0.37380345309E+03  0.44654046125E+03  0.12699999809E+01 0. -1.
       -4    1    3    3    0  502 -0.19337785925E+03  0.14924058644E+03 -0.59946906227E+03  0.64732721139E+03  0.12699999809E+01 0.  1.
</event>
<event>
 5   0  0.5038436E-02  0.5002357E+03  0.7818609E-02  0.1013717E+00
        1   -1    0    0  501    0  0.00000000000E+00  0.00000000000E+00  0.54896706626E+03  0.54896706628E+03  0.50400001928E-02 0.  1.
       -1   -1    0    0    0  501  0.00000000000E+00  0.00000000000E+00 -0.11395753510E+03  0.11395753521E+03  0.50400001928E-02 0. -1.
    10030    2    1    2    0    0  0.00000000000E+00  0.00000000000E+00  0.43500953116E+03  0.66292460149E+03  0.50023567952E+03 0.  0.
        1    1    3    3  502    0  0.69340448042E+02 -0.12497323041E+03  0.48952313246E+03  0.50996009971E+03  0.50400001928E-02 0.  1.
       -1    1    3    3    0  502 -0.69340448042E+02  0.12497323041E+03 -0.54513601303E+02  0.15296450179E+03  0.50400001928E-02 0. -1.
</event>
<event>
 5   0  0.8208720E-02  0.4998607E+03  0.7818609E-02  0.1013815E+00
        2   -1    0    0  501    0  0.00000000000E+00  0.00000000000E+00  0.70080683586E+03  0.70080683587E+03  0.25500000920E-02 0.  1.
       -2   -1    0    0    0  501  0.00000000000E+00  0.00000000000E+00 -0.89133235974E+02  0.89133236011E+02  0.25500000920E-02 0. -1.
    10030    2    1    2    0    0  0.00000000000E+00  0.00000000000E+00  0.61167359989E+03  0.78994007188E+03  0.49986070496E+03 0.  0.
        3    1    3    3  502    0 -0.20129148064E+03 -0.11999757971E+03  0.16854440967E+03  0.28866054034E+03  0.10100000352E+00 0. -1.
       -3    1    3    3    0  502  0.20129148064E+03  0.11999757971E+03  0.44312919021E+03  0.50127953154E+03  0.10100000352E+00 0.  1.
</event>
<event>
 5   0  0.5038436E-02  0.4980946E+03  0.7818609E-02  0.1014277E+00
        1   -1    0    0  501    0  0.00000000000E+00  0.00000000000E+00  0.11671692967E+04  0.11671692967E+04  0.50400001928E-02 0.  1.
       -1   -1    0    0    0  501  0.00000000000E+00  0.00000000000E+00 -0.53141020933E+02  0.53141021172E+02  0.50400001928E-02 0. -1.
    10030    2    1    2    0    0  0.00000000000E+00  0.00000000000E+00  0.11140282758E+04  0.12203103179E+04  0.49809464233E+03 0.  0.
        1    1    3    3  502    0 -0.48340445044E+02 -0.92880090422E+02  0.34049120193E+01  0.10476212710E+03  0.50400001928E-02 0. -1.
       -1    1    3    3    0  502  0.48340445044E+02  0.92880090422E+02  0.11106233637E+04  0.11155481908E+04  0.50400001928E-02 0.  1.
</event>
<event>
 5   0  0.3210875E-02  0.5038840E+03  0.7818609E-02  0.1012770E+00
       -3   -1    0    0    0  501  0.00000000000E+00  0.00000000000E+00  0.15941078247E+03  0.15941081447E+03  0.10100000352E+00 0. -1.
        3   -1    0    0  501    0  0.00000000000E+00  0.00000000000E+00 -0.39818363548E+03  0.39818364829E+03  0.10100000352E+00 0.  1.
    10030    2    1    2    0    0  0.00000000000E+00  0.00000000000E+00 -0.23877285301E+03  0.55759446275E+03  0.50388402392E+03 0.  0.
        5    1    3    3  502    0  0.53349183070E+02  0.15105993454E+03 -0.33449694448E+03  0.37091176177E+03  0.46999998093E+01 0.  1.
       -5    1    3    3    0  502 -0.53349183070E+02 -0.15105993454E+03  0.95724091471E+02  0.18668270098E+03  0.46999998093E+01 0. -1.
</event>
<event>
 5   0  0.7933103E-02  0.4994718E+03  0.7818609E-02  0.1013917E+00
       -2   -1    0    0    0  501  0.00000000000E+00  0.00000000000E+00  0.48126089550E+02  0.48126089617E+02  0.25500000920E-02 0. -1.
        2   -1    0    0  501    0  0.00000000000E+00  0.00000000000E+00 -0.12959296641E+04  0.12959296641E+04  0.25500000920E-02 0.  1.
    10030    2    1    2    0    0  0.00000000000E+00  0.00000000000E+00 -0.12478035745E+04  0.13440557537E+04  0.49947182948E+03 0.  0.
        5    1    3    3  502    0  0.22116472541E+02 -0.10423806802E+03 -0.16251085543E+02  0.10789300701E+03  0.46999998093E+01 0. -1.
       -5    1    3    3    0  502 -0.22116472541E+02  0.10423806802E+03 -0.12315524890E+04  0.12361627467E+04  0.46999998093E+01 0.  1.
</event>
<event>
 5   0  0.4803890E-02  0.4992538E+03  0.7818609E-02  0.1013974E+00
       -1   -1    0    0    0  501  0.00000000000E+00  0.00000000000E+00  0.16552019183E+03  0.16552019191E+03  0.50400001928E-02 0. -1.
        1   -1    0    0  501    0  0.00000000000E+00  0.00000000000E+00 -0.37647123901E+03  0.37647123905E+03  0.50400001928E-02 0.  1.
    10030    2    1    2    0    0  0.00000000000E+00  0.00000000000E+00 -0.21095104718E+03  0.54199143095E+03  0.49925381012E+03 0.  0.
        5    1    3    3  502    0 -0.16120285344E+03  0.59455576260E+02 -0.30199718217E+03  0.34748483929E+03  0.46999998093E+01 0.  1.
       -5    1    3    3    0  502  0.16120285344E+03 -0.59455576260E+02  0.91046134981E+02  0.19450659166E+03  0.46999998093E+01 0. -1.
</event>
<event>
 5   0  0.4865501E-02  0.5216743E+03  0.7818609E-02  0.1008271E+00
       -1   -1    0    0    0  501  0.00000000000E+00  0.00000000000E+00  0.23721622536E+03  0.23721622541E+03  0.50400001928E-02 0. -1.
        1   -1    0    0  501    0  0.00000000000E+00  0.00000000000E+00 -0.28681018333E+03  0.28681018338E+03  0.50400001928E-02 0.  1.
    10030    2    1    2    0    0  0.00000000000E+00  0.00000000000E+00 -0.49593957970E+02  0.52402640879E+03  0.52167433945E+03 0.  0.
        2    1    3    3  502    0 -0.13184670950E+03  0.23365836816E+02 -0.24965106565E+03  0.28329343748E+03  0.25500000920E-02 0.  1.
       -2    1    3    3    0  502  0.13184670950E+03 -0.23365836816E+02  0.20005710768E+03  0.24073297131E+03  0.25500000920E-02 0. -1.
</event>
<event>
 5   0  0.7698747E-02  0.4979675E+03  0.7818609E-02  0.1014311E+00
       -2   -1    0    0    0  501  0.00000000000E+00  0.00000000000E+00  0.21987241248E+03  0.21987241249E+03  0.25500000920E-02 0.  1.
        2   -1    0    0  501    0  0.00000000000E+00  0.00000000000E+00 -0.28194946401E+03  0.28194946402E+03  0.25500000920E-02 0. -1.
    10030    2    1    2    0    0  0.00000000000E+00  0.00000000000E+00 -0.62077051529E+02  0.50182187651E+03  0.49796750438E+03 0.  0.
        2    1    3    3  502    0 -0.13176961731E+03  0.61544790652E+02 -0.23469660263E+03  0.27610412636E+03  0.25500000920E-02 0. -1.
       -2    1    3    3    0  502  0.13176961731E+03 -0.61544790652E+02  0.17261955110E+03  0.22571775015E+03  0.25500000920E-02 0.  1.
</event>
<event>
 5   0  0.8208720E-02  0.5218824E+03  0.7818609E-02  0.1008220E+00
        2   -1    0    0  501    0  0.00000000000E+00  0.00000000000E+00  0.16606361703E+04  0.16606361703E+04  0.25500000920E-02 0.  1.
       -2   -1    0    0    0  501  0.00000000000E+00  0.00000000000E+00 -0.41002538596E+02  0.41002538675E+02  0.25500000920E-02 0. -1.
    10030    2    1    2    0    0  0.00000000000E+00  0.00000000000E+00  0.16196336317E+04  0.17016387090E+04  0.52188235738E+03 0.  0.
        3    1    3    3  502    0  0.19261775436E+03  0.42256479374E+02  0.13670141937E+04  0.13811643730E+04  0.10100000352E+00 0.  1.
       -3    1    3    3    0  502 -0.19261775436E+03 -0.42256479374E+02  0.25261943801E+03  0.32047433595E+03  0.10100000352E+00 0. -1.
</event>
<event>
 5   0  0.4884478E-02  0.5010895E+03  0.7818609E-02  0.1013495E+00
        1   -1    0    0  501    0  0.00000000000E+00  0.00000000000E+00  0.19847398778E+03  0.19847398785E+03  0.50400001928E-02 0.  1.
       -1   -1    0    0    0  501  0.00000000000E+00  0.00000000000E+00 -0.31627658051E+03  0.31627658055E+03  0.50400001928E-02 0. -1.
    10030    2    1    2    0    0  0.00000000000E+00  0.00000000000E+00 -0.11780259273E+03  0.51475056840E+03  0.50108950978E+03 0.  0.
        3    1    3    3  502    0 -0.10365458373E+03 -0.19279708212E+03 -0.18411647328E+03  0.28603124574E+03  0.10100000352E+00 0. -1.
       -3    1    3    3    0  502  0.10365458373E+03  0.19279708212E+03  0.66313880551E+02  0.22871932266E+03  0.10100000352E+00 0.  1.
</event>
<event>
 5   0  0.3210875E-02  0.4994448E+03  0.7818609E-02  0.1013924E+00
        4   -1    0    0  501    0  0.00000000000E+00  0.00000000000E+00  0.25020836565E+03  0.25021158875E+03  0.12699999809E+01 0.  1.
       -4   -1    0    0    0  501  0.00000000000E+00  0.00000000000E+00 -0.24923093233E+03  0.24923416806E+03  0.12699999809E+01 0. -1.
    10030    2    1    2    0    0  0.00000000000E+00  0.00000000000E+00  0.97743332406E+00  0.49944575681E+03  0.49944480037E+03 0.  0.
        2    1    3    3  502    0 -0.14683001421E+03  0.16055986545E+03 -0.12207886152E+03  0.24948300924E+03  0.25500000920E-02 0. -1.
       -2    1    3    3    0  502  0.14683001421E+03 -0.16055986545E+03  0.12305629484E+03  0.24996274757E+03  0.25500000920E-02 0.  1.
</event>
<event>
 5   0  0.7776070E-02  0.4998315E+03  0.7818609E-02  0.1013823E+00
        2   -1    0    0  501    0  0.00000000000E+00  0.00000000000E+00  0.73285214686E+03  0.73285214686E+03  0.25500000920E-02 0. -1.
       -2   -1    0    0    0  501  0.00000000000E+00  0.00000000000E+00 -0.85225764379E+02  0.85225764417E+02  0.25500000920E-02 0.  1.
    10030    2    1    2    0    0  0.00000000000E+00  0.00000000000E+00  0.64762638248E+03  0.81807791128E+03  0.49983150925E+03 0.  0.
        4    1    3    3  502    0  0.12473582599E+03 -0.18718783198E+03  0.14558514720E+03  0.26794581301E+03  0.12699999809E+01 0.  1.
       -4    1    3    3    0  502 -0.12473582599E+03  0.18718783198E+03  0.50204123528E+03  0.55013209827E+03  0.12699999809E+01 0. -1.
</event>
<event>
 5   0  0.7698747E-02  0.5295391E+03  0.7818609E-02  0.1006344E+00
        2   -1    0    0  501    0  0.00000000000E+00  0.00000000000E+00  0.44838468294E+03  0.44838468295E+03  0.25500000920E-02 0. -1.
       -2   -1    0    0    0  501  0.00000000000E+00  0.00000000000E+00 -0.15634547643E+03  0.15634547645E+03  0.25500000920E-02 0.  1.
    10030    2    1    2    0    0  0.00000000000E+00  0.00000000000E+00  0.29203920651E+03  0.60473015940E+03  0.52953910861E+03 0.  0.
        2    1    3    3  502    0  0.44869578336E+02  0.36449117399E+02  0.44108978844E+03  0.44486179730E+03  0.25500000920E-02 0. -1.
       -2    1    3    3    0  502 -0.44869578336E+02 -0.36449117399E+02 -0.14905058193E+03  0.15986836210E+03  0.25500000920E-02 0.  1.
</event>
<event>
 5   0  0.3210875E-02  0.4987876E+03  0.7818609E-02  0.1014096E+00
       -4   -1    0    0    0  501  0.00000000000E+00  0.00000000000E+00  0.34155260855E+03  0.34155496968E+03  0.12699999809E+01 0.  1.
        4   -1    0    0  501    0  0.00000000000E+00  0.00000000000E+00 -0.18209634466E+03  0.18210077331E+03  0.12699999809E+01 0. -1.
    10030    2    1    2    0    0  0.00000000000E+00  0.00000000000E+00  0.15945626389E+03  0.52365574298E+03  0.49878756707E+03 0.  0.
        1    1    3    3  502    0  0.18340139145E+03  0.98938819611E+01  0.25685028226E+03  0.31576261148E+03  0.50400001928E-02 0.  1.
       -1    1    3    3    0  502 -0.18340139145E+03 -0.98938819611E+01 -0.97394018363E+02  0.20789313150E+03  0.50400001928E-02 0. -1.
</event>
<event>
 5   0  0.7698747E-02  0.5004672E+03  0.7818609E-02  0.1013657E+00
        2   -1    0    0  501    0  0.00000000000E+00  0.00000000000E+00  0.49989998818E+03  0.49989998819E+03  0.25500000920E-02 0.  1.
       -2   -1    0    0    0  501  0.00000000000E+00  0.00000000000E+00 -0.12525877702E+03  0.12525877704E+03  0.25500000920E-02 0. -1.
    10030    2    1    2    0    0  0.00000000000E+00  0.00000000000E+00  0.37464121116E+03  0.62515876523E+03  0.50046722634E+03 0.  0.
        2    1    3    3  502    0 -0.88674125676E+02  0.15680346747E+02 -0.10431755940E+03  0.13780829817E+03  0.25500000920E-02 0. -1.
       -2    1    3    3    0  502  0.88674125676E+02 -0.15680346747E+02  0.47895877056E+03  0.48735046706E+03  0.25500000920E-02 0.  1.
</event>
<event>
 5   0  0.7933103E-02  0.4999427E+03  0.7818609E-02  0.1013794E+00
        2   -1    0    0  501    0  0.00000000000E+00  0.00000000000E+00  0.67436148531E+03  0.67436148531E+03  0.25500000920E-02 0. -1.
       -2   -1    0    0    0  501  0.00000000000E+00  0.00000000000E+00 -0.92659025257E+02  0.92659025292E+02  0.25500000920E-02 0.  1.
    10030    2    1    2    0    0  0.00000000000E+00  0.00000000000E+00  0.58170246005E+03  0.76702051060E+03  0.49994270838E+03 0.  0.
        5    1    3    3  502    0  0.15853756563E+03 -0.18930378618E+03  0.35014240284E+03  0.42847622506E+03  0.46999998093E+01 0. -1.
       -5    1    3    3    0  502 -0.15853756563E+03  0.18930378618E+03  0.23156005721E+03  0.33854428554E+03  0.46999998093E+01 0.  1.
</event>
<event>
 5   0  0.7776070E-02  0.5001600E+03  0.7818609E-02  0.1013737E+00
       -2   -1    0    0    0  501  0.00000000000E+00  0.00000000000E+00  0.25510872531E+03  0.25510872532E+03  0.25500000920E-02 0.  1.
        2   -1    0    0  501    0  0.00000000000E+00  0.00000000000E+00 -0.24515042454E+03  0.24515042455E+03  0.25500000920E-02 0. -1.
    10030    2    1    2    0    0  0.00000000000E+00  0.00000000000E+00  0.99583007682E+01  0.50025914987E+03  0.50016002367E+03 0.  0.
        4    1    3    3  502    0 -0.11525447296E+03 -0.22138570179E+03  0.20576372070E+02  0.25044005766E+03  0.12699999809E+01 0.  1.
       -4    1    3    3    0  502  0.11525447296E+03  0.22138570179E+03 -0.10618071301E+02  0.24981909221E+03  0.12699999809E+01 0. -1.
</event>
<event>
 5   0  0.7698747E-02  0.5000667E+03  0.7818609E-02  0.1013762E+00
       -2   -1    0    0    0  501  0.00000000000E+00  0.00000000000E+00  0.14133662678E+03  0.14133662680E+03  0.25500000920E-02 0.  1.
        2   -1    0    0  501    0  0.00000000000E+00  0.00000000000E+00 -0.44232462289E+03  0.44232462290E+03  0.25500000920E-02 0. -1.
    10030    2    1    2    0    0  0.00000000000E+00  0.00000000000E+00 -0.30098799611E+03  0.58366124970E+03  0.50006667616E+03 0.  0.
        2    1    3    3  502    0  0.39307628748E+02 -0.41023013448E+02  0.13370260574E+03  0.14527341153E+03  0.25500000920E-02 0.  1.
       -2    1    3    3    0  502 -0.39307628748E+02  0.41023013448E+02 -0.43469060185E+03  0.43838783817E+03  0.25500000920E-02 0. -1.
</event>
<event>
 5   0  0.7933103E-02  0.4961376E+03  0.7818609E-02  0.1014792E+00
        2   -1    0    0  501    0  0.00000000000E+00  0.00000000000E+00  0.77322013637E+03  0.77322013637E+03  0.25500000920E-02 0.  1.
       -2   -1    0    0    0  501  0.00000000000E+00  0.00000000000E+00 -0.79586802056E+02  0.79586802097E+02  0.25500000920E-02 0. -1.
    10030    2    1    2    0    0  0.00000000000E+00  0.00000000000E+00  0.69363333431E+03  0.85280693847E+03  0.49613755334E+03 0.  0.
        5    1    3    3  502    0 -0.27827637271E+02  0.10066439376E+03 -0.39870384142E+02  0.11189028152E+03  0.46999998093E+01 0. -1.
       -5    1    3    3    0  502  0.27827637271E+02 -0.10066439376E+03  0.73350371846E+03  0.74091665696E+03  0.46999998093E+01 0.  1.
</event>
<event>
 5   0  0.5038436E-02  0.4925970E+03  0.7818609E-02  0.1015729E+00
       -1   -1    0    0    0  501  0.00000000000E+00  0.00000000000E+00  0.19894435449E+03  0.19894435455E+03  0.50400001928E-02 0. -1.
        1   -1    0    0  501    0  0.00000000000E+00  0.00000000000E+00 -0.30492417264E+03  0.30492417268E+03  0.50400001928E-02 0.  1.
    10030    2    1    2    0    0  0.00000000000E+00  0.00000000000E+00 -0.10597981815E+03  0.50386852723E+03  0.49259696597E+03 0.  0.
        1    1    3    3  502    0 -0.94028273632E+02  0.17038824016E+03 -0.20740603448E+03  0.28441295995E+03  0.50400001928E-02 0.  1.
       -1    1    3    3    0  502  0.94028273632E+02 -0.17038824016E+03  0.10142621632E+03  0.21945556728E+03  0.50400001928E-02 0. -1.
</event>
<event>
 5   0  0.8208720E-02  0.5026452E+03  0.7818609E-02  0.1013091E+00
       -2   -1    0    0    0  501  0.00000000000E+00  0.00000000000E+00  0.49169678280E+02  0.49169678346E+02  0.25500000920E-02 0. -1.
        2   -1    0    0  501    0  0.00000000000E+00  0.00000000000E+00 -0.12845936550E+04  0.12845936550E+04  0.25500000920E-02 0.  1.
    10030    2    1    2    0    0  0.00000000000E+00  0.00000000000E+00 -0.12354239768E+04  0.13337633334E+04  0.50264522990E+03 0.  0.
        3    1    3    3  502    0  0.24309597228E+03  0.59219776606E+02 -0.68052813200E+03  0.72506632961E+03  0.10100000352E+00 0. -1.
       -3    1    3    3    0  502 -0.24309597228E+03 -0.59219776606E+02 -0.55489584475E+03  0.60869700378E+03  0.10100000352E+00 0.  1.
</event>
<event>
 5   0  0.5038436E-02  0.4999573E+03  0.7818609E-02  0.1013790E+00
       -1   -1    0    0    0  501  0.00000000000E+00  0.00000000000E+00  0.18132637717E+04  0.18132637717E+04  0.50400001928E-02 0. -1.
        1   -1    0    0  501    0  0.00000000000E+00  0.00000000000E+00 -0.34462343878E+02  0.34462344247E+02  0.50400001928E-02 0.  1.
    10030    2    1    2    0    0  0.00000000000E+00  0.00000000000E+00  0.17788014278E+04  0.18477261159E+04  0.49995727813E+03 0.  0.
        1    1    3    3  502    0  0.18764968349E+03 -0.15564553590E+03  0.68524897092E+03  0.72732667263E+03  0.50400001928E-02 0.  1.
       -1    1    3    3    0  502 -0.18764968349E+03  0.15564553590E+03  0.10935524569E+04  0.11203994433E+04  0.50400001928E-02 0. -1.
</event>
<event>
 5   0  0.7698747E-02  0.4998369E+03  0.7818609E-02  0.1013821E+00
        2   -1    0    0  501    0  0.00000000000E+00  0.00000000000E+00  0.24863105804E+03  0.24863105805E+03  0.25500000920E-02 0.  1.
       -2   -1    0    0    0  501  0.00000000000E+00  0.00000000000E+00 -0.25121254955E+03  0.25121254957E+03  0.25500000920E-02 0. -1.
    10030    2    1    2    0    0  0.00000000000E+00  0.00000000000E+00 -0.25814915156E+01  0.49984360762E+03  0.49983694139E+03 0.  0.
        2    1    3    3  502    0  0.19713457774E+03 -0.10788181252E+03 -0.11064811294E+03  0.25048659070E+03  0.25500000920E-02 0. -1.
       -2    1    3    3    0  502 -0.19713457774E+03  0.10788181252E+03  0.10806662143E+03  0.24935701692E+03  0.25500000920E-02 0.  1.
</event>
<event>
 5   0  0.7933103E-02  0.5031856E+03  0.7818609E-02  0.1012951E+00
       -2   -1    0    0    0  501  0.00000000000E+00  0.00000000000E+00  0.44131126413E+02  0.44131126487E+02  0.25500000920E-02 0.  1.
        2   -1    0    0  501    0  0.00000000000E+00  0.00000000000E+00 -0.14343377468E+04  0.14343377468E+04  0.25500000920E-02 0. -1.
    10030    2    1    2    0    0  0.00000000000E+00  0.00000000000E+00 -0.13902066204E+04  0.14784688733E+04  0.50318561378E+03 0.  0.
        5    1    3    3  502    0 -0.51540931514E+02 -0.53484335757E+02 -0.14012531138E+04  0.14032282140E+04  0.46999998093E+01 0. -1.
       -5    1    3    3    0  502  0.51540931514E+02  0.53484335757E+02  0.11046493379E+02  0.75240659267E+02  0.46999998093E+01 0.  1.
</event>
<event>
 5   0  0.5038436E-02  0.5000534E+03  0.7818609E-02  0.1013765E+00
        1   -1    0    0  501    0  0.00000000000E+00  0.00000000000E+00  0.48099432707E+03  0.48099432710E+03  0.50400001928E-02 0. -1.
       -1   -1    0    0    0  501  0.00000000000E+00  0.00000000000E+00 -0.12996692142E+03  0.12996692152E+03  0.50400001928E-02 0.  1.
    10030    2    1    2    0    0  0.00000000000E+00  0.00000000000E+00  0.35102740565E+03  0.61096124862E+03  0.50005340494E+03 0.  0.
        1    1    3    3  502    0  0.19154828829E+03 -0.16041360683E+03  0.16391762113E+03  0.29881810278E+03  0.50400001928E-02 0.  1.
       -1    1    3    3    0  502 -0.19154828829E+03  0.16041360683E+03  0.18710978452E+03  0.31214314584E+03  0.50400001928E-02 0. -1.
</event>
<event>
 5   0  0.5191358E-02  0.5160046E+03  0.7818609E-02  0.1009684E+00
        1   -1    0    0  501    0  0.00000000000E+00  0.00000000000E+00  0.35084062013E+03  0.35084062016E+03  0.50400001928E-02 0.  1.
       -1   -1    0    0    0  501  0.00000000000E+00  0.00000000000E+00 -0.18973054813E+03  0.18973054820E+03  0.50400001928E-02 0. -1.
    10030    2    1    2    0    0  0.00000000000E+00  0.00000000000E+00  0.16111007199E+03  0.54057116836E+03  0.51600458600E+03 0.  0.
        4    1    3    3  502    0 -0.13755522298E+03  0.54713209131E+01  0.30914566446E+03  0.33841399125E+03  0.12699999809E+01 0.  1.
       -4    1    3    3    0  502  0.13755522298E+03 -0.54713209131E+01 -0.14803559246E+03  0.20215717711E+03  0.12699999809E+01 0. -1.
</event>
<event>
 5   0  0.4884478E-02  0.5001120E+03  0.7818609E-02  0.1013750E+00
       -1   -1    0    0    0  501  0.00000000000E+00  0.00000000000E+00  0.67007584248E+02  0.67007584437E+02  0.50400001928E-02 0. -1.
        1   -1    0    0  501    0  0.00000000000E+00  0.00000000000E+00 -0.93314803880E+03  0.93314803881E+03  0.50400001928E-02 0.  1.
    10030    2    1    2    0    0  0.00000000000E+00  0.00000000000E+00 -0.86614045455E+03  0.10001556233E+04  0.50011197117E+03 0.  0.
        3    1    3    3  502    0 -0.18874866881E+03 -0.12528151874E+03 -0.64477696760E+03  0.68341705208E+03  0.10100000352E+00 0.  1.
       -3    1    3    3    0  502  0.18874866881E+03  0.12528151874E+03 -0.22136348695E+03  0.31673857118E+03  0.10100000352E+00 0. -1.
</event>
<event>
 5   0  0.4803890E-02  0.4996036E+03  0.7818609E-02  0.1013882E+00
        1   -1    0    0  501    0  0.00000000000E+00  0.00000000000E+00  0.74681097745E+03  0.74681097746E+03  0.50400001928E-02 0.  1.
       -1   -1    0    0    0  501  0.00000000000E+00  0.00000000000E+00 -0.83556530250E+02  0.83556530402E+02  0.50400001928E-02 0. -1.
    10030    2    1    2    0    0  0.00000000000E+00  0.00000000000E+00  0.66325444720E+03  0.83036750787E+03  0.49960357924E+03 0.  0.
        5    1    3    3  502    0  0.11787087337E+03 -0.15660482049E+03  0.58889791337E+03  0.62067822176E+03  0.46999998093E+01 0.  1.
       -5    1    3    3    0  502 -0.11787087337E+03  0.15660482049E+03  0.74356533824E+02  0.20968928611E+03  0.46999998093E+01 0. -1.
</event>
<event>
 5   0  0.4803890E-02  0.5115997E+03  0.7818609E-02  0.1010795E+00
        1   -1    0    0  501    0  0.00000000000E+00  0.00000000000E+00  0.11585866994E+03  0.11585867005E+03  0.50400001928E-02 0.  1.
       -1   -1    0    0    0  501  0.00000000000E+00  0.00000000000E+00 -0.56477060115E+03  0.56477060117E+03  0.50400001928E-02 0. -1.
    10030    2    1    2    0    0  0.00000000000E+00  0.00000000000E+00 -0.44891193121E+03  0.68062927122E+03  0.51159972915E+03 0.  0.
        5    1    3    3  502    0 -0.15793048859E+03  0.20061991387E+03 -0.24423779659E+03  0.35336182639E+03  0.46999998093E+01 0. -1.
       -5    1    3    3    0  502  0.15793048859E+03 -0.20061991387E+03 -0.20467413462E+03  0.32726744484E+03  0.46999998093E+01 0.  1.
</event>
<event>
 5   0  0.4884478E-02  0.5020673E+03  0.7818609E-02  0.1013241E+00
        1   -1    0    0  501    0  0.00000000000E+00  0.00000000000E+00  0.15001541979E+04  0.15001541979E+04  0.50400001928E-02 0. -1.
       -1   -1    0    0    0  501  0.00000000000E+00  0.00000000000E+00 -0.42007617708E+02  0.42007618011E+02  0.50400001928E-02 0.  1.
    10030    2    1    2    0    0  0.00000000000E+00  0.00000000000E+00  0.14581465802E+04  0.15421618159E+04  0.50206734324E+03 0.  0.
        3    1    3    3  502    0 -0.11867295553E+03 -0.30781953123E+02  0.14019417973E+04  0.14072922981E+04  0.10100000352E+00 0. -1.
       -3    1    3    3    0  502  0.11867295553E+03  0.30781953123E+02  0.56204782827E+02  0.13486951778E+03  0.10100000352E+00 0.  1.
</event>
<event>
 5   0  0.7933103E-02  0.4991410E+03  0.7818609E-02  0.1014003E+00
       -2   -1    0    0    0  501  0.00000000000E+00  0.00000000000E+00  0.76814003127E+02  0.76814003169E+02  0.25500000920E-02 0. -1.
        2   -1    0    0  501    0  0.00000000000E+00  0.00000000000E+00 -0.81086053468E+03  0.81086053468E+03  0.25500000920E-02 0.  1.
    10030    2    1    2    0    0  0.00000000000E+00  0.00000000000E+00 -0.73404653155E+03  0.88767453785E+03  0.49914103685E+03 0.  0.
        5    1    3    3  502    0 -0.82051593204E+02 -0.84228172552E+02  0.24373185492E+02  0.12017899637E+03  0.46999998093E+01 0. -1.
       -5    1    3    3    0  502  0.82051593204E+02  0.84228172552E+02 -0.75841971704E+03  0.76749554148E+03  0.46999998093E+01 0.  1.
</event>
<event>
 5   0  0.3210875E-02  0.4949052E+03  0.7818609E-02  0.1015117E+00
        3   -1    0    0  501    0  0.00000000000E+00  0.00000000000E+00  0.48619434614E+03  0.48619435663E+03  0.10100000352E+00 0.  1.
       -3   -1    0    0    0  501  0.00000000000E+00  0.00000000000E+00 -0.12594297704E+03  0.12594301754E+03  0.10100000352E+00 0. -1.
    10030    2    1    2    0    0  0.00000000000E+00  0.00000000000E+00  0.36025136911E+03  0.61213737417E+03  0.49490515850E+03 0.  0.
        1    1    3    3  502    0 -0.16479931988E+03 -0.39360133695E+02  0.40319192740E+03  0.43734627734E+03  0.50400001928E-02 0.  1.
       -1    1    3    3    0  502  0.16479931988E+03  0.39360133695E+02 -0.42940558299E+02  0.17479109683E+03  0.50400001928E-02 0. -1.
</event>
<event>
 5   0  0.4803890E-02  0.4987854E+03  0.7818609E-02  0.1014096E+00
        1   -1    0    0  501    0  0.00000000000E+00  0.00000000000E+00  0.13570163116E+03  0.13570163125E+03  0.50400001928E-02 0. -1.
       -1   -1    0    0    0  501  0.00000000000E+00  0.00000000000E+00 -0.45833436328E+03  0.45833436331E+03  0.50400001928E-02 0.  1.
    10030    2    1    2    0    0  0.00000000000E+00  0.00000000000E+00 -0.32263273212E+03  0.59403599456E+03  0.49878540776E+03 0.  0.
        5    1    3    3  502    0 -0.97328409775E+01  0.16346421669E+03 -0.38526642080E+03  0.41864971435E+03  0.46999998093E+01 0.  1.
       -5    1    3    3    0  502  0.97328409775E+01 -0.16346421669E+03  0.62633688677E+02  0.17538628021E+03  0.46999998093E+01 0. -1.
</event>
<event>
 5   0  0.7933103E-02  0.5060416E+03  0.7818609E-02  0.1012214E+00
        2   -1    0    0  501    0  0.00000000000E+00  0.00000000000E+00  0.11393330616E+04  0.11393330616E+04  0.25500000920E-02 0.  1.
       -2   -1    0    0    0  501  0.00000000000E+00  0.00000000000E+00 -0.56190346076E+02  0.56190346134E+02  0.25500000920E-02 0. -1.
    10030    2    1    2    0    0  0.00000000000E+00  0.00000000000E+00  0.10831427156E+04  0.11955234078E+04  0.50604157562E+03 0.  0.
        5    1    3    3  502    0  0.98640841643E+02  0.23073923004E+02  0.10892181415E+04  0.10939290065E+04  0.46999998093E+01 0.  1.
       -5    1    3    3    0  502 -0.98640841643E+02 -0.23073923004E+02 -0.60754259485E+01  0.10159440123E+03  0.46999998093E+01 0. -1.
</event>
<event>
 5   0  0.5191358E-02  0.4995478E+03  0.7818609E-02  0.1013897E+00
       -1   -1    0    0    0  501  0.00000000000E+00  0.00000000000E+00  0.86607388032E+02  0.86607388178E+02  0.50400001928E-02 0. -1.
        1   -1    0    0  501    0  0.00000000000E+00  0.00000000000E+00 -0.72034274761E+03  0.72034274763E+03  0.50400001928E-02 0.  1.
    10030    2    1    2    0    0  0.00000000000E+00  0.00000000000E+00 -0.63373535958E+03  0.80695013581E+03  0.49954781122E+03 0.  0.
        4    1    3    3  502    0 -0.22380316058E+03  0.75031146396E+02 -0.18496215504E+03  0.29988354292E+03  0.12699999809E+01 0. -1.
       -4    1    3    3    0  502  0.22380316058E+03 -0.75031146396E+02 -0.44877320454E+03  0.50706659289E+03  0.12699999809E+01 0.  1.
</event>
<event>
 5   0  0.4803890E-02  0.5009803E+03  0.7818609E-02  0.1013523E+00
        1   -1    0    0  501    0  0.00000000000E+00  0.00000000000E+00  0.14601547472E+04  0.14601547472E+04  0.50400001928E-02 0.  1.
       -1   -1    0    0    0  501  0.00000000000E+00  0.00000000000E+00 -0.42971685803E+02  0.42971686099E+02  0.50400001928E-02 0. -1.
    10030    2    1    2    0    0  0.00000000000E+00  0.00000000000E+00  0.14171830614E+04  0.15031264333E+04  0.50098028403E+03 0.  0.
        5    1    3    3  502    0 -0.14083037158E+02 -0.21635216039E+03  0.33244711390E+03  0.39692538691E+03  0.46999998093E+01 0. -1.
       -5    1    3    3    0  502  0.14083037158E+02  0.21635216039E+03  0.10847359475E+04  0.11062010463E+04  0.46999998093E+01 0.  1.
</event>
<event>
 5   0  0.8208720E-02  0.4976889E+03  0.7818609E-02  0.1014384E+00
       -2   -1    0    0    0  501  0.00000000000E+00  0.00000000000E+00  0.86486236453E+02  0.86486236491E+02  0.25500000920E-02 0. -1.
        2   -1    0    0  501    0  0.00000000000E+00  0.00000000000E+00 -0.71599314423E+03  0.71599314423E+03  0.25500000920E-02 0.  1.
    10030    2    1    2    0    0  0.00000000000E+00  0.00000000000E+00 -0.62950690777E+03  0.80247938072E+03  0.49768886822E+03 0.  0.
        3    1    3    3  502    0  0.21531631396E+03  0.11739388271E+03 -0.24670464542E+03  0.34785863656E+03  0.10100000352E+00 0.  1.
       -3    1    3    3    0  502 -0.21531631396E+03 -0.11739388271E+03 -0.38280226236E+03  0.45462074417E+03  0.10100000352E+00 0. -1.
</event>
<event>
 5   0  0.7933103E-02  0.5011392E+03  0.7818609E-02  0.1013482E+00
        2   -1    0    0  501    0  0.00000000000E+00  0.00000000000E+00  0.89554809410E+03  0.89554809410E+03  0.25500000920E-02 0. -1.
       -2   -1    0    0    0  501  0.00000000000E+00  0.00000000000E+00 -0.70108049787E+02  0.70108049833E+02  0.25500000920E-02 0.  1.
    10030    2    1    2    0    0  0.00000000000E+00  0.00000000000E+00  0.82544004431E+03  0.96565614393E+03  0.50113922374E+03 0.  0.
        5    1    3    3  502    0  0.22112279155E+03 -0.30105647948E+02  0.19334352762E+03  0.29530568679E+03  0.46999998093E+01 0.  1.
       -5    1    3    3    0  502 -0.22112279155E+03  0.30105647948E+02  0.63209651670E+03  0.67035045715E+03  0.46999998093E+01 0. -1.
</event>
<event>
 5   0  0.4803890E-02  0.4963246E+03  0.7818609E-02  0.1014743E+00
       -1   -1    0    0    0  501  0.00000000000E+00  0.00000000000E+00  0.12573772288E+03  0.12573772298E+03  0.50400001928E-02 0. -1.
        1   -1    0    0  501    0  0.00000000000E+00  0.00000000000E+00 -0.48978569077E+03  0.48978569079E+03  0.50400001928E-02 0.  1.
    10030    2    1    2    0    0  0.00000000000E+00  0.00000000000E+00 -0.36404796788E+03  0.61552341378E+03  0.49632464173E+03 0.  0.
        5    1    3    3  502    0  0.12781678856E+02  0.49630873121E+02  0.11904673889E+03  0.12969506899E+03  0.46999998093E+01 0. -1.
       -5    1    3    3    0  502 -0.12781678856E+02 -0.49630873121E+02 -0.48309470678E+03  0.48582834478E+03  0.46999998093E+01 0.  1.
</event>
<event>
 5   0  0.7776070E-02  0.4986715E+03  0.7818609E-02  0.1014126E+00
       -2   -1    0    0    0  501  0.00000000000E+00  0.00000000000E+00  0.46775135300E+02  0.46775135369E+02  0.25500000920E-02 0.  1.
        2   -1    0    0  501    0  0.00000000000E+00  0.00000000000E+00 -0.13290887090E+04  0.13290887090E+04  0.25500000920E-02 0. -1.
    10030    2    1    2    0    0  0.00000000000E+00  0.00000000000E+00 -0.12823135737E+04  0.13758638444E+04  0.49867145192E+03 0.  0.
        4    1    3    3  502    0  0.21703858573E+02  0.22586228111E+03 -0.35599950214E+03  0.42216357722E+03  0.12699999809E+01 0.  1.
       -4    1    3    3    0  502 -0.21703858573E+02 -0.22586228111E+03 -0.92631407158E+03  0.95370026717E+03  0.12699999809E+01 0. -1.
</event>
<event>
 5   0  0.5038436E-02  0.4965970E+03  0.7818609E-02  0.1014671E+00
        1   -1    0    0  501    0  0.00000000000E+00  0.00000000000E+00  0.26466919737E+03  0.26466919741E+03  0.50400001928E-02 0.  1.
       -1   -1    0    0    0  501  0.00000000000E+00  0.00000000000E+00 -0.23294035516E+03  0.23294035521E+03  0.50400001928E-02 0. -1.
    10030    2    1    2    0    0  0.00000000000E+00  0.00000000000E+00  0.31728842206E+02  0.49760955263E+03  0.49659696680E+03 0.  0.
        1    1    3    3  502    0 -0.15400121264E+03  0.16129168418E+03 -0.93540421311E+02  0.24182884717E+03  0.50400001928E-02 0. -1.
       -1    1    3    3    0  502  0.15400121264E+03 -0.16129168418E+03  0.12526926352E+03  0.25578070546E+03  0.50400001928E-02 0.  1.
</event>
<event>
 5   0  0.4865501E-02  0.4981564E+03  0.7818609E-02  0.1014261E+00
        1   -1    0    0  501    0  0.00000000000E+00  0.00000000000E+00  0.41638777490E+03  0.41638777494E+03  0.50400001928E-02 0.  1.
       -1   -1    0    0    0  501  0.00000000000E+00  0.00000000000E+00 -0.14899561012E+03  0.14899561021E+03  0.50400001928E-02 0. -1.
    10030    2    1    2    0    0  0.00000000000E+00  0.00000000000E+00  0.26739216478E+03  0.56538338514E+03  0.49815640356E+03 0.  0.
        2    1    3    3  502    0  0.17497407812E+03  0.17699076267E+03  0.14494828491E+03  0.28801330419E+03  0.25500000920E-02 0.  1.
       -2    1    3    3    0  502 -0.17497407812E+03 -0.17699076267E+03  0.12244387987E+03  0.27737008096E+03  0.25500000920E-02 0. -1.
</event>
<event>
 5   0  0.4865501E-02  0.4773764E+03  0.7818609E-02  0.1019859E+00
       -1   -1    0    0    0  501  0.00000000000E+00  0.00000000000E+00  0.75395206237E+02  0.75395206405E+02  0.50400001928E-02 0. -1.
        1   -1    0    0  501    0  0.00000000000E+00  0.00000000000E+00 -0.75564564682E+03  0.75564564683E+03  0.50400001928E-02 0.  1.
    10030    2    1    2    0    0  0.00000000000E+00  0.00000000000E+00 -0.68025044058E+03  0.83104085324E+03  0.47737641107E+03 0.  0.
        2    1    3    3  502    0 -0.15796877375E+01 -0.50928236619E+02 -0.74606775863E+03  0.74780564398E+03  0.25500000920E-02 0.  1.
       -2    1    3    3    0  502  0.15796877375E+01  0.50928236619E+02  0.65817318049E+02  0.83235209257E+02  0.25500000920E-02 0. -1.
</event>
<event>
 5   0  0.5191358E-02  0.5001700E+03  0.7818609E-02  0.1013735E+00
       -1   -1    0    0    0  501  0.00000000000E+00  0.00000000000E+00  0.30155021805E+03  0.30155021809E+03  0.50400001928E-02 0. -1.
        1   -1    0    0  501    0  0.00000000000E+00  0.00000000000E+00 -0.20740331535E+03  0.20740331541E+03  0.50400001928E-02 0.  1.
    10030    2    1    2    0    0  0.00000000000E+00  0.00000000000E+00  0.94146902705E+02  0.50895353350E+03  0.50017003106E+03 0.  0.
        4    1    3    3  502    0 -0.24016137611E+03  0.68887774175E+02  0.36025058355E+02  0.25243302029E+03  0.12699999809E+01 0.  1.
       -4    1    3    3    0  502  0.24016137611E+03 -0.68887774175E+02  0.58121844350E+02  0.25652051321E+03  0.12699999809E+01 0. -1.
</event>
<event>
 5   0  0.5038436E-02  0.4995355E+03  0.7818609E-02  0.1013900E+00
       -1   -1    0    0    0  501  0.00000000000E+00  0.00000000000E+00  0.25303644324E+03  0.25303644329E+03  0.50400001928E-02 0. -1.
        1   -1    0    0  501    0  0.00000000000E+00  0.00000000000E+00 -0.24654130386E+03  0.24654130391E+03  0.50400001928E-02 0.  1.
    10030    2    1    2    0    0  0.00000000000E+00  0.00000000000E+00  0.64951393723E+01  0.49957774720E+03  0.49953552292E+03 0.  0.
        1    1    3    3  502    0 -0.24395090185E+02  0.37465527727E+02 -0.24250709912E+03  0.24659375365E+03  0.50400001928E-02 0.  1.
       -1    1    3    3    0  502  0.24395090185E+02 -0.37465527727E+02  0.24900223849E+03  0.25298399355E+03  0.50400001928E-02 0. -1.
</event>
<event>
 5   0  0.4803890E-02  0.5063516E+03  0.7818609E-02  0.1012134E+00
       -1   -1    0    0    0  501  0.00000000000E+00  0.00000000000E+00  0.12268014451E+03  0.12268014462E+03  0.50400001928E-02 0.  1.
        1   -1    0    0  501    0  0.00000000000E+00  0.00000000000E+00 -0.52248048002E+03  0.52248048004E+03  0.50400001928E-02 0. -1.
    10030    2    1    2    0    0  0.00000000000E+00  0.00000000000E+00 -0.39980033551E+03  0.64516062466E+03  0.50635158076E+03 0.  0.
        5    1    3    3  502    0  0.28924768789E+02  0.11832966734E+03  0.82824021853E+02  0.14737863148E+03  0.46999998093E+01 0.  1.
       -5    1    3    3    0  502 -0.28924768789E+02 -0.11832966734E+03 -0.48262435736E+03  0.49778199318E+03  0.46999998093E+01 0. -1.
</event>
<event>
 5   0  0.7776070E-02  0.4989649E+03  0.7818609E-02  0.1014049E+00
       -2   -1    0    0    0  501  0.00000000000E+00  0.00000000000E+00  0.50498865772E+03  0.50498865772E+03  0.25500000920E-02 0.  1.
        2   -1    0    0  501    0  0.00000000000E+00  0.00000000000E+00 -0.12325323118E+03  0.12325323120E+03  0.25500000920E-02 0. -1.
    10030    2    1    2    0    0  0.00000000000E+00  0.00000000000E+00  0.38173542654E+03  0.62824188893E+03  0.49896486362E+03 0.  0.
        4    1    3    3  502    0 -0.12704821837E+03 -0.12457470807E+03  0.41104574495E+03  0.44790660301E+03  0.12699999809E+01 0.  1.
       -4    1    3    3    0  502  0.12704821837E+03  0.12457470807E+03 -0.29310318406E+02  0.18033528592E+03  0.12699999809E+01 0. -1.
</event>
<event>
 5   0  0.4803890E-02  0.5026400E+03  0.7818609E-02  0.1013092E+00
        1   -1    0    0  501    0  0.00000000000E+00  0.00000000000E+00  0.80955618040E+03  0.80955618041E+03  0.50400001928E-02 0. -1.
       -1   -1    0    0    0  501  0.00000000000E+00  0.00000000000E+00 -0.78020194592E+02  0.78020194755E+02  0.50400001928E-02 0.  1.
    10030    2    1    2    0    0  0.00000000000E+00  0.00000000000E+00  0.73153598581E+03  0.88757637517E+03  0.50263995387E+03 0.  0.
        5    1    3    3  502    0 -0.59087208901E+02  0.19363097137E+03  0.62860615499E+03  0.66041807927E+03  0.46999998093E+01 0. -1.
       -5    1    3    3    0  502  0.59087208901E+02 -0.19363097137E+03  0.10292983081E+03  0.22715829590E+03  0.46999998093E+01 0.  1.
</event>
<event>
 5   0  0.7776070E-02  0.4998158E+03  0.7818609E-02  0.1013827E+00
        2   -1    0    0  501    0  0.00000000000E+00  0.00000000000E+00  0.54709333370E+03  0.54709333371E+03  0.25500000920E-02 0. -1.
       -2   -1    0    0    0  501  0.00000000000E+00  0.00000000000E+00 -0.11415596058E+03  0.11415596061E+03  0.25500000920E-02 0.  1.
    10030    2    1    2    0    0  0.00000000000E+00  0.00000000000E+00  0.43293737312E+03  0.66124929431E+03  0.49981582626E+03 0.  0.
        4    1    3    3  502    0 -0.19501023004E+03  0.15602826660E+03  0.20474384031E+03  0.32294808073E+03  0.12699999809E+01 0.  1.
       -4    1    3    3    0  502  0.19501023004E+03 -0.15602826660E+03  0.22819353281E+03  0.33830121359E+03  0.12699999809E+01 0. -1.
</event>
<event>
 5   0  0.5038436E-02  0.4994883E+03  0.7818609E-02  0.1013913E+00
        1   -1    0    0  501    0  0.00000000000E+00  0.00000000000E+00  0.18966828130E+03  0.18966828137E+03  0.50400001928E-02 0.  1.
       -1   -1    0    0    0  501  0.00000000000E+00  0.00000000000E+00 -0.32884851614E+03  0.32884851618E+03  0.50400001928E-02 0. -1.
    10030    2    1    2    0    0  0.00000000000E+00  0.00000000000E+00 -0.13918023484E+03  0.51851679754E+03  0.49948826970E+03 0.  0.
        1    1    3    3  502    0  0.25821971013E+02  0.20732848696E+02 -0.32655927198E+03  0.32823403745E+03  0.50400001928E-02 0. -1.
       -1    1    3    3    0  502 -0.25821971013E+02 -0.20732848696E+02  0.18737903714E+03  0.19028276009E+03  0.50400001928E-02 0.  1.
</event>
<event>
 5   0  0.3210875E-02  0.5216991E+03  0.7818609E-02  0.1008265E+00
        3   -1    0    0  501    0  0.00000000000E+00  0.00000000000E+00  0.68298548075E+02  0.68298622755E+02  0.10100000352E+00 0.  1.
       -3   -1    0    0    0  501  0.00000000000E+00  0.00000000000E+00 -0.99625025978E+03  0.99625026490E+03  0.10100000352E+00 0. -1.
    10030    2    1    2    0    0  0.00000000000E+00  0.00000000000E+00 -0.92795171171E+03  0.10645488877E+04  0.52169910384E+03 0.  0.
        4    1    3    3  502    0  0.61958016376E+02 -0.22656216126E+03 -0.23246949946E+03  0.33047373540E+03  0.12699999809E+01 0.  1.
       -4    1    3    3    0  502 -0.61958016376E+02  0.22656216126E+03 -0.69548221224E+03  0.73407515225E+03  0.12699999809E+01 0. -1.
</event>
<event>
 5   0  0.7881060E-02  0.5008109E+03  0.7818609E-02  0.1013567E+00
       -2   -1    0    0    0  501  0.00000000000E+00  0.00000000000E+00  0.25027961841E+03  0.25027961842E+03  0.25500000920E-02 0. -1.
        2   -1    0    0  501    0  0.00000000000E+00  0.00000000000E+00 -0.25053133418E+03  0.25053133419E+03  0.25500000920E-02 0.  1.
    10030    2    1    2    0    0  0.00000000000E+00  0.00000000000E+00 -0.25171576582E+00  0.50081095262E+03  0.50081088936E+03 0.  0.
        1    1    3    3  502    0  0.34252293292E+02 -0.13223489411E+03  0.20973983967E+03  0.25029999438E+03  0.50400001928E-02 0. -1.
       -1    1    3    3    0  502 -0.34252293292E+02  0.13223489411E+03 -0.20999155543E+03  0.25051095824E+03  0.50400001928E-02 0.  1.
</event>
<event>
 5   0  0.5038436E-02  0.5019720E+03  0.7818609E-02  0.1013265E+00
        1   -1    0    0  501    0  0.00000000000E+00  0.00000000000E+00  0.79287553901E+03  0.79287553903E+03  0.50400001928E-02 0. -1.
       -1   -1    0    0    0  501  0.00000000000E+00  0.00000000000E+00 -0.79450027374E+02  0.79450027534E+02  0.50400001928E-02 0.  1.
    10030    2    1    2    0    0  0.00000000000E+00  0.00000000000E+00  0.71342551164E+03  0.87232556656E+03  0.50197204446E+03 0.  0.
        1    1    3    3  502    0 -0.13903156538E+03 -0.46940578412E+02  0.28638537288E+01  0.14676987346E+03  0.50400001928E-02 0.  1.
       -1    1    3    3    0  502  0.13903156538E+03  0.46940578412E+02  0.71056165791E+03  0.72555569310E+03  0.50400001928E-02 0. -1.
</event>
<event>
 5   0  0.7698747E-02  0.4986214E+03  0.7818609E-02  0.1014139E+00
       -2   -1    0    0    0  501  0.00000000000E+00  0.00000000000E+00  0.24861515476E+02  0.24861515606E+02  0.25500000920E-02 0.  1.
        2   -1    0    0  501    0  0.00000000000E+00  0.00000000000E+00 -0.25000823423E+04  0.25000823423E+04  0.25500000920E-02 0. -1.
    10030    2    1    2    0    0  0.00000000000E+00  0.00000000000E+00 -0.24752208268E+04  0.25249438579E+04  0.49862144362E+03 0.  0.
        2    1    3    3  502    0  0.10696099851E+03  0.37522134001E+01 -0.23778325609E+04  0.23802399926E+04  0.25500000920E-02 0. -1.
       -2    1    3    3    0  502 -0.10696099851E+03 -0.37522134001E+01 -0.97388265889E+02  0.14470386535E+03  0.25500000920E-02 0.  1.
</event>
<event>
 5   0  0.5038436E-02  0.5032329E+03  0.7818609E-02  0.1012939E+00
       -1   -1    0    0    0  501  0.00000000000E+00  0.00000000000E+00  0.34455588528E+03  0.34455588531E+03  0.50400001928E-02 0.  1.
        1   -1    0    0  501    0  0.00000000000E+00  0.00000000000E+00 -0.18374620208E+03  0.18374620214E+03  0.50400001928E-02 0. -1.
    10030    2    1    2    0    0  0.00000000000E+00  0.00000000000E+00  0.16080968320E+03  0.52830208746E+03  0.50323288982E+03 0.  0.
        1    1    3    3  502    0 -0.72661083683E+02 -0.21813835503E+03 -0.26896759640E+02  0.23148954776E+03  0.50400001928E-02 0. -1.
       -1    1    3    3    0  502  0.72661083683E+02  0.21813835503E+03  0.18770644284E+03  0.29681253970E+03  0.50400001928E-02 0.  1.
</event>
<event>
 5   0  0.4884478E-02  0.4994769E+03  0.7818609E-02  0.1013916E+00
        1   -1    0    0  501    0  0.00000000000E+00  0.00000000000E+00  0.72893108549E+02  0.72893108723E+02  0.50400001928E-02 0. -1.
       -1   -1    0    0    0  501  0.00000000000E+00  0.00000000000E+00 -0.85562679302E+03  0.85562679304E+03  0.50400001928E-02 0.  1.
    10030    2    1    2    0    0  0.00000000000E+00  0.00000000000E+00 -0.78273368448E+03  0.92851990176E+03  0.49947691354E+03 0.  0.
        3    1    3    3  502    0 -0.85911671890E+02 -0.19161057422E+03 -0.64266594211E+03  0.67610276650E+03  0.10100000352E+00 0.  1.
       -3    1    3    3    0  502  0.85911671890E+02  0.19161057422E+03 -0.14006774237E+03  0.25241713526E+03  0.10100000352E+00 0. -1.
</event>
<event>
 5   0  0.5038436E-02  0.4990055E+03  0.7818609E-02  0.1014039E+00
       -1   -1    0    0    0  501  0.00000000000E+00  0.00000000000E+00  0.51369574458E+02  0.51369574705E+02  0.50400001928E-02 0.  1.
        1   -1    0    0  501    0  0.00000000000E+00  0.00000000000E+00 -0.12118382005E+04  0.12118382006E+04  0.50400001928E-02 0. -1.
    10030    2    1    2    0    0  0.00000000000E+00  0.00000000000E+00 -0.11604686261E+04  0.12632077753E+04  0.49900546224E+03 0.  0.
        1    1    3    3  502    0  0.16905627305E+03 -0.18349759979E+03 -0.57904635804E+03  0.63051255132E+03  0.50400001928E-02 0. -1.
       -1    1    3    3    0  502 -0.16905627305E+03  0.18349759979E+03 -0.58142226805E+03  0.63269522394E+03  0.50400001928E-02 0.  1.
</event>
<event>
 5   0  0.7933103E-02  0.4997504E+03  0.7818609E-02  0.1013844E+00
       -2   -1    0    0    0  501  0.00000000000E+00  0.00000000000E+00  0.16298088337E+03  0.16298088339E+03  0.25500000920E-02 0.  1.
        2   -1    0    0  501    0  0.00000000000E+00  0.00000000000E+00 -0.38309785127E+03  0.38309785128E+03  0.25500000920E-02 0. -1.
    10030    2    1    2    0    0  0.00000000000E+00  0.00000000000E+00 -0.22011696789E+03  0.54607873467E+03  0.49975044263E+03 0.  0.
        5    1    3    3  502    0  0.69561267835E+02  0.75957535991E+02  0.13865378936E+03  0.17278680667E+03  0.46999998093E+01 0.  1.
       -5    1    3    3    0  502 -0.69561267835E+02 -0.75957535991E+02 -0.35877075725E+03  0.37329192800E+03  0.46999998093E+01 0. -1.
</event>
<event>
 5   0  0.8208720E-02  0.4962977E+03  0.7818609E-02  0.1014750E+00
       -2   -1    0    0    0  501  0.00000000000E+00  0.00000000000E+00  0.12458865241E+03  0.12458865244E+03  0.25500000920E-02 0.  1.
        2   -1    0    0  501    0  0.00000000000E+00  0.00000000000E+00 -0.49424933163E+03  0.49424933164E+03  0.25500000920E-02 0. -1.
    10030    2    1    2    0    0  0.00000000000E+00  0.00000000000E+00 -0.36966067922E+03  0.61883798408E+03  0.49629772595E+03 0.  0.
        3    1    3    3  502    0  0.22250815426E+03 -0.72611810758E+01 -0.32150908525E+03  0.39106355693E+03  0.10100000352E+00 0.  1.
       -3    1    3    3    0  502 -0.22250815426E+03  0.72611810758E+01 -0.48151593974E+02  0.22777442715E+03  0.10100000352E+00 0. -1.
</event>
<event>
 5   0  0.7881060E-02  0.5019909E+03  0.7818609E-02  0.1013261E+00
        2   -1    0    0  501    0  0.00000000000E+00  0.00000000000E+00  0.15138229648E+04  0.15138229648E+04  0.25500000920E-02 0. -1.
       -2   -1    0    0    0  501  0.00000000000E+00  0.00000000000E+00 -0.41615639081E+02  0.41615639159E+02  0.25500000920E-02 0.  1.
    10030    2    1    2    0    0  0.00000000000E+00  0.00000000000E+00  0.14722073257E+04  0.15554386040E+04  0.50199087720E+03 0.  0.
        1    1    3    3  502    0 -0.23589115431E+03  0.69638206336E+01  0.47126318652E+03  0.52705039842E+03  0.50400001928E-02 0.  1.
       -1    1    3    3    0  502  0.23589115431E+03 -0.69638206336E+01  0.10009441392E+04  0.10283882056E+04  0.50400001928E-02 0. -1.
</event>
<event>
 5   0  0.4865501E-02  0.4947360E+03  0.7818609E-02  0.1015162E+00
        1   -1    0    0  501    0  0.00000000000E+00  0.00000000000E+00  0.90979373853E+02  0.90979373993E+02  0.50400001928E-02 0.  1.
       -1   -1    0    0    0  501  0.00000000000E+00  0.00000000000E+00 -0.67258008613E+03  0.67258008615E+03  0.50400001928E-02 0. -1.
    10030    2    1    2    0    0  0.00000000000E+00  0.00000000000E+00 -0.58160071228E+03  0.76355946014E+03  0.49473595043E+03 0.  0.
        2    1    3    3  502    0 -0.11145453636E+03 -0.10173779643E+03  0.11708452109E+02  0.15135977258E+03  0.25500000920E-02 0.  1.
       -2    1    3    3    0  502  0.11145453636E+03  0.10173779643E+03 -0.59330916439E+03  0.61219968756E+03  0.25500000920E-02 0. -1.
</event>
<event>
 5   0  0.5038436E-02  0.5041820E+03  0.7818609E-02  0.1012693E+00
        1   -1    0    0  501    0  0.00000000000E+00  0.00000000000E+00  0.17841130565E+03  0.17841130572E+03  0.50400001928E-02 0.  1.
       -1   -1    0    0    0  501  0.00000000000E+00  0.00000000000E+00 -0.35619870612E+03  0.35619870615E+03  0.50400001928E-02 0. -1.
    10030    2    1    2    0    0  0.00000000000E+00  0.00000000000E+00 -0.17778740047E+03  0.53461001188E+03  0.50418201578E+03 0.  0.
        1    1    3    3  502    0  0.68072494535E+02  0.13739092481E+03 -0.30106927710E+03  0.33786512157E+03  0.50400001928E-02 0. -1.
       -1    1    3    3    0  502 -0.68072494535E+02 -0.13739092481E+03  0.12328187663E+03  0.19674489031E+03  0.50400001928E-02 0.  1.
</event>
<event>
 5   0  0.7933103E-02  0.5015976E+03  0.7818609E-02  0.1013363E+00
       -2   -1    0    0    0  501  0.00000000000E+00  0.00000000000E+00  0.80437321161E+02  0.80437321202E+02  0.25500000920E-02 0. -1.
        2   -1    0    0  501    0  0.00000000000E+00  0.00000000000E+00 -0.78197593926E+03  0.78197593926E+03  0.25500000920E-02 0.  1.
    10030    2    1    2    0    0  0.00000000000E+00  0.00000000000E+00 -0.70153861809E+03  0.86241326046E+03  0.50159764667E+03 0.  0.
        5    1    3    3  502    0  0.17802595537E+02 -0.15516342771E+03 -0.68806251113E+03  0.70558112994E+03  0.46999998093E+01 0.  1.
       -5    1    3    3    0  502 -0.17802595537E+02  0.15516342771E+03 -0.13476106966E+02  0.15683213052E+03  0.46999998093E+01 0. -1.
</event>
<event>
 5   0  0.4884478E-02  0.4979024E+03  0.7818609E-02  0.1014328E+00
        1   -1    0    0  501    0  0.00000000000E+00  0.00000000000E+00  0.89033354392E+03  0.89033354393E+03  0.50400001928E-02 0.  1.
       -1   -1    0    0    0  501  0.00000000000E+00  0.00000000000E+00 -0.69610661039E+02  0.69610661222E+02  0.50400001928E-02 0. -1.
    10030    2    1    2    0    0  0.00000000000E+00  0.00000000000E+00  0.82072288288E+03  0.95994420515E+03  0.49790242671E+03 0.  0.
        3    1    3    3  502    0 -0.13061436809E+03  0.38456957997E+02  0.85383529216E+01  0.13642567369E+03  0.10100000352E+00 0. -1.
       -3    1    3    3    0  502  0.13061436809E+03 -0.38456957997E+02  0.81218452996E+03  0.82351853147E+03  0.10100000352E+00 0.  1.
</event>
<event>
 5   0  0.5191358E-02  0.4903940E+03  0.7818609E-02  0.1016317E+00
       -1   -1    0    0    0  501  0.00000000000E+00  0.00000000000E+00  0.52304404352E+03  0.52304404354E+03  0.50400001928E-02 0.  1.
        1   -1    0    0  501    0  0.00000000000E+00  0.00000000000E+00 -0.11494554127E+03  0.11494554138E+03  0.50400001928E-02 0. -1.
    10030    2    1    2    0    0  0.00000000000E+00  0.00000000000E+00  0.40809850225E+03  0.63798958492E+03  0.49039404862E+03 0.  0.
        4    1    3    3  502    0 -0.16184088960E+03  0.81119090356E+02 -0.11092516184E+02  0.18137650670E+03  0.12699999809E+01 0. -1.
       -4    1    3    3    0  502  0.16184088960E+03 -0.81119090356E+02  0.41919101844E+03  0.45661307822E+03  0.12699999809E+01 0.  1.
</event>
<event>
 5   0  0.7933103E-02  0.4971306E+03  0.7818609E-02  0.1014531E+00
        2   -1    0    0  501    0  0.00000000000E+00  0.00000000000E+00  0.95695120278E+03  0.95695120279E+03  0.25500000920E-02 0. -1.
       -2   -1    0    0    0  501  0.00000000000E+00  0.00000000000E+00 -0.64564124273E+02  0.64564124324E+02  0.25500000920E-02 0.  1.
    10030    2    1    2    0    0  0.00000000000E+00  0.00000000000E+00  0.89238707851E+03  0.10215153271E+04  0.49713063236E+03 0.  0.
        5    1    3    3  502    0 -0.46866567091E+02  0.99080336834E+02 -0.12125163561E+02  0.11037435321E+03  0.46999998093E+01 0.  1.
       -5    1    3    3    0  502  0.46866567091E+02 -0.99080336834E+02  0.90451224207E+03  0.91114097390E+03  0.46999998093E+01 0. -1.
</event>
<event>
 5   0  0.4803890E-02  0.4964624E+03  0.7818609E-02  0.1014706E+00
       -1   -1    0    0    0  501  0.00000000000E+00  0.00000000000E+00  0.13970847467E+03  0.13970847476E+03  0.50400001928E-02 0.  1.
        1   -1    0    0  501    0  0.00000000000E+00  0.00000000000E+00 -0.44105214613E+03  0.44105214616E+03  0.50400001928E-02 0. -1.
    10030    2    1    2    0    0  0.00000000000E+00  0.00000000000E+00 -0.30134367146E+03  0.58076062092E+03  0.49646237569E+03 0.  0.
        5    1    3    3  502    0 -0.14977650480E+03 -0.10518017629E+03 -0.34676834649E+03  0.39213039541E+03  0.46999998093E+01 0. -1.
       -5    1    3    3    0  502  0.14977650480E+03  0.10518017629E+03  0.45424675030E+02  0.18863022551E+03  0.46999998093E+01 0.  1.
</event>
<event>
 5   0  0.7933103E-02  0.4982560E+03  0.7818609E-02  0.1014235E+00
        2   -1    0    0  501    0  0.00000000000E+00  0.00000000000E+00  0.82682971769E+03  0.82682971769E+03  0.25500000920E-02 0. -1.
       -2   -1    0    0    0  501  0.00000000000E+00  0.00000000000E+00 -0.75063526644E+02  0.75063526688E+02  0.25500000920E-02 0.  1.
    10030    2    1    2    0    0  0.00000000000E+00  0.00000000000E+00  0.75176619104E+03  0.90189324438E+03  0.49825597664E+03 0.  0.
        5    1    3    3  502    0 -0.87670598384E+02 -0.13966156879E+03  0.37965083467E+02  0.16927765705E+03  0.46999998093E+01 0.  1.
       -5    1    3    3    0  502  0.87670598384E+02  0.13966156879E+03  0.71380110758E+03  0.73261558733E+03  0.46999998093E+01 0. -1.
</event>
<event>
 5   0  0.7776070E-02  0.4985175E+03  0.7818609E-02  0.1014167E+00
        2   -1    0    0  501    0  0.00000000000E+00  0.00000000000E+00  0.18771178951E+03  0.18771178953E+03  0.25500000920E-02 0.  1.
       -2   -1    0    0    0  501  0.00000000000E+00  0.00000000000E+00 -0.33098571526E+03  0.33098571527E+03  0.25500000920E-02 0. -1.
    10030    2    1    2    0    0  0.00000000000E+00  0.00000000000E+00 -0.14327392575E+03  0.51869750479E+03  0.49851748583E+03 0.  0.
        4    1    3    3  502    0  0.11986723652E+03  0.42672584372E+02 -0.29464755789E+03  0.32094843841E+03  0.12699999809E+01 0. -1.
       -4    1    3    3    0  502 -0.11986723652E+03 -0.42672584372E+02  0.15137363214E+03  0.19774906638E+03  0.12699999809E+01 0.  1.
</event>
<event>
 5   0  0.7881060E-02  0.5107445E+03  0.7818609E-02  0.1011012E+00
       -2   -1    0    0    0  501  0.00000000000E+00  0.00000000000E+00  0.25333158516E+03  0.25333158517E+03  0.25500000920E-02 0.  1.
        2   -1    0    0  501    0  0.00000000000E+00  0.00000000000E+00 -0.25742938432E+03  0.25742938434E+03  0.25500000920E-02 0. -1.
    10030    2    1    2    0    0  0.00000000000E+00  0.00000000000E+00 -0.40977991644E+01  0.51076096951E+03  0.51074453107E+03 0.  0.
        1    1    3    3  502    0 -0.21192548639E+03 -0.14241619710E+03 -0.65444866528E+01  0.25541655253E+03  0.50400001928E-02 0.  1.
       -1    1    3    3    0  502  0.21192548639E+03  0.14241619710E+03  0.24466874884E+01  0.25534441698E+03  0.50400001928E-02 0. -1.
</event>
<event>
 5   0  0.7881060E-02  0.4989982E+03  0.7818609E-02  0.1014041E+00
        2   -1    0    0  501    0  0.00000000000E+00  0.00000000000E+00  0.12308771186E+03  0.12308771188E+03  0.25500000920E-02 0.  1.
       -2   -1    0    0    0  501  0.00000000000E+00  0.00000000000E+00 -0.50573527085E+03  0.50573527086E+03  0.25500000920E-02 0. -1.
    10030    2    1    2    0    0  0.00000000000E+00  0.00000000000E+00 -0.38264755900E+03  0.62882298275E+03  0.49899818559E+03 0.  0.
        1    1    3    3  502    0  0.44098724494E+02  0.23401832219E+03 -0.28512422172E+03  0.37149036926E+03  0.50400001928E-02 0. -1.
       -1    1    3    3    0  502 -0.44098724494E+02 -0.23401832219E+03 -0.97523337280E+02  0.25733261348E+03  0.50400001928E-02 0.  1.
</event>
<event>
 5   0  0.3210875E-02  0.4971183E+03  0.7818609E-02  0.1014534E+00
        3   -1    0    0  501    0  0.00000000000E+00  0.00000000000E+00  0.42184880629E+03  0.42184881838E+03  0.10100000352E+00 0. -1.
       -3   -1    0    0    0  501  0.00000000000E+00  0.00000000000E+00 -0.14645447110E+03  0.14645450592E+03  0.10100000352E+00 0.  1.
    10030    2    1    2    0    0  0.00000000000E+00  0.00000000000E+00  0.27539433519E+03  0.56830332430E+03  0.49711832451E+03 0.  0.
        5    1    3    3  502    0 -0.14810105718E+02 -0.91571415497E+02  0.40126481036E+03  0.41187401156E+03  0.46999998093E+01 0. -1.
       -5    1    3    3    0  502  0.14810105718E+02  0.91571415497E+02 -0.12587047517E+03  0.15642931274E+03  0.46999998093E+01 0.  1.
</event>
<event>
 5   0  0.4865501E-02  0.5059902E+03  0.7818609E-02  0.1012227E+00
        1   -1    0    0  501    0  0.00000000000E+00  0.00000000000E+00  0.66245624091E+03  0.66245624093E+03  0.50400001928E-02 0. -1.
       -1   -1    0    0    0  501  0.00000000000E+00  0.00000000000E+00 -0.96620004764E+02  0.96620004895E+02  0.50400001928E-02 0.  1.
    10030    2    1    2    0    0  0.00000000000E+00  0.00000000000E+00  0.56583623615E+03  0.75907624583E+03  0.50599021813E+03 0.  0.
        2    1    3    3  502    0 -0.83098057348E+02 -0.23072166928E+03  0.18960803437E+03  0.30998222936E+03  0.25500000920E-02 0.  1.
       -2    1    3    3    0  502  0.83098057348E+02  0.23072166928E+03  0.37622820177E+03  0.44909401647E+03  0.25500000920E-02 0. -1.
</event>
<event>
 5   0  0.7881060E-02  0.5046398E+03  0.7818609E-02  0.1012575E+00
       -2   -1    0    0    0  501  0.00000000000E+00  0.00000000000E+00  0.39770060409E+02  0.39770060491E+02  0.25500000920E-02 0. -1.
        2   -1    0    0  501    0  0.00000000000E+00  0.00000000000E+00 -0.16008353997E+04  0.16008353997E+04  0.25500000920E-02 0.  1.
    10030    2    1    2    0    0  0.00000000000E+00  0.00000000000E+00 -0.15610653393E+04  0.16406054602E+04  0.50463975515E+03 0.  0.
        1    1    3    3  502    0  0.16635675577E+03  0.49064916344E+02 -0.18475403907E+03  0.25340874330E+03  0.50400001928E-02 0. -1.
       -1    1    3    3    0  502 -0.16635675577E+03 -0.49064916344E+02 -0.13763113002E+04  0.13871967169E+04  0.50400001928E-02 0.  1.
</event>
<event>
 5   0  0.4803890E-02  0.4758707E+03  0.7818609E-02  0.1020276E+00
       -1   -1    0    0    0  501  0.00000000000E+00  0.00000000000E+00  0.29180722661E+03  0.29180722666E+03  0.50400001928E-02 0.  1.
        1   -1    0    0  501    0  0.00000000000E+00  0.00000000000E+00 -0.19400899432E+03  0.19400899439E+03  0.50400001928E-02 0. -1.
    10030    2    1    2    0    0  0.00000000000E+00  0.00000000000E+00  0.97798232294E+02  0.48581622104E+03  0.47587068242E+03 0.  0.
        5    1    3    3  502    0 -0.20800431535E+03  0.11543479343E+03  0.49294326131E+02  0.24298766908E+03  0.46999998093E+01 0.  1.
       -5    1    3    3    0  502  0.20800431535E+03 -0.11543479343E+03  0.48503906162E+02  0.24282855196E+03  0.46999998093E+01 0. -1.
</event>
<event>
 5   0  0.4884478E-02  0.4964759E+03  0.7818609E-02  0.1014703E+00
        1   -1    0    0  501    0  0.00000000000E+00  0.00000000000E+00  0.89687158103E+03  0.89687158104E+03  0.50400001928E-02 0. -1.
       -1   -1    0    0    0  501  0.00000000000E+00  0.00000000000E+00 -0.68707809571E+02  0.68707809756E+02  0.50400001928E-02 0.  1.
    10030    2    1    2    0    0  0.00000000000E+00  0.00000000000E+00  0.82816377145E+03  0.96557939080E+03  0.49647590836E+03 0.  0.
        3    1    3    3  502    0 -0.27008053742E+02 -0.49841233243E+02 -0.55950509720E+02  0.79649565203E+02  0.10100000352E+00 0.  1.
       -3    1    3    3    0  502  0.27008053742E+02  0.49841233243E+02  0.88411428117E+03  0.88592982559E+03  0.10100000352E+00 0. -1.
</event>
<event>
 5   0  0.7776070E-02  0.5039458E+03  0.7818609E-02  0.1012754E+00
       -2   -1    0    0    0  501  0.00000000000E+00  0.00000000000E+00  0.11146872576E+03  0.11146872579E+03  0.25500000920E-02 0. -1.
        2   -1    0    0  501    0  0.00000000000E+00  0.00000000000E+00 -0.56957981904E+03  0.56957981905E+03  0.25500000920E-02 0.  1.
    10030    2    1    2    0    0  0.00000000000E+00  0.00000000000E+00 -0.45811109328E+03  0.68104854484E+03  0.50394577748E+03 0.  0.
        4    1    3    3  502    0 -0.93288576742E+01  0.14529600405E+03 -0.50697378069E+03  0.52746751899E+03  0.12699999809E+01 0.  1.
       -4    1    3    3    0  502  0.93288576742E+01 -0.14529600405E+03  0.48862687415E+02  0.15358102585E+03  0.12699999809E+01 0. -1.
</event>
<event>
 5   0  0.5191358E-02  0.4817517E+03  0.7818609E-02  0.1018655E+00
        1   -1    0    0  501    0  0.00000000000E+00  0.00000000000E+00  0.53301249592E+03  0.53301249594E+03  0.50400001928E-02 0.  1.
       -1   -1    0    0    0  501  0.00000000000E+00  0.00000000000E+00 -0.10885518704E+03  0.10885518716E+03  0.50400001928E-02 0. -1.
    10030    2    1    2    0    0  0.00000000000E+00  0.00000000000E+00  0.42415730888E+03  0.64186768310E+03  0.48175169946E+03 0.  0.
        4    1    3    3  502    0 -0.77887966424E+02 -0.15942487593E+03 -0.49644558908E+01  0.17750798602E+03  0.12699999809E+01 0. -1.
       -4    1    3    3    0  502  0.77887966424E+02  0.15942487593E+03  0.42912176477E+03  0.46435969708E+03  0.12699999809E+01 0.  1.
</event>
<event>
 5   0  0.8208720E-02  0.5033519E+03  0.7818609E-02  0.1012908E+00
       -2   -1    0    0    0  501  0.00000000000E+00  0.00000000000E+00  0.19566601770E+03  0.19566601772E+03  0.25500000920E-02 0. -1.
        2   -1    0    0  501    0  0.00000000000E+00  0.00000000000E+00 -0.32371893733E+03  0.32371893734E+03  0.25500000920E-02 0.  1.
    10030    2    1    2    0    0  0.00000000000E+00  0.00000000000E+00 -0.12805291963E+03  0.51938495506E+03  0.50335194578E+03 0.  0.
        3    1    3    3  502    0 -0.74432775034E+02  0.98781532050E+02 -0.29019467475E+03  0.31545362342E+03  0.10100000352E+00 0.  1.
       -3    1    3    3    0  502  0.74432775034E+02 -0.98781532050E+02  0.16214175512E+03  0.20393133165E+03  0.10100000352E+00 0. -1.
</event>
<event>
 5   0  0.8208720E-02  0.4987017E+03  0.7818609E-02  0.1014118E+00
        2   -1    0    0  501    0  0.00000000000E+00  0.00000000000E+00  0.11203580694E+04  0.11203580694E+04  0.25500000920E-02 0.  1.
       -2   -1    0    0    0  501  0.00000000000E+00  0.00000000000E+00 -0.55496405810E+02  0.55496405869E+02  0.25500000920E-02 0. -1.
    10030    2    1    2    0    0  0.00000000000E+00  0.00000000000E+00  0.10648616636E+04  0.11758544753E+04  0.49870169885E+03 0.  0.
        3    1    3    3  502    0  0.12774674027E+03 -0.20709811315E+03  0.40399982823E+03  0.47161926332E+03  0.10100000352E+00 0. -1.
       -3    1    3    3    0  502 -0.12774674027E+03  0.20709811315E+03  0.66086183539E+03  0.70423521199E+03  0.10100000352E+00 0.  1.
</event>
<event>
 5   0  0.8208720E-02  0.5029673E+03  0.7818609E-02  0.1013007E+00
       -2   -1    0    0    0  501  0.00000000000E+00  0.00000000000E+00  0.26159804135E+03  0.26159804136E+03  0.25500000920E-02 0.  1.
        2   -1    0    0  501    0  0.00000000000E+00  0.00000000000E+00 -0.24176034844E+03  0.24176034846E+03  0.25500000920E-02 0. -1.
    10030    2    1    2    0    0  0.00000000000E+00  0.00000000000E+00  0.19837692904E+02  0.50335838982E+03  0.50296732950E+03 0.  0.
        3    1    3    3  502    0  0.15802565395E+03  0.19419307485E+03 -0.13784285339E+02  0.25074503853E+03  0.10100000352E+00 0. -1.
       -3    1    3    3    0  502 -0.15802565395E+03 -0.19419307485E+03  0.33621978243E+02  0.25261335128E+03  0.10100000352E+00 0.  1.
</event>
<event>
 5   0  0.4865501E-02  0.5004792E+03  0.7818609E-02  0.1013654E+00
       -1   -1    0    0    0  501  0.00000000000E+00  0.00000000000E+00  0.46370813525E+03  0.46370813528E+03  0.50400001928E-02 0.  1.
        1   -1    0    0  501    0  0.00000000000E+00  0.00000000000E+00 -0.13504155809E+03  0.13504155819E+03  0.50400001928E-02 0. -1.
    10030    2    1    2    0    0  0.00000000000E+00  0.00000000000E+00  0.32866657716E+03  0.59874969347E+03  0.50047924681E+03 0.  0.
        2    1    3    3  502    0 -0.20702478650E+03  0.13750297590E+03  0.12938138845E+03  0.28018899745E+03  0.25500000920E-02 0.  1.
       -2    1    3    3    0  502  0.20702478650E+03 -0.13750297590E+03  0.19928518871E+03  0.31856069602E+03  0.25500000920E-02 0. -1.
</event>
<event>
 5   0  0.7933103E-02  0.4856378E+03  0.7818609E-02  0.1017597E+00
       -2   -1    0    0    0  501  0.00000000000E+00  0.00000000000E+00  0.15985515587E+03  0.15985515589E+03  0.25500000920E-02 0.  1.
        2   -1    0    0  501    0  0.00000000000E+00  0.00000000000E+00 -0.36884023923E+03  0.36884023924E+03  0.25500000920E-02 0. -1.
    10030    2    1    2    0    0  0.00000000000E+00  0.00000000000E+00 -0.20898508336E+03  0.52869539512E+03  0.48563778247E+03 0.  0.
        5    1    3    3  502    0 -0.92826245810E+02 -0.19792816938E+03  0.10445892856E+02  0.21891431845E+03  0.46999998093E+01 0.  1.
       -5    1    3    3    0  502  0.92826245810E+02  0.19792816938E+03 -0.21943097621E+03  0.30978107668E+03  0.46999998093E+01 0. -1.
</event>
<event>
 5   0  0.7933103E-02  0.4984602E+03  0.7818609E-02  0.1014182E+00
       -2   -1    0    0    0  501  0.00000000000E+00  0.00000000000E+00  0.12202078005E+03  0.12202078008E+03  0.25500000920E-02 0. -1.
        2   -1    0    0  501    0  0.00000000000E+00  0.00000000000E+00 -0.50905780702E+03  0.50905780703E+03  0.25500000920E-02 0.  1.
    10030    2    1    2    0    0  0.00000000000E+00  0.00000000000E+00 -0.38703702697E+03  0.63107858710E+03  0.49846015172E+03 0.  0.
        5    1    3    3  502    0  0.24284175994E+03 -0.52534998057E+02 -0.21759004591E+03  0.33030223201E+03  0.46999998093E+01 0.  1.
       -5    1    3    3    0  502 -0.24284175994E+03  0.52534998057E+02 -0.16944698106E+03  0.30077635509E+03  0.46999998093E+01 0. -1.
</event>
<event>
 5   0  0.7776070E-02  0.4982889E+03  0.7818609E-02  0.1014226E+00
       -2   -1    0    0    0  501  0.00000000000E+00  0.00000000000E+00  0.17183231897E+03  0.17183231899E+03  0.25500000920E-02 0. -1.
        2   -1    0    0  501    0  0.00000000000E+00  0.00000000000E+00 -0.36124149837E+03  0.36124149838E+03  0.25500000920E-02 0.  1.
    10030    2    1    2    0    0  0.00000000000E+00  0.00000000000E+00 -0.18940917940E+03  0.53307381736E+03  0.49828892975E+03 0.  0.
        4    1    3    3  502    0  0.12187393678E+03  0.13504745203E+03 -0.27682449142E+03  0.33124686069E+03  0.12699999809E+01 0.  1.
       -4    1    3    3    0  502 -0.12187393678E+03 -0.13504745203E+03  0.87415312022E+02  0.20182695667E+03  0.12699999809E+01 0. -1.
</event>
<event>
 5   0  0.7776070E-02  0.5034173E+03  0.7818609E-02  0.1012891E+00
        2   -1    0    0  501    0  0.00000000000E+00  0.00000000000E+00  0.15159986736E+04  0.15159986736E+04  0.25500000920E-02 0. -1.
       -2   -1    0    0    0  501  0.00000000000E+00  0.00000000000E+00 -0.41792408421E+02  0.41792408498E+02  0.25500000920E-02 0.  1.
    10030    2    1    2    0    0  0.00000000000E+00  0.00000000000E+00  0.14742062651E+04  0.15577910821E+04  0.50341726547E+03 0.  0.
        4    1    3    3  502    0 -0.23656596150E+02 -0.97254251464E+02  0.14517604383E+04  0.14552072041E+04  0.12699999809E+01 0. -1.
       -4    1    3    3    0  502  0.23656596150E+02  0.97254251464E+02  0.22445826899E+02  0.10258387795E+03  0.12699999809E+01 0.  1.
</event>
<event>
 5   0  0.4865501E-02  0.5002169E+03  0.7818609E-02  0.1013722E+00
        1   -1    0    0  501    0  0.00000000000E+00  0.00000000000E+00  0.33301422291E+03  0.33301422294E+03  0.50400001928E-02 0.  1.
       -1   -1    0    0    0  501  0.00000000000E+00  0.00000000000E+00 -0.18784250692E+03  0.18784250699E+03  0.50400001928E-02 0. -1.
    10030    2    1    2    0    0  0.00000000000E+00  0.00000000000E+00  0.14517171599E+03  0.52085672993E+03  0.50021685896E+03 0.  0.
        2    1    3    3  502    0 -0.20220101544E+03  0.10422111233E+03  0.18083170342E+03  0.29059834113E+03  0.25500000920E-02 0.  1.
       -2    1    3    3    0  502  0.20220101544E+03 -0.10422111233E+03 -0.35659987435E+02  0.23025838880E+03  0.25500000920E-02 0. -1.
</event>
<event>
 5   0  0.8208720E-02  0.5078028E+03  0.7818609E-02  0.1011762E+00
        2   -1    0    0  501    0  0.00000000000E+00  0.00000000000E+00  0.40708197189E+03  0.40708197190E+03  0.25500000920E-02 0. -1.
       -2   -1    0    0    0  501  0.00000000000E+00  0.00000000000E+00 -0.15836103792E+03  0.15836103794E+03  0.25500000920E-02 0.  1.
    10030    2    1    2    0    0  0.00000000000E+00  0.00000000000E+00  0.24872093397E+03  0.56544300984E+03  0.50780281053E+03 0.  0.
        3    1    3    3  502    0 -0.16975185381E+03  0.84489127923E+02  0.31238136570E+03  0.36542609711E+03  0.10100000352E+00 0. -1.
       -3    1    3    3    0  502  0.16975185381E+03 -0.84489127923E+02 -0.63660431728E+02  0.20001691273E+03  0.10100000352E+00 0.  1.
</event>
<event>
 5   0  0.5191358E-02  0.5055161E+03  0.7818609E-02  0.1012349E+00
        1   -1    0    0  501    0  0.00000000000E+00  0.00000000000E+00  0.20451273140E+03  0.20451273146E+03  0.50400001928E-02 0. -1.
       -1   -1    0    0    0  501  0.00000000000E+00  0.00000000000E+00 -0.31238456118E+03  0.31238456122E+03  0.50400001928E-02 0.  1.
    10030    2    1    2    0    0  0.00000000000E+00  0.00000000000E+00 -0.10787182978E+03  0.51689729267E+03  0.50551605268E+03 0.  0.
        4    1    3    3  502    0 -0.14552179921E+03 -0.20594716082E+03 -0.71473742275E+02  0.26210863364E+03  0.12699999809E+01 0. -1.
       -4    1    3    3    0  502  0.14552179921E+03  0.20594716082E+03 -0.36398087503E+02  0.25478865903E+03  0.12699999809E+01 0.  1.
</event>
<event>
 5   0  0.7881060E-02  0.4978768E+03  0.7818609E-02  0.1014335E+00
        2   -1    0    0  501    0  0.00000000000E+00  0.00000000000E+00  0.17027240608E+04  0.17027240608E+04  0.25500000920E-02 0. -1.
       -2   -1    0    0    0  501  0.00000000000E+00  0.00000000000E+00 -0.36394821514E+02  0.36394821603E+02  0.25500000920E-02 0.  1.
    10030    2    1    2    0    0  0.00000000000E+00  0.00000000000E+00  0.16663292393E+04  0.17391188824E+04  0.49787684565E+03 0.  0.
        1    1    3    3  502    0 -0.60075870926E+02  0.14752352249E+03  0.16491880833E+03  0.22928260580E+03  0.50400001928E-02 0.  1.
       -1    1    3    3    0  502  0.60075870926E+02 -0.14752352249E+03  0.15014104309E+04  0.15098362766E+04  0.50400001928E-02 0. -1.
</event>
<event>
 5   0  0.7698747E-02  0.5003669E+03  0.7818609E-02  0.1013683E+00
       -2   -1    0    0    0  501  0.00000000000E+00  0.00000000000E+00  0.19035887791E+03  0.19035887793E+03  0.25500000920E-02 0. -1.
        2   -1    0    0  501    0  0.00000000000E+00  0.00000000000E+00 -0.32880922985E+03  0.32880922986E+03  0.25500000920E-02 0.  1.
    10030    2    1    2    0    0  0.00000000000E+00  0.00000000000E+00 -0.13845035194E+03  0.51916810780E+03  0.50036688959E+03 0.  0.
        2    1    3    3  502    0 -0.14647047737E+03  0.19221014491E+03 -0.20353694862E+01  0.24166605737E+03  0.25500000920E-02 0. -1.
       -2    1    3    3    0  502  0.14647047737E+03 -0.19221014491E+03 -0.13641498245E+03  0.27750205043E+03  0.25500000920E-02 0.  1.
</event>
<event>
 5   0  0.5191358E-02  0.5041524E+03  0.7818609E-02  0.1012701E+00
        1   -1    0    0  501    0  0.00000000000E+00  0.00000000000E+00  0.13378797683E+03  0.13378797692E+03  0.50400001928E-02 0. -1.
       -1   -1    0    0    0  501  0.00000000000E+00  0.00000000000E+00 -0.47494851317E+03  0.47494851319E+03  0.50400001928E-02 0.  1.
    10030    2    1    2    0    0  0.00000000000E+00  0.00000000000E+00 -0.34116053634E+03  0.60873649012E+03  0.50415236074E+03 0.  0.
        4    1    3    3  502    0 -0.27281612948E+02 -0.24910208844E+03 -0.20352939433E+03  0.32283426728E+03  0.12699999809E+01 0.  1.
       -4    1    3    3    0  502  0.27281612948E+02  0.24910208844E+03 -0.13763114201E+03  0.28590222284E+03  0.12699999809E+01 0. -1.
</event>
<event>
 5   0  0.4865501E-02  0.4920368E+03  0.7818609E-02  0.1015879E+00
        1   -1    0    0  501    0  0.00000000000E+00  0.00000000000E+00  0.44458591418E+03  0.44458591421E+03  0.50400001928E-02 0. -1.
       -1   -1    0    0    0  501  0.00000000000E+00  0.00000000000E+00 -0.13613802661E+03  0.13613802670E+03  0.50400001928E-02 0.  1.
    10030    2    1    2    0    0  0.00000000000E+00  0.00000000000E+00  0.30844788757E+03  0.58072394092E+03  0.49203678339E+03 0.  0.
        2    1    3    3  502    0  0.22663558406E+02  0.15134755032E+03 -0.73123625892E+02  0.16960773136E+03  0.25500000920E-02 0.  1.
       -2    1    3    3    0  502 -0.22663558406E+02 -0.15134755032E+03  0.38157151347E+03  0.41111620956E+03  0.25500000920E-02 0. -1.
</event>
<event>
 5   0  0.7776070E-02  0.4998810E+03  0.7818609E-02  0.1013810E+00
        2   -1    0    0  501    0  0.00000000000E+00  0.00000000000E+00  0.14923548807E+04  0.14923548807E+04  0.25500000920E-02 0.  1.
       -2   -1    0    0    0  501  0.00000000000E+00  0.00000000000E+00 -0.41860189774E+02  0.41860189852E+02  0.25500000920E-02 0. -1.
    10030    2    1    2    0    0  0.00000000000E+00  0.00000000000E+00  0.14504946909E+04  0.15342150705E+04  0.49988102015E+03 0.  0.
        4    1    3    3  502    0 -0.17976727833E+03  0.91164528606E+02  0.27166114471E+03  0.33827302002E+03  0.12699999809E+01 0.  1.
       -4    1    3    3    0  502  0.17976727833E+03 -0.91164528606E+02  0.11788335462E+04  0.11959420505E+04  0.12699999809E+01 0. -1.
</event>
<event>
 5   0  0.7776070E-02  0.5019456E+03  0.7818609E-02  0.1013272E+00
       -2   -1    0    0    0  501  0.00000000000E+00  0.00000000000E+00  0.34121489443E+02  0.34121489538E+02  0.25500000920E-02 0. -1.
        2   -1    0    0  501    0  0.00000000000E+00  0.00000000000E+00 -0.18459730028E+04  0.18459730028E+04  0.25500000920E-02 0.  1.
    10030    2    1    2    0    0  0.00000000000E+00  0.00000000000E+00 -0.18118515134E+04  0.18800944923E+04  0.50194560828E+03 0.  0.
        4    1    3    3  502    0  0.58159009481E+02  0.80841520608E+01 -0.18198702425E+04  0.18208177109E+04  0.12699999809E+01 0.  1.
       -4    1    3    3    0  502 -0.58159009481E+02 -0.80841520608E+01  0.80187291597E+01  0.59276781421E+02  0.12699999809E+01 0. -1.
</event>
<event>
 5   0  0.5191358E-02  0.5062050E+03  0.7818609E-02  0.1012172E+00
        1   -1    0    0  501    0  0.00000000000E+00  0.00000000000E+00  0.10808492306E+04  0.10808492306E+04  0.50400001928E-02 0.  1.
       -1   -1    0    0    0  501  0.00000000000E+00  0.00000000000E+00 -0.59269011221E+02  0.59269011435E+02  0.50400001928E-02 0. -1.
    10030    2    1    2    0    0  0.00000000000E+00  0.00000000000E+00  0.10215802194E+04  0.11401182420E+04  0.50620495969E+03 0.  0.
        4    1    3    3  502    0 -0.18043562009E+03  0.17561173466E+03  0.45280706636E+03  0.51810457110E+03  0.12699999809E+01 0. -1.
       -4    1    3    3    0  502  0.18043562009E+03 -0.17561173466E+03  0.56877315300E+03  0.62201367093E+03  0.12699999809E+01 0.  1.
</event>
<event>
 5   0  0.4865501E-02  0.5019451E+03  0.7818609E-02  0.1013272E+00
        1   -1    0    0  501    0  0.00000000000E+00  0.00000000000E+00  0.26941725223E+03  0.26941725227E+03  0.50400001928E-02 0.  1.
       -1   -1    0    0    0  501  0.00000000000E+00  0.00000000000E+00 -0.23379057234E+03  0.23379057240E+03  0.50400001928E-02 0. -1.
    10030    2    1    2    0    0  0.00000000000E+00  0.00000000000E+00  0.35626679885E+02  0.50320782467E+03  0.50194507119E+03 0.  0.
        2    1    3    3  502    0 -0.15957380260E+03 -0.10277494615E+03 -0.14679694987E+03  0.23994964582E+03  0.25500000920E-02 0. -1.
       -2    1    3    3    0  502  0.15957380260E+03  0.10277494615E+03  0.18242362975E+03  0.26325817885E+03  0.25500000920E-02 0.  1.
</event>
<event>
 5   0  0.7933103E-02  0.4945565E+03  0.7818609E-02  0.1015210E+00
       -2   -1    0    0    0  501  0.00000000000E+00  0.00000000000E+00  0.23009604537E+03  0.23009604538E+03  0.25500000920E-02 0. -1.
        2   -1    0    0  501    0  0.00000000000E+00  0.00000000000E+00 -0.26574356716E+03  0.26574356717E+03  0.25500000920E-02 0.  1.
    10030    2    1    2    0    0  0.00000000000E+00  0.00000000000E+00 -0.35647521789E+02  0.49583961255E+03  0.49455654436E+03 0.  0.
        5    1    3    3  502    0 -0.15427231971E+03 -0.18117663332E+03 -0.85076345210E+02  0.25275481321E+03  0.46999998093E+01 0.  1.
       -5    1    3    3    0  502  0.15427231971E+03  0.18117663332E+03  0.49428823421E+02  0.24308479934E+03  0.46999998093E+01 0. -1.
</event>
<event>
 5   0  0.7933103E-02  0.4998664E+03  0.7818609E-02  0.1013814E+00
       -2   -1    0    0    0  501  0.00000000000E+00  0.00000000000E+00  0.25848688832E+03  0.25848688834E+03  0.25500000920E-02 0.  1.
        2   -1    0    0  501    0  0.00000000000E+00  0.00000000000E+00 -0.24166257709E+03  0.24166257711E+03  0.25500000920E-02 0. -1.
    10030    2    1    2    0    0  0.00000000000E+00  0.00000000000E+00  0.16824311229E+02  0.50014946544E+03  0.49986641249E+03 0.  0.
        5    1    3    3  502    0  0.76757730782E+02 -0.23525946766E+03  0.43155747020E+02  0.25124345734E+03  0.46999998093E+01 0. -1.
       -5    1    3    3    0  502 -0.76757730782E+02  0.23525946766E+03 -0.26331435791E+02  0.24890600810E+03  0.46999998093E+01 0.  1.
</event>
<event>
 5   0  0.4884478E-02  0.4981005E+03  0.7818609E-02  0.1014276E+00
        1   -1    0    0  501    0  0.00000000000E+00  0.00000000000E+00  0.44748431275E+03  0.44748431278E+03  0.50400001928E-02 0. -1.
       -1   -1    0    0    0  501  0.00000000000E+00  0.00000000000E+00 -0.13861047913E+03  0.13861047922E+03  0.50400001928E-02 0.  1.
    10030    2    1    2    0    0  0.00000000000E+00  0.00000000000E+00  0.30887383362E+03  0.58609479200E+03  0.49810045183E+03 0.  0.
        3    1    3    3  502    0 -0.19440704122E+03 -0.13723281359E+02 -0.28015861656E+02  0.19689419705E+03  0.10100000352E+00 0.  1.
       -3    1    3    3    0  502  0.19440704122E+03  0.13723281359E+02  0.33688969527E+03  0.38920059495E+03  0.10100000352E+00 0. -1.
</event>
<event>
 5   0  0.7698747E-02  0.4979336E+03  0.7818609E-02  0.1014320E+00
       -2   -1    0    0    0  501  0.00000000000E+00  0.00000000000E+00  0.28476039862E+02  0.28476039977E+02  0.25500000920E-02 0.  1.
        2   -1    0    0  501    0  0.00000000000E+00  0.00000000000E+00 -0.21767232750E+04  0.21767232750E+04  0.25500000920E-02 0. -1.
    10030    2    1    2    0    0  0.00000000000E+00  0.00000000000E+00 -0.21482472352E+04  0.22051993150E+04  0.49793356535E+03 0.  0.
        2    1    3    3  502    0  0.18603481800E+03 -0.15522132737E+03 -0.13278323829E+04  0.13497560710E+04  0.25500000920E-02 0.  1.
       -2    1    3    3    0  502 -0.18603481800E+03  0.15522132737E+03 -0.82041485224E+03  0.85544324403E+03  0.25500000920E-02 0. -1.
</event>
<event>
 5   0  0.5191358E-02  0.4992146E+03  0.7818609E-02  0.1013984E+00
        1   -1    0    0  501    0  0.00000000000E+00  0.00000000000E+00  0.75257689193E+03  0.75257689195E+03  0.50400001928E-02 0. -1.
       -1   -1    0    0    0  501  0.00000000000E+00  0.00000000000E+00 -0.82787283014E+02  0.82787283167E+02  0.50400001928E-02 0.  1.
    10030    2    1    2    0    0  0.00000000000E+00  0.00000000000E+00  0.66978960892E+03  0.83536417512E+03  0.49921456795E+03 0.  0.
        4    1    3    3  502    0 -0.77651912542E+02  0.12441679962E+03 -0.30770079645E+01  0.14669846771E+03  0.12699999809E+01 0.  1.
       -4    1    3    3    0  502  0.77651912542E+02 -0.12441679962E+03  0.67286661688E+03  0.68866570741E+03  0.12699999809E+01 0. -1.
</event>
<event>
 5   0  0.8208720E-02  0.5025297E+03  0.7818609E-02  0.1013121E+00
        2   -1    0    0  501    0  0.00000000000E+00  0.00000000000E+00  0.42464923798E+03  0.42464923799E+03  0.25500000920E-02 0.  1.
       -2   -1    0    0    0  501  0.00000000000E+00  0.00000000000E+00 -0.14867333257E+03  0.14867333259E+03  0.25500000920E-02 0. -1.
    10030    2    1    2    0    0  0.00000000000E+00  0.00000000000E+00  0.27597590541E+03  0.57332257058E+03  0.50252967033E+03 0.  0.
        3    1    3    3  502    0  0.14239255953E+03 -0.56676090669E+02  0.36515118684E+03  0.39600911570E+03  0.10100000352E+00 0.  1.
       -3    1    3    3    0  502 -0.14239255953E+03  0.56676090669E+02 -0.89175281426E+02  0.17731345488E+03  0.10100000352E+00 0. -1.
</event>
<event>
 5   0  0.3210875E-02  0.4991885E+03  0.7818609E-02  0.1013991E+00
        4   -1    0    0  501    0  0.00000000000E+00  0.00000000000E+00  0.11257674147E+03  0.11258390480E+03  0.12699999809E+01 0.  1.
       -4   -1    0    0    0  501  0.00000000000E+00  0.00000000000E+00 -0.55335067043E+03  0.55335212782E+03  0.12699999809E+01 0. -1.
    10030    2    1    2    0    0  0.00000000000E+00  0.00000000000E+00 -0.44077392896E+03  0.66593603262E+03  0.49918848454E+03 0.  0.
        2    1    3    3  502    0  0.19520692762E+03  0.18414422244E+02 -0.14355070312E+02  0.19659833058E+03  0.25500000920E-02 0.  1.
       -2    1    3    3    0  502 -0.19520692762E+03 -0.18414422244E+02 -0.42641885865E+03  0.46933770204E+03  0.25500000920E-02 0. -1.
</event>
<event>
 5   0  0.7698747E-02  0.5039103E+03  0.7818609E-02  0.1012763E+00
       -2   -1    0    0    0  501  0.00000000000E+00  0.00000000000E+00  0.86677325779E+03  0.86677325780E+03  0.25500000920E-02 0. -1.
        2   -1    0    0  501    0  0.00000000000E+00  0.00000000000E+00 -0.73238771673E+02  0.73238771717E+02  0.25500000920E-02 0.  1.
    10030    2    1    2    0    0  0.00000000000E+00  0.00000000000E+00  0.79353448612E+03  0.94001202951E+03  0.50391034418E+03 0.  0.
        2    1    3    3  502    0  0.15028124446E+03  0.44965105872E+02  0.28963730419E+02  0.15951555056E+03  0.25500000920E-02 0.  1.
       -2    1    3    3    0  502 -0.15028124446E+03 -0.44965105872E+02  0.76457075570E+03  0.78049647895E+03  0.25500000920E-02 0. -1.
</event>
<event>
 5   0  0.4884478E-02  0.5167104E+03  0.7818609E-02  0.1009507E+00
       -1   -1    0    0    0  501  0.00000000000E+00  0.00000000000E+00  0.73248658132E+02  0.73248658306E+02  0.50400001928E-02 0. -1.
        1   -1    0    0  501    0  0.00000000000E+00  0.00000000000E+00 -0.91124427519E+03  0.91124427521E+03  0.50400001928E-02 0.  1.
    10030    2    1    2    0    0  0.00000000000E+00  0.00000000000E+00 -0.83799561706E+03  0.98449293351E+03  0.51671044302E+03 0.  0.
        3    1    3    3  502    0  0.63220441553E+02  0.21990807321E+03 -0.64756360111E+03  0.68680056245E+03  0.10100000352E+00 0.  1.
       -3    1    3    3    0  502 -0.63220441553E+02 -0.21990807321E+03 -0.19043201595E+03  0.29769237107E+03  0.10100000352E+00 0. -1.
</event>
<event>
 5   0  0.7698747E-02  0.5019939E+03  0.7818609E-02  0.1013260E+00
       -2   -1    0    0    0  501  0.00000000000E+00  0.00000000000E+00  0.13699632057E+03  0.13699632060E+03  0.25500000920E-02 0.  1.
        2   -1    0    0  501    0  0.00000000000E+00  0.00000000000E+00 -0.45986244495E+03  0.45986244495E+03  0.25500000920E-02 0. -1.
    10030    2    1    2    0    0  0.00000000000E+00  0.00000000000E+00 -0.32286612437E+03  0.59685876555E+03  0.50199387621E+03 0.  0.
        2    1    3    3  502    0 -0.11755628363E+03 -0.16621535919E+03 -0.33598366543E+03  0.39285117907E+03  0.25500000920E-02 0. -1.
       -2    1    3    3    0  502  0.11755628363E+03  0.16621535919E+03  0.13117541063E+02  0.20400758648E+03  0.25500000920E-02 0.  1.
</event>
<event>
 5   0  0.4884478E-02  0.4990317E+03  0.7818609E-02  0.1014032E+00
       -1   -1    0    0    0  501  0.00000000000E+00  0.00000000000E+00  0.47244066447E+02  0.47244066716E+02  0.50400001928E-02 0. -1.
        1   -1    0    0  501    0  0.00000000000E+00  0.00000000000E+00 -0.13177986396E+04  0.13177986396E+04  0.50400001928E-02 0.  1.
    10030    2    1    2    0    0  0.00000000000E+00  0.00000000000E+00 -0.12705545732E+04  0.13650427064E+04  0.49903172919E+03 0.  0.
        3    1    3    3  502    0 -0.16720622274E+03  0.18194530075E+03 -0.54067325426E+03  0.59446580344E+03  0.10100000352E+00 0.  1.
       -3    1    3    3    0  502  0.16720622274E+03 -0.18194530075E+03 -0.72988131893E+03  0.77057690292E+03  0.10100000352E+00 0. -1.
</event>
<event>
 5   0  0.5191358E-02  0.5040553E+03  0.7818609E-02  0.1012726E+00
        1   -1    0    0  501    0  0.00000000000E+00  0.00000000000E+00  0.41983597911E+03  0.41983597914E+03  0.50400001928E-02 0. -1.
       -1   -1    0    0    0  501  0.00000000000E+00  0.00000000000E+00 -0.15129223784E+03  0.15129223793E+03  0.50400001928E-02 0.  1.
    10030    2    1    2    0    0  0.00000000000E+00  0.00000000000E+00  0.26854374127E+03  0.57112821707E+03  0.50405525427E+03 0.  0.
        4    1    3    3  502    0 -0.16540795743E+03  0.18193551014E+03  0.19690893782E+03  0.31501597567E+03  0.12699999809E+01 0.  1.
       -4    1    3    3    0  502  0.16540795743E+03 -0.18193551014E+03  0.71634803451E+02  0.25611224140E+03  0.12699999809E+01 0. -1.
</event>
<event>
 5   0  0.8208720E-02  0.5004224E+03  0.7818609E-02  0.1013669E+00
       -2   -1    0    0    0  501  0.00000000000E+00  0.00000000000E+00  0.61937759638E+02  0.61937759690E+02  0.25500000920E-02 0.  1.
        2   -1    0    0  501    0  0.00000000000E+00  0.00000000000E+00 -0.10107832371E+04  0.10107832371E+04  0.25500000920E-02 0. -1.
    10030    2    1    2    0    0  0.00000000000E+00  0.00000000000E+00 -0.94884547746E+03  0.10727209968E+04  0.50042241842E+03 0.  0.
        3    1    3    3  502    0  0.19282959853E+03  0.11552848226E+03 -0.70998383631E+03  0.74471950580E+03  0.10100000352E+00 0.  1.
       -3    1    3    3    0  502 -0.19282959853E+03 -0.11552848226E+03 -0.23886164114E+03  0.32800149099E+03  0.10100000352E+00 0. -1.
</event>
<event>
 5   0  0.5038436E-02  0.5008522E+03  0.7818609E-02  0.1013557E+00
        1   -1    0    0  501    0  0.00000000000E+00  0.00000000000E+00  0.40416273491E+03  0.40416273494E+03  0.50400001928E-02 0.  1.
       -1   -1    0    0    0  501  0.00000000000E+00  0.00000000000E+00 -0.15516824366E+03  0.15516824374E+03  0.50400001928E-02 0. -1.
    10030    2    1    2    0    0  0.00000000000E+00  0.00000000000E+00  0.24899449125E+03  0.55933097868E+03  0.50085216086E+03 0.  0.
        1    1    3    3  502    0  0.11958133786E+03 -0.46220780482E+02  0.36473579325E+03  0.38661124637E+03  0.50400001928E-02 0.  1.
       -1    1    3    3    0  502 -0.11958133786E+03  0.46220780482E+02 -0.11574130201E+03  0.17271973231E+03  0.50400001928E-02 0. -1.
</event>
<event>
 5   0  0.4865501E-02  0.4996224E+03  0.7818609E-02  0.1013878E+00
       -1   -1    0    0    0  501  0.00000000000E+00  0.00000000000E+00  0.64246733220E+02  0.64246733418E+02  0.50400001928E-02 0.  1.
        1   -1    0    0  501    0  0.00000000000E+00  0.00000000000E+00 -0.97134316678E+03  0.97134316679E+03  0.50400001928E-02 0. -1.
    10030    2    1    2    0    0  0.00000000000E+00  0.00000000000E+00 -0.90709643356E+03  0.10355899002E+04  0.49962235903E+03 0.  0.
        2    1    3    3  502    0 -0.56635167757E+02  0.12084199232E+03 -0.89126224594E+03  0.90119849111E+03  0.25500000920E-02 0. -1.
       -2    1    3    3    0  502  0.56635167757E+02 -0.12084199232E+03 -0.15834187612E+02  0.13439140909E+03  0.25500000920E-02 0.  1.
</event>
<event>
 5   0  0.4865501E-02  0.5136449E+03  0.7818609E-02  0.1010278E+00
       -1   -1    0    0    0  501  0.00000000000E+00  0.00000000000E+00  0.26264406794E+03  0.26264406799E+03  0.50400001928E-02 0. -1.
        1   -1    0    0  501    0  0.00000000000E+00  0.00000000000E+00 -0.25112982546E+03  0.25112982551E+03  0.50400001928E-02 0.  1.
    10030    2    1    2    0    0  0.00000000000E+00  0.00000000000E+00  0.11514242478E+02  0.51377389350E+03  0.51364485382E+03 0.  0.
        2    1    3    3  502    0 -0.51221762681E+01 -0.20756197965E+03 -0.14544151964E+03  0.25349841760E+03  0.25500000920E-02 0.  1.
       -2    1    3    3    0  502  0.51221762681E+01  0.20756197965E+03  0.15695576212E+03  0.26027547590E+03  0.25500000920E-02 0. -1.
</event>
<event>
 5   0  0.7776070E-02  0.5003192E+03  0.7818609E-02  0.1013696E+00
       -2   -1    0    0    0  501  0.00000000000E+00  0.00000000000E+00  0.64301111776E+02  0.64301111827E+02  0.25500000920E-02 0.  1.
        2   -1    0    0  501    0  0.00000000000E+00  0.00000000000E+00 -0.97323091106E+03  0.97323091106E+03  0.25500000920E-02 0. -1.
    10030    2    1    2    0    0  0.00000000000E+00  0.00000000000E+00 -0.90892979928E+03  0.10375320229E+04  0.50031921660E+03 0.  0.
        4    1    3    3  502    0 -0.10569646251E+03 -0.83688286325E+02 -0.89144256187E+03  0.90158023795E+03  0.12699999809E+01 0. -1.
       -4    1    3    3    0  502  0.10569646251E+03  0.83688286325E+02 -0.17487237414E+02  0.13595178494E+03  0.12699999809E+01 0.  1.
</event>
<event>
 5   0  0.5191358E-02  0.4987948E+03  0.7818609E-02  0.1014094E+00
       -1   -1    0    0    0  501  0.00000000000E+00  0.00000000000E+00  0.54184705061E+03  0.54184705064E+03  0.50400001928E-02 0. -1.
        1   -1    0    0  501    0  0.00000000000E+00  0.00000000000E+00 -0.11479083305E+03  0.11479083316E+03  0.50400001928E-02 0.  1.
    10030    2    1    2    0    0  0.00000000000E+00  0.00000000000E+00  0.42705621757E+03  0.65663788379E+03  0.49879484507E+03 0.  0.
        4    1    3    3  502    0  0.44652303799E+01 -0.15252772064E+03 -0.46158956183E+02  0.15942680446E+03  0.12699999809E+01 0.  1.
       -4    1    3    3    0  502 -0.44652303799E+01  0.15252772064E+03  0.47321517375E+03  0.49721107933E+03  0.12699999809E+01 0. -1.
</event>
<event>
 5   0  0.5191358E-02  0.5007998E+03  0.7818609E-02  0.1013570E+00
        1   -1    0    0  501    0  0.00000000000E+00  0.00000000000E+00  0.57628611648E+03  0.57628611650E+03  0.50400001928E-02 0. -1.
       -1   -1    0    0    0  501  0.00000000000E+00  0.00000000000E+00 -0.10880030478E+03  0.10880030489E+03  0.50400001928E-02 0.  1.
    10030    2    1    2    0    0  0.00000000000E+00  0.00000000000E+00  0.46748581170E+03  0.68508642140E+03  0.50079978099E+03 0.  0.
        4    1    3    3  502    0 -0.20910052071E+03  0.88216001964E+02  0.89011670058E+02  0.24378224109E+03  0.12699999809E+01 0.  1.
       -4    1    3    3    0  502  0.20910052071E+03 -0.88216001964E+02  0.37847414165E+03  0.44130418031E+03  0.12699999809E+01 0. -1.
</event>
<event>
 5   0  0.7933103E-02  0.4998047E+03  0.7818609E-02  0.1013830E+00
        2   -1    0    0  501    0  0.00000000000E+00  0.00000000000E+00  0.10574502560E+04  0.10574502560E+04  0.25500000920E-02 0.  1.
       -2   -1    0    0    0  501  0.00000000000E+00  0.00000000000E+00 -0.59058272130E+02  0.59058272185E+02  0.25500000920E-02 0. -1.
    10030    2    1    2    0    0  0.00000000000E+00  0.00000000000E+00  0.99839198391E+03  0.11165085282E+04  0.49980470193E+03 0.  0.
        5    1    3    3  502    0  0.63153008295E+02 -0.16300527821E+02  0.10379992608E+04  0.10400570008E+04  0.46999998093E+01 0.  1.
       -5    1    3    3    0  502 -0.63153008295E+02  0.16300527821E+02 -0.39607276841E+02  0.76451527394E+02  0.46999998093E+01 0. -1.
</event>
<event>
 5   0  0.7881060E-02  0.5027157E+03  0.7818609E-02  0.1013072E+00
        2   -1    0    0  501    0  0.00000000000E+00  0.00000000000E+00  0.39083977481E+03  0.39083977482E+03  0.25500000920E-02 0.  1.
       -2   -1    0    0    0  501  0.00000000000E+00  0.00000000000E+00 -0.16165390915E+03  0.16165390917E+03  0.25500000920E-02 0. -1.
    10030    2    1    2    0    0  0.00000000000E+00  0.00000000000E+00  0.22918586566E+03  0.55249368398E+03  0.50271573461E+03 0.  0.
        1    1    3    3  502    0  0.18959416613E+03 -0.66050226291E+02  0.28080355782E+03  0.34519446451E+03  0.50400001928E-02 0.  1.
       -1    1    3    3    0  502 -0.18959416613E+03  0.66050226291E+02 -0.51617692156E+02  0.20729921947E+03  0.50400001928E-02 0. -1.
</event>
<event>
 5   0  0.7881060E-02  0.5014608E+03  0.7818609E-02  0.1013398E+00
       -2   -1    0    0    0  501  0.00000000000E+00  0.00000000000E+00  0.42677169453E+02  0.42677169530E+02  0.25500000920E-02 0. -1.
        2   -1    0    0  501    0  0.00000000000E+00  0.00000000000E+00 -0.14730532345E+04  0.14730532345E+04  0.25500000920E-02 0.  1.
    10030    2    1    2    0    0  0.00000000000E+00  0.00000000000E+00 -0.14303760651E+04  0.15157304040E+04  0.50146083621E+03 0.  0.
        1    1    3    3  502    0 -0.46102321652E+02 -0.14121495616E+03 -0.13257192327E+04  0.13340159564E+04  0.50400001928E-02 0.  1.
       -1    1    3    3    0  502  0.46102321652E+02  0.14121495616E+03 -0.10465683235E+03  0.18171444766E+03  0.50400001928E-02 0. -1.
</event>
<event>
 5   0  0.3210875E-02  0.4999173E+03  0.7818609E-02  0.1013801E+00
        3   -1    0    0  501    0  0.00000000000E+00  0.00000000000E+00  0.72001361754E+02  0.72001432592E+02  0.10100000352E+00 0. -1.
       -3   -1    0    0    0  501  0.00000000000E+00  0.00000000000E+00 -0.86775145050E+03  0.86775145638E+03  0.10100000352E+00 0.  1.
    10030    2    1    2    0    0  0.00000000000E+00  0.00000000000E+00 -0.79575008875E+03  0.93975288897E+03  0.49991728175E+03 0.  0.
        1    1    3    3  502    0 -0.14762935809E+03  0.20133868479E+03 -0.37503478661E+03  0.45053610794E+03  0.50400001928E-02 0.  1.
       -1    1    3    3    0  502  0.14762935809E+03 -0.20133868479E+03 -0.42071530214E+03  0.48921678103E+03  0.50400001928E-02 0. -1.
</event>
<event>
 5   0  0.4884478E-02  0.5043741E+03  0.7818609E-02  0.1012643E+00
       -1   -1    0    0    0  501  0.00000000000E+00  0.00000000000E+00  0.70692329266E+02  0.70692329446E+02  0.50400001928E-02 0.  1.
        1   -1    0    0  501    0  0.00000000000E+00  0.00000000000E+00 -0.89964936648E+03  0.89964936650E+03  0.50400001928E-02 0. -1.
    10030    2    1    2    0    0  0.00000000000E+00  0.00000000000E+00 -0.82895703722E+03  0.97034169594E+03  0.50437410454E+03 0.  0.
        3    1    3    3  502    0 -0.28411262604E+02  0.22215271036E+03 -0.19145031125E+03  0.29463920045E+03  0.10100000352E+00 0.  1.
       -3    1    3    3    0  502  0.28411262604E+02 -0.22215271036E+03 -0.63750672597E+03  0.67570249549E+03  0.10100000352E+00 0. -1.
</event>
<event>
 5   0  0.7933103E-02  0.5011067E+03  0.7818609E-02  0.1013490E+00
        2   -1    0    0  501    0  0.00000000000E+00  0.00000000000E+00  0.23172716883E+03  0.23172716884E+03  0.25500000920E-02 0. -1.
       -2   -1    0    0    0  501  0.00000000000E+00  0.00000000000E+00 -0.27090904344E+03  0.27090904345E+03  0.25500000920E-02 0.  1.
    10030    2    1    2    0    0  0.00000000000E+00  0.00000000000E+00 -0.39181874612E+02  0.50263621230E+03  0.50110671779E+03 0.  0.
        5    1    3    3  502    0  0.13723069560E+03 -0.26470887674E+02  0.18894244942E+03  0.23506235535E+03  0.46999998093E+01 0.  1.
       -5    1    3    3    0  502 -0.13723069560E+03  0.26470887674E+02 -0.22812432404E+03  0.26757385695E+03  0.46999998093E+01 0. -1.
</event>
<event>
 5   0  0.7698747E-02  0.4982609E+03  0.7818609E-02  0.1014234E+00
       -2   -1    0    0    0  501  0.00000000000E+00  0.00000000000E+00  0.56756898457E+02  0.56756898514E+02  0.25500000920E-02 0. -1.
        2   -1    0    0  501    0  0.00000000000E+00  0.00000000000E+00 -0.10935409427E+04  0.10935409427E+04  0.25500000920E-02 0.  1.
    10030    2    1    2    0    0  0.00000000000E+00  0.00000000000E+00 -0.10367840442E+04  0.11502978412E+04  0.49826094479E+03 0.  0.
        2    1    3    3  502    0 -0.79595220549E+02  0.76055651936E+02 -0.10343381806E+04  0.10401804330E+04  0.25500000920E-02 0.  1.
       -2    1    3    3    0  502  0.79595220549E+02 -0.76055651936E+02 -0.24458635822E+01  0.11011740816E+03  0.25500000920E-02 0. -1.
</event>
<event>
 5   0  0.4803890E-02  0.4889023E+03  0.7818609E-02  0.1016717E+00
       -1   -1    0    0    0  501  0.00000000000E+00  0.00000000000E+00  0.12992928166E+03  0.12992928176E+03  0.50400001928E-02 0.  1.
        1   -1    0    0  501    0  0.00000000000E+00  0.00000000000E+00 -0.45991447567E+03  0.45991447569E+03  0.50400001928E-02 0. -1.
    10030    2    1    2    0    0  0.00000000000E+00  0.00000000000E+00 -0.32998519400E+03  0.58984375746E+03  0.48890227034E+03 0.  0.
        5    1    3    3  502    0 -0.11320820190E+03 -0.64247889988E+02 -0.41456008100E+03  0.43454118229E+03  0.46999998093E+01 0. -1.
       -5    1    3    3    0  502  0.11320820190E+03  0.64247889988E+02  0.84574886994E+02  0.15530257517E+03  0.46999998093E+01 0.  1.
</event>
<event>
 5   0  0.7881060E-02  0.5063290E+03  0.7818609E-02  0.1012140E+00
        2   -1    0    0  501    0  0.00000000000E+00  0.00000000000E+00  0.30281129033E+03  0.30281129034E+03  0.25500000920E-02 0.  1.
       -2   -1    0    0    0  501  0.00000000000E+00  0.00000000000E+00 -0.21165747881E+03  0.21165747882E+03  0.25500000920E-02 0. -1.
    10030    2    1    2    0    0  0.00000000000E+00  0.00000000000E+00  0.91153811520E+02  0.51446876916E+03  0.50632904033E+03 0.  0.
        1    1    3    3  502    0 -0.23658016711E+02 -0.13785537162E+03 -0.16883310607E+03  0.21924512074E+03  0.50400001928E-02 0. -1.
       -1    1    3    3    0  502  0.23658016711E+02  0.13785537162E+03  0.25998691759E+03  0.29522364841E+03  0.50400001928E-02 0.  1.
</event>
<event>
 5   0  0.7776070E-02  0.4924993E+03  0.7818609E-02  0.1015755E+00
       -2   -1    0    0    0  501  0.00000000000E+00  0.00000000000E+00  0.73006939914E+03  0.73006939915E+03  0.25500000920E-02 0.  1.
        2   -1    0    0  501    0  0.00000000000E+00  0.00000000000E+00 -0.83059076640E+02  0.83059076679E+02  0.25500000920E-02 0. -1.
    10030    2    1    2    0    0  0.00000000000E+00  0.00000000000E+00  0.64701032251E+03  0.81312847583E+03  0.49249930028E+03 0.  0.
        4    1    3    3  502    0 -0.59657493664E+02  0.17716817940E+03  0.58813148476E+03  0.61712870344E+03  0.12699999809E+01 0.  1.
       -4    1    3    3    0  502  0.59657493664E+02 -0.17716817940E+03  0.58878837743E+02  0.19599977239E+03  0.12699999809E+01 0. -1.
</event>
<event>
 5   0  0.7881060E-02  0.5016159E+03  0.7818609E-02  0.1013358E+00
        2   -1    0    0  501    0  0.00000000000E+00  0.00000000000E+00  0.23462022702E+04  0.23462022702E+04  0.25500000920E-02 0.  1.
       -2   -1    0    0    0  501  0.00000000000E+00  0.00000000000E+00 -0.26811252717E+02  0.26811252838E+02  0.25500000920E-02 0. -1.
    10030    2    1    2    0    0  0.00000000000E+00  0.00000000000E+00  0.23193910174E+04  0.23730135230E+04  0.50161587748E+03 0.  0.
        1    1    3    3  502    0 -0.21504159104E+03 -0.12128100390E+03  0.13687413935E+04  0.13908288788E+04  0.50400001928E-02 0.  1.
       -1    1    3    3    0  502  0.21504159104E+03  0.12128100390E+03  0.95064962393E+03  0.98218464420E+03  0.50400001928E-02 0. -1.
</event>
<event>
 5   0  0.7698747E-02  0.5031863E+03  0.7818609E-02  0.1012951E+00
       -2   -1    0    0    0  501  0.00000000000E+00  0.00000000000E+00  0.57176166025E+02  0.57176166082E+02  0.25500000920E-02 0. -1.
        2   -1    0    0  501    0  0.00000000000E+00  0.00000000000E+00 -0.11070890535E+04  0.11070890535E+04  0.25500000920E-02 0.  1.
    10030    2    1    2    0    0  0.00000000000E+00  0.00000000000E+00 -0.10499128874E+04  0.11642652195E+04  0.50318627787E+03 0.  0.
        2    1    3    3  502    0 -0.20428887986E+03 -0.11204526670E+03 -0.30531712125E+03  0.38406592241E+03  0.25500000920E-02 0. -1.
       -2    1    3    3    0  502  0.20428887986E+03  0.11204526670E+03 -0.74459576618E+03  0.78019929713E+03  0.25500000920E-02 0.  1.
</event>
<event>
 5   0  0.4865501E-02  0.4994802E+03  0.7818609E-02  0.1013915E+00
        1   -1    0    0  501    0  0.00000000000E+00  0.00000000000E+00  0.39880663678E+03  0.39880663682E+03  0.50400001928E-02 0.  1.
       -1   -1    0    0    0  501  0.00000000000E+00  0.00000000000E+00 -0.15639184485E+03  0.15639184493E+03  0.50400001928E-02 0. -1.
    10030    2    1    2    0    0  0.00000000000E+00  0.00000000000E+00  0.24241479193E+03  0.55519848175E+03  0.49948015255E+03 0.  0.
        2    1    3    3  502    0 -0.12317649434E+03  0.19576849939E+03  0.16506739277E+02  0.23188408001E+03  0.25500000920E-02 0. -1.
       -2    1    3    3    0  502  0.12317649434E+03 -0.19576849939E+03  0.22590805266E+03  0.32331440174E+03  0.25500000920E-02 0.  1.
</event>
<event>
 5   0  0.4865501E-02  0.5001789E+03  0.7818609E-02  0.1013732E+00
        1   -1    0    0  501    0  0.00000000000E+00  0.00000000000E+00  0.73647357324E+03  0.73647357325E+03  0.50400001928E-02 0.  1.
       -1   -1    0    0    0  501  0.00000000000E+00  0.00000000000E+00 -0.84924617220E+02  0.84924617369E+02  0.50400001928E-02 0. -1.
    10030    2    1    2    0    0  0.00000000000E+00  0.00000000000E+00  0.65154895602E+03  0.82139819062E+03  0.50017891346E+03 0.  0.
        2    1    3    3  502    0 -0.24619366580E+03 -0.23248269897E+02  0.26448392887E+03  0.36208224448E+03  0.25500000920E-02 0.  1.
       -2    1    3    3    0  502  0.24619366580E+03  0.23248269897E+02  0.38706502715E+03  0.45931594614E+03  0.25500000920E-02 0. -1.
</event>
<event>
 5   0  0.7881060E-02  0.4980401E+03  0.7818609E-02  0.1014292E+00
       -2   -1    0    0    0  501  0.00000000000E+00  0.00000000000E+00  0.81349347636E+03  0.81349347637E+03  0.25500000920E-02 0. -1.
        2   -1    0    0  501    0  0.00000000000E+00  0.00000000000E+00 -0.76228008380E+02  0.76228008422E+02  0.25500000920E-02 0.  1.
    10030    2    1    2    0    0  0.00000000000E+00  0.00000000000E+00  0.73726546798E+03  0.88972148479E+03  0.49804010904E+03 0.  0.
        1    1    3    3  502    0  0.18829310960E+03  0.85949019567E+02  0.12129254957E+03  0.23990292139E+03  0.50400001928E-02 0.  1.
       -1    1    3    3    0  502 -0.18829310960E+03 -0.85949019567E+02  0.61597291842E+03  0.64981856340E+03  0.50400001928E-02 0. -1.
</event>
<event>
 5   0  0.5038436E-02  0.5013743E+03  0.7818609E-02  0.1013421E+00
        1   -1    0    0  501    0  0.00000000000E+00  0.00000000000E+00  0.70400644898E+03  0.70400644900E+03  0.50400001928E-02 0.  1.
       -1   -1    0    0    0  501  0.00000000000E+00  0.00000000000E+00 -0.89266291148E+02  0.89266291290E+02  0.50400001928E-02 0. -1.
    10030    2    1    2    0    0  0.00000000000E+00  0.00000000000E+00  0.61474015783E+03  0.79327274029E+03  0.50137429016E+03 0.  0.
        1    1    3    3  502    0 -0.20137776365E+03 -0.13362817245E+03  0.20200774753E+03  0.31498670171E+03  0.50400001928E-02 0.  1.
       -1    1    3    3    0  502  0.20137776365E+03  0.13362817245E+03  0.41273241030E+03  0.47828603858E+03  0.50400001928E-02 0. -1.
</event>
<event>
 5   0  0.4803890E-02  0.4997817E+03  0.7818609E-02  0.1013836E+00
       -1   -1    0    0    0  501  0.00000000000E+00  0.00000000000E+00  0.14815230058E+03  0.14815230067E+03  0.50400001928E-02 0. -1.
        1   -1    0    0  501    0  0.00000000000E+00  0.00000000000E+00 -0.42149487326E+03  0.42149487329E+03  0.50400001928E-02 0.  1.
    10030    2    1    2    0    0  0.00000000000E+00  0.00000000000E+00 -0.27334257268E+03  0.56964717396E+03  0.49978169310E+03 0.  0.
        5    1    3    3  502    0  0.15830088460E+03  0.93382225324E+02 -0.32957560203E+03  0.37738783436E+03  0.46999998093E+01 0.  1.
       -5    1    3    3    0  502 -0.15830088460E+03 -0.93382225324E+02  0.56233029358E+02  0.19225933959E+03  0.46999998093E+01 0. -1.
</event>
<event>
 5   0  0.7881060E-02  0.4957346E+03  0.7818609E-02  0.1014898E+00
       -2   -1    0    0    0  501  0.00000000000E+00  0.00000000000E+00  0.13396405438E+03  0.13396405441E+03  0.25500000920E-02 0.  1.
        2   -1    0    0  501    0  0.00000000000E+00  0.00000000000E+00 -0.45861706088E+03  0.45861706089E+03  0.25500000920E-02 0. -1.
    10030    2    1    2    0    0  0.00000000000E+00  0.00000000000E+00 -0.32465300650E+03  0.59258111529E+03  0.49573461002E+03 0.  0.
        1    1    3    3  502    0  0.17673090947E+03  0.87065780343E+02 -0.34212359064E+03  0.39479465012E+03  0.50400001928E-02 0. -1.
       -1    1    3    3    0  502 -0.17673090947E+03 -0.87065780343E+02  0.17470584142E+02  0.19778646517E+03  0.50400001928E-02 0.  1.
</event>
<event>
 5   0  0.5191358E-02  0.4997971E+03  0.7818609E-02  0.1013832E+00
       -1   -1    0    0    0  501  0.00000000000E+00  0.00000000000E+00  0.55635871105E+02  0.55635871333E+02  0.50400001928E-02 0. -1.
        1   -1    0    0  501    0  0.00000000000E+00  0.00000000000E+00 -0.11224642150E+04  0.11224642150E+04  0.50400001928E-02 0.  1.
    10030    2    1    2    0    0  0.00000000000E+00  0.00000000000E+00 -0.10668283438E+04  0.11781000863E+04  0.49979705691E+03 0.  0.
        4    1    3    3  502    0  0.76460599015E+02 -0.23511888959E+03 -0.61907165128E+03  0.66661715982E+03  0.12699999809E+01 0.  1.
       -4    1    3    3    0  502 -0.76460599015E+02  0.23511888959E+03 -0.44775669257E+03  0.51148292648E+03  0.12699999809E+01 0. -1.
</event>
<event>
 5   0  0.7698747E-02  0.4996699E+03  0.7818609E-02  0.1013865E+00
        2   -1    0    0  501    0  0.00000000000E+00  0.00000000000E+00  0.10647674183E+04  0.10647674183E+04  0.25500000920E-02 0. -1.
       -2   -1    0    0    0  501  0.00000000000E+00  0.00000000000E+00 -0.58620795509E+02  0.58620795565E+02  0.25500000920E-02 0.  1.
    10030    2    1    2    0    0  0.00000000000E+00  0.00000000000E+00  0.10061466228E+04  0.11233882139E+04  0.49966994357E+03 0.  0.
        2    1    3    3  502    0  0.99987385424E+02 -0.21828785761E+03  0.65835712158E+03  0.70077183560E+03  0.25500000920E-02 0. -1.
       -2    1    3    3    0  502 -0.99987385424E+02  0.21828785761E+03  0.34778950120E+03  0.42261637826E+03  0.25500000920E-02 0.  1.
</event>
<event>
 5   0  0.5191358E-02  0.5053862E+03  0.7818609E-02  0.1012383E+00
       -1   -1    0    0    0  501  0.00000000000E+00  0.00000000000E+00  0.24128342313E+03  0.24128342318E+03  0.50400001928E-02 0. -1.
        1   -1    0    0  501    0  0.00000000000E+00  0.00000000000E+00 -0.26464231966E+03  0.26464231971E+03  0.50400001928E-02 0.  1.
    10030    2    1    2    0    0  0.00000000000E+00  0.00000000000E+00 -0.23358896529E+02  0.50592574289E+03  0.50538620804E+03 0.  0.
        4    1    3    3  502    0  0.26950291845E+02 -0.25009336390E+03  0.12412465720E+02  0.25185053325E+03  0.12699999809E+01 0.  1.
       -4    1    3    3    0  502 -0.26950291845E+02  0.25009336390E+03 -0.35771362249E+02  0.25407520964E+03  0.12699999809E+01 0. -1.
</event>
<event>
 5   0  0.5038436E-02  0.5015894E+03  0.7818609E-02  0.1013365E+00
       -1   -1    0    0    0  501  0.00000000000E+00  0.00000000000E+00  0.72455948266E+02  0.72455948441E+02  0.50400001928E-02 0.  1.
        1   -1    0    0  501    0  0.00000000000E+00  0.00000000000E+00 -0.86808593210E+03  0.86808593212E+03  0.50400001928E-02 0. -1.
    10030    2    1    2    0    0  0.00000000000E+00  0.00000000000E+00 -0.79562998384E+03  0.94054188056E+03  0.50158943161E+03 0.  0.
        1    1    3    3  502    0 -0.22286845449E+03  0.57172778011E+02 -0.21068828633E+03  0.31197536534E+03  0.50400001928E-02 0.  1.
       -1    1    3    3    0  502  0.22286845449E+03 -0.57172778011E+02 -0.58494169750E+03  0.62856651522E+03  0.50400001928E-02 0. -1.
</event>
<event>
 5   0  0.7933103E-02  0.5009474E+03  0.7818609E-02  0.1013532E+00
       -2   -1    0    0    0  501  0.00000000000E+00  0.00000000000E+00  0.98809208024E+02  0.98809208057E+02  0.25500000920E-02 0.  1.
        2   -1    0    0  501    0  0.00000000000E+00  0.00000000000E+00 -0.63493137033E+03  0.63493137034E+03  0.25500000920E-02 0. -1.
    10030    2    1    2    0    0  0.00000000000E+00  0.00000000000E+00 -0.53612216231E+03  0.73374057840E+03  0.50094736596E+03 0.  0.
        5    1    3    3  502    0  0.91499005549E+02 -0.11327811662E+03 -0.56648382104E+03  0.58491880566E+03  0.46999998093E+01 0. -1.
       -5    1    3    3    0  502 -0.91499005549E+02  0.11327811662E+03  0.30361658728E+02  0.14882177273E+03  0.46999998093E+01 0.  1.
</event>
<event>
 5   0  0.4884478E-02  0.4979216E+03  0.7818609E-02  0.1014323E+00
        1   -1    0    0  501    0  0.00000000000E+00  0.00000000000E+00  0.15132674996E+04  0.15132674996E+04  0.50400001928E-02 0. -1.
       -1   -1    0    0    0  501  0.00000000000E+00  0.00000000000E+00 -0.40958703043E+02  0.40958703353E+02  0.50400001928E-02 0.  1.
    10030    2    1    2    0    0  0.00000000000E+00  0.00000000000E+00  0.14723087965E+04  0.15542262029E+04  0.49792157771E+03 0.  0.
        3    1    3    3  502    0 -0.70811379348E+02 -0.53284127979E+02  0.99408821758E+01  0.89175563239E+02  0.10100000352E+00 0.  1.
       -3    1    3    3    0  502  0.70811379348E+02  0.53284127979E+02  0.14623679144E+04  0.14650506397E+04  0.10100000352E+00 0. -1.
</event>
<event>
 5   0  0.3210875E-02  0.5000474E+03  0.7818609E-02  0.1013767E+00
       -3   -1    0    0    0  501  0.00000000000E+00  0.00000000000E+00  0.51328226678E+03  0.51328227671E+03  0.10100000352E+00 0. -1.
        3   -1    0    0  501    0  0.00000000000E+00  0.00000000000E+00 -0.12178843181E+03  0.12178847369E+03  0.10100000352E+00 0.  1.
    10030    2    1    2    0    0  0.00000000000E+00  0.00000000000E+00  0.39149383497E+03  0.63507075040E+03  0.50004743295E+03 0.  0.
        3    1    3    3  502    0  0.18212769565E+03 -0.11543557660E+03  0.35020357229E+02  0.21845435562E+03  0.10100000352E+00 0.  1.
       -3    1    3    3    0  502 -0.18212769565E+03  0.11543557660E+03  0.35647347774E+03  0.41661639478E+03  0.10100000352E+00 0. -1.
</event>
<event>
 5   0  0.4884478E-02  0.4967502E+03  0.7818609E-02  0.1014631E+00
        1   -1    0    0  501    0  0.00000000000E+00  0.00000000000E+00  0.28531685293E+03  0.28531685297E+03  0.50400001928E-02 0.  1.
       -1   -1    0    0    0  501  0.00000000000E+00  0.00000000000E+00 -0.21621646177E+03  0.21621646183E+03  0.50400001928E-02 0. -1.
    10030    2    1    2    0    0  0.00000000000E+00  0.00000000000E+00  0.69100391157E+02  0.50153331480E+03  0.49675024086E+03 0.  0.
        3    1    3    3  502    0 -0.49898202320E+02 -0.17209528470E+03 -0.13910469168E+03  0.22684078791E+03  0.10100000352E+00 0. -1.
       -3    1    3    3    0  502  0.49898202320E+02  0.17209528470E+03  0.20820508284E+03  0.27469252689E+03  0.10100000352E+00 0.  1.
</event>
<event>
 5   0  0.7698747E-02  0.5001465E+03  0.7818609E-02  0.1013741E+00
       -2   -1    0    0    0  501  0.00000000000E+00  0.00000000000E+00  0.58801909503E+02  0.58801909559E+02  0.25500000920E-02 0.  1.
        2   -1    0    0  501    0  0.00000000000E+00  0.00000000000E+00 -0.10635134582E+04  0.10635134582E+04  0.25500000920E-02 0. -1.
    10030    2    1    2    0    0  0.00000000000E+00  0.00000000000E+00 -0.10047115487E+04  0.11223153678E+04  0.50014646719E+03 0.  0.
        2    1    3    3  502    0 -0.23775123325E+03  0.35922910972E+02 -0.34818128461E+03  0.42313864324E+03  0.25500000920E-02 0. -1.
       -2    1    3    3    0  502  0.23775123325E+03 -0.35922910972E+02 -0.65653026413E+03  0.69917672456E+03  0.25500000920E-02 0.  1.
</event>
<event>
 5   0  0.7776070E-02  0.5014356E+03  0.7818609E-02  0.1013405E+00
       -2   -1    0    0    0  501  0.00000000000E+00  0.00000000000E+00  0.32761857560E+02  0.32761857660E+02  0.25500000920E-02 0.  1.
        2   -1    0    0  501    0  0.00000000000E+00  0.00000000000E+00 -0.19186769896E+04  0.19186769896E+04  0.25500000920E-02 0. -1.
    10030    2    1    2    0    0  0.00000000000E+00  0.00000000000E+00 -0.18859151320E+04  0.19514388473E+04  0.50143562832E+03 0.  0.
        4    1    3    3  502    0 -0.91279945034E+02 -0.23262133070E+03 -0.10220556714E+04  0.10521616417E+04  0.12699999809E+01 0. -1.
       -4    1    3    3    0  502  0.91279945034E+02  0.23262133070E+03 -0.86385946067E+03  0.89927720562E+03  0.12699999809E+01 0.  1.
</event>
<event>
 5   0  0.4884478E-02  0.4999563E+03  0.7818609E-02  0.1013790E+00
       -1   -1    0    0    0  501  0.00000000000E+00  0.00000000000E+00  0.56142402424E+02  0.56142402650E+02  0.50400001928E-02 0.  1.
        1   -1    0    0  501    0  0.00000000000E+00  0.00000000000E+00 -0.11130457944E+04  0.11130457944E+04  0.50400001928E-02 0. -1.
    10030    2    1    2    0    0  0.00000000000E+00  0.00000000000E+00 -0.10569033920E+04  0.11691881970E+04  0.49995625826E+03 0.  0.
        3    1    3    3  502    0  0.32182884393E+02  0.16853721498E+03 -0.10331514280E+03  0.20028619476E+03  0.10100000352E+00 0.  1.
       -3    1    3    3    0  502 -0.32182884393E+02 -0.16853721498E+03 -0.95358824916E+03  0.96890200228E+03  0.10100000352E+00 0. -1.
</event>
<event>
 5   0  0.7698747E-02  0.5056291E+03  0.7818609E-02  0.1012320E+00
       -2   -1    0    0    0  501  0.00000000000E+00  0.00000000000E+00  0.20734769176E+03  0.20734769178E+03  0.25500000920E-02 0.  1.
        2   -1    0    0  501    0  0.00000000000E+00  0.00000000000E+00 -0.30825132938E+03  0.30825132939E+03  0.25500000920E-02 0. -1.
    10030    2    1    2    0    0  0.00000000000E+00  0.00000000000E+00 -0.10090363762E+03  0.51559902117E+03  0.50562911956E+03 0.  0.
        2    1    3    3  502    0  0.12494046932E+03 -0.51952789849E+02 -0.26821825459E+03  0.30041678607E+03  0.25500000920E-02 0. -1.
       -2    1    3    3    0  502 -0.12494046932E+03  0.51952789849E+02  0.16731461697E+03  0.21518223511E+03  0.25500000920E-02 0.  1.
</event>
<event>
 5   0  0.7776070E-02  0.5000190E+03  0.7818609E-02  0.1013774E+00
       -2   -1    0    0    0  501  0.00000000000E+00  0.00000000000E+00  0.56612199425E+02  0.56612199482E+02  0.25500000920E-02 0. -1.
        2   -1    0    0  501    0  0.00000000000E+00  0.00000000000E+00 -0.11040862693E+04  0.11040862693E+04  0.25500000920E-02 0.  1.
    10030    2    1    2    0    0  0.00000000000E+00  0.00000000000E+00 -0.10474740698E+04  0.11606984687E+04  0.50001900801E+03 0.  0.
        4    1    3    3  502    0 -0.67717736559E+02  0.12590553834E+03 -0.99983310556E+03  0.10100028457E+04  0.12699999809E+01 0.  1.
       -4    1    3    3    0  502  0.67717736559E+02 -0.12590553834E+03 -0.47640964273E+02  0.15069562305E+03  0.12699999809E+01 0. -1.
</event>
<event>
 5   0  0.8208720E-02  0.5010553E+03  0.7818609E-02  0.1013504E+00
       -2   -1    0    0    0  501  0.00000000000E+00  0.00000000000E+00  0.15779467677E+03  0.15779467679E+03  0.25500000920E-02 0. -1.
        2   -1    0    0  501    0  0.00000000000E+00  0.00000000000E+00 -0.39775802176E+03  0.39775802177E+03  0.25500000920E-02 0.  1.
    10030    2    1    2    0    0  0.00000000000E+00  0.00000000000E+00 -0.23996334499E+03  0.55555269856E+03  0.50105528032E+03 0.  0.
        3    1    3    3  502    0 -0.46636073474E+02 -0.24506238317E+03 -0.94369595572E+02  0.26671356501E+03  0.10100000352E+00 0.  1.
       -3    1    3    3    0  502  0.46636073474E+02  0.24506238317E+03 -0.14559374942E+03  0.28883913354E+03  0.10100000352E+00 0. -1.
</event>
<event>
 5   0  0.4884478E-02  0.5072472E+03  0.7818609E-02  0.1011904E+00
       -1   -1    0    0    0  501  0.00000000000E+00  0.00000000000E+00  0.67134887042E+03  0.67134887043E+03  0.50400001928E-02 0.  1.
        1   -1    0    0  501    0  0.00000000000E+00  0.00000000000E+00 -0.95814458049E+02  0.95814458181E+02  0.50400001928E-02 0. -1.
    10030    2    1    2    0    0  0.00000000000E+00  0.00000000000E+00  0.57553441237E+03  0.76716332862E+03  0.50724719117E+03 0.  0.
        3    1    3    3  502    0  0.31808319412E+02 -0.14017657654E+03  0.60379722211E+03  0.62067087690E+03  0.10100000352E+00 0.  1.
       -3    1    3    3    0  502 -0.31808319412E+02  0.14017657654E+03 -0.28262809748E+02  0.14649245172E+03  0.10100000352E+00 0. -1.
</event>
<event>
 5   0  0.7698747E-02  0.4945835E+03  0.7818609E-02  0.1015202E+00
       -2   -1    0    0    0  501  0.00000000000E+00  0.00000000000E+00  0.50407210666E+02  0.50407210730E+02  0.25500000920E-02 0. -1.
        2   -1    0    0  501    0  0.00000000000E+00  0.00000000000E+00 -0.12131835958E+04  0.12131835958E+04  0.25500000920E-02 0.  1.
    10030    2    1    2    0    0  0.00000000000E+00  0.00000000000E+00 -0.11627763851E+04  0.12635908065E+04  0.49458346568E+03 0.  0.
        2    1    3    3  502    0  0.24034694775E+03  0.85902446208E+01 -0.72843697281E+03  0.76711203286E+03  0.25500000920E-02 0.  1.
       -2    1    3    3    0  502 -0.24034694775E+03 -0.85902446208E+01 -0.43433941229E+03  0.49647877364E+03  0.25500000920E-02 0. -1.
</event>
<event>
 5   0  0.4803890E-02  0.5002195E+03  0.7818609E-02  0.1013722E+00
       -1   -1    0    0    0  501  0.00000000000E+00  0.00000000000E+00  0.64555759404E+02  0.64555759601E+02  0.50400001928E-02 0.  1.
        1   -1    0    0  501    0  0.00000000000E+00  0.00000000000E+00 -0.96900554735E+03  0.96900554736E+03  0.50400001928E-02 0. -1.
    10030    2    1    2    0    0  0.00000000000E+00  0.00000000000E+00 -0.90444978794E+03  0.10335613070E+04  0.50021950815E+03 0.  0.
        5    1    3    3  502    0 -0.12578963864E+03 -0.18643103409E+03 -0.22632378952E+03  0.31909890530E+03  0.46999998093E+01 0.  1.
       -5    1    3    3    0  502  0.12578963864E+03  0.18643103409E+03 -0.67812599842E+03  0.71446240167E+03  0.46999998093E+01 0. -1.
</event>
<event>
 5   0  0.4865501E-02  0.4975277E+03  0.7818609E-02  0.1014426E+00
        1   -1    0    0  501    0  0.00000000000E+00  0.00000000000E+00  0.40471526595E+03  0.40471526598E+03  0.50400001928E-02 0. -1.
       -1   -1    0    0    0  501  0.00000000000E+00  0.00000000000E+00 -0.15290616334E+03  0.15290616343E+03  0.50400001928E-02 0.  1.
    10030    2    1    2    0    0  0.00000000000E+00  0.00000000000E+00  0.25180910260E+03  0.55762142940E+03  0.49752772222E+03 0.  0.
        2    1    3    3  502    0 -0.16236317033E+03  0.11244572689E+03  0.29542713892E+03  0.35536324372E+03  0.25500000920E-02 0. -1.
       -2    1    3    3    0  502  0.16236317033E+03 -0.11244572689E+03 -0.43618036313E+02  0.20225818568E+03  0.25500000920E-02 0.  1.
</event>
<event>
 5   0  0.7698747E-02  0.4996460E+03  0.7818609E-02  0.1013871E+00
        2   -1    0    0  501    0  0.00000000000E+00  0.00000000000E+00  0.11675635851E+04  0.11675635851E+04  0.25500000920E-02 0. -1.
       -2   -1    0    0    0  501  0.00000000000E+00  0.00000000000E+00 -0.53454510893E+02  0.53454510953E+02  0.25500000920E-02 0.  1.
    10030    2    1    2    0    0  0.00000000000E+00  0.00000000000E+00  0.11141090742E+04  0.12210180960E+04  0.49964603637E+03 0.  0.
        2    1    3    3  502    0 -0.55838163716E+02 -0.21178160471E+03  0.85073577888E+03  0.87847635944E+03  0.25500000920E-02 0.  1.
       -2    1    3    3    0  502  0.55838163716E+02  0.21178160471E+03  0.26337329528E+03  0.34254173657E+03  0.25500000920E-02 0. -1.
</event>
<event>
 5   0  0.4884478E-02  0.5021911E+03  0.7818609E-02  0.1013209E+00
       -1   -1    0    0    0  501  0.00000000000E+00  0.00000000000E+00  0.78132783932E+02  0.78132784094E+02  0.50400001928E-02 0.  1.
        1   -1    0    0  501    0  0.00000000000E+00  0.00000000000E+00 -0.80694648137E+03  0.80694648139E+03  0.50400001928E-02 0. -1.
    10030    2    1    2    0    0  0.00000000000E+00  0.00000000000E+00 -0.72881369744E+03  0.88507926548E+03  0.50219109969E+03 0.  0.
        3    1    3    3  502    0  0.13773747823E+03 -0.65153319223E+02 -0.71615463784E+03  0.73218443265E+03  0.10100000352E+00 0. -1.
       -3    1    3    3    0  502 -0.13773747823E+03  0.65153319223E+02 -0.12659059602E+02  0.15289483283E+03  0.10100000352E+00 0.  1.
</event>
<event>
 5   0  0.4884478E-02  0.5000789E+03  0.7818609E-02  0.1013758E+00
        1   -1    0    0  501    0  0.00000000000E+00  0.00000000000E+00  0.85776594065E+03  0.85776594067E+03  0.50400001928E-02 0. -1.
       -1   -1    0    0    0  501  0.00000000000E+00  0.00000000000E+00 -0.72886686442E+02  0.72886686616E+02  0.50400001928E-02 0.  1.
    10030    2    1    2    0    0  0.00000000000E+00  0.00000000000E+00  0.78487925421E+03  0.93065262728E+03  0.50007886276E+03 0.  0.
        3    1    3    3  502    0 -0.16825979230E+03 -0.87844690013E+02  0.89536543939E+02  0.20986864980E+03  0.10100000352E+00 0.  1.
       -3    1    3    3    0  502  0.16825979230E+03  0.87844690013E+02  0.69534271027E+03  0.72078397748E+03  0.10100000352E+00 0. -1.
</event>
<event>
 5   0  0.4884478E-02  0.4857626E+03  0.7818609E-02  0.1017563E+00
        1   -1    0    0  501    0  0.00000000000E+00  0.00000000000E+00  0.66954015192E+02  0.66954015382E+02  0.50400001928E-02 0.  1.
       -1   -1    0    0    0  501  0.00000000000E+00  0.00000000000E+00 -0.88107235527E+03  0.88107235528E+03  0.50400001928E-02 0. -1.
    10030    2    1    2    0    0  0.00000000000E+00  0.00000000000E+00 -0.81411834007E+03  0.94802637066E+03  0.48576262498E+03 0.  0.
        3    1    3    3  502    0  0.64101026583E+02 -0.97330938161E+02  0.88204307377E+01  0.11687627360E+03  0.10100000352E+00 0.  1.
       -3    1    3    3    0  502 -0.64101026583E+02  0.97330938161E+02 -0.82293877081E+03  0.83115009706E+03  0.10100000352E+00 0. -1.
</event>
<event>
 5   0  0.3210875E-02  0.5011324E+03  0.7818609E-02  0.1013484E+00
       -4   -1    0    0    0  501  0.00000000000E+00  0.00000000000E+00  0.43739982260E+02  0.43758415740E+02  0.12699999809E+01 0.  1.
        4   -1    0    0  501    0  0.00000000000E+00  0.00000000000E+00 -0.14350569517E+04  0.14350575137E+04  0.12699999809E+01 0. -1.
    10030    2    1    2    0    0  0.00000000000E+00  0.00000000000E+00 -0.13913169695E+04  0.14788159294E+04  0.50113236137E+03 0.  0.
        3    1    3    3  502    0  0.87876853119E+02  0.22613793049E+03 -0.88048062084E+03  0.91329449730E+03  0.10100000352E+00 0.  1.
       -3    1    3    3    0  502 -0.87876853119E+02 -0.22613793049E+03 -0.51083634864E+03  0.56552143214E+03  0.10100000352E+00 0. -1.
</event>
<event>
 5   0  0.7933103E-02  0.4988715E+03  0.7818609E-02  0.1014074E+00
        2   -1    0    0  501    0  0.00000000000E+00  0.00000000000E+00  0.99444465471E+03  0.99444465471E+03  0.25500000920E-02 0. -1.
       -2   -1    0    0    0  501  0.00000000000E+00  0.00000000000E+00 -0.62565763335E+02  0.62565763387E+02  0.25500000920E-02 0.  1.
    10030    2    1    2    0    0  0.00000000000E+00  0.00000000000E+00  0.93187889137E+03  0.10570104181E+04  0.49887148223E+03 0.  0.
        5    1    3    3  502    0  0.65989729298E+02  0.21679759992E+03  0.24533698951E+03  0.33401822124E+03  0.46999998093E+01 0.  1.
       -5    1    3    3    0  502 -0.65989729298E+02 -0.21679759992E+03  0.68654190186E+03  0.72299219686E+03  0.46999998093E+01 0. -1.
</event>
<event>
 5   0  0.5191358E-02  0.4999013E+03  0.7818609E-02  0.1013805E+00
       -1   -1    0    0    0  501  0.00000000000E+00  0.00000000000E+00  0.18498079762E+03  0.18498079769E+03  0.50400001928E-02 0. -1.
        1   -1    0    0  501    0  0.00000000000E+00  0.00000000000E+00 -0.33773950652E+03  0.33773950656E+03  0.50400001928E-02 0.  1.
    10030    2    1    2    0    0  0.00000000000E+00  0.00000000000E+00 -0.15275870890E+03  0.52272030425E+03  0.49990128358E+03 0.  0.
        4    1    3    3  502    0 -0.56505107962E+02 -0.24184806767E+03 -0.10577664547E+03  0.26995115612E+03  0.12699999809E+01 0.  1.
       -4    1    3    3    0  502  0.56505107962E+02  0.24184806767E+03 -0.46982063428E+02  0.25276914813E+03  0.12699999809E+01 0. -1.
</event>
<event>
 5   0  0.4884478E-02  0.5012344E+03  0.7818609E-02  0.1013457E+00
        1   -1    0    0  501    0  0.00000000000E+00  0.00000000000E+00  0.24290003287E+04  0.24290003287E+04  0.50400001928E-02 0.  1.
       -1   -1    0    0    0  501  0.00000000000E+00  0.00000000000E+00 -0.25857952970E+02  0.25857953461E+02  0.50400001928E-02 0. -1.
    10030    2    1    2    0    0  0.00000000000E+00  0.00000000000E+00  0.24031423757E+04  0.24548582821E+04  0.50123438378E+03 0.  0.
        3    1    3    3  502    0 -0.58332379462E+02 -0.68010245087E+02  0.23478761664E+04  0.23495851896E+04  0.10100000352E+00 0.  1.
       -3    1    3    3    0  502  0.58332379462E+02  0.68010245087E+02  0.55266209262E+02  0.10527309256E+03  0.10100000352E+00 0. -1.
</event>
<event>
 5   0  0.3210875E-02  0.4992579E+03  0.7818609E-02  0.1013973E+00
        3   -1    0    0  501    0  0.00000000000E+00  0.00000000000E+00  0.77755972425E+03  0.77755973081E+03  0.10100000352E+00 0.  1.
       -3   -1    0    0    0  501  0.00000000000E+00  0.00000000000E+00 -0.80141216964E+02  0.80141280608E+02  0.10100000352E+00 0. -1.
    10030    2    1    2    0    0  0.00000000000E+00  0.00000000000E+00  0.69741850729E+03  0.85770101142E+03  0.49925789997E+03 0.  0.
        5    1    3    3  502    0 -0.15765507540E+02  0.21983904596E+03  0.54989868669E+03  0.59244275081E+03  0.46999998093E+01 0.  1.
       -5    1    3    3    0  502  0.15765507540E+02 -0.21983904596E+03  0.14751982060E+03  0.26525826062E+03  0.46999998093E+01 0. -1.
</event>
<event>
 5   0  0.7698747E-02  0.4919593E+03  0.7818609E-02  0.1015899E+00
        2   -1    0    0  501    0  0.00000000000E+00  0.00000000000E+00  0.10360207182E+04  0.10360207182E+04  0.25500000920E-02 0. -1.
       -2   -1    0    0    0  501  0.00000000000E+00  0.00000000000E+00 -0.58402295046E+02  0.58402295102E+02  0.25500000920E-02 0.  1.
    10030    2    1    2    0    0  0.00000000000E+00  0.00000000000E+00  0.97761842316E+03  0.10944230133E+04  0.49195929787E+03 0.  0.
        2    1    3    3  502    0 -0.13612907887E+03  0.20395077991E+03  0.53211458737E+03  0.58589502544E+03  0.25500000920E-02 0.  1.
       -2    1    3    3    0  502  0.13612907887E+03 -0.20395077991E+03  0.44550383579E+03  0.50852798787E+03  0.25500000920E-02 0. -1.
</event>
<event>
 5   0  0.3210875E-02  0.4969342E+03  0.7818609E-02  0.1014582E+00
        4   -1    0    0  501    0  0.00000000000E+00  0.00000000000E+00  0.16021288682E+03  0.16021792035E+03  0.12699999809E+01 0.  1.
       -4   -1    0    0    0  501  0.00000000000E+00  0.00000000000E+00 -0.38532451892E+03  0.38532661183E+03  0.12699999809E+01 0. -1.
    10030    2    1    2    0    0  0.00000000000E+00  0.00000000000E+00 -0.22511163211E+03  0.54554453218E+03  0.49693419050E+03 0.  0.
        4    1    3    3  502    0  0.10733044604E+03  0.10618474633E+03 -0.32918909497E+03  0.36216308226E+03  0.12699999809E+01 0. -1.
       -4    1    3    3    0  502 -0.10733044604E+03 -0.10618474633E+03  0.10407746287E+03  0.18338144993E+03  0.12699999809E+01 0.  1.
</event>
<event>
 5   0  0.7933103E-02  0.4989286E+03  0.7818609E-02  0.1014059E+00
       -2   -1    0    0    0  501  0.00000000000E+00  0.00000000000E+00  0.96134271128E+02  0.96134271162E+02  0.25500000920E-02 0.  1.
        2   -1    0    0  501    0  0.00000000000E+00  0.00000000000E+00 -0.64734921211E+03  0.64734921212E+03  0.25500000920E-02 0. -1.
    10030    2    1    2    0    0  0.00000000000E+00  0.00000000000E+00 -0.55121494099E+03  0.74348348328E+03  0.49892863091E+03 0.  0.
        5    1    3    3  502    0  0.24329634379E+01  0.24634265388E+03 -0.21751545567E+03  0.32867261201E+03  0.46999998093E+01 0. -1.
       -5    1    3    3    0  502 -0.24329634379E+01 -0.24634265388E+03 -0.33369948531E+03  0.41481087127E+03  0.46999998093E+01 0.  1.
</event>
<event>
 5   0  0.5038436E-02  0.4954684E+03  0.7818609E-02  0.1014969E+00
        1   -1    0    0  501    0  0.00000000000E+00  0.00000000000E+00  0.19748913638E+03  0.19748913644E+03  0.50400001928E-02 0. -1.
       -1   -1    0    0    0  501  0.00000000000E+00  0.00000000000E+00 -0.31076253816E+03  0.31076253820E+03  0.50400001928E-02 0.  1.
    10030    2    1    2    0    0  0.00000000000E+00  0.00000000000E+00 -0.11327340178E+03  0.50825167464E+03  0.49546836552E+03 0.  0.
        1    1    3    3  502    0  0.55312162023E+02  0.14339773910E+02  0.19063687849E+03  0.19901629041E+03  0.50400001928E-02 0. -1.
       -1    1    3    3    0  502 -0.55312162023E+02 -0.14339773910E+02 -0.30391028027E+03  0.30923538424E+03  0.50400001928E-02 0.  1.
</event>
<event>
 5   0  0.8208720E-02  0.4978767E+03  0.7818609E-02  0.1014335E+00
       -2   -1    0    0    0  501  0.00000000000E+00  0.00000000000E+00  0.16898655736E+03  0.16898655738E+03  0.25500000920E-02 0.  1.
        2   -1    0    0  501    0  0.00000000000E+00  0.00000000000E+00 -0.36671735847E+03  0.36671735848E+03  0.25500000920E-02 0. -1.
    10030    2    1    2    0    0  0.00000000000E+00  0.00000000000E+00 -0.19773080111E+03  0.53570391586E+03  0.49787670739E+03 0.  0.
        3    1    3    3  502    0 -0.22646323893E+03  0.13202764860E+02 -0.20917473538E+03  0.30856764527E+03  0.10100000352E+00 0. -1.
       -3    1    3    3    0  502  0.22646323893E+03 -0.13202764860E+02  0.11443934266E+02  0.22713627059E+03  0.10100000352E+00 0.  1.
</event>
<event>
 5   0  0.7933103E-02  0.4984328E+03  0.7818609E-02  0.1014189E+00
        2   -1    0    0  501    0  0.00000000000E+00  0.00000000000E+00  0.11405314354E+04  0.11405314354E+04  0.25500000920E-02 0. -1.
       -2   -1    0    0    0  501  0.00000000000E+00  0.00000000000E+00 -0.54456032117E+02  0.54456032176E+02  0.25500000920E-02 0.  1.
    10030    2    1    2    0    0  0.00000000000E+00  0.00000000000E+00  0.10860754033E+04  0.11949874676E+04  0.49843280997E+03 0.  0.
        5    1    3    3  502    0  0.23582847687E+03  0.75522614061E+02  0.47659692035E+03  0.53710841571E+03  0.46999998093E+01 0. -1.
       -5    1    3    3    0  502 -0.23582847687E+03 -0.75522614061E+02  0.60947848291E+03  0.65787905185E+03  0.46999998093E+01 0.  1.
</event>
<event>
 5   0  0.5038436E-02  0.4981393E+03  0.7818609E-02  0.1014266E+00
        1   -1    0    0  501    0  0.00000000000E+00  0.00000000000E+00  0.76349781771E+02  0.76349781938E+02  0.50400001928E-02 0.  1.
       -1   -1    0    0    0  501  0.00000000000E+00  0.00000000000E+00 -0.81251951621E+03  0.81251951623E+03  0.50400001928E-02 0. -1.
    10030    2    1    2    0    0  0.00000000000E+00  0.00000000000E+00 -0.73616973444E+03  0.88886929817E+03  0.49813928907E+03 0.  0.
        1    1    3    3  502    0 -0.13221051980E+03  0.20929953385E+03 -0.31922508347E+03  0.40396852644E+03  0.50400001928E-02 0.  1.
       -1    1    3    3    0  502  0.13221051980E+03 -0.20929953385E+03 -0.41694465097E+03  0.48490077172E+03  0.50400001928E-02 0. -1.
</event>
<event>
 5   0  0.7698747E-02  0.4994138E+03  0.7818609E-02  0.1013932E+00
       -2   -1    0    0    0  501  0.00000000000E+00  0.00000000000E+00  0.57509193803E+03  0.57509193803E+03  0.25500000920E-02 0.  1.
        2   -1    0    0  501    0  0.00000000000E+00  0.00000000000E+00 -0.10842360724E+03  0.10842360727E+03  0.25500000920E-02 0. -1.
    10030    2    1    2    0    0  0.00000000000E+00  0.00000000000E+00  0.46666833079E+03  0.68351554531E+03  0.49941382612E+03 0.  0.
        2    1    3    3  502    0  0.22586864152E+03  0.96262288821E+02  0.29561040854E+03  0.38427670384E+03  0.25500000920E-02 0.  1.
       -2    1    3    3    0  502 -0.22586864152E+03 -0.96262288821E+02  0.17105792224E+03  0.29923884146E+03  0.25500000920E-02 0. -1.
</event>
<event>
 5   0  0.7933103E-02  0.5008628E+03  0.7818609E-02  0.1013554E+00
        2   -1    0    0  501    0  0.00000000000E+00  0.00000000000E+00  0.46338799777E+03  0.46338799778E+03  0.25500000920E-02 0.  1.
       -2   -1    0    0    0  501  0.00000000000E+00  0.00000000000E+00 -0.13534205072E+03  0.13534205074E+03  0.25500000920E-02 0. -1.
    10030    2    1    2    0    0  0.00000000000E+00  0.00000000000E+00  0.32804594705E+03  0.59873004852E+03  0.50086278323E+03 0.  0.
        5    1    3    3  502    0 -0.72016748343E+00 -0.69839068611E+02  0.45145521281E+03  0.45684998995E+03  0.46999998093E+01 0.  1.
       -5    1    3    3    0  502  0.72016748343E+00  0.69839068611E+02 -0.12340926576E+03  0.14188005857E+03  0.46999998093E+01 0. -1.
</event>
<event>
 5   0  0.4865501E-02  0.4983459E+03  0.7818609E-02  0.1014212E+00
       -1   -1    0    0    0  501  0.00000000000E+00  0.00000000000E+00  0.19828991417E+03  0.19828991423E+03  0.50400001928E-02 0.  1.
        1   -1    0    0  501    0  0.00000000000E+00  0.00000000000E+00 -0.31311303820E+03  0.31311303824E+03  0.50400001928E-02 0. -1.
    10030    2    1    2    0    0  0.00000000000E+00  0.00000000000E+00 -0.11482312403E+03  0.51140295248E+03  0.49834589392E+03 0.  0.
        2    1    3    3  502    0  0.14289976192E+03 -0.23828671484E+02  0.15062900404E+03  0.20899101513E+03  0.25500000920E-02 0.  1.
       -2    1    3    3    0  502 -0.14289976192E+03  0.23828671484E+02 -0.26545212807E+03  0.30241193734E+03  0.25500000920E-02 0. -1.
</event>
<event>
 5   0  0.7933103E-02  0.4957273E+03  0.7818609E-02  0.1014900E+00
       -2   -1    0    0    0  501  0.00000000000E+00  0.00000000000E+00  0.20261145239E+03  0.20261145241E+03  0.25500000920E-02 0.  1.
        2   -1    0    0  501    0  0.00000000000E+00  0.00000000000E+00 -0.30322264327E+03  0.30322264328E+03  0.25500000920E-02 0. -1.
    10030    2    1    2    0    0  0.00000000000E+00  0.00000000000E+00 -0.10061119088E+03  0.50583409569E+03  0.49572726436E+03 0.  0.
        5    1    3    3  502    0 -0.18005096592E+03 -0.54914105440E+02  0.11416491906E+03  0.22020360589E+03  0.46999998093E+01 0.  1.
       -5    1    3    3    0  502  0.18005096592E+03  0.54914105440E+02 -0.21477610994E+03  0.28563048980E+03  0.46999998093E+01 0. -1.
</event>
<event>
 5   0  0.5191358E-02  0.5088097E+03  0.7818609E-02  0.1011505E+00
        1   -1    0    0  501    0  0.00000000000E+00  0.00000000000E+00  0.84072451328E+03  0.84072451329E+03  0.50400001928E-02 0. -1.
       -1   -1    0    0    0  501  0.00000000000E+00  0.00000000000E+00 -0.76983386185E+02  0.76983386350E+02  0.50400001928E-02 0.  1.
    10030    2    1    2    0    0  0.00000000000E+00  0.00000000000E+00  0.76374112709E+03  0.91770789964E+03  0.50880966957E+03 0.  0.
        4    1    3    3  502    0 -0.22594875001E+03 -0.11218898258E+03  0.32256952684E+03  0.40950203661E+03  0.12699999809E+01 0.  1.
       -4    1    3    3    0  502  0.22594875001E+03  0.11218898258E+03  0.44117160025E+03  0.50820586303E+03  0.12699999809E+01 0. -1.
</event>
<event>
 5   0  0.4803890E-02  0.4781780E+03  0.7818609E-02  0.1019637E+00
        1   -1    0    0  501    0  0.00000000000E+00  0.00000000000E+00  0.25035150080E+03  0.25035150085E+03  0.50400001928E-02 0. -1.
       -1   -1    0    0    0  501  0.00000000000E+00  0.00000000000E+00 -0.22833312243E+03  0.22833312248E+03  0.50400001928E-02 0.  1.
    10030    2    1    2    0    0  0.00000000000E+00  0.00000000000E+00  0.22018378376E+02  0.47868462334E+03  0.47817795812E+03 0.  0.
        5    1    3    3  502    0 -0.41154914357E+02  0.43222624447E+02 -0.22070859355E+03  0.22868383306E+03  0.46999998093E+01 0.  1.
       -5    1    3    3    0  502  0.41154914357E+02 -0.43222624447E+02  0.24272697192E+03  0.25000079027E+03  0.46999998093E+01 0. -1.
</event>
<event>
 5   0  0.4803890E-02  0.5037397E+03  0.7818609E-02  0.1012807E+00
       -1   -1    0    0    0  501  0.00000000000E+00  0.00000000000E+00  0.49486917159E+02  0.49486917416E+02  0.50400001928E-02 0.  1.
        1   -1    0    0  501    0  0.00000000000E+00  0.00000000000E+00 -0.12819233300E+04  0.12819233301E+04  0.50400001928E-02 0. -1.
    10030    2    1    2    0    0  0.00000000000E+00  0.00000000000E+00 -0.12324364129E+04  0.13314102475E+04  0.50373974954E+03 0.  0.
        5    1    3    3  502    0 -0.33579339441E+02  0.65398278917E+02  0.20377905766E+02  0.76432034934E+02  0.46999998093E+01 0.  1.
       -5    1    3    3    0  502  0.33579339441E+02 -0.65398278917E+02 -0.12528143187E+04  0.12549782125E+04  0.46999998093E+01 0. -1.
</event>
<event>
 5   0  0.4803890E-02  0.5017141E+03  0.7818609E-02  0.1013332E+00
       -1   -1    0    0    0  501  0.00000000000E+00  0.00000000000E+00  0.44092412409E+03  0.44092412412E+03  0.50400001928E-02 0. -1.
        1   -1    0    0  501    0  0.00000000000E+00  0.00000000000E+00 -0.14272127712E+03  0.14272127721E+03  0.50400001928E-02 0.  1.
    10030    2    1    2    0    0  0.00000000000E+00  0.00000000000E+00  0.29820284697E+03  0.58364540132E+03  0.50171407848E+03 0.  0.
        5    1    3    3  502    0  0.12738258972E+03  0.35125215398E+01 -0.10220564916E+03  0.16342198962E+03  0.46999998093E+01 0.  1.
       -5    1    3    3    0  502 -0.12738258972E+03 -0.35125215398E+01  0.40040849613E+03  0.42022341171E+03  0.46999998093E+01 0. -1.
</event>
<event>
 5   0  0.8208720E-02  0.5009987E+03  0.7818609E-02  0.1013519E+00
        2   -1    0    0  501    0  0.00000000000E+00  0.00000000000E+00  0.12196112210E+04  0.12196112210E+04  0.25500000920E-02 0. -1.
       -2   -1    0    0    0  501  0.00000000000E+00  0.00000000000E+00 -0.51450762106E+02  0.51450762169E+02  0.25500000920E-02 0.  1.
    10030    2    1    2    0    0  0.00000000000E+00  0.00000000000E+00  0.11681604589E+04  0.12710619832E+04  0.50099870992E+03 0.  0.
        3    1    3    3  502    0 -0.12535256228E+03 -0.23184116299E+02  0.36997982514E+02  0.13273895069E+03  0.10100000352E+00 0.  1.
       -3    1    3    3    0  502  0.12535256228E+03  0.23184116299E+02  0.11311624764E+04  0.11383230325E+04  0.10100000352E+00 0. -1.
</event>
<event>
 5   0  0.4803890E-02  0.5000982E+03  0.7818609E-02  0.1013753E+00
        1   -1    0    0  501    0  0.00000000000E+00  0.00000000000E+00  0.27590437764E+03  0.27590437768E+03  0.50400001928E-02 0. -1.
       -1   -1    0    0    0  501  0.00000000000E+00  0.00000000000E+00 -0.22661670128E+03  0.22661670134E+03  0.50400001928E-02 0.  1.
    10030    2    1    2    0    0  0.00000000000E+00  0.00000000000E+00  0.49287676358E+02  0.50252107902E+03  0.50009815018E+03 0.  0.
        5    1    3    3  502    0 -0.10416911113E+03 -0.23275755212E+02  0.25181321668E+03  0.27354149701E+03  0.46999998093E+01 0. -1.
       -5    1    3    3    0  502  0.10416911113E+03  0.23275755212E+02 -0.20252554032E+03  0.22897958201E+03  0.46999998093E+01 0.  1.
</event>
<event>
 5   0  0.4803890E-02  0.5013017E+03  0.7818609E-02  0.1013440E+00
       -1   -1    0    0    0  501  0.00000000000E+00  0.00000000000E+00  0.43533941245E+03  0.43533941248E+03  0.50400001928E-02 0.  1.
        1   -1    0    0  501    0  0.00000000000E+00  0.00000000000E+00 -0.14431462706E+03  0.14431462715E+03  0.50400001928E-02 0. -1.
    10030    2    1    2    0    0  0.00000000000E+00  0.00000000000E+00  0.29102478539E+03  0.57965403963E+03  0.50130168557E+03 0.  0.
        5    1    3    3  502    0  0.15273389501E+03 -0.15319667479E+03 -0.78048996981E+00  0.21637828683E+03  0.46999998093E+01 0. -1.
       -5    1    3    3    0  502 -0.15273389501E+03  0.15319667479E+03  0.29180527536E+03  0.36327575280E+03  0.46999998093E+01 0.  1.
</event>
<event>
 5   0  0.8208720E-02  0.5022951E+03  0.7818609E-02  0.1013182E+00
       -2   -1    0    0    0  501  0.00000000000E+00  0.00000000000E+00  0.59302614380E+02  0.59302614435E+02  0.25500000920E-02 0.  1.
        2   -1    0    0  501    0  0.00000000000E+00  0.00000000000E+00 -0.10636138479E+04  0.10636138479E+04  0.25500000920E-02 0. -1.
    10030    2    1    2    0    0  0.00000000000E+00  0.00000000000E+00 -0.10043112335E+04  0.11229164623E+04  0.50229506031E+03 0.  0.
        3    1    3    3  502    0  0.23091103432E+03 -0.19473765693E+02 -0.71862471789E+03  0.75506332760E+03  0.10100000352E+00 0. -1.
       -3    1    3    3    0  502 -0.23091103432E+03  0.19473765693E+02 -0.28568651563E+03  0.36785313473E+03  0.10100000352E+00 0.  1.
</event>
<event>
 5   0  0.3210875E-02  0.4973880E+03  0.7818609E-02  0.1014463E+00
        3   -1    0    0  501    0  0.00000000000E+00  0.00000000000E+00  0.10977496527E+03  0.10977501174E+03  0.10100000352E+00 0. -1.
       -3   -1    0    0    0  501  0.00000000000E+00  0.00000000000E+00 -0.56341351290E+03  0.56341352196E+03  0.10100000352E+00 0.  1.
    10030    2    1    2    0    0  0.00000000000E+00  0.00000000000E+00 -0.45363854763E+03  0.67318853369E+03  0.49738804770E+03 0.  0.
        5    1    3    3  502    0 -0.11202024865E+03 -0.78472498939E+02 -0.50786794643E+03  0.52598327940E+03  0.46999998093E+01 0.  1.
       -5    1    3    3    0  502  0.11202024865E+03  0.78472498939E+02  0.54229398801E+02  0.14720525429E+03  0.46999998093E+01 0. -1.
</event>
<event>
 5   0  0.7881060E-02  0.4989965E+03  0.7818609E-02  0.1014041E+00
       -2   -1    0    0    0  501  0.00000000000E+00  0.00000000000E+00  0.10346528842E+03  0.10346528845E+03  0.25500000920E-02 0. -1.
        2   -1    0    0  501    0  0.00000000000E+00  0.00000000000E+00 -0.60164514178E+03  0.60164514178E+03  0.25500000920E-02 0.  1.
    10030    2    1    2    0    0  0.00000000000E+00  0.00000000000E+00 -0.49817985336E+03  0.70511043024E+03  0.49899654561E+03 0.  0.
        1    1    3    3  502    0  0.82296728509E+02  0.74880818917E+02 -0.56464640804E+03  0.57550452188E+03  0.50400001928E-02 0.  1.
       -1    1    3    3    0  502 -0.82296728509E+02 -0.74880818917E+02  0.66466554680E+02  0.12960590836E+03  0.50400001928E-02 0. -1.
</event>
<event>
 5   0  0.7776070E-02  0.4989284E+03  0.7818609E-02  0.1014059E+00
        2   -1    0    0  501    0  0.00000000000E+00  0.00000000000E+00  0.40454402807E+03  0.40454402808E+03  0.25500000920E-02 0. -1.
       -2   -1    0    0    0  501  0.00000000000E+00  0.00000000000E+00 -0.15383341865E+03  0.15383341867E+03  0.25500000920E-02 0.  1.
    10030    2    1    2    0    0  0.00000000000E+00  0.00000000000E+00  0.25071060942E+03  0.55837744675E+03  0.49892841507E+03 0.  0.
        4    1    3    3  502    0  0.11185422428E+03  0.10318098179E+03  0.34657741914E+03  0.37851711038E+03  0.12699999809E+01 0. -1.
       -4    1    3    3    0  502 -0.11185422428E+03 -0.10318098179E+03 -0.95866809727E+02  0.17986033637E+03  0.12699999809E+01 0.  1.
</event>
<event>
 5   0  0.3210875E-02  0.5027360E+03  0.7818609E-02  0.1013067E+00
        3   -1    0    0  501    0  0.00000000000E+00  0.00000000000E+00  0.12200605941E+03  0.12200610121E+03  0.10100000352E+00 0.  1.
       -3   -1    0    0    0  501  0.00000000000E+00  0.00000000000E+00 -0.51789119553E+03  0.51789120538E+03  0.10100000352E+00 0. -1.
    10030    2    1    2    0    0  0.00000000000E+00  0.00000000000E+00 -0.39588513613E+03  0.63989730660E+03  0.50273603609E+03 0.  0.
        5    1    3    3  502    0 -0.88384788686E+02  0.15876308460E+03  0.23054530718E+02  0.18322442328E+03  0.46999998093E+01 0.  1.
       -5    1    3    3    0  502  0.88384788686E+02 -0.15876308460E+03 -0.41893966684E+03  0.45667288332E+03  0.46999998093E+01 0. -1.
</event>
<event>
 5   0  0.4865501E-02  0.4954545E+03  0.7818609E-02  0.1014972E+00
       -1   -1    0    0    0  501  0.00000000000E+00  0.00000000000E+00  0.68261488142E+02  0.68261488328E+02  0.50400001928E-02 0. -1.
        1   -1    0    0  501    0  0.00000000000E+00  0.00000000000E+00 -0.89902515107E+03  0.89902515108E+03  0.50400001928E-02 0.  1.
    10030    2    1    2    0    0  0.00000000000E+00  0.00000000000E+00 -0.83076366292E+03  0.96728663941E+03  0.49545451773E+03 0.  0.
        2    1    3    3  502    0  0.19685550767E+03  0.14803302209E+03 -0.46714333650E+03  0.52809919841E+03  0.25500000920E-02 0.  1.
       -2    1    3    3    0  502 -0.19685550767E+03 -0.14803302209E+03 -0.36362032643E+03  0.43918744099E+03  0.25500000920E-02 0. -1.
</event>
<event>
 5   0  0.7933103E-02  0.4997786E+03  0.7818609E-02  0.1013837E+00
        2   -1    0    0  501    0  0.00000000000E+00  0.00000000000E+00  0.11375586293E+04  0.11375586293E+04  0.25500000920E-02 0. -1.
       -2   -1    0    0    0  501  0.00000000000E+00  0.00000000000E+00 -0.54893577167E+02  0.54893577226E+02  0.25500000920E-02 0.  1.
    10030    2    1    2    0    0  0.00000000000E+00  0.00000000000E+00  0.10826650522E+04  0.11924522066E+04  0.49977860074E+03 0.  0.
        5    1    3    3  502    0 -0.22454170721E+02  0.92108430911E+02  0.10928685362E+04  0.10969830811E+04  0.46999998093E+01 0. -1.
       -5    1    3    3    0  502  0.22454170721E+02 -0.92108430911E+02 -0.10203484044E+02  0.95469125442E+02  0.46999998093E+01 0.  1.
</event>
<event>
 5   0  0.5191358E-02  0.4992869E+03  0.7818609E-02  0.1013965E+00
        1   -1    0    0  501    0  0.00000000000E+00  0.00000000000E+00  0.50496919928E+03  0.50496919931E+03  0.50400001928E-02 0. -1.
       -1   -1    0    0    0  501  0.00000000000E+00  0.00000000000E+00 -0.12341712431E+03  0.12341712441E+03  0.50400001928E-02 0.  1.
    10030    2    1    2    0    0  0.00000000000E+00  0.00000000000E+00  0.38155207497E+03  0.62838632372E+03  0.49928687738E+03 0.  0.
        4    1    3    3  502    0 -0.17813341569E+02 -0.23561125244E+03  0.29216892515E+03  0.37575826157E+03  0.12699999809E+01 0. -1.
       -4    1    3    3    0  502  0.17813341569E+02  0.23561125244E+03  0.89383149823E+02  0.25262806215E+03  0.12699999809E+01 0.  1.
</event>
<event>
 5   0  0.7881060E-02  0.5108842E+03  0.7818609E-02  0.1010976E+00
        2   -1    0    0  501    0  0.00000000000E+00  0.00000000000E+00  0.27681600731E+03  0.27681600732E+03  0.25500000920E-02 0.  1.
       -2   -1    0    0    0  501  0.00000000000E+00  0.00000000000E+00 -0.23571852400E+03  0.23571852401E+03  0.25500000920E-02 0. -1.
    10030    2    1    2    0    0  0.00000000000E+00  0.00000000000E+00  0.41097483311E+02  0.51253453133E+03  0.51088417735E+03 0.  0.
        1    1    3    3  502    0 -0.49502965050E+02  0.12403183589E+03 -0.19790734350E+03  0.23875040628E+03  0.50400001928E-02 0. -1.
       -1    1    3    3    0  502  0.49502965050E+02 -0.12403183589E+03  0.23900482681E+03  0.27378412505E+03  0.50400001928E-02 0.  1.
</event>
<event>
 5   0  0.7933103E-02  0.5038625E+03  0.7818609E-02  0.1012776E+00
       -2   -1    0    0    0  501  0.00000000000E+00  0.00000000000E+00  0.83088370299E+02  0.83088370338E+02  0.25500000920E-02 0.  1.
        2   -1    0    0  501    0  0.00000000000E+00  0.00000000000E+00 -0.76387784395E+03  0.76387784396E+03  0.25500000920E-02 0. -1.
    10030    2    1    2    0    0  0.00000000000E+00  0.00000000000E+00 -0.68078947365E+03  0.84696621430E+03  0.50386254149E+03 0.  0.
        5    1    3    3  502    0 -0.18729406902E+03 -0.16826775954E+03 -0.32802315107E+03  0.41353885528E+03  0.46999998093E+01 0. -1.
       -5    1    3    3    0  502  0.18729406902E+03  0.16826775954E+03 -0.35276632258E+03  0.43342735901E+03  0.46999998093E+01 0.  1.
</event>
<event>
 5   0  0.7698747E-02  0.5019930E+03  0.7818609E-02  0.1013260E+00
        2   -1    0    0  501    0  0.00000000000E+00  0.00000000000E+00  0.61734420939E+03  0.61734420940E+03  0.25500000920E-02 0. -1.
       -2   -1    0    0    0  501  0.00000000000E+00  0.00000000000E+00 -0.10204882768E+03  0.10204882771E+03  0.25500000920E-02 0.  1.
    10030    2    1    2    0    0  0.00000000000E+00  0.00000000000E+00  0.51529538171E+03  0.71939303710E+03  0.50199303921E+03 0.  0.
        2    1    3    3  502    0 -0.12446028871E+03 -0.14899585023E+03  0.29662252638E+02  0.19639240334E+03  0.25500000920E-02 0.  1.
       -2    1    3    3    0  502  0.12446028871E+03  0.14899585023E+03  0.48563312908E+03  0.52300063376E+03  0.25500000920E-02 0. -1.
</event>
<event>
 5   0  0.5038436E-02  0.5008615E+03  0.7818609E-02  0.1013554E+00
        1   -1    0    0  501    0  0.00000000000E+00  0.00000000000E+00  0.96352293374E+03  0.96352293375E+03  0.50400001928E-02 0.  1.
       -1   -1    0    0    0  501  0.00000000000E+00  0.00000000000E+00 -0.65089838485E+02  0.65089838681E+02  0.50400001928E-02 0. -1.
    10030    2    1    2    0    0  0.00000000000E+00  0.00000000000E+00  0.89843309526E+03  0.10286127724E+04  0.50086146684E+03 0.  0.
        1    1    3    3  502    0 -0.60625085053E+02  0.24126426182E+03  0.50844352022E+03  0.56603768271E+03  0.50400001928E-02 0.  1.
       -1    1    3    3    0  502  0.60625085053E+02 -0.24126426182E+03  0.38998957504E+03  0.46257508973E+03  0.50400001928E-02 0. -1.
</event>
<event>
 5   0  0.4865501E-02  0.5099105E+03  0.7818609E-02  0.1011224E+00
        1   -1    0    0  501    0  0.00000000000E+00  0.00000000000E+00  0.47502804705E+03  0.47502804708E+03  0.50400001928E-02 0.  1.
       -1   -1    0    0    0  501  0.00000000000E+00  0.00000000000E+00 -0.13683859441E+03  0.13683859450E+03  0.50400001928E-02 0. -1.
    10030    2    1    2    0    0  0.00000000000E+00  0.00000000000E+00  0.33818945264E+03  0.61186664157E+03  0.50991046390E+03 0.  0.
        2    1    3    3  502    0 -0.11626343095E+03  0.18777540800E+02 -0.10224344506E+03  0.15595994191E+03  0.25500000920E-02 0. -1.
       -2    1    3    3    0  502  0.11626343095E+03 -0.18777540800E+02  0.44043289770E+03  0.45590669967E+03  0.25500000920E-02 0.  1.
</event>
<event>
 5   0  0.7698747E-02  0.5007793E+03  0.7818609E-02  0.1013576E+00
       -2   -1    0    0    0  501  0.00000000000E+00  0.00000000000E+00  0.86589121107E+02  0.86589121145E+02  0.25500000920E-02 0. -1.
        2   -1    0    0  501    0  0.00000000000E+00  0.00000000000E+00 -0.72405144395E+03  0.72405144396E+03  0.25500000920E-02 0.  1.
    10030    2    1    2    0    0  0.00000000000E+00  0.00000000000E+00 -0.63746232285E+03  0.81064056510E+03  0.50077930542E+03 0.  0.
        2    1    3    3  502    0  0.90404285244E+02 -0.35936846103E+02 -0.69220706314E+03  0.69901002137E+03  0.25500000920E-02 0.  1.
       -2    1    3    3    0  502 -0.90404285244E+02  0.35936846103E+02  0.54744740297E+02  0.11163054374E+03  0.25500000920E-02 0. -1.
</event>
<event>
 5   0  0.7933103E-02  0.5064633E+03  0.7818609E-02  0.1012106E+00
        2   -1    0    0  501    0  0.00000000000E+00  0.00000000000E+00  0.99192356494E+03  0.99192356494E+03  0.25500000920E-02 0.  1.
       -2   -1    0    0    0  501  0.00000000000E+00  0.00000000000E+00 -0.64648387766E+02  0.64648387817E+02  0.25500000920E-02 0. -1.
    10030    2    1    2    0    0  0.00000000000E+00  0.00000000000E+00  0.92727517718E+03  0.10565719528E+04  0.50646326338E+03 0.  0.
        5    1    3    3  502    0  0.49339632297E+02 -0.14556066693E+03  0.43896610576E+02  0.15991031703E+03  0.46999998093E+01 0. -1.
       -5    1    3    3    0  502 -0.49339632297E+02  0.14556066693E+03  0.88337856660E+03  0.89666163574E+03  0.46999998093E+01 0.  1.
</event>
<event>
 5   0  0.5191358E-02  0.4985557E+03  0.7818609E-02  0.1014157E+00
        1   -1    0    0  501    0  0.00000000000E+00  0.00000000000E+00  0.64346572988E+03  0.64346572990E+03  0.50400001928E-02 0. -1.
       -1   -1    0    0    0  501  0.00000000000E+00  0.00000000000E+00 -0.96569932424E+02  0.96569932555E+02  0.50400001928E-02 0.  1.
    10030    2    1    2    0    0  0.00000000000E+00  0.00000000000E+00  0.54689579745E+03  0.74003566245E+03  0.49855568238E+03 0.  0.
        4    1    3    3  502    0 -0.32277863696E+02  0.41269791281E+02 -0.88299802387E+02  0.10268166418E+03  0.12699999809E+01 0.  1.
       -4    1    3    3    0  502  0.32277863696E+02 -0.41269791281E+02  0.63519559984E+03  0.63735399827E+03  0.12699999809E+01 0. -1.
</event>
<event>
 5   0  0.4865501E-02  0.4850301E+03  0.7818609E-02  0.1017762E+00
        1   -1    0    0  501    0  0.00000000000E+00  0.00000000000E+00  0.29386120971E+03  0.29386120975E+03  0.50400001928E-02 0. -1.
       -1   -1    0    0    0  501  0.00000000000E+00  0.00000000000E+00 -0.20014056497E+03  0.20014056504E+03  0.50400001928E-02 0.  1.
    10030    2    1    2    0    0  0.00000000000E+00  0.00000000000E+00  0.93720644737E+02  0.49400177479E+03  0.48503009623E+03 0.  0.
        2    1    3    3  502    0 -0.16801553213E+02  0.34044049536E+02  0.29081592533E+03  0.29328346686E+03  0.25500000920E-02 0. -1.
       -2    1    3    3    0  502  0.16801553213E+02 -0.34044049536E+02 -0.19709528060E+03  0.20071830793E+03  0.25500000920E-02 0.  1.
</event>
<event>
 5   0  0.3210875E-02  0.4998354E+03  0.7818609E-02  0.1013822E+00
       -3   -1    0    0    0  501  0.00000000000E+00  0.00000000000E+00  0.28321774758E+03  0.28321776559E+03  0.10100000352E+00 0. -1.
        3   -1    0    0  501    0  0.00000000000E+00  0.00000000000E+00 -0.22053299705E+03  0.22053302017E+03  0.10100000352E+00 0.  1.
    10030    2    1    2    0    0  0.00000000000E+00  0.00000000000E+00  0.62684750536E+02  0.50375078577E+03  0.49983544913E+03 0.  0.
        4    1    3    3  502    0 -0.86980025058E+02  0.23126896867E+03 -0.64533270875E+01  0.24717224553E+03  0.12699999809E+01 0.  1.
       -4    1    3    3    0  502  0.86980025058E+02 -0.23126896867E+03  0.69138077624E+02  0.25657854023E+03  0.12699999809E+01 0. -1.
</event>
<event>
 5   0  0.7776070E-02  0.5004489E+03  0.7818609E-02  0.1013662E+00
       -2   -1    0    0    0  501  0.00000000000E+00  0.00000000000E+00  0.12755662714E+03  0.12755662716E+03  0.25500000920E-02 0.  1.
        2   -1    0    0  501    0  0.00000000000E+00  0.00000000000E+00 -0.49085858633E+03  0.49085858633E+03  0.25500000920E-02 0. -1.
    10030    2    1    2    0    0  0.00000000000E+00  0.00000000000E+00 -0.36330195919E+03  0.61841521349E+03  0.50044886125E+03 0.  0.
        4    1    3    3  502    0  0.11190355245E+03 -0.50355625684E+02  0.87817148080E+02  0.15090248005E+03  0.12699999809E+01 0.  1.
       -4    1    3    3    0  502 -0.11190355245E+03  0.50355625684E+02 -0.45111910727E+03  0.46751273344E+03  0.12699999809E+01 0. -1.
</event>
<event>
 5   0  0.4803890E-02  0.5002015E+03  0.7818609E-02  0.1013726E+00
        1   -1    0    0  501    0  0.00000000000E+00  0.00000000000E+00  0.79492779245E+03  0.79492779247E+03  0.50400001928E-02 0. -1.
       -1   -1    0    0    0  501  0.00000000000E+00  0.00000000000E+00 -0.78686866561E+02  0.78686866722E+02  0.50400001928E-02 0.  1.
    10030    2    1    2    0    0  0.00000000000E+00  0.00000000000E+00  0.71624092589E+03  0.87361465919E+03  0.50020146824E+03 0.  0.
        5    1    3    3  502    0  0.24274851744E+03  0.50074645160E+02  0.41588729225E+03  0.48416799013E+03  0.46999998093E+01 0.  1.
       -5    1    3    3    0  502 -0.24274851744E+03 -0.50074645160E+02  0.30035363363E+03  0.38944666906E+03  0.46999998093E+01 0. -1.
</event>
<event>
 5   0  0.7776070E-02  0.5184395E+03  0.7818609E-02  0.1009075E+00
        2   -1    0    0  501    0  0.00000000000E+00  0.00000000000E+00  0.13665320600E+04  0.13665320600E+04  0.25500000920E-02 0.  1.
       -2   -1    0    0    0  501  0.00000000000E+00  0.00000000000E+00 -0.49171823697E+02  0.49171823763E+02  0.25500000920E-02 0. -1.
    10030    2    1    2    0    0  0.00000000000E+00  0.00000000000E+00  0.13173602363E+04  0.14157038838E+04  0.51843947990E+03 0.  0.
        4    1    3    3  502    0  0.84986338615E+02  0.14920312534E+03  0.12841028080E+03  0.21441796445E+03  0.12699999809E+01 0. -1.
       -4    1    3    3    0  502 -0.84986338615E+02 -0.14920312534E+03  0.11889499555E+04  0.12012859193E+04  0.12699999809E+01 0.  1.
</event>
<event>
 5   0  0.7776070E-02  0.5005597E+03  0.7818609E-02  0.1013633E+00
       -2   -1    0    0    0  501  0.00000000000E+00  0.00000000000E+00  0.57293095416E+03  0.57293095417E+03  0.25500000920E-02 0.  1.
        2   -1    0    0  501    0  0.00000000000E+00  0.00000000000E+00 -0.10933257045E+03  0.10933257048E+03  0.25500000920E-02 0. -1.
    10030    2    1    2    0    0  0.00000000000E+00  0.00000000000E+00  0.46359838371E+03  0.68226352465E+03  0.50055974237E+03 0.  0.
        4    1    3    3  502    0 -0.10228773387E+03  0.14091641435E+03 -0.13231064465E+02  0.17463358869E+03  0.12699999809E+01 0. -1.
       -4    1    3    3    0  502  0.10228773387E+03 -0.14091641435E+03  0.47682944817E+03  0.50762993596E+03  0.12699999809E+01 0.  1.
</event>
<event>
 5   0  0.8208720E-02  0.5032762E+03  0.7818609E-02  0.1012927E+00
        2   -1    0    0  501    0  0.00000000000E+00  0.00000000000E+00  0.23243168416E+04  0.23243168416E+04  0.25500000920E-02 0. -1.
       -2   -1    0    0    0  501  0.00000000000E+00  0.00000000000E+00 -0.27243159265E+02  0.27243159384E+02  0.25500000920E-02 0.  1.
    10030    2    1    2    0    0  0.00000000000E+00  0.00000000000E+00  0.22970736823E+04  0.23515600010E+04  0.50327620266E+03 0.  0.
        3    1    3    3  502    0 -0.15409579816E+03 -0.12874050941E+03  0.18571893335E+04  0.18680128117E+04  0.10100000352E+00 0. -1.
       -3    1    3    3    0  502  0.15409579816E+03  0.12874050941E+03  0.43988434881E+03  0.48354718933E+03  0.10100000352E+00 0.  1.
</event>
<event>
 5   0  0.4865501E-02  0.5073447E+03  0.7818609E-02  0.1011879E+00
       -1   -1    0    0    0  501  0.00000000000E+00  0.00000000000E+00  0.18809257818E+03  0.18809257824E+03  0.50400001928E-02 0. -1.
        1   -1    0    0  501    0  0.00000000000E+00  0.00000000000E+00 -0.34211690864E+03  0.34211690868E+03  0.50400001928E-02 0.  1.
    10030    2    1    2    0    0  0.00000000000E+00  0.00000000000E+00 -0.15402433046E+03  0.53020948692E+03  0.50734466159E+03 0.  0.
        2    1    3    3  502    0 -0.40499486348E+02  0.13827031102E+03  0.14118125004E+03  0.20172018410E+03  0.25500000920E-02 0. -1.
       -2    1    3    3    0  502  0.40499486348E+02 -0.13827031102E+03 -0.29520558050E+03  0.32848930282E+03  0.25500000920E-02 0.  1.
</event>
<event>
 5   0  0.5191358E-02  0.5006714E+03  0.7818609E-02  0.1013604E+00
       -1   -1    0    0    0  501  0.00000000000E+00  0.00000000000E+00  0.14204793868E+03  0.14204793877E+03  0.50400001928E-02 0.  1.
        1   -1    0    0  501    0  0.00000000000E+00  0.00000000000E+00 -0.44117481240E+03  0.44117481243E+03  0.50400001928E-02 0. -1.
    10030    2    1    2    0    0  0.00000000000E+00  0.00000000000E+00 -0.29912687372E+03  0.58322275119E+03  0.50067144010E+03 0.  0.
        4    1    3    3  502    0 -0.11852247445E+03 -0.17654454777E+03 -0.30344598817E+03  0.37053560549E+03  0.12699999809E+01 0. -1.
       -4    1    3    3    0  502  0.11852247445E+03  0.17654454777E+03  0.43191144476E+01  0.21268714571E+03  0.12699999809E+01 0.  1.
</event>
<event>
 5   0  0.4803890E-02  0.5093485E+03  0.7818609E-02  0.1011367E+00
        1   -1    0    0  501    0  0.00000000000E+00  0.00000000000E+00  0.46081016226E+02  0.46081016502E+02  0.50400001928E-02 0. -1.
       -1   -1    0    0    0  501  0.00000000000E+00  0.00000000000E+00 -0.14074987357E+04  0.14074987357E+04  0.50400001928E-02 0.  1.
    10030    2    1    2    0    0  0.00000000000E+00  0.00000000000E+00 -0.13614177195E+04  0.14535797522E+04  0.50934849479E+03 0.  0.
        5    1    3    3  502    0  0.24098996001E+03 -0.73939468749E+02 -0.78335359264E+03  0.82292657447E+03  0.46999998093E+01 0. -1.
       -5    1    3    3    0  502 -0.24098996001E+03  0.73939468749E+02 -0.57806412684E+03  0.63065317775E+03  0.46999998093E+01 0.  1.
</event>
<event>
 5   0  0.7881060E-02  0.4983077E+03  0.7818609E-02  0.1014222E+00
       -2   -1    0    0    0  501  0.00000000000E+00  0.00000000000E+00  0.12398529496E+03  0.12398529499E+03  0.25500000920E-02 0. -1.
        2   -1    0    0  501    0  0.00000000000E+00  0.00000000000E+00 -0.50068554712E+03  0.50068554713E+03  0.25500000920E-02 0.  1.
    10030    2    1    2    0    0  0.00000000000E+00  0.00000000000E+00 -0.37670025216E+03  0.62467084212E+03  0.49830771719E+03 0.  0.
        1    1    3    3  502    0  0.13794180746E+03 -0.63008124855E+01 -0.44832917871E+03  0.46911266770E+03  0.50400001928E-02 0.  1.
       -1    1    3    3    0  502 -0.13794180746E+03  0.63008124855E+01  0.71628926553E+02  0.15555817442E+03  0.50400001928E-02 0. -1.
</event>
<event>
 5   0  0.7933103E-02  0.4985219E+03  0.7818609E-02  0.1014165E+00
        2   -1    0    0  501    0  0.00000000000E+00  0.00000000000E+00  0.10230674178E+04  0.10230674178E+04  0.25500000920E-02 0.  1.
       -2   -1    0    0    0  501  0.00000000000E+00  0.00000000000E+00 -0.60730122957E+02  0.60730123011E+02  0.25500000920E-02 0. -1.
    10030    2    1    2    0    0  0.00000000000E+00  0.00000000000E+00  0.96233729488E+03  0.10837975409E+04  0.49852185553E+03 0.  0.
        5    1    3    3  502    0 -0.16293470987E+02 -0.20005887685E+03  0.80230555725E+03  0.82704614660E+03  0.46999998093E+01 0.  1.
       -5    1    3    3    0  502  0.16293470987E+02  0.20005887685E+03  0.16003173763E+03  0.25675139425E+03  0.46999998093E+01 0. -1.
</event>
<event>
 5   0  0.7776070E-02  0.5004889E+03  0.7818609E-02  0.1013651E+00
        2   -1    0    0  501    0  0.00000000000E+00  0.00000000000E+00  0.40262917178E+03  0.40262917179E+03  0.25500000920E-02 0.  1.
       -2   -1    0    0    0  501  0.00000000000E+00  0.00000000000E+00 -0.15553340967E+03  0.15553340969E+03  0.25500000920E-02 0. -1.
    10030    2    1    2    0    0  0.00000000000E+00  0.00000000000E+00  0.24709576211E+03  0.55816258148E+03  0.50048891268E+03 0.  0.
        4    1    3    3  502    0 -0.31644269409E+02 -0.78857818914E+02 -0.13894898178E+03  0.16287525235E+03  0.12699999809E+01 0. -1.
       -4    1    3    3    0  502  0.31644269409E+02  0.78857818914E+02  0.38604474389E+03  0.39528732913E+03  0.12699999809E+01 0.  1.
</event>
<event>
 5   0  0.4803890E-02  0.4995205E+03  0.7818609E-02  0.1013904E+00
       -1   -1    0    0    0  501  0.00000000000E+00  0.00000000000E+00  0.72743925792E+02  0.72743925966E+02  0.50400001928E-02 0. -1.
        1   -1    0    0  501    0  0.00000000000E+00  0.00000000000E+00 -0.85753100107E+03  0.85753100108E+03  0.50400001928E-02 0.  1.
    10030    2    1    2    0    0  0.00000000000E+00  0.00000000000E+00 -0.78478707528E+03  0.93027492705E+03  0.49952045641E+03 0.  0.
        5    1    3    3  502    0 -0.78464950989E+02 -0.59781833145E+02 -0.81962602072E+03  0.82555406845E+03  0.46999998093E+01 0.  1.
       -5    1    3    3    0  502  0.78464950989E+02  0.59781833145E+02  0.34838945438E+02  0.10472085860E+03  0.46999998093E+01 0. -1.
</event>
<event>
 5   0  0.5038436E-02  0.5007039E+03  0.7818609E-02  0.1013595E+00
        1   -1    0    0  501    0  0.00000000000E+00  0.00000000000E+00  0.29538919373E+03  0.29538919377E+03  0.50400001928E-02 0.  1.
       -1   -1    0    0    0  501  0.00000000000E+00  0.00000000000E+00 -0.21218138283E+03  0.21218138289E+03  0.50400001928E-02 0. -1.
    10030    2    1    2    0    0  0.00000000000E+00  0.00000000000E+00  0.83207810897E+02  0.50757057666E+03  0.50070385508E+03 0.  0.
        1    1    3    3  502    0 -0.11220765552E+03 -0.21761070346E+03  0.94580642944E+02  0.26246994926E+03  0.50400001928E-02 0.  1.
       -1    1    3    3    0  502  0.11220765552E+03  0.21761070346E+03 -0.11372832047E+02  0.24510062740E+03  0.50400001928E-02 0. -1.
</event>
<event>
 5   0  0.3210875E-02  0.5009816E+03  0.7818609E-02  0.1013523E+00
       -4   -1    0    0    0  501  0.00000000000E+00  0.00000000000E+00  0.15973593726E+03  0.15974098583E+03  0.12699999809E+01 0. -1.
        4   -1    0    0  501    0  0.00000000000E+00  0.00000000000E+00 -0.39279632758E+03  0.39279838068E+03  0.12699999809E+01 0.  1.
    10030    2    1    2    0    0  0.00000000000E+00  0.00000000000E+00 -0.23306039032E+03  0.55253936651E+03  0.50098164238E+03 0.  0.
        1    1    3    3  502    0 -0.24404983485E+02  0.24233989077E+03 -0.52017533060E+02  0.24905832580E+03  0.50400001928E-02 0.  1.
       -1    1    3    3    0  502  0.24404983485E+02 -0.24233989077E+03 -0.18104285726E+03  0.30348104071E+03  0.50400001928E-02 0. -1.
</event>
<event>
 5   0  0.4865501E-02  0.5006819E+03  0.7818609E-02  0.1013601E+00
        1   -1    0    0  501    0  0.00000000000E+00  0.00000000000E+00  0.11515565781E+03  0.11515565792E+03  0.50400001928E-02 0. -1.
       -1   -1    0    0    0  501  0.00000000000E+00  0.00000000000E+00 -0.54422510306E+03  0.54422510308E+03  0.50400001928E-02 0.  1.
    10030    2    1    2    0    0  0.00000000000E+00  0.00000000000E+00 -0.42906944525E+03  0.65938076101E+03  0.50068193411E+03 0.  0.
        2    1    3    3  502    0 -0.13717335648E+03  0.21685546635E+02  0.59773092195E+02  0.15119396555E+03  0.25500000920E-02 0. -1.
       -2    1    3    3    0  502  0.13717335648E+03 -0.21685546635E+02 -0.48884253744E+03  0.50818679546E+03  0.25500000920E-02 0.  1.
</event>
<event>
 5   0  0.4884478E-02  0.5072009E+03  0.7818609E-02  0.1011916E+00
        1   -1    0    0  501    0  0.00000000000E+00  0.00000000000E+00  0.56588412509E+03  0.56588412511E+03  0.50400001928E-02 0. -1.
       -1   -1    0    0    0  501  0.00000000000E+00  0.00000000000E+00 -0.11365081977E+03  0.11365081988E+03  0.50400001928E-02 0.  1.
    10030    2    1    2    0    0  0.00000000000E+00  0.00000000000E+00  0.45223330532E+03  0.67953494499E+03  0.50720092570E+03 0.  0.
        3    1    3    3  502    0  0.97968934737E+02  0.17906060125E+02 -0.86354430313E+02  0.13181667952E+03  0.10100000352E+00 0.  1.
       -3    1    3    3    0  502 -0.97968934737E+02 -0.17906060125E+02  0.53858773563E+03  0.54771826548E+03  0.10100000352E+00 0. -1.
</event>
<event>
 5   0  0.7881060E-02  0.4998648E+03  0.7818609E-02  0.1013814E+00
       -2   -1    0    0    0  501  0.00000000000E+00  0.00000000000E+00  0.20192844460E+03  0.20192844462E+03  0.25500000920E-02 0. -1.
        2   -1    0    0  501    0  0.00000000000E+00  0.00000000000E+00 -0.30934824494E+03  0.30934824495E+03  0.25500000920E-02 0.  1.
    10030    2    1    2    0    0  0.00000000000E+00  0.00000000000E+00 -0.10741980034E+03  0.51127668957E+03  0.49986482152E+03 0.  0.
        1    1    3    3  502    0  0.20127194504E+03  0.80696538464E+01  0.97622942900E+02  0.22384314637E+03  0.50400001928E-02 0. -1.
       -1    1    3    3    0  502 -0.20127194504E+03 -0.80696538464E+01 -0.20504274324E+03  0.28743354320E+03  0.50400001928E-02 0.  1.
</event>
<event>
 5   0  0.4865501E-02  0.4982958E+03  0.7818609E-02  0.1014225E+00
       -1   -1    0    0    0  501  0.00000000000E+00  0.00000000000E+00  0.52546176976E+02  0.52546177218E+02  0.50400001928E-02 0.  1.
        1   -1    0    0  501    0  0.00000000000E+00  0.00000000000E+00 -0.11813356219E+04  0.11813356219E+04  0.50400001928E-02 0. -1.
    10030    2    1    2    0    0  0.00000000000E+00  0.00000000000E+00 -0.11287894449E+04  0.12338817991E+04  0.49829577887E+03 0.  0.
        2    1    3    3  502    0  0.49240754951E+02 -0.22651855630E+03 -0.79052190733E+03  0.82380834803E+03  0.25500000920E-02 0. -1.
       -2    1    3    3    0  502 -0.49240754951E+02  0.22651855630E+03 -0.33826753755E+03  0.41007345106E+03  0.25500000920E-02 0.  1.
</event>
<event>
 5   0  0.5191358E-02  0.5005422E+03  0.7818609E-02  0.1013637E+00
       -1   -1    0    0    0  501  0.00000000000E+00  0.00000000000E+00  0.13328852884E+03  0.13328852893E+03  0.50400001928E-02 0.  1.
        1   -1    0    0  501    0  0.00000000000E+00  0.00000000000E+00 -0.46992506842E+03  0.46992506845E+03  0.50400001928E-02 0. -1.
    10030    2    1    2    0    0  0.00000000000E+00  0.00000000000E+00 -0.33663653958E+03  0.60321359738E+03  0.50054219031E+03 0.  0.
        4    1    3    3  502    0  0.22617768114E+03 -0.24303908409E+01 -0.29739424649E+03  0.37364047023E+03  0.12699999809E+01 0. -1.
       -4    1    3    3    0  502 -0.22617768114E+03  0.24303908409E+01 -0.39242293088E+02  0.22957312715E+03  0.12699999809E+01 0.  1.
</event>
<event>
 5   0  0.7776070E-02  0.5002662E+03  0.7818609E-02  0.1013709E+00
        2   -1    0    0  501    0  0.00000000000E+00  0.00000000000E+00  0.61040626677E+03  0.61040626678E+03  0.25500000920E-02 0.  1.
       -2   -1    0    0    0  501  0.00000000000E+00  0.00000000000E+00 -0.10249988557E+03  0.10249988560E+03  0.25500000920E-02 0. -1.
    10030    2    1    2    0    0  0.00000000000E+00  0.00000000000E+00  0.50790638120E+03  0.71290615238E+03  0.50026621916E+03 0.  0.
        4    1    3    3  502    0 -0.16721843450E+03 -0.32853676311E+02 -0.69662566526E+01  0.17056233615E+03  0.12699999809E+01 0. -1.
       -4    1    3    3    0  502  0.16721843450E+03  0.32853676311E+02  0.51487263786E+03  0.54234381622E+03  0.12699999809E+01 0.  1.
</event>
<event>
 5   0  0.4803890E-02  0.5013408E+03  0.7818609E-02  0.1013430E+00
       -1   -1    0    0    0  501  0.00000000000E+00  0.00000000000E+00  0.57569693522E+02  0.57569693743E+02  0.50400001928E-02 0.  1.
        1   -1    0    0  501    0  0.00000000000E+00  0.00000000000E+00 -0.10914709013E+04  0.10914709013E+04  0.50400001928E-02 0. -1.
    10030    2    1    2    0    0  0.00000000000E+00  0.00000000000E+00 -0.10339012078E+04  0.11490405950E+04  0.50134078393E+03 0.  0.
        5    1    3    3  502    0  0.61029915265E+02 -0.10123207833E+03 -0.10433071904E+02  0.11875825541E+03  0.46999998093E+01 0.  1.
       -5    1    3    3    0  502 -0.61029915265E+02  0.10123207833E+03 -0.10234681359E+04  0.10302823396E+04  0.46999998093E+01 0. -1.
</event>
<event>
 5   0  0.4803890E-02  0.4988736E+03  0.7818609E-02  0.1014073E+00
       -1   -1    0    0    0  501  0.00000000000E+00  0.00000000000E+00  0.86202942959E+02  0.86202943106E+02  0.50400001928E-02 0. -1.
        1   -1    0    0  501    0  0.00000000000E+00  0.00000000000E+00 -0.72177033298E+03  0.72177033300E+03  0.50400001928E-02 0.  1.
    10030    2    1    2    0    0  0.00000000000E+00  0.00000000000E+00 -0.63556739002E+03  0.80797327610E+03  0.49887363895E+03 0.  0.
        5    1    3    3  502    0 -0.21501172618E+03 -0.35935345047E+02 -0.12158363847E+03  0.24965188275E+03  0.46999998093E+01 0. -1.
       -5    1    3    3    0  502  0.21501172618E+03  0.35935345047E+02 -0.51398375155E+03  0.55832139335E+03  0.46999998093E+01 0.  1.
</event>
<event>
 5   0  0.3210875E-02  0.4997657E+03  0.7818609E-02  0.1013840E+00
       -3   -1    0    0    0  501  0.00000000000E+00  0.00000000000E+00  0.31867671062E+03  0.31867672663E+03  0.10100000352E+00 0. -1.
        3   -1    0    0  501    0  0.00000000000E+00  0.00000000000E+00 -0.19593973526E+03  0.19593976129E+03  0.10100000352E+00 0.  1.
    10030    2    1    2    0    0  0.00000000000E+00  0.00000000000E+00  0.12273697536E+03  0.51461648792E+03  0.49976570963E+03 0.  0.
        1    1    3    3  502    0 -0.24356735207E+03  0.48599077776E+02  0.33083799413E+02  0.25056229398E+03  0.50400001928E-02 0.  1.
       -1    1    3    3    0  502  0.24356735207E+03 -0.48599077776E+02  0.89653175950E+02  0.26405419394E+03  0.50400001928E-02 0. -1.
</event>
<event>
 5   0  0.4865501E-02  0.4653217E+03  0.7818609E-02  0.1023249E+00
        1   -1    0    0  501    0  0.00000000000E+00  0.00000000000E+00  0.23369248315E+03  0.23369248321E+03  0.50400001928E-02 0.  1.
       -1   -1    0    0    0  501  0.00000000000E+00  0.00000000000E+00 -0.23163376228E+03  0.23163376233E+03  0.50400001928E-02 0. -1.
    10030    2    1    2    0    0  0.00000000000E+00  0.00000000000E+00  0.20587208766E+01  0.46532624554E+03  0.46532169137E+03 0.  0.
        2    1    3    3  502    0  0.26183846519E+02  0.48866713465E+02  0.22699068240E+03  0.23366283275E+03  0.25500000920E-02 0.  1.
       -2    1    3    3    0  502 -0.26183846519E+02 -0.48866713465E+02 -0.22493196153E+03  0.23166341279E+03  0.25500000920E-02 0. -1.
</event>
<event>
 5   0  0.7881060E-02  0.5027475E+03  0.7818609E-02  0.1013064E+00
       -2   -1    0    0    0  501  0.00000000000E+00  0.00000000000E+00  0.12306348158E+03  0.12306348161E+03  0.25500000920E-02 0. -1.
        2   -1    0    0  501    0  0.00000000000E+00  0.00000000000E+00 -0.51346485196E+03  0.51346485196E+03  0.25500000920E-02 0.  1.
    10030    2    1    2    0    0  0.00000000000E+00  0.00000000000E+00 -0.39040137037E+03  0.63652833357E+03  0.50274754047E+03 0.  0.
        1    1    3    3  502    0 -0.17156347916E+01  0.17871881066E+03 -0.41900112650E+03  0.45552749721E+03  0.50400001928E-02 0.  1.
       -1    1    3    3    0  502  0.17156347916E+01 -0.17871881066E+03  0.28599756125E+02  0.18100083636E+03  0.50400001928E-02 0. -1.
</event>
<event>
 5   0  0.4865501E-02  0.5005175E+03  0.7818609E-02  0.1013644E+00
       -1   -1    0    0    0  501  0.00000000000E+00  0.00000000000E+00  0.53061814072E+02  0.53061814311E+02  0.50400001928E-02 0. -1.
        1   -1    0    0  501    0  0.00000000000E+00  0.00000000000E+00 -0.11803109421E+04  0.11803109421E+04  0.50400001928E-02 0.  1.
    10030    2    1    2    0    0  0.00000000000E+00  0.00000000000E+00 -0.11272491280E+04  0.12333727564E+04  0.50051749184E+03 0.  0.
        2    1    3    3  502    0  0.16745409930E+02 -0.18064472642E+03 -0.13883482055E+03  0.22844700335E+03  0.25500000920E-02 0. -1.
       -2    1    3    3    0  502 -0.16745409930E+02  0.18064472642E+03 -0.98841430745E+03  0.10049257530E+04  0.25500000920E-02 0.  1.
</event>
<event>
 5   0  0.7881060E-02  0.4874166E+03  0.7818609E-02  0.1017117E+00
       -2   -1    0    0    0  501  0.00000000000E+00  0.00000000000E+00  0.10312316036E+04  0.10312316036E+04  0.25500000920E-02 0.  1.
        2   -1    0    0  501    0  0.00000000000E+00  0.00000000000E+00 -0.57594958349E+02  0.57594958406E+02  0.25500000920E-02 0. -1.
    10030    2    1    2    0    0  0.00000000000E+00  0.00000000000E+00  0.97363664523E+03  0.10888265620E+04  0.48741662380E+03 0.  0.
        1    1    3    3  502    0 -0.17520832390E+03 -0.13033098126E+02  0.10952577974E+03  0.20703554009E+03  0.50400001928E-02 0. -1.
       -1    1    3    3    0  502  0.17520832390E+03  0.13033098126E+02  0.86411086549E+03  0.88179102189E+03  0.50400001928E-02 0.  1.
</event>
<event>
 5   0  0.8208720E-02  0.5004827E+03  0.7818609E-02  0.1013653E+00
       -2   -1    0    0    0  501  0.00000000000E+00  0.00000000000E+00  0.23018460617E+03  0.23018460618E+03  0.25500000920E-02 0.  1.
        2   -1    0    0  501    0  0.00000000000E+00  0.00000000000E+00 -0.27204572868E+03  0.27204572869E+03  0.25500000920E-02 0. -1.
    10030    2    1    2    0    0  0.00000000000E+00  0.00000000000E+00 -0.41861122511E+02  0.50223033487E+03  0.50048272267E+03 0.  0.
        3    1    3    3  502    0 -0.12167089524E+03 -0.19412600062E+03 -0.12193996891E+03  0.25953434664E+03  0.10100000352E+00 0. -1.
       -3    1    3    3    0  502  0.12167089524E+03  0.19412600062E+03  0.80078846402E+02  0.24269598824E+03  0.10100000352E+00 0.  1.
</event>
<event>
 5   0  0.8208720E-02  0.5122498E+03  0.7818609E-02  0.1010630E+00
        2   -1    0    0  501    0  0.00000000000E+00  0.00000000000E+00  0.46875036010E+02  0.46875036079E+02  0.25500000920E-02 0.  1.
       -2   -1    0    0    0  501  0.00000000000E+00  0.00000000000E+00 -0.13994646364E+04  0.13994646364E+04  0.25500000920E-02 0. -1.
    10030    2    1    2    0    0  0.00000000000E+00  0.00000000000E+00 -0.13525896004E+04  0.14463396725E+04  0.51224976439E+03 0.  0.
        3    1    3    3  502    0  0.18912134519E+02 -0.91071436381E+02 -0.13500913739E+04  0.13532916919E+04  0.10100000352E+00 0. -1.
       -3    1    3    3    0  502 -0.18912134519E+02  0.91071436381E+02 -0.24982265331E+01  0.93047980598E+02  0.10100000352E+00 0.  1.
</event>
<event>
 5   0  0.5038436E-02  0.5054523E+03  0.7818609E-02  0.1012366E+00
       -1   -1    0    0    0  501  0.00000000000E+00  0.00000000000E+00  0.76378056240E+03  0.76378056241E+03  0.50400001928E-02 0. -1.
        1   -1    0    0  501    0  0.00000000000E+00  0.00000000000E+00 -0.83624149751E+02  0.83624149903E+02  0.50400001928E-02 0.  1.
    10030    2    1    2    0    0  0.00000000000E+00  0.00000000000E+00  0.68015641264E+03  0.84740471232E+03  0.50545227351E+03 0.  0.
        1    1    3    3  502    0 -0.25098288099E+03  0.19219450882E+02  0.37789148118E+03  0.45405260204E+03  0.50400001928E-02 0. -1.
       -1    1    3    3    0  502  0.25098288099E+03 -0.19219450882E+02  0.30226493146E+03  0.39335211028E+03  0.50400001928E-02 0.  1.
</event>
<event>
 5   0  0.4884478E-02  0.4987202E+03  0.7818609E-02  0.1014114E+00
       -1   -1    0    0    0  501  0.00000000000E+00  0.00000000000E+00  0.82558077561E+03  0.82558077563E+03  0.50400001928E-02 0.  1.
        1   -1    0    0  501    0  0.00000000000E+00  0.00000000000E+00 -0.75317233336E+02  0.75317233504E+02  0.50400001928E-02 0. -1.
    10030    2    1    2    0    0  0.00000000000E+00  0.00000000000E+00  0.75026354228E+03  0.90089800913E+03  0.49872020211E+03 0.  0.
        3    1    3    3  502    0 -0.35787490752E+02  0.86840578162E+02  0.79240463634E+03  0.79795184592E+03  0.10100000352E+00 0.  1.
       -3    1    3    3    0  502  0.35787490752E+02 -0.86840578162E+02 -0.42141094066E+02  0.10294616321E+03  0.10100000352E+00 0. -1.
</event>
<event>
 5   0  0.8208720E-02  0.5025053E+03  0.7818609E-02  0.1013127E+00
        2   -1    0    0  501    0  0.00000000000E+00  0.00000000000E+00  0.36967073227E+03  0.36967073228E+03  0.25500000920E-02 0. -1.
       -2   -1    0    0    0  501  0.00000000000E+00  0.00000000000E+00 -0.17076789114E+03  0.17076789116E+03  0.25500000920E-02 0.  1.
    10030    2    1    2    0    0  0.00000000000E+00  0.00000000000E+00  0.19890284113E+03  0.54043862344E+03  0.50250528902E+03 0.  0.
        3    1    3    3  502    0 -0.22504629023E+03 -0.33498981504E+02 -0.15177013311E+02  0.22803150318E+03  0.10100000352E+00 0.  1.
       -3    1    3    3    0  502  0.22504629023E+03  0.33498981504E+02  0.21407985445E+03  0.31240712026E+03  0.10100000352E+00 0. -1.
</event>
<event>
 5   0  0.3210875E-02  0.5005797E+03  0.7818609E-02  0.1013628E+00
       -3   -1    0    0    0  501  0.00000000000E+00  0.00000000000E+00  0.13471271050E+03  0.13471274836E+03  0.10100000352E+00 0.  1.
        3   -1    0    0  501    0  0.00000000000E+00  0.00000000000E+00 -0.46502664080E+03  0.46502665177E+03  0.10100000352E+00 0. -1.
    10030    2    1    2    0    0  0.00000000000E+00  0.00000000000E+00 -0.33031393030E+03  0.59973940013E+03  0.50057971944E+03 0.  0.
        5    1    3    3  502    0 -0.17477483968E+03 -0.88803466931E+01  0.49156529127E+02  0.18183387884E+03  0.46999998093E+01 0. -1.
       -5    1    3    3    0  502  0.17477483968E+03  0.88803466931E+01 -0.37947045943E+03  0.41790552128E+03  0.46999998093E+01 0.  1.
</event>
<event>
 5   0  0.4803890E-02  0.5004802E+03  0.7818609E-02  0.1013654E+00
        1   -1    0    0  501    0  0.00000000000E+00  0.00000000000E+00  0.64289720739E+03  0.64289720741E+03  0.50400001928E-02 0. -1.
       -1   -1    0    0    0  501  0.00000000000E+00  0.00000000000E+00 -0.97402970328E+02  0.97402970458E+02  0.50400001928E-02 0.  1.
    10030    2    1    2    0    0  0.00000000000E+00  0.00000000000E+00  0.54549423706E+03  0.74030017786E+03  0.50048016013E+03 0.  0.
        5    1    3    3  502    0  0.12793825419E+03  0.82569975425E+02 -0.20906447802E+02  0.15376985168E+03  0.46999998093E+01 0.  1.
       -5    1    3    3    0  502 -0.12793825419E+03 -0.82569975425E+02  0.56640068486E+03  0.58653032619E+03  0.46999998093E+01 0. -1.
</event>
<event>
 5   0  0.7698747E-02  0.4983588E+03  0.7818609E-02  0.1014208E+00
       -2   -1    0    0    0  501  0.00000000000E+00  0.00000000000E+00  0.49569286753E+03  0.49569286754E+03  0.25500000920E-02 0.  1.
        2   -1    0    0  501    0  0.00000000000E+00  0.00000000000E+00 -0.12525977118E+03  0.12525977121E+03  0.25500000920E-02 0. -1.
    10030    2    1    2    0    0  0.00000000000E+00  0.00000000000E+00  0.37043309635E+03  0.62095263874E+03  0.49835880718E+03 0.  0.
        2    1    3    3  502    0 -0.17794100594E+03  0.16194155431E+03  0.10444466567E+03  0.26229135861E+03  0.25500000920E-02 0. -1.
       -2    1    3    3    0  502  0.17794100594E+03 -0.16194155431E+03  0.26598843067E+03  0.35866128013E+03  0.25500000920E-02 0.  1.
</event>
<event>
 5   0  0.5038436E-02  0.5019649E+03  0.7818609E-02  0.1013267E+00
       -1   -1    0    0    0  501  0.00000000000E+00  0.00000000000E+00  0.48361426396E+02  0.48361426658E+02  0.50400001928E-02 0.  1.
        1   -1    0    0  501    0  0.00000000000E+00  0.00000000000E+00 -0.13025296748E+04  0.13025296748E+04  0.50400001928E-02 0. -1.
    10030    2    1    2    0    0  0.00000000000E+00  0.00000000000E+00 -0.12541682484E+04  0.13508911015E+04  0.50196491184E+03 0.  0.
        1    1    3    3  502    0 -0.11463428371E+03  0.20666908045E+03 -0.85447218555E+03  0.88655278677E+03  0.50400001928E-02 0. -1.
       -1    1    3    3    0  502  0.11463428371E+03 -0.20666908045E+03 -0.39969606286E+03  0.46433831471E+03  0.50400001928E-02 0.  1.
</event>
<event>
 5   0  0.5038436E-02  0.4995384E+03  0.7818609E-02  0.1013899E+00
       -1   -1    0    0    0  501  0.00000000000E+00  0.00000000000E+00  0.44011047769E+03  0.44011047772E+03  0.50400001928E-02 0. -1.
        1   -1    0    0  501    0  0.00000000000E+00  0.00000000000E+00 -0.14174769103E+03  0.14174769112E+03  0.50400001928E-02 0.  1.
    10030    2    1    2    0    0  0.00000000000E+00  0.00000000000E+00  0.29836278667E+03  0.58185816884E+03  0.49953836307E+03 0.  0.
        1    1    3    3  502    0  0.14497267719E+03  0.18214621941E+03  0.43767278071E+02  0.23687527738E+03  0.50400001928E-02 0.  1.
       -1    1    3    3    0  502 -0.14497267719E+03 -0.18214621941E+03  0.25459550859E+03  0.34498289146E+03  0.50400001928E-02 0. -1.
</event>
<event>
 5   0  0.4865501E-02  0.5010905E+03  0.7818609E-02  0.1013495E+00
       -1   -1    0    0    0  501  0.00000000000E+00  0.00000000000E+00  0.10167826243E+03  0.10167826255E+03  0.50400001928E-02 0.  1.
        1   -1    0    0  501    0  0.00000000000E+00  0.00000000000E+00 -0.61736815414E+03  0.61736815416E+03  0.50400001928E-02 0. -1.
    10030    2    1    2    0    0  0.00000000000E+00  0.00000000000E+00 -0.51568989171E+03  0.71904641672E+03  0.50109049580E+03 0.  0.
        2    1    3    3  502    0  0.10349470989E+03 -0.10975764886E+03 -0.54489147897E+03  0.56538891068E+03  0.25500000920E-02 0. -1.
       -2    1    3    3    0  502 -0.10349470989E+03  0.10975764886E+03  0.29201587253E+02  0.15365750604E+03  0.25500000920E-02 0.  1.
</event>
<event>
 5   0  0.7776070E-02  0.5009143E+03  0.7818609E-02  0.1013541E+00
       -2   -1    0    0    0  501  0.00000000000E+00  0.00000000000E+00  0.60886012774E+02  0.60886012827E+02  0.25500000920E-02 0.  1.
        2   -1    0    0  501    0  0.00000000000E+00  0.00000000000E+00 -0.10302657585E+04  0.10302657585E+04  0.25500000920E-02 0. -1.
    10030    2    1    2    0    0  0.00000000000E+00  0.00000000000E+00 -0.96937974568E+03  0.10911517713E+04  0.50091426077E+03 0.  0.
        4    1    3    3  502    0 -0.72484442307E+02 -0.23715875705E+03 -0.56105207060E+03  0.61341609797E+03  0.12699999809E+01 0.  1.
       -4    1    3    3    0  502  0.72484442307E+02  0.23715875705E+03 -0.40832767508E+03  0.47773567332E+03  0.12699999809E+01 0. -1.
</event>
<event>
 5   0  0.4884478E-02  0.4985501E+03  0.7818609E-02  0.1014158E+00
        1   -1    0    0  501    0  0.00000000000E+00  0.00000000000E+00  0.10398987645E+04  0.10398987645E+04  0.50400001928E-02 0.  1.
       -1   -1    0    0    0  501  0.00000000000E+00  0.00000000000E+00 -0.59753948871E+02  0.59753949084E+02  0.50400001928E-02 0. -1.
    10030    2    1    2    0    0  0.00000000000E+00  0.00000000000E+00  0.98014481560E+03  0.10996527136E+04  0.49855012878E+03 0.  0.
        3    1    3    3  502    0 -0.47394497218E+02  0.31044277653E+02 -0.45363874598E+02  0.72580140955E+02  0.10100000352E+00 0. -1.
       -3    1    3    3    0  502  0.47394497218E+02 -0.31044277653E+02  0.10255086902E+04  0.10270725726E+04  0.10100000352E+00 0.  1.
</event>
<event>
 5   0  0.4803890E-02  0.5007272E+03  0.7818609E-02  0.1013589E+00
       -1   -1    0    0    0  501  0.00000000000E+00  0.00000000000E+00  0.24555058010E+03  0.24555058015E+03  0.50400001928E-02 0.  1.
        1   -1    0    0  501    0  0.00000000000E+00  0.00000000000E+00 -0.25527091222E+03  0.25527091227E+03  0.50400001928E-02 0. -1.
    10030    2    1    2    0    0  0.00000000000E+00  0.00000000000E+00 -0.97203321203E+01  0.50082149242E+03  0.50072715366E+03 0.  0.
        5    1    3    3  502    0  0.21507184314E+03 -0.79542649672E+02 -0.10526284122E+03  0.25235943923E+03  0.46999998093E+01 0. -1.
       -5    1    3    3    0  502 -0.21507184314E+03  0.79542649672E+02  0.95542509100E+02  0.24846205318E+03  0.46999998093E+01 0.  1.
</event>
<event>
 5   0  0.4865501E-02  0.4938610E+03  0.7818609E-02  0.1015394E+00
       -1   -1    0    0    0  501  0.00000000000E+00  0.00000000000E+00  0.18822303364E+03  0.18822303371E+03  0.50400001928E-02 0.  1.
        1   -1    0    0  501    0  0.00000000000E+00  0.00000000000E+00 -0.32394902017E+03  0.32394902021E+03  0.50400001928E-02 0. -1.
    10030    2    1    2    0    0  0.00000000000E+00  0.00000000000E+00 -0.13572598653E+03  0.51217205392E+03  0.49386098185E+03 0.  0.
        2    1    3    3  502    0  0.17672797220E+03  0.11211888716E+03  0.68034695810E+02  0.22007303528E+03  0.25500000920E-02 0.  1.
       -2    1    3    3    0  502 -0.17672797220E+03 -0.11211888716E+03 -0.20376068234E+03  0.29209901864E+03  0.25500000920E-02 0. -1.
</event>
<event>
 5   0  0.7698747E-02  0.5014957E+03  0.7818609E-02  0.1013389E+00
        2   -1    0    0  501    0  0.00000000000E+00  0.00000000000E+00  0.21479797314E+04  0.21479797314E+04  0.25500000920E-02 0. -1.
       -2   -1    0    0    0  501  0.00000000000E+00  0.00000000000E+00 -0.29271449043E+02  0.29271449154E+02  0.25500000920E-02 0.  1.
    10030    2    1    2    0    0  0.00000000000E+00  0.00000000000E+00  0.21187082824E+04  0.21772511806E+04  0.50149568045E+03 0.  0.
        2    1    3    3  502    0 -0.14608564652E+03  0.15054347177E+03  0.46296635290E+03  0.50827374212E+03  0.25500000920E-02 0.  1.
       -2    1    3    3    0  502  0.14608564652E+03 -0.15054347177E+03  0.16557419295E+04  0.16689774385E+04  0.25500000920E-02 0. -1.
</event>
<event>
 5   0  0.3210875E-02  0.5023605E+03  0.7818609E-02  0.1013165E+00
        3   -1    0    0  501    0  0.00000000000E+00  0.00000000000E+00  0.15002759637E+03  0.15002763037E+03  0.10100000352E+00 0.  1.
       -3   -1    0    0    0  501  0.00000000000E+00  0.00000000000E+00 -0.42053265889E+03  0.42053267102E+03  0.10100000352E+00 0. -1.
    10030    2    1    2    0    0  0.00000000000E+00  0.00000000000E+00 -0.27050506252E+03  0.57056030138E+03  0.50236049672E+03 0.  0.
        4    1    3    3  502    0 -0.12768871543E+03  0.20683616682E+03 -0.63382278306E+02  0.25120615848E+03  0.12699999809E+01 0.  1.
       -4    1    3    3    0  502  0.12768871543E+03 -0.20683616682E+03 -0.20712278421E+03  0.31935414291E+03  0.12699999809E+01 0. -1.
</event>
<event>
 5   0  0.7776070E-02  0.5007525E+03  0.7818609E-02  0.1013583E+00
       -2   -1    0    0    0  501  0.00000000000E+00  0.00000000000E+00  0.70675585370E+02  0.70675585416E+02  0.25500000920E-02 0. -1.
        2   -1    0    0  501    0  0.00000000000E+00  0.00000000000E+00 -0.88698618228E+03  0.88698618228E+03  0.25500000920E-02 0.  1.
    10030    2    1    2    0    0  0.00000000000E+00  0.00000000000E+00 -0.81631059690E+03  0.95766176770E+03  0.50075250442E+03 0.  0.
        4    1    3    3  502    0  0.18041524124E+03  0.16821223471E+03 -0.32608399311E+03  0.40887332836E+03  0.12699999809E+01 0. -1.
       -4    1    3    3    0  502 -0.18041524124E+03 -0.16821223471E+03 -0.49022660379E+03  0.54878843934E+03  0.12699999809E+01 0.  1.
</event>
<event>
 5   0  0.7776070E-02  0.4997178E+03  0.7818609E-02  0.1013853E+00
        2   -1    0    0  501    0  0.00000000000E+00  0.00000000000E+00  0.81172339417E+03  0.81172339417E+03  0.25500000920E-02 0. -1.
       -2   -1    0    0    0  501  0.00000000000E+00  0.00000000000E+00 -0.76909785113E+02  0.76909785155E+02  0.25500000920E-02 0.  1.
    10030    2    1    2    0    0  0.00000000000E+00  0.00000000000E+00  0.73481360906E+03  0.88863317933E+03  0.49971780772E+03 0.  0.
        4    1    3    3  502    0  0.16940233168E+03 -0.11129766786E+03  0.62720187448E+03  0.65914196127E+03  0.12699999809E+01 0. -1.
       -4    1    3    3    0  502 -0.16940233168E+03  0.11129766786E+03  0.10761173458E+03  0.22949121806E+03  0.12699999809E+01 0.  1.
</event>
<event>
 5   0  0.5191358E-02  0.5023937E+03  0.7818609E-02  0.1013156E+00
        1   -1    0    0  501    0  0.00000000000E+00  0.00000000000E+00  0.12005148710E+03  0.12005148721E+03  0.50400001928E-02 0.  1.
       -1   -1    0    0    0  501  0.00000000000E+00  0.00000000000E+00 -0.52560653269E+03  0.52560653271E+03  0.50400001928E-02 0. -1.
    10030    2    1    2    0    0  0.00000000000E+00  0.00000000000E+00 -0.40555504558E+03  0.64565801992E+03  0.50239365411E+03 0.  0.
        4    1    3    3  502    0  0.12151940857E+03 -0.75152389386E+02 -0.46829177035E+03  0.48960559981E+03  0.12699999809E+01 0. -1.
       -4    1    3    3    0  502 -0.12151940857E+03  0.75152389386E+02  0.62736724764E+02  0.15605242011E+03  0.12699999809E+01 0.  1.
</event>
<event>
 5   0  0.7698747E-02  0.5192333E+03  0.7818609E-02  0.1008877E+00
       -2   -1    0    0    0  501  0.00000000000E+00  0.00000000000E+00  0.53240821877E+02  0.53240821939E+02  0.25500000920E-02 0.  1.
        2   -1    0    0  501    0  0.00000000000E+00  0.00000000000E+00 -0.12659611686E+04  0.12659611686E+04  0.25500000920E-02 0. -1.
    10030    2    1    2    0    0  0.00000000000E+00  0.00000000000E+00 -0.12127203467E+04  0.13192019905E+04  0.51923333145E+03 0.  0.
        2    1    3    3  502    0 -0.14762653369E+03  0.37881695079E+02 -0.72382333966E+02  0.16872409001E+03  0.25500000920E-02 0.  1.
       -2    1    3    3    0  502  0.14762653369E+03 -0.37881695079E+02 -0.11403380127E+04  0.11504779005E+04  0.25500000920E-02 0. -1.
</event>
<event>
 5   0  0.3210875E-02  0.4977206E+03  0.7818609E-02  0.1014376E+00
        3   -1    0    0  501    0  0.00000000000E+00  0.00000000000E+00  0.32342296925E+03  0.32342298502E+03  0.10100000352E+00 0.  1.
       -3   -1    0    0    0  501  0.00000000000E+00  0.00000000000E+00 -0.19148747566E+03  0.19148750230E+03  0.10100000352E+00 0. -1.
    10030    2    1    2    0    0  0.00000000000E+00  0.00000000000E+00  0.13193549359E+03  0.51491048732E+03  0.49772064000E+03 0.  0.
        4    1    3    3  502    0 -0.21580085317E+03  0.10761344824E+03  0.23695098676E+01  0.24115946995E+03  0.12699999809E+01 0. -1.
       -4    1    3    3    0  502  0.21580085317E+03 -0.10761344824E+03  0.12956598372E+03  0.27375101736E+03  0.12699999809E+01 0.  1.
</event>
<event>
 5   0  0.7776070E-02  0.5012129E+03  0.7818609E-02  0.1013463E+00
        2   -1    0    0  501    0  0.00000000000E+00  0.00000000000E+00  0.24516378655E+03  0.24516378656E+03  0.25500000920E-02 0.  1.
       -2   -1    0    0    0  501  0.00000000000E+00  0.00000000000E+00 -0.25616996901E+03  0.25616996902E+03  0.25500000920E-02 0. -1.
    10030    2    1    2    0    0  0.00000000000E+00  0.00000000000E+00 -0.11006182464E+02  0.50133375558E+03  0.50121292724E+03 0.  0.
        4    1    3    3  502    0 -0.19722524942E+03  0.15452260515E+03 -0.31028912988E+00  0.25055287604E+03  0.12699999809E+01 0.  1.
       -4    1    3    3    0  502  0.19722524942E+03 -0.15452260515E+03 -0.10695893334E+02  0.25078087954E+03  0.12699999809E+01 0. -1.
</event>
<event>
 5   0  0.7933103E-02  0.5023794E+03  0.7818609E-02  0.1013160E+00
        2   -1    0    0  501    0  0.00000000000E+00  0.00000000000E+00  0.44128296109E+03  0.44128296109E+03  0.25500000920E-02 0.  1.
       -2   -1    0    0    0  501  0.00000000000E+00  0.00000000000E+00 -0.14298368949E+03  0.14298368951E+03  0.25500000920E-02 0. -1.
    10030    2    1    2    0    0  0.00000000000E+00  0.00000000000E+00  0.29829927160E+03  0.58426665061E+03  0.50237940202E+03 0.  0.
        5    1    3    3  502    0 -0.21750893461E+03  0.29304245329E+02  0.71622900338E+01  0.21964121614E+03  0.46999998093E+01 0. -1.
       -5    1    3    3    0  502  0.21750893461E+03 -0.29304245329E+02  0.29113698156E+03  0.36462543447E+03  0.46999998093E+01 0.  1.
</event>
<event>
 5   0  0.3210875E-02  0.5002236E+03  0.7818609E-02  0.1013721E+00
       -4   -1    0    0    0  501  0.00000000000E+00  0.00000000000E+00  0.47731748893E+03  0.47731917847E+03  0.12699999809E+01 0. -1.
        4   -1    0    0  501    0  0.00000000000E+00  0.00000000000E+00 -0.13105226089E+03  0.13105841440E+03  0.12699999809E+01 0.  1.
    10030    2    1    2    0    0  0.00000000000E+00  0.00000000000E+00  0.34626522804E+03  0.60837759286E+03  0.50022363734E+03 0.  0.
        2    1    3    3  502    0  0.18203995815E+03 -0.62777171617E+02  0.36725608524E+03  0.41467644229E+03  0.25500000920E-02 0. -1.
       -2    1    3    3    0  502 -0.18203995815E+03  0.62777171617E+02 -0.20990857203E+02  0.19370115057E+03  0.25500000920E-02 0.  1.
</event>
<event>
 5   0  0.7933103E-02  0.5014995E+03  0.7818609E-02  0.1013388E+00
        2   -1    0    0  501    0  0.00000000000E+00  0.00000000000E+00  0.78425449129E+03  0.78425449130E+03  0.25500000920E-02 0. -1.
       -2   -1    0    0    0  501  0.00000000000E+00  0.00000000000E+00 -0.80172241920E+02  0.80172241960E+02  0.25500000920E-02 0.  1.
    10030    2    1    2    0    0  0.00000000000E+00  0.00000000000E+00  0.70408224937E+03  0.86442673326E+03  0.50149951474E+03 0.  0.
        5    1    3    3  502    0 -0.13897750059E+03 -0.20865901167E+03  0.35178545190E+03  0.43200511917E+03  0.46999998093E+01 0.  1.
       -5    1    3    3    0  502  0.13897750059E+03  0.20865901167E+03  0.35229679748E+03  0.43242161409E+03  0.46999998093E+01 0. -1.
</event>
<event>
 5   0  0.4803890E-02  0.4981047E+03  0.7818609E-02  0.1014275E+00
       -1   -1    0    0    0  501  0.00000000000E+00  0.00000000000E+00  0.11856986804E+03  0.11856986815E+03  0.50400001928E-02 0. -1.
        1   -1    0    0  501    0  0.00000000000E+00  0.00000000000E+00 -0.52312667794E+03  0.52312667797E+03  0.50400001928E-02 0.  1.
    10030    2    1    2    0    0  0.00000000000E+00  0.00000000000E+00 -0.40455680990E+03  0.64169654612E+03  0.49810465252E+03 0.  0.
        5    1    3    3  502    0 -0.18635670479E+03 -0.18204053843E+02 -0.41374719538E+03  0.45416851573E+03  0.46999998093E+01 0.  1.
       -5    1    3    3    0  502  0.18635670479E+03  0.18204053843E+02  0.91903854742E+01  0.18752803039E+03  0.46999998093E+01 0. -1.
</event>
<event>
 5   0  0.4865501E-02  0.5009901E+03  0.7818609E-02  0.1013521E+00
       -1   -1    0    0    0  501  0.00000000000E+00  0.00000000000E+00  0.17748257361E+03  0.17748257369E+03  0.50400001928E-02 0. -1.
        1   -1    0    0  501    0  0.00000000000E+00  0.00000000000E+00 -0.35354332037E+03  0.35354332041E+03  0.50400001928E-02 0.  1.
    10030    2    1    2    0    0  0.00000000000E+00  0.00000000000E+00 -0.17606074676E+03  0.53102589409E+03  0.50099013328E+03 0.  0.
        2    1    3    3  502    0  0.78345813799E+02  0.10050691030E+03 -0.31661693659E+03  0.34130043964E+03  0.25500000920E-02 0.  1.
       -2    1    3    3    0  502 -0.78345813799E+02 -0.10050691030E+03  0.14055618983E+03  0.18972545445E+03  0.25500000920E-02 0. -1.
</event>
<event>
 5   0  0.7881060E-02  0.5083474E+03  0.7818609E-02  0.1011623E+00
        2   -1    0    0  501    0  0.00000000000E+00  0.00000000000E+00  0.31519432144E+03  0.31519432145E+03  0.25500000920E-02 0. -1.
       -2   -1    0    0    0  501  0.00000000000E+00  0.00000000000E+00 -0.20496651293E+03  0.20496651294E+03  0.25500000920E-02 0.  1.
    10030    2    1    2    0    0  0.00000000000E+00  0.00000000000E+00  0.11022780851E+03  0.52016083439E+03  0.50834744404E+03 0.  0.
        1    1    3    3  502    0  0.16942762782E+03 -0.18925511723E+03  0.45901317998E+02  0.25812816872E+03  0.50400001928E-02 0.  1.
       -1    1    3    3    0  502 -0.16942762782E+03  0.18925511723E+03  0.64326490511E+02  0.26203266567E+03  0.50400001928E-02 0. -1.
</event>
<event>
 5   0  0.5191358E-02  0.4987954E+03  0.7818609E-02  0.1014094E+00
       -1   -1    0    0    0  501  0.00000000000E+00  0.00000000000E+00  0.64693133753E+02  0.64693133949E+02  0.50400001928E-02 0. -1.
        1   -1    0    0  501    0  0.00000000000E+00  0.00000000000E+00 -0.96144982385E+03  0.96144982386E+03  0.50400001928E-02 0.  1.
    10030    2    1    2    0    0  0.00000000000E+00  0.00000000000E+00 -0.89675669010E+03  0.10261429578E+04  0.49879535747E+03 0.  0.
        4    1    3    3  502    0 -0.13633012363E+03 -0.19827198828E+03 -0.58327926540E+03  0.63096275508E+03  0.12699999809E+01 0.  1.
       -4    1    3    3    0  502  0.13633012363E+03  0.19827198828E+03 -0.31347742469E+03  0.39518020274E+03  0.12699999809E+01 0. -1.
</event>
<event>
 5   0  0.8208720E-02  0.4969109E+03  0.7818609E-02  0.1014588E+00
        2   -1    0    0  501    0  0.00000000000E+00  0.00000000000E+00  0.44295063214E+03  0.44295063214E+03  0.25500000920E-02 0. -1.
       -2   -1    0    0    0  501  0.00000000000E+00  0.00000000000E+00 -0.13936117372E+03  0.13936117374E+03  0.25500000920E-02 0.  1.
    10030    2    1    2    0    0  0.00000000000E+00  0.00000000000E+00  0.30358945842E+03  0.58231180588E+03  0.49691093770E+03 0.  0.
        3    1    3    3  502    0 -0.84188494534E+02 -0.23332185834E+03  0.13508518748E+03  0.28244434897E+03  0.10100000352E+00 0. -1.
       -3    1    3    3    0  502  0.84188494534E+02  0.23332185834E+03  0.16850427094E+03  0.29986745691E+03  0.10100000352E+00 0.  1.
</event>
<event>
 5   0  0.4884478E-02  0.5003165E+03  0.7818609E-02  0.1013696E+00
       -1   -1    0    0    0  501  0.00000000000E+00  0.00000000000E+00  0.14279332094E+03  0.14279332103E+03  0.50400001928E-02 0. -1.
        1   -1    0    0  501    0  0.00000000000E+00  0.00000000000E+00 -0.43824978349E+03  0.43824978352E+03  0.50400001928E-02 0.  1.
    10030    2    1    2    0    0  0.00000000000E+00  0.00000000000E+00 -0.29545646254E+03  0.58104310455E+03  0.50031646793E+03 0.  0.
        3    1    3    3  502    0 -0.18074118424E+03  0.99181846687E+02 -0.31227458922E+03  0.37419225495E+03  0.10100000352E+00 0.  1.
       -3    1    3    3    0  502  0.18074118424E+03 -0.99181846687E+02  0.16818126677E+02  0.20685084960E+03  0.10100000352E+00 0. -1.
</event>
<event>
 5   0  0.4884478E-02  0.4986008E+03  0.7818609E-02  0.1014145E+00
       -1   -1    0    0    0  501  0.00000000000E+00  0.00000000000E+00  0.24094613694E+03  0.24094613699E+03  0.50400001928E-02 0. -1.
        1   -1    0    0  501    0  0.00000000000E+00  0.00000000000E+00 -0.25794437859E+03  0.25794437863E+03  0.50400001928E-02 0.  1.
    10030    2    1    2    0    0  0.00000000000E+00  0.00000000000E+00 -0.16998241645E+02  0.49889051563E+03  0.49860084874E+03 0.  0.
        3    1    3    3  502    0  0.12323483698E+03 -0.13977065826E+02  0.20788679595E+03  0.24207253777E+03  0.10100000352E+00 0. -1.
       -3    1    3    3    0  502 -0.12323483698E+03  0.13977065826E+02 -0.22488503759E+03  0.25681797785E+03  0.10100000352E+00 0.  1.
</event>
<event>
 5   0  0.4803890E-02  0.5073421E+03  0.7818609E-02  0.1011880E+00
        1   -1    0    0  501    0  0.00000000000E+00  0.00000000000E+00  0.58800446827E+03  0.58800446829E+03  0.50400001928E-02 0.  1.
       -1   -1    0    0    0  501  0.00000000000E+00  0.00000000000E+00 -0.10943625758E+03  0.10943625770E+03  0.50400001928E-02 0. -1.
    10030    2    1    2    0    0  0.00000000000E+00  0.00000000000E+00  0.47856821068E+03  0.69744072599E+03  0.50734212716E+03 0.  0.
        5    1    3    3  502    0  0.50550501259E+02  0.93386823754E+02  0.55591331857E+03  0.56598423988E+03  0.46999998093E+01 0.  1.
       -5    1    3    3    0  502 -0.50550501259E+02 -0.93386823754E+02 -0.77345107886E+02  0.13145648611E+03  0.46999998093E+01 0. -1.
</event>
<event>
 5   0  0.7698747E-02  0.5023336E+03  0.7818609E-02  0.1013172E+00
        2   -1    0    0  501    0  0.00000000000E+00  0.00000000000E+00  0.52777426104E+03  0.52777426105E+03  0.25500000920E-02 0. -1.
       -2   -1    0    0    0  501  0.00000000000E+00  0.00000000000E+00 -0.11952982300E+03  0.11952982303E+03  0.25500000920E-02 0.  1.
    10030    2    1    2    0    0  0.00000000000E+00  0.00000000000E+00  0.40824443804E+03  0.64730408408E+03  0.50233361034E+03 0.  0.
        2    1    3    3  502    0 -0.24957626838E+03 -0.22455899730E+02  0.22614861616E+03  0.33754374201E+03  0.25500000920E-02 0. -1.
       -2    1    3    3    0  502  0.24957626838E+03  0.22455899730E+02  0.18209582188E+03  0.30976034208E+03  0.25500000920E-02 0.  1.
</event>
<event>
 5   0  0.7933103E-02  0.5026360E+03  0.7818609E-02  0.1013093E+00
        2   -1    0    0  501    0  0.00000000000E+00  0.00000000000E+00  0.56610794531E+03  0.56610794531E+03  0.25500000920E-02 0.  1.
       -2   -1    0    0    0  501  0.00000000000E+00  0.00000000000E+00 -0.11157012925E+03  0.11157012928E+03  0.25500000920E-02 0. -1.
    10030    2    1    2    0    0  0.00000000000E+00  0.00000000000E+00  0.45453781606E+03  0.67767807460E+03  0.50263599808E+03 0.  0.
        5    1    3    3  502    0 -0.83599283429E+02  0.59796101891E+02 -0.81871885395E+02  0.13148957984E+03  0.46999998093E+01 0. -1.
       -5    1    3    3    0  502  0.83599283429E+02 -0.59796101891E+02  0.53640970145E+03  0.54618849475E+03  0.46999998093E+01 0.  1.
</event>
<event>
 5   0  0.5191358E-02  0.5495688E+03  0.7818609E-02  0.1001594E+00
       -1   -1    0    0    0  501  0.00000000000E+00  0.00000000000E+00  0.67526922942E+02  0.67526923130E+02  0.50400001928E-02 0.  1.
        1   -1    0    0  501    0  0.00000000000E+00  0.00000000000E+00 -0.11181681999E+04  0.11181681999E+04  0.50400001928E-02 0. -1.
    10030    2    1    2    0    0  0.00000000000E+00  0.00000000000E+00 -0.10506412769E+04  0.11856951230E+04  0.54956876908E+03 0.  0.
        4    1    3    3  502    0  0.13086712835E+03  0.22713911909E+03 -0.34758576553E+03  0.43535716601E+03  0.12699999809E+01 0.  1.
       -4    1    3    3    0  502 -0.13086712835E+03 -0.22713911909E+03 -0.70305551141E+03  0.75033795701E+03  0.12699999809E+01 0. -1.
</event>
<event>
 5   0  0.7776070E-02  0.4988005E+03  0.7818609E-02  0.1014092E+00
       -2   -1    0    0    0  501  0.00000000000E+00  0.00000000000E+00  0.38117182203E+02  0.38117182288E+02  0.25500000920E-02 0.  1.
        2   -1    0    0  501    0  0.00000000000E+00  0.00000000000E+00 -0.16318229249E+04  0.16318229249E+04  0.25500000920E-02 0. -1.
    10030    2    1    2    0    0  0.00000000000E+00  0.00000000000E+00 -0.15937057427E+04  0.16699401072E+04  0.49880052857E+03 0.  0.
        4    1    3    3  502    0  0.10219916317E+03  0.22703728599E+03 -0.84516971433E+03  0.88108118644E+03  0.12699999809E+01 0. -1.
       -4    1    3    3    0  502 -0.10219916317E+03 -0.22703728599E+03 -0.74853602838E+03  0.78885892076E+03  0.12699999809E+01 0.  1.
</event>
<event>
 5   0  0.4803890E-02  0.4989835E+03  0.7818609E-02  0.1014045E+00
        1   -1    0    0  501    0  0.00000000000E+00  0.00000000000E+00  0.29946347116E+03  0.29946347120E+03  0.50400001928E-02 0.  1.
       -1   -1    0    0    0  501  0.00000000000E+00  0.00000000000E+00 -0.20785888389E+03  0.20785888396E+03  0.50400001928E-02 0. -1.
    10030    2    1    2    0    0  0.00000000000E+00  0.00000000000E+00  0.91604587261E+02  0.50732235515E+03  0.49898353844E+03 0.  0.
        5    1    3    3  502    0 -0.11456928411E+03 -0.60955576901E+02  0.26239372455E+03  0.29276997779E+03  0.46999998093E+01 0.  1.
       -5    1    3    3    0  502  0.11456928411E+03  0.60955576901E+02 -0.17078913729E+03  0.21455237736E+03  0.46999998093E+01 0. -1.
</event>
<event>
 5   0  0.7698747E-02  0.4998237E+03  0.7818609E-02  0.1013825E+00
        2   -1    0    0  501    0  0.00000000000E+00  0.00000000000E+00  0.37463833468E+03  0.37463833469E+03  0.25500000920E-02 0.  1.
       -2   -1    0    0    0  501  0.00000000000E+00  0.00000000000E+00 -0.16670991684E+03  0.16670991686E+03  0.25500000920E-02 0. -1.
    10030    2    1    2    0    0  0.00000000000E+00  0.00000000000E+00  0.20792841785E+03  0.54134825155E+03  0.49982367141E+03 0.  0.
        2    1    3    3  502    0  0.43183093696E+02 -0.20311562821E+03 -0.46638961117E+02  0.21282840672E+03  0.25500000920E-02 0. -1.
       -2    1    3    3    0  502 -0.43183093696E+02  0.20311562821E+03  0.25456737896E+03  0.32851984483E+03  0.25500000920E-02 0.  1.
</event>
<event>
 5   0  0.8208720E-02  0.4983231E+03  0.7818609E-02  0.1014218E+00
        2   -1    0    0  501    0  0.00000000000E+00  0.00000000000E+00  0.30318205724E+03  0.30318205725E+03  0.25500000920E-02 0. -1.
       -2   -1    0    0    0  501  0.00000000000E+00  0.00000000000E+00 -0.20476633501E+03  0.20476633502E+03  0.25500000920E-02 0.  1.
    10030    2    1    2    0    0  0.00000000000E+00  0.00000000000E+00  0.98415722230E+02  0.50794839227E+03  0.49832310285E+03 0.  0.
        3    1    3    3  502    0  0.49426413250E+02 -0.23560289618E+03  0.11471244379E+03  0.26666580204E+03  0.10100000352E+00 0. -1.
       -3    1    3    3    0  502 -0.49426413250E+02  0.23560289618E+03 -0.16296721563E+02  0.24128259023E+03  0.10100000352E+00 0.  1.
</event>
<event>
 5   0  0.4865501E-02  0.4977830E+03  0.7818609E-02  0.1014359E+00
        1   -1    0    0  501    0  0.00000000000E+00  0.00000000000E+00  0.24713920490E+03  0.24713920495E+03  0.50400001928E-02 0. -1.
       -1   -1    0    0    0  501  0.00000000000E+00  0.00000000000E+00 -0.25065617164E+03  0.25065617169E+03  0.50400001928E-02 0.  1.
    10030    2    1    2    0    0  0.00000000000E+00  0.00000000000E+00 -0.35169667369E+01  0.49779537664E+03  0.49778295265E+03 0.  0.
        2    1    3    3  502    0  0.98017720876E+02 -0.11243114922E+03 -0.20100885787E+03  0.25030540919E+03  0.25500000920E-02 0.  1.
       -2    1    3    3    0  502 -0.98017720876E+02  0.11243114922E+03  0.19749189113E+03  0.24748996745E+03  0.25500000920E-02 0. -1.
</event>
<event>
 5   0  0.4803890E-02  0.5021514E+03  0.7818609E-02  0.1013219E+00
        1   -1    0    0  501    0  0.00000000000E+00  0.00000000000E+00  0.63018555906E+03  0.63018555908E+03  0.50400001928E-02 0. -1.
       -1   -1    0    0    0  501  0.00000000000E+00  0.00000000000E+00 -0.10003244423E+03  0.10003244436E+03  0.50400001928E-02 0.  1.
    10030    2    1    2    0    0  0.00000000000E+00  0.00000000000E+00  0.53015311483E+03  0.73021800343E+03  0.50215137895E+03 0.  0.
        5    1    3    3  502    0  0.19606743758E+03  0.54441608476E+02  0.47884870416E+03  0.52031192595E+03  0.46999998093E+01 0. -1.
       -5    1    3    3    0  502 -0.19606743758E+03 -0.54441608476E+02  0.51304410668E+02  0.20990607748E+03  0.46999998093E+01 0.  1.
</event>
<event>
 5   0  0.8208720E-02  0.4999192E+03  0.7818609E-02  0.1013800E+00
       -2   -1    0    0    0  501  0.00000000000E+00  0.00000000000E+00  0.57463147728E+02  0.57463147785E+02  0.25500000920E-02 0. -1.
        2   -1    0    0  501    0  0.00000000000E+00  0.00000000000E+00 -0.10873020882E+04  0.10873020882E+04  0.25500000920E-02 0.  1.
    10030    2    1    2    0    0  0.00000000000E+00  0.00000000000E+00 -0.10298389404E+04  0.11447652360E+04  0.49991919568E+03 0.  0.
        3    1    3    3  502    0 -0.10066233384E+03 -0.57902599949E+00  0.89953091724E+01  0.10106515974E+03  0.10100000352E+00 0. -1.
       -3    1    3    3    0  502  0.10066233384E+03  0.57902599949E+00 -0.10388342496E+04  0.10437000762E+04  0.10100000352E+00 0.  1.
</event>
<event>
 5   0  0.8208720E-02  0.5059515E+03  0.7818609E-02  0.1012237E+00
        2   -1    0    0  501    0  0.00000000000E+00  0.00000000000E+00  0.14005293560E+04  0.14005293560E+04  0.25500000920E-02 0. -1.
       -2   -1    0    0    0  501  0.00000000000E+00  0.00000000000E+00 -0.45694674086E+02  0.45694674157E+02  0.25500000920E-02 0.  1.
    10030    2    1    2    0    0  0.00000000000E+00  0.00000000000E+00  0.13548346819E+04  0.14462240302E+04  0.50595150963E+03 0.  0.
        3    1    3    3  502    0 -0.22833960148E+03  0.10831075048E+03  0.70957049001E+03  0.75323335213E+03  0.10100000352E+00 0.  1.
       -3    1    3    3    0  502  0.22833960148E+03 -0.10831075048E+03  0.64526419190E+03  0.69299067802E+03  0.10100000352E+00 0. -1.
</event>
<event>
 5   0  0.7698747E-02  0.4973399E+03  0.7818609E-02  0.1014476E+00
        2   -1    0    0  501    0  0.00000000000E+00  0.00000000000E+00  0.12220999317E+04  0.12220999317E+04  0.25500000920E-02 0.  1.
       -2   -1    0    0    0  501  0.00000000000E+00  0.00000000000E+00 -0.50598767660E+02  0.50598767725E+02  0.25500000920E-02 0. -1.
    10030    2    1    2    0    0  0.00000000000E+00  0.00000000000E+00  0.11715011641E+04  0.12726986995E+04  0.49733992619E+03 0.  0.
        2    1    3    3  502    0 -0.76953272537E+02 -0.64878080853E+02  0.11676418199E+04  0.11719720095E+04  0.25500000920E-02 0.  1.
       -2    1    3    3    0  502  0.76953272537E+02  0.64878080853E+02  0.38593442158E+01  0.10072668998E+03  0.25500000920E-02 0. -1.
</event>
<event>
 5   0  0.5038436E-02  0.4985222E+03  0.7818609E-02  0.1014165E+00
        1   -1    0    0  501    0  0.00000000000E+00  0.00000000000E+00  0.10549161309E+04  0.10549161309E+04  0.50400001928E-02 0. -1.
       -1   -1    0    0    0  501  0.00000000000E+00  0.00000000000E+00 -0.58896706348E+02  0.58896706563E+02  0.50400001928E-02 0.  1.
    10030    2    1    2    0    0  0.00000000000E+00  0.00000000000E+00  0.99601942456E+03  0.11138128375E+04  0.49852215883E+03 0.  0.
        1    1    3    3  502    0 -0.58263847929E+02 -0.22059678543E+03  0.72225186656E+03  0.75743341390E+03  0.50400001928E-02 0. -1.
       -1    1    3    3    0  502  0.58263847929E+02  0.22059678543E+03  0.27376755800E+03  0.35637942358E+03  0.50400001928E-02 0.  1.
</event>
<event>
 5   0  0.7776070E-02  0.5004494E+03  0.7818609E-02  0.1013662E+00
        2   -1    0    0  501    0  0.00000000000E+00  0.00000000000E+00  0.48574840827E+03  0.48574840828E+03  0.25500000920E-02 0.  1.
       -2   -1    0    0    0  501  0.00000000000E+00  0.00000000000E+00 -0.12889880758E+03  0.12889880761E+03  0.25500000920E-02 0. -1.
    10030    2    1    2    0    0  0.00000000000E+00  0.00000000000E+00  0.35684960069E+03  0.61464721589E+03  0.50044936056E+03 0.  0.
        4    1    3    3  502    0 -0.21895590952E+02  0.50314607732E+01 -0.12765362450E+03  0.12962173139E+03  0.12699999809E+01 0. -1.
       -4    1    3    3    0  502  0.21895590952E+02 -0.50314607732E+01  0.48450322519E+03  0.48502548450E+03  0.12699999809E+01 0.  1.
</event>
<event>
 5   0  0.8208720E-02  0.5025113E+03  0.7818609E-02  0.1013125E+00
        2   -1    0    0  501    0  0.00000000000E+00  0.00000000000E+00  0.11962624945E+04  0.11962624945E+04  0.25500000920E-02 0.  1.
       -2   -1    0    0    0  501  0.00000000000E+00  0.00000000000E+00 -0.52772208642E+02  0.52772208704E+02  0.25500000920E-02 0. -1.
    10030    2    1    2    0    0  0.00000000000E+00  0.00000000000E+00  0.11434902858E+04  0.12490347032E+04  0.50251134908E+03 0.  0.
        3    1    3    3  502    0  0.23725830775E+03  0.48276933243E+02  0.40487300760E+03  0.47174604330E+03  0.10100000352E+00 0.  1.
       -3    1    3    3    0  502 -0.23725830775E+03 -0.48276933243E+02  0.73861727824E+03  0.77728865989E+03  0.10100000352E+00 0. -1.
</event>
<event>
 5   0  0.3210875E-02  0.4997299E+03  0.7818609E-02  0.1013849E+00
       -4   -1    0    0    0  501  0.00000000000E+00  0.00000000000E+00  0.20630194698E+03  0.20630585602E+03  0.12699999809E+01 0. -1.
        4   -1    0    0  501    0  0.00000000000E+00  0.00000000000E+00 -0.30261866925E+03  0.30262133414E+03  0.12699999809E+01 0.  1.
    10030    2    1    2    0    0  0.00000000000E+00  0.00000000000E+00 -0.96316722269E+02  0.50892719016E+03  0.49972990094E+03 0.  0.
        1    1    3    3  502    0 -0.29231248948E+02 -0.22823667241E+03  0.51030521492E+02  0.23569166022E+03  0.50400001928E-02 0. -1.
       -1    1    3    3    0  502  0.29231248948E+02  0.22823667241E+03 -0.14734724376E+03  0.27323552993E+03  0.50400001928E-02 0.  1.
</event>
<event>
 5   0  0.5191358E-02  0.4999193E+03  0.7818609E-02  0.1013800E+00
        1   -1    0    0  501    0  0.00000000000E+00  0.00000000000E+00  0.15064507572E+04  0.15064507572E+04  0.50400001928E-02 0. -1.
       -1   -1    0    0    0  501  0.00000000000E+00  0.00000000000E+00 -0.41474856350E+02  0.41474856657E+02  0.50400001928E-02 0.  1.
    10030    2    1    2    0    0  0.00000000000E+00  0.00000000000E+00  0.14649759009E+04  0.15479256139E+04  0.49991930948E+03 0.  0.
        4    1    3    3  502    0  0.23600869385E+03 -0.82326476020E+02  0.73459681586E+03  0.77595866320E+03  0.12699999809E+01 0. -1.
       -4    1    3    3    0  502 -0.23600869385E+03  0.82326476020E+02  0.73037908502E+03  0.77196695069E+03  0.12699999809E+01 0.  1.
</event>
<event>
 5   0  0.7881060E-02  0.4987256E+03  0.7818609E-02  0.1014112E+00
       -2   -1    0    0    0  501  0.00000000000E+00  0.00000000000E+00  0.40622462513E+03  0.40622462514E+03  0.25500000920E-02 0. -1.
        2   -1    0    0  501    0  0.00000000000E+00  0.00000000000E+00 -0.15307245298E+03  0.15307245301E+03  0.25500000920E-02 0.  1.
    10030    2    1    2    0    0  0.00000000000E+00  0.00000000000E+00  0.25315217214E+03  0.55929707814E+03  0.49872557520E+03 0.  0.
        1    1    3    3  502    0  0.25485504635E+02  0.11351352281E+03 -0.12077214213E+03  0.16769240039E+03  0.50400001928E-02 0.  1.
       -1    1    3    3    0  502 -0.25485504635E+02 -0.11351352281E+03  0.37392431428E+03  0.39160467776E+03  0.50400001928E-02 0. -1.
</event>
<event>
 5   0  0.4803890E-02  0.4984595E+03  0.7818609E-02  0.1014182E+00
       -1   -1    0    0    0  501  0.00000000000E+00  0.00000000000E+00  0.52786256210E+02  0.52786256451E+02  0.50400001928E-02 0.  1.
        1   -1    0    0  501    0  0.00000000000E+00  0.00000000000E+00 -0.11767356598E+04  0.11767356598E+04  0.50400001928E-02 0. -1.
    10030    2    1    2    0    0  0.00000000000E+00  0.00000000000E+00 -0.11239494036E+04  0.12295219162E+04  0.49845950762E+03 0.  0.
        5    1    3    3  502    0  0.13328386763E+03  0.78842039569E+02 -0.10435246972E+04  0.10549628146E+04  0.46999998093E+01 0. -1.
       -5    1    3    3    0  502 -0.13328386763E+03 -0.78842039569E+02 -0.80424706425E+02  0.17455910167E+03  0.46999998093E+01 0.  1.
</event>
<event>
 5   0  0.5191358E-02  0.4961562E+03  0.7818609E-02  0.1014787E+00
        1   -1    0    0  501    0  0.00000000000E+00  0.00000000000E+00  0.39458665089E+03  0.39458665092E+03  0.50400001928E-02 0. -1.
       -1   -1    0    0    0  501  0.00000000000E+00  0.00000000000E+00 -0.15596759934E+03  0.15596759942E+03  0.50400001928E-02 0.  1.
    10030    2    1    2    0    0  0.00000000000E+00  0.00000000000E+00  0.23861905154E+03  0.55055425034E+03  0.49615615567E+03 0.  0.
        4    1    3    3  502    0 -0.11605092559E+03 -0.19626786926E+03  0.22776064284E+03  0.32228158055E+03  0.12699999809E+01 0. -1.
       -4    1    3    3    0  502  0.11605092559E+03  0.19626786926E+03  0.10858408710E+02  0.22827266979E+03  0.12699999809E+01 0.  1.
</event>
<event>
 5   0  0.8208720E-02  0.4398728E+03  0.7818609E-02  0.1030786E+00
        2   -1    0    0  501    0  0.00000000000E+00  0.00000000000E+00  0.87009089717E+02  0.87009089754E+02  0.25500000920E-02 0. -1.
       -2   -1    0    0    0  501  0.00000000000E+00  0.00000000000E+00 -0.55594209579E+03  0.55594209579E+03  0.25500000920E-02 0.  1.
    10030    2    1    2    0    0  0.00000000000E+00  0.00000000000E+00 -0.46893300607E+03  0.64295118555E+03  0.43987278026E+03 0.  0.
        3    1    3    3  502    0  0.81578383357E+02  0.10610608516E+03  0.20630270864E+02  0.13542212602E+03  0.10100000352E+00 0. -1.
       -3    1    3    3    0  502 -0.81578383357E+02 -0.10610608516E+03 -0.48956327694E+03  0.50752905953E+03  0.10100000352E+00 0.  1.
</event>
<event>
 5   0  0.5191358E-02  0.4984163E+03  0.7818609E-02  0.1014193E+00
       -1   -1    0    0    0  501  0.00000000000E+00  0.00000000000E+00  0.28033364385E+03  0.28033364389E+03  0.50400001928E-02 0. -1.
        1   -1    0    0  501    0  0.00000000000E+00  0.00000000000E+00 -0.22153850798E+03  0.22153850803E+03  0.50400001928E-02 0.  1.
    10030    2    1    2    0    0  0.00000000000E+00  0.00000000000E+00  0.58795135869E+02  0.50187215192E+03  0.49841628071E+03 0.  0.
        4    1    3    3  502    0 -0.60140365287E+02 -0.95013224040E+02  0.25333271472E+03  0.27717044129E+03  0.12699999809E+01 0. -1.
       -4    1    3    3    0  502  0.60140365287E+02  0.95013224040E+02 -0.19453757885E+03  0.22470171064E+03  0.12699999809E+01 0.  1.
</event>
<event>
 5   0  0.5038436E-02  0.5005090E+03  0.7818609E-02  0.1013646E+00
        1   -1    0    0  501    0  0.00000000000E+00  0.00000000000E+00  0.43512328655E+03  0.43512328658E+03  0.50400001928E-02 0.  1.
       -1   -1    0    0    0  501  0.00000000000E+00  0.00000000000E+00 -0.14393003438E+03  0.14393003447E+03  0.50400001928E-02 0. -1.
    10030    2    1    2    0    0  0.00000000000E+00  0.00000000000E+00  0.29119325216E+03  0.57905332104E+03  0.50050897945E+03 0.  0.
        1    1    3    3  502    0 -0.40377807963E+02 -0.16542999310E+03 -0.66566160335E+02  0.18283463490E+03  0.50400001928E-02 0. -1.
       -1    1    3    3    0  502  0.40377807963E+02  0.16542999310E+03  0.35775941250E+03  0.39621868614E+03  0.50400001928E-02 0.  1.
</event>
<event>
 5   0  0.4865501E-02  0.5003992E+03  0.7818609E-02  0.1013675E+00
        1   -1    0    0  501    0  0.00000000000E+00  0.00000000000E+00  0.63885948702E+03  0.63885948704E+03  0.50400001928E-02 0.  1.
       -1   -1    0    0    0  501  0.00000000000E+00  0.00000000000E+00 -0.97986870967E+02  0.97986871097E+02  0.50400001928E-02 0. -1.
    10030    2    1    2    0    0  0.00000000000E+00  0.00000000000E+00  0.54087261605E+03  0.73684635813E+03  0.50039920933E+03 0.  0.
        2    1    3    3  502    0 -0.23347207003E+03  0.60878751853E+02  0.36793886793E+03  0.43999368229E+03  0.25500000920E-02 0.  1.
       -2    1    3    3    0  502  0.23347207003E+03 -0.60878751853E+02  0.17293374811E+03  0.29685267584E+03  0.25500000920E-02 0. -1.
</event>
<event>
 5   0  0.7881060E-02  0.5018542E+03  0.7818609E-02  0.1013296E+00
        2   -1    0    0  501    0  0.00000000000E+00  0.00000000000E+00  0.88786255971E+03  0.88786255971E+03  0.25500000920E-02 0. -1.
       -2   -1    0    0    0  501  0.00000000000E+00  0.00000000000E+00 -0.70916848814E+02  0.70916848859E+02  0.25500000920E-02 0.  1.
    10030    2    1    2    0    0  0.00000000000E+00  0.00000000000E+00  0.81694571089E+03  0.95877940857E+03  0.50185422161E+03 0.  0.
        1    1    3    3  502    0  0.10843763538E+03  0.20211373278E+03  0.21405706196E+03  0.31373413513E+03  0.50400001928E-02 0.  1.
       -1    1    3    3    0  502 -0.10843763538E+03 -0.20211373278E+03  0.60288864894E+03  0.64504527344E+03  0.50400001928E-02 0. -1.
</event>
<event>
 5   0  0.4803890E-02  0.4992728E+03  0.7818609E-02  0.1013969E+00
        1   -1    0    0  501    0  0.00000000000E+00  0.00000000000E+00  0.19505479429E+03  0.19505479436E+03  0.50400001928E-02 0. -1.
       -1   -1    0    0    0  501  0.00000000000E+00  0.00000000000E+00 -0.31949143122E+03  0.31949143126E+03  0.50400001928E-02 0.  1.
    10030    2    1    2    0    0  0.00000000000E+00  0.00000000000E+00 -0.12443663693E+03  0.51454622562E+03  0.49927281289E+03 0.  0.
        5    1    3    3  502    0 -0.10089067746E+03  0.47223998344E+02 -0.29240547580E+03  0.31294102814E+03  0.46999998093E+01 0.  1.
       -5    1    3    3    0  502  0.10089067746E+03 -0.47223998344E+02  0.16796883887E+03  0.20160519748E+03  0.46999998093E+01 0. -1.
</event>
<event>
 5   0  0.8208720E-02  0.4971927E+03  0.7818609E-02  0.1014514E+00
        2   -1    0    0  501    0  0.00000000000E+00  0.00000000000E+00  0.41857007803E+03  0.41857007804E+03  0.25500000920E-02 0.  1.
       -2   -1    0    0    0  501  0.00000000000E+00  0.00000000000E+00 -0.14764587387E+03  0.14764587389E+03  0.25500000920E-02 0. -1.
    10030    2    1    2    0    0  0.00000000000E+00  0.00000000000E+00  0.27092420416E+03  0.56621595193E+03  0.49719269888E+03 0.  0.
        3    1    3    3  502    0 -0.20447977982E+03 -0.41506031428E+02 -0.18449725932E+02  0.20946391953E+03  0.10100000352E+00 0. -1.
       -3    1    3    3    0  502  0.20447977982E+03  0.41506031428E+02  0.28937393009E+03  0.35675203239E+03  0.10100000352E+00 0.  1.
</event>
<event>
 5   0  0.7698747E-02  0.5032619E+03  0.7818609E-02  0.1012931E+00
        2   -1    0    0  501    0  0.00000000000E+00  0.00000000000E+00  0.76992495087E+03  0.76992495087E+03  0.25500000920E-02 0.  1.
       -2   -1    0    0    0  501  0.00000000000E+00  0.00000000000E+00 -0.82239365131E+02  0.82239365170E+02  0.25500000920E-02 0. -1.
    10030    2    1    2    0    0  0.00000000000E+00  0.00000000000E+00  0.68768558574E+03  0.85216431604E+03  0.50326191660E+03 0.  0.
        2    1    3    3  502    0  0.18584947653E+03  0.15427942382E+03  0.46328784967E+03  0.52247277460E+03  0.25500000920E-02 0. -1.
       -2    1    3    3    0  502 -0.18584947653E+03 -0.15427942382E+03  0.22439773607E+03  0.32969154144E+03  0.25500000920E-02 0.  1.
</event>
<event>
 5   0  0.7776070E-02  0.4938658E+03  0.7818609E-02  0.1015393E+00
       -2   -1    0    0    0  501  0.00000000000E+00  0.00000000000E+00  0.22080721246E+03  0.22080721248E+03  0.25500000920E-02 0. -1.
        2   -1    0    0  501    0  0.00000000000E+00  0.00000000000E+00 -0.27614977284E+03  0.27614977285E+03  0.25500000920E-02 0.  1.
    10030    2    1    2    0    0  0.00000000000E+00  0.00000000000E+00 -0.55342560378E+02  0.49695698533E+03  0.49386581809E+03 0.  0.
        4    1    3    3  502    0  0.22266693208E+03  0.10656760213E+03 -0.21547781900E+02  0.24779656227E+03  0.12699999809E+01 0. -1.
       -4    1    3    3    0  502 -0.22266693208E+03 -0.10656760213E+03 -0.33794778479E+02  0.24916042306E+03  0.12699999809E+01 0.  1.
</event>
<event>
 5   0  0.8208720E-02  0.5028465E+03  0.7818609E-02  0.1013039E+00
        2   -1    0    0  501    0  0.00000000000E+00  0.00000000000E+00  0.82373106223E+03  0.82373106224E+03  0.25500000920E-02 0. -1.
       -2   -1    0    0    0  501  0.00000000000E+00  0.00000000000E+00 -0.76740652157E+02  0.76740652199E+02  0.25500000920E-02 0.  1.
    10030    2    1    2    0    0  0.00000000000E+00  0.00000000000E+00  0.74699041008E+03  0.90047171444E+03  0.50284653300E+03 0.  0.
        3    1    3    3  502    0  0.10220365512E+03  0.17658648307E+03  0.11039970840E+03  0.23198379025E+03  0.10100000352E+00 0.  1.
       -3    1    3    3    0  502 -0.10220365512E+03 -0.17658648307E+03  0.63659070168E+03  0.66848792419E+03  0.10100000352E+00 0. -1.
</event>
<event>
 5   0  0.5038436E-02  0.4999089E+03  0.7818609E-02  0.1013803E+00
       -1   -1    0    0    0  501  0.00000000000E+00  0.00000000000E+00  0.39469256005E+02  0.39469256327E+02  0.50400001928E-02 0. -1.
        1   -1    0    0  501    0  0.00000000000E+00  0.00000000000E+00 -0.15829338260E+04  0.15829338260E+04  0.50400001928E-02 0.  1.
    10030    2    1    2    0    0  0.00000000000E+00  0.00000000000E+00 -0.15434645700E+04  0.16224030824E+04  0.49990887444E+03 0.  0.
        1    1    3    3  502    0  0.17888741652E+03 -0.17280148950E+03 -0.85229127223E+03  0.88784090652E+03  0.50400001928E-02 0.  1.
       -1    1    3    3    0  502 -0.17888741652E+03  0.17280148950E+03 -0.69117329780E+03  0.73456217584E+03  0.50400001928E-02 0. -1.
</event>
<event>
 5   0  0.4803890E-02  0.5071276E+03  0.7818609E-02  0.1011935E+00
        1   -1    0    0  501    0  0.00000000000E+00  0.00000000000E+00  0.90918832910E+03  0.90918832911E+03  0.50400001928E-02 0. -1.
       -1   -1    0    0    0  501  0.00000000000E+00  0.00000000000E+00 -0.70716478459E+02  0.70716478639E+02  0.50400001928E-02 0.  1.
    10030    2    1    2    0    0  0.00000000000E+00  0.00000000000E+00  0.83847185064E+03  0.97990480775E+03  0.50712758547E+03 0.  0.
        5    1    3    3  502    0 -0.17939112136E+03 -0.60691689210E+00  0.76538090463E+03  0.78613711396E+03  0.46999998093E+01 0. -1.
       -5    1    3    3    0  502  0.17939112136E+03  0.60691689210E+00  0.73090946009E+02  0.19376769379E+03  0.46999998093E+01 0.  1.
</event>
<event>
 5   0  0.4803890E-02  0.5027880E+03  0.7818609E-02  0.1013054E+00
       -1   -1    0    0    0  501  0.00000000000E+00  0.00000000000E+00  0.18789528914E+03  0.18789528921E+03  0.50400001928E-02 0. -1.
        1   -1    0    0  501    0  0.00000000000E+00  0.00000000000E+00 -0.33635193582E+03  0.33635193586E+03  0.50400001928E-02 0.  1.
    10030    2    1    2    0    0  0.00000000000E+00  0.00000000000E+00 -0.14845664667E+03  0.52424722507E+03  0.50278800408E+03 0.  0.
        5    1    3    3  502    0  0.62032835469E+02 -0.19138097382E+02 -0.32741405784E+03  0.33382090216E+03  0.46999998093E+01 0.  1.
       -5    1    3    3    0  502 -0.62032835469E+02  0.19138097382E+02  0.17895741117E+03  0.19042632291E+03  0.46999998093E+01 0. -1.
</event>
<event>
 5   0  0.7776070E-02  0.4976709E+03  0.7818609E-02  0.1014389E+00
       -2   -1    0    0    0  501  0.00000000000E+00  0.00000000000E+00  0.24003244401E+03  0.24003244403E+03  0.25500000920E-02 0.  1.
        2   -1    0    0  501    0  0.00000000000E+00  0.00000000000E+00 -0.25796133948E+03  0.25796133949E+03  0.25500000920E-02 0. -1.
    10030    2    1    2    0    0  0.00000000000E+00  0.00000000000E+00 -0.17928895463E+02  0.49799378352E+03  0.49767093860E+03 0.  0.
        4    1    3    3  502    0  0.13738538491E+02  0.23411420644E+03 -0.92200551174E+02  0.25199357856E+03  0.12699999809E+01 0. -1.
       -4    1    3    3    0  502 -0.13738538491E+02 -0.23411420644E+03  0.74271655711E+02  0.24600020496E+03  0.12699999809E+01 0.  1.
</event>
<event>
 5   0  0.7698747E-02  0.4981979E+03  0.7818609E-02  0.1014250E+00
        2   -1    0    0  501    0  0.00000000000E+00  0.00000000000E+00  0.16902007115E+03  0.16902007116E+03  0.25500000920E-02 0. -1.
       -2   -1    0    0    0  501  0.00000000000E+00  0.00000000000E+00 -0.36711789759E+03  0.36711789760E+03  0.25500000920E-02 0.  1.
    10030    2    1    2    0    0  0.00000000000E+00  0.00000000000E+00 -0.19809782644E+03  0.53613796876E+03  0.49819792523E+03 0.  0.
        2    1    3    3  502    0 -0.17505006701E+03 -0.13838834450E+03 -0.21818866843E+03  0.31208997883E+03  0.25500000920E-02 0. -1.
       -2    1    3    3    0  502  0.17505006701E+03  0.13838834450E+03  0.20090841981E+02  0.22404798993E+03  0.25500000920E-02 0.  1.
</event>
<event>
 5   0  0.3210875E-02  0.4894555E+03  0.7818609E-02  0.1016568E+00
       -4   -1    0    0    0  501  0.00000000000E+00  0.00000000000E+00  0.56293328219E+03  0.56293471477E+03  0.12699999809E+01 0.  1.
        4   -1    0    0  501    0  0.00000000000E+00  0.00000000000E+00 -0.10638675651E+03  0.10639433660E+03  0.12699999809E+01 0. -1.
    10030    2    1    2    0    0  0.00000000000E+00  0.00000000000E+00  0.45654652568E+03  0.66932905138E+03  0.48945546162E+03 0.  0.
        5    1    3    3  502    0 -0.21497487696E+03 -0.43046407136E+02  0.79710038074E+02  0.23333017606E+03  0.46999998093E+01 0. -1.
       -5    1    3    3    0  502  0.21497487696E+03  0.43046407136E+02  0.37683648760E+03  0.43599887532E+03  0.46999998093E+01 0.  1.
</event>
<event>
 5   0  0.3210875E-02  0.5027197E+03  0.7818609E-02  0.1013071E+00
       -3   -1    0    0    0  501  0.00000000000E+00  0.00000000000E+00  0.25549692282E+03  0.25549694278E+03  0.10100000352E+00 0.  1.
        3   -1    0    0  501    0  0.00000000000E+00  0.00000000000E+00 -0.24728971288E+03  0.24728973350E+03  0.10100000352E+00 0. -1.
    10030    2    1    2    0    0  0.00000000000E+00  0.00000000000E+00  0.82072099433E+01  0.50278667629E+03  0.50271968686E+03 0.  0.
        5    1    3    3  502    0 -0.22405596443E+03  0.42168394196E+02  0.10985525792E+03  0.25311956928E+03  0.46999998093E+01 0.  1.
       -5    1    3    3    0  502  0.22405596443E+03 -0.42168394196E+02 -0.10164804798E+03  0.24966710700E+03  0.46999998093E+01 0. -1.
</event>
<event>
 5   0  0.3210875E-02  0.5009826E+03  0.7818609E-02  0.1013523E+00
       -4   -1    0    0    0  501  0.00000000000E+00  0.00000000000E+00  0.63615131060E+02  0.63627806812E+02  0.12699999809E+01 0. -1.
        4   -1    0    0  501    0  0.00000000000E+00  0.00000000000E+00 -0.98622473096E+03  0.98622554867E+03  0.12699999809E+01 0.  1.
    10030    2    1    2    0    0  0.00000000000E+00  0.00000000000E+00 -0.92260959990E+03  0.10498533555E+04  0.50098262864E+03 0.  0.
        4    1    3    3  502    0 -0.40297911020E+02  0.19414369696E+02 -0.97778739098E+03  0.97881082659E+03  0.12699999809E+01 0.  1.
       -4    1    3    3    0  502  0.40297911020E+02 -0.19414369696E+02  0.55177791083E+02  0.71042528897E+02  0.12699999809E+01 0. -1.
</event>
<event>
 5   0  0.7881060E-02  0.5269172E+03  0.7818609E-02  0.1006983E+00
       -2   -1    0    0    0  501  0.00000000000E+00  0.00000000000E+00  0.39021548244E+02  0.39021548327E+02  0.25500000920E-02 0. -1.
        2   -1    0    0  501    0  0.00000000000E+00  0.00000000000E+00 -0.17787719842E+04  0.17787719842E+04  0.25500000920E-02 0.  1.
    10030    2    1    2    0    0  0.00000000000E+00  0.00000000000E+00 -0.17397504360E+04  0.18177935325E+04  0.52691721123E+03 0.  0.
        1    1    3    3  502    0  0.24832152655E+03 -0.26807403812E+02 -0.11590928889E+04  0.11856974921E+04  0.50400001928E-02 0.  1.
       -1    1    3    3    0  502 -0.24832152655E+03  0.26807403812E+02 -0.58065754701E+03  0.63209604047E+03  0.50400001928E-02 0. -1.
</event>
<event>
 5   0  0.5191358E-02  0.4982839E+03  0.7818609E-02  0.1014228E+00
        1   -1    0    0  501    0  0.00000000000E+00  0.00000000000E+00  0.61287682829E+02  0.61287683036E+02  0.50400001928E-02 0. -1.
       -1   -1    0    0    0  501  0.00000000000E+00  0.00000000000E+00 -0.10127927702E+04  0.10127927702E+04  0.50400001928E-02 0.  1.
    10030    2    1    2    0    0  0.00000000000E+00  0.00000000000E+00 -0.95150508738E+03  0.10740804533E+04  0.49828394391E+03 0.  0.
        4    1    3    3  502    0  0.10936220195E+03  0.18296418012E+03 -0.75376222804E+03  0.78332310814E+03  0.12699999809E+01 0.  1.
       -4    1    3    3    0  502 -0.10936220195E+03 -0.18296418012E+03 -0.19774285934E+03  0.29075734512E+03  0.12699999809E+01 0. -1.
</event>
<event>
 5   0  0.4803890E-02  0.4995401E+03  0.7818609E-02  0.1013899E+00
       -1   -1    0    0    0  501  0.00000000000E+00  0.00000000000E+00  0.50294458711E+03  0.50294458714E+03  0.50400001928E-02 0.  1.
        1   -1    0    0  501    0  0.00000000000E+00  0.00000000000E+00 -0.12403968327E+03  0.12403968338E+03  0.50400001928E-02 0. -1.
    10030    2    1    2    0    0  0.00000000000E+00  0.00000000000E+00  0.37890490384E+03  0.62698427051E+03  0.49954013785E+03 0.  0.
        5    1    3    3  502    0  0.62626972695E+01  0.22500694313E+02 -0.12261031611E+03  0.12490349169E+03  0.46999998093E+01 0. -1.
       -5    1    3    3    0  502 -0.62626972695E+01 -0.22500694313E+02  0.50151521995E+03  0.50208077882E+03  0.46999998093E+01 0.  1.
</event>
<event>
 5   0  0.5038436E-02  0.4860925E+03  0.7818609E-02  0.1017474E+00
       -1   -1    0    0    0  501  0.00000000000E+00  0.00000000000E+00  0.51421520623E+03  0.51421520626E+03  0.50400001928E-02 0. -1.
        1   -1    0    0  501    0  0.00000000000E+00  0.00000000000E+00 -0.11487694557E+03  0.11487694568E+03  0.50400001928E-02 0.  1.
    10030    2    1    2    0    0  0.00000000000E+00  0.00000000000E+00  0.39933826066E+03  0.62909215194E+03  0.48609246981E+03 0.  0.
        1    1    3    3  502    0 -0.95918618569E+02  0.12002263838E+03 -0.44055477204E+02  0.15983335137E+03  0.50400001928E-02 0.  1.
       -1    1    3    3    0  502  0.95918618569E+02 -0.12002263838E+03  0.44339373786E+03  0.46925880057E+03  0.50400001928E-02 0. -1.
</event>
<event>
 5   0  0.4884478E-02  0.5025568E+03  0.7818609E-02  0.1013114E+00
        1   -1    0    0  501    0  0.00000000000E+00  0.00000000000E+00  0.38435610456E+03  0.38435610459E+03  0.50400001928E-02 0.  1.
       -1   -1    0    0    0  501  0.00000000000E+00  0.00000000000E+00 -0.16427693688E+03  0.16427693695E+03  0.50400001928E-02 0. -1.
    10030    2    1    2    0    0  0.00000000000E+00  0.00000000000E+00  0.22007916768E+03  0.54863304154E+03  0.50255683681E+03 0.  0.
        3    1    3    3  502    0 -0.89075863027E+02  0.19291804717E+03 -0.36380177323E+02  0.21558156183E+03  0.10100000352E+00 0. -1.
       -3    1    3    3    0  502  0.89075863027E+02 -0.19291804717E+03  0.25645934501E+03  0.33305147971E+03  0.10100000352E+00 0.  1.
</event>
<event>
 5   0  0.7881060E-02  0.4977623E+03  0.7818609E-02  0.1014365E+00
       -2   -1    0    0    0  501  0.00000000000E+00  0.00000000000E+00  0.79637615586E+02  0.79637615627E+02  0.25500000920E-02 0.  1.
        2   -1    0    0  501    0  0.00000000000E+00  0.00000000000E+00 -0.77779601269E+03  0.77779601270E+03  0.25500000920E-02 0. -1.
    10030    2    1    2    0    0  0.00000000000E+00  0.00000000000E+00 -0.69815839711E+03  0.85743362832E+03  0.49776227210E+03 0.  0.
        1    1    3    3  502    0  0.20519827279E+03 -0.11251647801E+03 -0.49499608529E+03  0.54752845904E+03  0.50400001928E-02 0. -1.
       -1    1    3    3    0  502 -0.20519827279E+03  0.11251647801E+03 -0.20316231182E+03  0.30990516929E+03  0.50400001928E-02 0.  1.
</event>
<event>
 5   0  0.7881060E-02  0.4944973E+03  0.7818609E-02  0.1015225E+00
        2   -1    0    0  501    0  0.00000000000E+00  0.00000000000E+00  0.95676941975E+03  0.95676941975E+03  0.25500000920E-02 0. -1.
       -2   -1    0    0    0  501  0.00000000000E+00  0.00000000000E+00 -0.63894062910E+02  0.63894062961E+02  0.25500000920E-02 0.  1.
    10030    2    1    2    0    0  0.00000000000E+00  0.00000000000E+00  0.89287535684E+03  0.10206634827E+04  0.49449726197E+03 0.  0.
        1    1    3    3  502    0 -0.58413995584E+02  0.23051801614E+03  0.30673484205E+03  0.38811984489E+03  0.50400001928E-02 0.  1.
       -1    1    3    3    0  502  0.58413995584E+02 -0.23051801614E+03  0.58614051479E+03  0.63254363782E+03  0.50400001928E-02 0. -1.
</event>
<event>
 5   0  0.4803890E-02  0.5009251E+03  0.7818609E-02  0.1013538E+00
        1   -1    0    0  501    0  0.00000000000E+00  0.00000000000E+00  0.90315104506E+03  0.90315104508E+03  0.50400001928E-02 0. -1.
       -1   -1    0    0    0  501  0.00000000000E+00  0.00000000000E+00 -0.69458462957E+02  0.69458463139E+02  0.50400001928E-02 0.  1.
    10030    2    1    2    0    0  0.00000000000E+00  0.00000000000E+00  0.83369258211E+03  0.97260950822E+03  0.50092507824E+03 0.  0.
        5    1    3    3  502    0 -0.21069119047E+03  0.68552202051E+02  0.19025578146E+03  0.29207795967E+03  0.46999998093E+01 0.  1.
       -5    1    3    3    0  502  0.21069119047E+03 -0.68552202051E+02  0.64343680064E+03  0.68053154855E+03  0.46999998093E+01 0. -1.
</event>
<event>
 5   0  0.7776070E-02  0.4801219E+03  0.7818609E-02  0.1019102E+00
       -2   -1    0    0    0  501  0.00000000000E+00  0.00000000000E+00  0.27021603438E+03  0.27021603439E+03  0.25500000920E-02 0.  1.
        2   -1    0    0  501    0  0.00000000000E+00  0.00000000000E+00 -0.21327107915E+03  0.21327107917E+03  0.25500000920E-02 0. -1.
    10030    2    1    2    0    0  0.00000000000E+00  0.00000000000E+00  0.56944955223E+02  0.48348711356E+03  0.48012192311E+03 0.  0.
        4    1    3    3  502    0 -0.15043425463E+02  0.22013774955E+03  0.12369059434E+03  0.25295831564E+03  0.12699999809E+01 0.  1.
       -4    1    3    3    0  502  0.15043425463E+02 -0.22013774955E+03 -0.66745639113E+02  0.23052879791E+03  0.12699999809E+01 0. -1.
</event>
<event>
 5   0  0.4865501E-02  0.4997576E+03  0.7818609E-02  0.1013842E+00
        1   -1    0    0  501    0  0.00000000000E+00  0.00000000000E+00  0.31881855618E+03  0.31881855622E+03  0.50400001928E-02 0.  1.
       -1   -1    0    0    0  501  0.00000000000E+00  0.00000000000E+00 -0.19584621999E+03  0.19584622005E+03  0.50400001928E-02 0. -1.
    10030    2    1    2    0    0  0.00000000000E+00  0.00000000000E+00  0.12297233619E+03  0.51466477627E+03  0.49975757770E+03 0.  0.
        2    1    3    3  502    0  0.68437338394E+02  0.17034078840E+03 -0.11309869782E+03  0.21561764523E+03  0.25500000920E-02 0. -1.
       -2    1    3    3    0  502 -0.68437338394E+02 -0.17034078840E+03  0.23607103401E+03  0.29904713104E+03  0.25500000920E-02 0.  1.
</event>
<event>
 5   0  0.7933103E-02  0.4972923E+03  0.7818609E-02  0.1014488E+00
       -2   -1    0    0    0  501  0.00000000000E+00  0.00000000000E+00  0.98810458279E+02  0.98810458312E+02  0.25500000920E-02 0.  1.
        2   -1    0    0  501    0  0.00000000000E+00  0.00000000000E+00 -0.62569194464E+03  0.62569194464E+03  0.25500000920E-02 0. -1.
    10030    2    1    2    0    0  0.00000000000E+00  0.00000000000E+00 -0.52688148636E+03  0.72450240295E+03  0.49729229958E+03 0.  0.
        5    1    3    3  502    0  0.59854597449E+02  0.20719809850E+03 -0.83296504752E+02  0.23124450817E+03  0.46999998093E+01 0.  1.
       -5    1    3    3    0  502 -0.59854597449E+02 -0.20719809850E+03 -0.44358498160E+03  0.49325789478E+03  0.46999998093E+01 0. -1.
</event>
<event>
 5   0  0.7933103E-02  0.5002303E+03  0.7818609E-02  0.1013719E+00
        2   -1    0    0  501    0  0.00000000000E+00  0.00000000000E+00  0.52080802286E+03  0.52080802287E+03  0.25500000920E-02 0.  1.
       -2   -1    0    0    0  501  0.00000000000E+00  0.00000000000E+00 -0.12011638961E+03  0.12011638964E+03  0.25500000920E-02 0. -1.
    10030    2    1    2    0    0  0.00000000000E+00  0.00000000000E+00  0.40069163325E+03  0.64092441250E+03  0.50023026457E+03 0.  0.
        5    1    3    3  502    0  0.22207663887E+03  0.53018057653E+02  0.33105017189E+03  0.40217565103E+03  0.46999998093E+01 0.  1.
       -5    1    3    3    0  502 -0.22207663887E+03 -0.53018057653E+02  0.69641461353E+02  0.23874876148E+03  0.46999998093E+01 0. -1.
</event>
<event>
 5   0  0.8208720E-02  0.5023682E+03  0.7818609E-02  0.1013163E+00
        2   -1    0    0  501    0  0.00000000000E+00  0.00000000000E+00  0.25730574716E+04  0.25730574716E+04  0.25500000920E-02 0.  1.
       -2   -1    0    0    0  501  0.00000000000E+00  0.00000000000E+00 -0.24520813115E+02  0.24520813247E+02  0.25500000920E-02 0. -1.
    10030    2    1    2    0    0  0.00000000000E+00  0.00000000000E+00  0.25485366584E+04  0.25975782848E+04  0.50236823772E+03 0.  0.
        3    1    3    3  502    0 -0.76178276101E+02  0.16716271129E+03  0.21600525807E+04  0.21678500094E+04  0.10100000352E+00 0.  1.
       -3    1    3    3    0  502  0.76178276101E+02 -0.16716271129E+03  0.38848407774E+03  0.42972827538E+03  0.10100000352E+00 0. -1.
</event>
<event>
 5   0  0.7933103E-02  0.5005495E+03  0.7818609E-02  0.1013636E+00
       -2   -1    0    0    0  501  0.00000000000E+00  0.00000000000E+00  0.39239754610E+02  0.39239754693E+02  0.25500000920E-02 0.  1.
        2   -1    0    0  501    0  0.00000000000E+00  0.00000000000E+00 -0.15962751997E+04  0.15962751997E+04  0.25500000920E-02 0. -1.
    10030    2    1    2    0    0  0.00000000000E+00  0.00000000000E+00 -0.15570354451E+04  0.16355149544E+04  0.50054948684E+03 0.  0.
        5    1    3    3  502    0  0.20849538397E+03  0.13314250493E+03 -0.90156209643E+03  0.93489761764E+03  0.46999998093E+01 0.  1.
       -5    1    3    3    0  502 -0.20849538397E+03 -0.13314250493E+03 -0.65547334863E+03  0.70061733672E+03  0.46999998093E+01 0. -1.
</event>
<event>
 5   0  0.7698747E-02  0.5054322E+03  0.7818609E-02  0.1012371E+00
       -2   -1    0    0    0  501  0.00000000000E+00  0.00000000000E+00  0.93455944618E+02  0.93455944653E+02  0.25500000920E-02 0.  1.
        2   -1    0    0  501    0  0.00000000000E+00  0.00000000000E+00 -0.68337462151E+03  0.68337462151E+03  0.25500000920E-02 0. -1.
    10030    2    1    2    0    0  0.00000000000E+00  0.00000000000E+00 -0.58991867689E+03  0.77683056617E+03  0.50543217466E+03 0.  0.
        2    1    3    3  502    0  0.43592839562E+02 -0.83334210971E+02 -0.65547626930E+03  0.66218884467E+03  0.25500000920E-02 0. -1.
       -2    1    3    3    0  502 -0.43592839562E+02  0.83334210971E+02  0.65557592410E+02  0.11464172150E+03  0.25500000920E-02 0.  1.
</event>
<event>
 5   0  0.7933103E-02  0.5076148E+03  0.7818609E-02  0.1011810E+00
        2   -1    0    0  501    0  0.00000000000E+00  0.00000000000E+00  0.62056361283E+03  0.62056361284E+03  0.25500000920E-02 0.  1.
       -2   -1    0    0    0  501  0.00000000000E+00  0.00000000000E+00 -0.10380596566E+03  0.10380596569E+03  0.25500000920E-02 0. -1.
    10030    2    1    2    0    0  0.00000000000E+00  0.00000000000E+00  0.51675764718E+03  0.72436957853E+03  0.50761483468E+03 0.  0.
        5    1    3    3  502    0 -0.22175234735E+02 -0.20662252644E+03  0.46621045449E+03  0.51044969129E+03  0.46999998093E+01 0.  1.
       -5    1    3    3    0  502  0.22175234735E+02  0.20662252644E+03  0.50547192684E+02  0.21391988723E+03  0.46999998093E+01 0. -1.
</event>
<event>
 5   0  0.7698747E-02  0.5004857E+03  0.7818609E-02  0.1013652E+00
        2   -1    0    0  501    0  0.00000000000E+00  0.00000000000E+00  0.13627393638E+04  0.13627393638E+04  0.25500000920E-02 0. -1.
       -2   -1    0    0    0  501  0.00000000000E+00  0.00000000000E+00 -0.45952655739E+02  0.45952655809E+02  0.25500000920E-02 0.  1.
    10030    2    1    2    0    0  0.00000000000E+00  0.00000000000E+00  0.13167867080E+04  0.14086920196E+04  0.50048573564E+03 0.  0.
        2    1    3    3  502    0 -0.10407178830E+03 -0.21823306206E+03  0.84003939214E+03  0.87414117101E+03  0.25500000920E-02 0. -1.
       -2    1    3    3    0  502  0.10407178830E+03  0.21823306206E+03  0.47674731587E+03  0.53455084856E+03  0.25500000920E-02 0.  1.
</event>
<event>
 5   0  0.7776070E-02  0.5025902E+03  0.7818609E-02  0.1013105E+00
       -2   -1    0    0    0  501  0.00000000000E+00  0.00000000000E+00  0.17759144131E+03  0.17759144133E+03  0.25500000920E-02 0.  1.
        2   -1    0    0  501    0  0.00000000000E+00  0.00000000000E+00 -0.35558717984E+03  0.35558717985E+03  0.25500000920E-02 0. -1.
    10030    2    1    2    0    0  0.00000000000E+00  0.00000000000E+00 -0.17799573853E+03  0.53317862117E+03  0.50259024975E+03 0.  0.
        4    1    3    3  502    0 -0.74203418022E+02  0.23860635992E+03 -0.11723521617E+03  0.27601603405E+03  0.12699999809E+01 0.  1.
       -4    1    3    3    0  502  0.74203418022E+02 -0.23860635992E+03 -0.60760522359E+02  0.25716258713E+03  0.12699999809E+01 0. -1.
</event>
<event>
 5   0  0.7881060E-02  0.4973318E+03  0.7818609E-02  0.1014478E+00
       -2   -1    0    0    0  501  0.00000000000E+00  0.00000000000E+00  0.10266077832E+03  0.10266077835E+03  0.25500000920E-02 0.  1.
        2   -1    0    0  501    0  0.00000000000E+00  0.00000000000E+00 -0.60232094786E+03  0.60232094786E+03  0.25500000920E-02 0. -1.
    10030    2    1    2    0    0  0.00000000000E+00  0.00000000000E+00 -0.49966016954E+03  0.70498172622E+03  0.49733183015E+03 0.  0.
        1    1    3    3  502    0  0.19567928749E+03 -0.13259678195E+03 -0.14037300036E+03  0.27491247587E+03  0.50400001928E-02 0. -1.
       -1    1    3    3    0  502 -0.19567928749E+03  0.13259678195E+03 -0.35928716918E+03  0.43006925035E+03  0.50400001928E-02 0.  1.
</event>
<event>
 5   0  0.5038436E-02  0.5021184E+03  0.7818609E-02  0.1013227E+00
        1   -1    0    0  501    0  0.00000000000E+00  0.00000000000E+00  0.43319095336E+03  0.43319095339E+03  0.50400001928E-02 0.  1.
       -1   -1    0    0    0  501  0.00000000000E+00  0.00000000000E+00 -0.14550329190E+03  0.14550329198E+03  0.50400001928E-02 0. -1.
    10030    2    1    2    0    0  0.00000000000E+00  0.00000000000E+00  0.28768766147E+03  0.57869424538E+03  0.50211835166E+03 0.  0.
        1    1    3    3  502    0  0.66590441217E+02 -0.11314338703E+03  0.39047734203E+03  0.41195663310E+03  0.50400001928E-02 0.  1.
       -1    1    3    3    0  502 -0.66590441217E+02  0.11314338703E+03 -0.10278968057E+03  0.16673761227E+03  0.50400001928E-02 0. -1.
</event>
<event>
 5   0  0.4803890E-02  0.5158045E+03  0.7818609E-02  0.1009734E+00
        1   -1    0    0  501    0  0.00000000000E+00  0.00000000000E+00  0.96219260638E+02  0.96219260770E+02  0.50400001928E-02 0. -1.
       -1   -1    0    0    0  501  0.00000000000E+00  0.00000000000E+00 -0.69127080814E+03  0.69127080816E+03  0.50400001928E-02 0.  1.
    10030    2    1    2    0    0  0.00000000000E+00  0.00000000000E+00 -0.59505154750E+03  0.78749006893E+03  0.51580448280E+03 0.  0.
        5    1    3    3  502    0  0.18768567587E+03  0.59450899768E+02 -0.43285737128E+02  0.20163349783E+03  0.46999998093E+01 0. -1.
       -5    1    3    3    0  502 -0.18768567587E+03 -0.59450899768E+02 -0.55176581037E+03  0.58585657110E+03  0.46999998093E+01 0.  1.
</event>
<event>
 5   0  0.4865501E-02  0.5052001E+03  0.7818609E-02  0.1012430E+00
        1   -1    0    0  501    0  0.00000000000E+00  0.00000000000E+00  0.24594911936E+03  0.24594911941E+03  0.50400001928E-02 0. -1.
       -1   -1    0    0    0  501  0.00000000000E+00  0.00000000000E+00 -0.25943078538E+03  0.25943078543E+03  0.50400001928E-02 0.  1.
    10030    2    1    2    0    0  0.00000000000E+00  0.00000000000E+00 -0.13481666018E+02  0.50537990484E+03  0.50520005235E+03 0.  0.
        2    1    3    3  502    0 -0.20165355255E+03  0.11615383184E+03 -0.10501482767E+03  0.25531153899E+03  0.25500000920E-02 0.  1.
       -2    1    3    3    0  502  0.20165355255E+03 -0.11615383184E+03  0.91533161653E+02  0.25006836584E+03  0.25500000920E-02 0. -1.
</event>
<event>
 5   0  0.4803890E-02  0.4997915E+03  0.7818609E-02  0.1013833E+00
       -1   -1    0    0    0  501  0.00000000000E+00  0.00000000000E+00  0.77686779124E+02  0.77686779287E+02  0.50400001928E-02 0. -1.
        1   -1    0    0  501    0  0.00000000000E+00  0.00000000000E+00 -0.80384193930E+03  0.80384193932E+03  0.50400001928E-02 0.  1.
    10030    2    1    2    0    0  0.00000000000E+00  0.00000000000E+00 -0.72615516018E+03  0.88152871860E+03  0.49979152161E+03 0.  0.
        5    1    3    3  502    0  0.49845003538E+02 -0.12370743673E+03 -0.73572551081E+03  0.74773134984E+03  0.46999998093E+01 0.  1.
       -5    1    3    3    0  502 -0.49845003538E+02  0.12370743673E+03  0.95703506290E+01  0.13379736877E+03  0.46999998093E+01 0. -1.
</event>
<event>
 5   0  0.7881060E-02  0.5015074E+03  0.7818609E-02  0.1013386E+00
        2   -1    0    0  501    0  0.00000000000E+00  0.00000000000E+00  0.13540489458E+03  0.13540489460E+03  0.25500000920E-02 0. -1.
       -2   -1    0    0    0  501  0.00000000000E+00  0.00000000000E+00 -0.46436595393E+03  0.46436595394E+03  0.25500000920E-02 0.  1.
    10030    2    1    2    0    0  0.00000000000E+00  0.00000000000E+00 -0.32896105935E+03  0.59977084854E+03  0.50150741988E+03 0.  0.
        1    1    3    3  502    0  0.12513095662E+03  0.21373793639E+03 -0.21134782004E+03  0.32559109757E+03  0.50400001928E-02 0. -1.
       -1    1    3    3    0  502 -0.12513095662E+03 -0.21373793639E+03 -0.11761323932E+03  0.27417975098E+03  0.50400001928E-02 0.  1.
</event>
<event>
 5   0  0.7776070E-02  0.5037482E+03  0.7818609E-02  0.1012805E+00
       -2   -1    0    0    0  501  0.00000000000E+00  0.00000000000E+00  0.20243589025E+03  0.20243589027E+03  0.25500000920E-02 0.  1.
        2   -1    0    0  501    0  0.00000000000E+00  0.00000000000E+00 -0.31338595787E+03  0.31338595788E+03  0.25500000920E-02 0. -1.
    10030    2    1    2    0    0  0.00000000000E+00  0.00000000000E+00 -0.11095006762E+03  0.51582184815E+03  0.50374821243E+03 0.  0.
        4    1    3    3  502    0  0.68557591509E+02 -0.10562410178E+03 -0.27883698584E+03  0.30595468913E+03  0.12699999809E+01 0. -1.
       -4    1    3    3    0  502 -0.68557591509E+02  0.10562410178E+03  0.16788691821E+03  0.20986715902E+03  0.12699999809E+01 0.  1.
</event>
<event>
 5   0  0.5191358E-02  0.5039709E+03  0.7818609E-02  0.1012748E+00
        1   -1    0    0  501    0  0.00000000000E+00  0.00000000000E+00  0.67592092907E+03  0.67592092908E+03  0.50400001928E-02 0. -1.
       -1   -1    0    0    0  501  0.00000000000E+00  0.00000000000E+00 -0.93940957732E+02  0.93940957868E+02  0.50400001928E-02 0.  1.
    10030    2    1    2    0    0  0.00000000000E+00  0.00000000000E+00  0.58197997133E+03  0.76986188695E+03  0.50397087014E+03 0.  0.
        4    1    3    3  502    0  0.21134348097E+03 -0.44256537003E+02  0.48940260225E+03  0.53492170269E+03  0.12699999809E+01 0. -1.
       -4    1    3    3    0  502 -0.21134348097E+03  0.44256537003E+02  0.92577369081E+02  0.23494018426E+03  0.12699999809E+01 0.  1.
</event>
<event>
 5   0  0.4865501E-02  0.5026384E+03  0.7818609E-02  0.1013093E+00
        1   -1    0    0  501    0  0.00000000000E+00  0.00000000000E+00  0.95529546143E+03  0.95529546145E+03  0.50400001928E-02 0. -1.
       -1   -1    0    0    0  501  0.00000000000E+00  0.00000000000E+00 -0.66117065304E+02  0.66117065496E+02  0.50400001928E-02 0.  1.
    10030    2    1    2    0    0  0.00000000000E+00  0.00000000000E+00  0.88917839613E+03  0.10214125269E+04  0.50263836906E+03 0.  0.
        2    1    3    3  502    0  0.13678907652E+03  0.31144542854E+02  0.86832074836E+03  0.87958067057E+03  0.25500000920E-02 0. -1.
       -2    1    3    3    0  502 -0.13678907652E+03 -0.31144542854E+02  0.20857647772E+02  0.14183185637E+03  0.25500000920E-02 0.  1.
</event>
<event>
 5   0  0.4865501E-02  0.5193819E+03  0.7818609E-02  0.1008840E+00
       -1   -1    0    0    0  501  0.00000000000E+00  0.00000000000E+00  0.24517949296E+03  0.24517949301E+03  0.50400001928E-02 0.  1.
        1   -1    0    0  501    0  0.00000000000E+00  0.00000000000E+00 -0.27506132602E+03  0.27506132607E+03  0.50400001928E-02 0. -1.
    10030    2    1    2    0    0  0.00000000000E+00  0.00000000000E+00 -0.29881833056E+02  0.52024081908E+03  0.51938192680E+03 0.  0.
        2    1    3    3  502    0  0.19552130632E+03  0.11932146996E+01 -0.18613109561E+03  0.26995331031E+03  0.25500000920E-02 0. -1.
       -2    1    3    3    0  502 -0.19552130632E+03 -0.11932146996E+01  0.15624926256E+03  0.25028750877E+03  0.25500000920E-02 0.  1.
</event>
<event>
 5   0  0.7698747E-02  0.5023539E+03  0.7818609E-02  0.1013166E+00
       -2   -1    0    0    0  501  0.00000000000E+00  0.00000000000E+00  0.29608261415E+03  0.29608261416E+03  0.25500000920E-02 0. -1.
        2   -1    0    0  501    0  0.00000000000E+00  0.00000000000E+00 -0.21308195442E+03  0.21308195443E+03  0.25500000920E-02 0.  1.
    10030    2    1    2    0    0  0.00000000000E+00  0.00000000000E+00  0.83000659735E+02  0.50916456859E+03  0.50235390751E+03 0.  0.
        2    1    3    3  502    0  0.12114170646E+03  0.13345148962E+03  0.21881568584E+03  0.28348706761E+03  0.25500000920E-02 0. -1.
       -2    1    3    3    0  502 -0.12114170646E+03 -0.13345148962E+03 -0.13581502611E+03  0.22567750098E+03  0.25500000920E-02 0.  1.
</event>
<event>
 5   0  0.5191358E-02  0.4997619E+03  0.7818609E-02  0.1013841E+00
        1   -1    0    0  501    0  0.00000000000E+00  0.00000000000E+00  0.59497009057E+03  0.59497009059E+03  0.50400001928E-02 0.  1.
       -1   -1    0    0    0  501  0.00000000000E+00  0.00000000000E+00 -0.10494729037E+03  0.10494729049E+03  0.50400001928E-02 0. -1.
    10030    2    1    2    0    0  0.00000000000E+00  0.00000000000E+00  0.49002280020E+03  0.69991738109E+03  0.49976193896E+03 0.  0.
        4    1    3    3  502    0 -0.23106976518E+03 -0.59325069414E+02  0.14090046658E+03  0.27706904306E+03  0.12699999809E+01 0. -1.
       -4    1    3    3    0  502  0.23106976518E+03  0.59325069414E+02  0.34912233362E+03  0.42284833802E+03  0.12699999809E+01 0.  1.
</event>
<event>
 5   0  0.4865501E-02  0.5047401E+03  0.7818609E-02  0.1012549E+00
        1   -1    0    0  501    0  0.00000000000E+00  0.00000000000E+00  0.10506183784E+03  0.10506183796E+03  0.50400001928E-02 0.  1.
       -1   -1    0    0    0  501  0.00000000000E+00  0.00000000000E+00 -0.60622049659E+03  0.60622049661E+03  0.50400001928E-02 0. -1.
    10030    2    1    2    0    0  0.00000000000E+00  0.00000000000E+00 -0.50115865875E+03  0.71128233457E+03  0.50474008978E+03 0.  0.
        2    1    3    3  502    0 -0.18566306262E+03 -0.14280680008E+03 -0.38297026901E+03  0.44892179934E+03  0.25500000920E-02 0. -1.
       -2    1    3    3    0  502  0.18566306262E+03  0.14280680008E+03 -0.11818838974E+03  0.26236053523E+03  0.25500000920E-02 0.  1.
</event>
<event>
 5   0  0.4884478E-02  0.4981552E+03  0.7818609E-02  0.1014262E+00
       -1   -1    0    0    0  501  0.00000000000E+00  0.00000000000E+00  0.82544568801E+02  0.82544568954E+02  0.50400001928E-02 0.  1.
        1   -1    0    0  501    0  0.00000000000E+00  0.00000000000E+00 -0.75158975008E+03  0.75158975010E+03  0.50400001928E-02 0. -1.
    10030    2    1    2    0    0  0.00000000000E+00  0.00000000000E+00 -0.66904518128E+03  0.83413431905E+03  0.49815520435E+03 0.  0.
        3    1    3    3  502    0 -0.71664461061E+02  0.23804516371E+03 -0.36037350723E+03  0.43780174720E+03  0.10100000352E+00 0. -1.
       -3    1    3    3    0  502  0.71664461061E+02 -0.23804516371E+03 -0.30867167405E+03  0.39633257185E+03  0.10100000352E+00 0.  1.
</event>
<event>
 5   0  0.5191358E-02  0.4954326E+03  0.7818609E-02  0.1014978E+00
       -1   -1    0    0    0  501  0.00000000000E+00  0.00000000000E+00  0.52908712675E+02  0.52908712915E+02  0.50400001928E-02 0. -1.
        1   -1    0    0  501    0  0.00000000000E+00  0.00000000000E+00 -0.11597968505E+04  0.11597968505E+04  0.50400001928E-02 0.  1.
    10030    2    1    2    0    0  0.00000000000E+00  0.00000000000E+00 -0.11068881378E+04  0.12127055634E+04  0.49543257251E+03 0.  0.
        4    1    3    3  502    0  0.31971591958E+02  0.10332391533E+03 -0.79494296008E+01  0.10845653739E+03  0.12699999809E+01 0. -1.
       -4    1    3    3    0  502 -0.31971591958E+02 -0.10332391533E+03 -0.10989387082E+04  0.11042490260E+04  0.12699999809E+01 0.  1.
</event>
<event>
 5   0  0.7776070E-02  0.5016576E+03  0.7818609E-02  0.1013347E+00
       -2   -1    0    0    0  501  0.00000000000E+00  0.00000000000E+00  0.37676082360E+02  0.37676082446E+02  0.25500000920E-02 0. -1.
        2   -1    0    0  501    0  0.00000000000E+00  0.00000000000E+00 -0.16698943996E+04  0.16698943996E+04  0.25500000920E-02 0.  1.
    10030    2    1    2    0    0  0.00000000000E+00  0.00000000000E+00 -0.16322183172E+04  0.17075704820E+04  0.50165756849E+03 0.  0.
        4    1    3    3  502    0 -0.17628960568E+03  0.10569199193E+03 -0.32679787296E+03  0.38606642550E+03  0.12699999809E+01 0. -1.
       -4    1    3    3    0  502  0.17628960568E+03 -0.10569199193E+03 -0.13054204442E+04  0.13215040565E+04  0.12699999809E+01 0.  1.
</event>
<event>
 5   0  0.7698747E-02  0.4961722E+03  0.7818609E-02  0.1014783E+00
       -2   -1    0    0    0  501  0.00000000000E+00  0.00000000000E+00  0.57463765566E+02  0.57463765622E+02  0.25500000920E-02 0.  1.
        2   -1    0    0  501    0  0.00000000000E+00  0.00000000000E+00 -0.10710526881E+04  0.10710526881E+04  0.25500000920E-02 0. -1.
    10030    2    1    2    0    0  0.00000000000E+00  0.00000000000E+00 -0.10135889225E+04  0.11285164537E+04  0.49617223062E+03 0.  0.
        2    1    3    3  502    0 -0.57761420588E+02  0.16671491350E+03 -0.11012397119E+03  0.20798445406E+03  0.25500000920E-02 0.  1.
       -2    1    3    3    0  502  0.57761420588E+02 -0.16671491350E+03 -0.90346495134E+03  0.92053199966E+03  0.25500000920E-02 0. -1.
</event>
<event>
 5   0  0.7933103E-02  0.5005037E+03  0.7818609E-02  0.1013648E+00
       -2   -1    0    0    0  501  0.00000000000E+00  0.00000000000E+00  0.10878152031E+03  0.10878152034E+03  0.25500000920E-02 0.  1.
        2   -1    0    0  501    0  0.00000000000E+00  0.00000000000E+00 -0.57570437258E+03  0.57570437258E+03  0.25500000920E-02 0. -1.
    10030    2    1    2    0    0  0.00000000000E+00  0.00000000000E+00 -0.46692285227E+03  0.68448589292E+03  0.50050373389E+03 0.  0.
        5    1    3    3  502    0  0.14142835028E+00 -0.18243236053E+03  0.72210491062E+00  0.18249437691E+03  0.46999998093E+01 0.  1.
       -5    1    3    3    0  502 -0.14142835028E+00  0.18243236053E+03 -0.46764495718E+03  0.50199151601E+03  0.46999998093E+01 0. -1.
</event>
<event>
 5   0  0.8208720E-02  0.5020384E+03  0.7818609E-02  0.1013248E+00
       -2   -1    0    0    0  501  0.00000000000E+00  0.00000000000E+00  0.30199623635E+03  0.30199623636E+03  0.25500000920E-02 0.  1.
        2   -1    0    0  501    0  0.00000000000E+00  0.00000000000E+00 -0.20864710808E+03  0.20864710810E+03  0.25500000920E-02 0. -1.
    10030    2    1    2    0    0  0.00000000000E+00  0.00000000000E+00  0.93349128267E+02  0.51064334446E+03  0.50203841037E+03 0.  0.
        3    1    3    3  502    0 -0.83873433718E+02 -0.20884588208E+03 -0.66403207728E+02  0.23465027497E+03  0.10100000352E+00 0. -1.
       -3    1    3    3    0  502  0.83873433718E+02  0.20884588208E+03  0.15975233600E+03  0.27599306949E+03  0.10100000352E+00 0.  1.
</event>
<event>
 5   0  0.7881060E-02  0.4987468E+03  0.7818609E-02  0.1014107E+00
       -2   -1    0    0    0  501  0.00000000000E+00  0.00000000000E+00  0.25453641042E+03  0.25453641043E+03  0.25500000920E-02 0.  1.
        2   -1    0    0  501    0  0.00000000000E+00  0.00000000000E+00 -0.24431509874E+03  0.24431509875E+03  0.25500000920E-02 0. -1.
    10030    2    1    2    0    0  0.00000000000E+00  0.00000000000E+00  0.10221311679E+02  0.49885150919E+03  0.49874678245E+03 0.  0.
        1    1    3    3  502    0 -0.15179111133E+02 -0.10625179963E+03 -0.22003045171E+03  0.24481268359E+03  0.50400001928E-02 0. -1.
       -1    1    3    3    0  502  0.15179111133E+02  0.10625179963E+03  0.23025176339E+03  0.25403882560E+03  0.50400001928E-02 0.  1.
</event>
<event>
 5   0  0.4884478E-02  0.5022419E+03  0.7818609E-02  0.1013195E+00
        1   -1    0    0  501    0  0.00000000000E+00  0.00000000000E+00  0.18876991440E+03  0.18876991447E+03  0.50400001928E-02 0. -1.
       -1   -1    0    0    0  501  0.00000000000E+00  0.00000000000E+00 -0.33406669234E+03  0.33406669237E+03  0.50400001928E-02 0.  1.
    10030    2    1    2    0    0  0.00000000000E+00  0.00000000000E+00 -0.14529677794E+03  0.52283660684E+03  0.50224193749E+03 0.  0.
        3    1    3    3  502    0 -0.89675803475E+02  0.15515113944E+03 -0.25578283714E+03  0.31231153641E+03  0.10100000352E+00 0.  1.
       -3    1    3    3    0  502  0.89675803475E+02 -0.15515113944E+03  0.11048605921E+03  0.21052507043E+03  0.10100000352E+00 0. -1.
</event>
<event>
 5   0  0.5038436E-02  0.5000027E+03  0.7818609E-02  0.1013778E+00
       -1   -1    0    0    0  501  0.00000000000E+00  0.00000000000E+00  0.72344563158E+02  0.72344563334E+02  0.50400001928E-02 0.  1.
        1   -1    0    0  501    0  0.00000000000E+00  0.00000000000E+00 -0.86393059260E+03  0.86393059261E+03  0.50400001928E-02 0. -1.
    10030    2    1    2    0    0  0.00000000000E+00  0.00000000000E+00 -0.79158602944E+03  0.93627515595E+03  0.50000272563E+03 0.  0.
        1    1    3    3  502    0  0.10750129586E+03 -0.20934108873E+03 -0.23778278874E+03  0.33454577368E+03  0.50400001928E-02 0.  1.
       -1    1    3    3    0  502 -0.10750129586E+03  0.20934108873E+03 -0.55380324070E+03  0.60172938226E+03  0.50400001928E-02 0. -1.
</event>
<event>
 5   0  0.7933103E-02  0.4987657E+03  0.7818609E-02  0.1014102E+00
        2   -1    0    0  501    0  0.00000000000E+00  0.00000000000E+00  0.19890663386E+04  0.19890663386E+04  0.25500000920E-02 0.  1.
       -2   -1    0    0    0  501  0.00000000000E+00  0.00000000000E+00 -0.31266837156E+02  0.31266837260E+02  0.25500000920E-02 0. -1.
    10030    2    1    2    0    0  0.00000000000E+00  0.00000000000E+00  0.19577995014E+04  0.20203331759E+04  0.49876573021E+03 0.  0.
        5    1    3    3  502    0 -0.24460618182E+03 -0.53531854971E+01  0.78426189206E+03  0.82155319129E+03  0.46999998093E+01 0. -1.
       -5    1    3    3    0  502  0.24460618182E+03  0.53531854971E+01  0.11735376094E+04  0.11987799846E+04  0.46999998093E+01 0.  1.
</event>
<event>
 5   0  0.4865501E-02  0.5018556E+03  0.7818609E-02  0.1013296E+00
        1   -1    0    0  501    0  0.00000000000E+00  0.00000000000E+00  0.57473211876E+03  0.57473211878E+03  0.50400001928E-02 0. -1.
       -1   -1    0    0    0  501  0.00000000000E+00  0.00000000000E+00 -0.10955494951E+03  0.10955494962E+03  0.50400001928E-02 0.  1.
    10030    2    1    2    0    0  0.00000000000E+00  0.00000000000E+00  0.46517716925E+03  0.68428706840E+03  0.50185555012E+03 0.  0.
        2    1    3    3  502    0 -0.22444608555E+03  0.11217526389E+03  0.22941621051E+03  0.33998695975E+03  0.25500000920E-02 0.  1.
       -2    1    3    3    0  502  0.22444608555E+03 -0.11217526389E+03  0.23576095874E+03  0.34430010865E+03  0.25500000920E-02 0. -1.
</event>
<event>
 5   0  0.7881060E-02  0.4964605E+03  0.7818609E-02  0.1014707E+00
        2   -1    0    0  501    0  0.00000000000E+00  0.00000000000E+00  0.82992022964E+03  0.82992022964E+03  0.25500000920E-02 0. -1.
       -2   -1    0    0    0  501  0.00000000000E+00  0.00000000000E+00 -0.74245994748E+02  0.74245994792E+02  0.25500000920E-02 0.  1.
    10030    2    1    2    0    0  0.00000000000E+00  0.00000000000E+00  0.75567423489E+03  0.90416622444E+03  0.49646048396E+03 0.  0.
        1    1    3    3  502    0 -0.45320105145E+02 -0.20116585868E+03  0.62951326384E+03  0.66242627062E+03  0.50400001928E-02 0. -1.
       -1    1    3    3    0  502  0.45320105145E+02  0.20116585868E+03  0.12616097105E+03  0.24173995382E+03  0.50400001928E-02 0.  1.
</event>
<event>
 5   0  0.3210875E-02  0.4975564E+03  0.7818609E-02  0.1014419E+00
        3   -1    0    0  501    0  0.00000000000E+00  0.00000000000E+00  0.74073659156E+02  0.74073728013E+02  0.10100000352E+00 0. -1.
       -3   -1    0    0    0  501  0.00000000000E+00  0.00000000000E+00 -0.83552730924E+03  0.83552731534E+03  0.10100000352E+00 0.  1.
    10030    2    1    2    0    0  0.00000000000E+00  0.00000000000E+00 -0.76145365008E+03  0.90960104336E+03  0.49755642580E+03 0.  0.
        3    1    3    3  502    0  0.42351961608E+02  0.16938943059E+03 -0.56758960964E+02  0.18359754273E+03  0.10100000352E+00 0. -1.
       -3    1    3    3    0  502 -0.42351961608E+02 -0.16938943059E+03 -0.70469468912E+03  0.72600350063E+03  0.10100000352E+00 0.  1.
</event>
<event>
 5   0  0.8208720E-02  0.4977210E+03  0.7818609E-02  0.1014375E+00
       -2   -1    0    0    0  501  0.00000000000E+00  0.00000000000E+00  0.75210974978E+02  0.75210975021E+02  0.25500000920E-02 0.  1.
        2   -1    0    0  501    0  0.00000000000E+00  0.00000000000E+00 -0.82343749948E+03  0.82343749948E+03  0.25500000920E-02 0. -1.
    10030    2    1    2    0    0  0.00000000000E+00  0.00000000000E+00 -0.74822652450E+03  0.89864847450E+03  0.49772095471E+03 0.  0.
        3    1    3    3  502    0  0.24041938392E+03  0.11722339010E+02 -0.48819960129E+03  0.54431402177E+03  0.10100000352E+00 0. -1.
       -3    1    3    3    0  502 -0.24041938392E+03 -0.11722339010E+02 -0.26002692321E+03  0.35433445273E+03  0.10100000352E+00 0.  1.
</event>
<event>
 5   0  0.3210875E-02  0.4994014E+03  0.7818609E-02  0.1013935E+00
        3   -1    0    0  501    0  0.00000000000E+00  0.00000000000E+00  0.58498379774E+03  0.58498380646E+03  0.10100000352E+00 0. -1.
       -3   -1    0    0    0  501  0.00000000000E+00  0.00000000000E+00 -0.10658487707E+03  0.10658492493E+03  0.10100000352E+00 0.  1.
    10030    2    1    2    0    0  0.00000000000E+00  0.00000000000E+00  0.47839892066E+03  0.69156873139E+03  0.49940142465E+03 0.  0.
        4    1    3    3  502    0  0.20645537285E+03 -0.57401515560E+02  0.61696588980E+02  0.22299515008E+03  0.12699999809E+01 0.  1.
       -4    1    3    3    0  502 -0.20645537285E+03  0.57401515560E+02  0.41670233168E+03  0.46857358131E+03  0.12699999809E+01 0. -1.
</event>
<event>
 5   0  0.5038436E-02  0.4999484E+03  0.7818609E-02  0.1013792E+00
       -1   -1    0    0    0  501  0.00000000000E+00  0.00000000000E+00  0.87611171465E+02  0.87611171609E+02  0.50400001928E-02 0.  1.
        1   -1    0    0  501    0  0.00000000000E+00  0.00000000000E+00 -0.71323213921E+03  0.71323213922E+03  0.50400001928E-02 0. -1.
    10030    2    1    2    0    0  0.00000000000E+00  0.00000000000E+00 -0.62562096774E+03  0.80084331083E+03  0.49994841057E+03 0.  0.
        1    1    3    3  502    0  0.15192597924E+03 -0.48688916580E+02 -0.45424635427E+01  0.15960184136E+03  0.50400001928E-02 0.  1.
       -1    1    3    3    0  502 -0.15192597924E+03  0.48688916580E+02 -0.62107850420E+03  0.64124146947E+03  0.50400001928E-02 0. -1.
</event>
<event>
 5   0  0.8208720E-02  0.5007138E+03  0.7818609E-02  0.1013593E+00
        2   -1    0    0  501    0  0.00000000000E+00  0.00000000000E+00  0.17872170609E+03  0.17872170611E+03  0.25500000920E-02 0.  1.
       -2   -1    0    0    0  501  0.00000000000E+00  0.00000000000E+00 -0.35070494485E+03  0.35070494485E+03  0.25500000920E-02 0. -1.
    10030    2    1    2    0    0  0.00000000000E+00  0.00000000000E+00 -0.17198323876E+03  0.52942665096E+03  0.50071383478E+03 0.  0.
        3    1    3    3  502    0  0.22174170824E+03 -0.49801989383E+02  0.25049375143E+02  0.22864187000E+03  0.10100000352E+00 0.  1.
       -3    1    3    3    0  502 -0.22174170824E+03  0.49801989383E+02 -0.19703261390E+03  0.30078478097E+03  0.10100000352E+00 0. -1.
</event>
<event>
 5   0  0.7881060E-02  0.4995027E+03  0.7818609E-02  0.1013909E+00
        2   -1    0    0  501    0  0.00000000000E+00  0.00000000000E+00  0.36376257766E+03  0.36376257767E+03  0.25500000920E-02 0.  1.
       -2   -1    0    0    0  501  0.00000000000E+00  0.00000000000E+00 -0.17147377482E+03  0.17147377484E+03  0.25500000920E-02 0. -1.
    10030    2    1    2    0    0  0.00000000000E+00  0.00000000000E+00  0.19228880284E+03  0.53523635251E+03  0.49950272206E+03 0.  0.
        1    1    3    3  502    0 -0.16017893145E+03 -0.12935558750E+03 -0.55339390281E+02  0.21319616844E+03  0.50400001928E-02 0. -1.
       -1    1    3    3    0  502  0.16017893145E+03  0.12935558750E+03  0.24762819312E+03  0.32204018406E+03  0.50400001928E-02 0.  1.
</event>
<event>
 5   0  0.4865501E-02  0.4961571E+03  0.7818609E-02  0.1014787E+00
        1   -1    0    0  501    0  0.00000000000E+00  0.00000000000E+00  0.30533928750E+03  0.30533928754E+03  0.50400001928E-02 0. -1.
       -1   -1    0    0    0  501  0.00000000000E+00  0.00000000000E+00 -0.20155604346E+03  0.20155604352E+03  0.50400001928E-02 0.  1.
    10030    2    1    2    0    0  0.00000000000E+00  0.00000000000E+00  0.10378324404E+03  0.50689533106E+03  0.49615714739E+03 0.  0.
        2    1    3    3  502    0 -0.51178345587E+02 -0.31958492933E+02  0.29772868606E+03  0.30378107057E+03  0.25500000920E-02 0. -1.
       -2    1    3    3    0  502  0.51178345587E+02  0.31958492933E+02 -0.19394544202E+03  0.20311426049E+03  0.25500000920E-02 0.  1.
</event>
<event>
 5   0  0.7776070E-02  0.5061164E+03  0.7818609E-02  0.1012195E+00
       -2   -1    0    0    0  501  0.00000000000E+00  0.00000000000E+00  0.12609843070E+03  0.12609843073E+03  0.25500000920E-02 0.  1.
        2   -1    0    0  501    0  0.00000000000E+00  0.00000000000E+00 -0.50784496158E+03  0.50784496158E+03  0.25500000920E-02 0. -1.
    10030    2    1    2    0    0  0.00000000000E+00  0.00000000000E+00 -0.38174653088E+03  0.63394339231E+03  0.50611640046E+03 0.  0.
        4    1    3    3  502    0 -0.15577514155E+03 -0.28357543455E+02  0.56383060221E+02  0.16807946744E+03  0.12699999809E+01 0.  1.
       -4    1    3    3    0  502  0.15577514155E+03  0.28357543455E+02 -0.43812959110E+03  0.46586392487E+03  0.12699999809E+01 0. -1.
</event>
<event>
 5   0  0.7698747E-02  0.5015023E+03  0.7818609E-02  0.1013388E+00
       -2   -1    0    0    0  501  0.00000000000E+00  0.00000000000E+00  0.62855417093E+02  0.62855417145E+02  0.25500000920E-02 0.  1.
        2   -1    0    0  501    0  0.00000000000E+00  0.00000000000E+00 -0.10003298024E+04  0.10003298024E+04  0.25500000920E-02 0. -1.
    10030    2    1    2    0    0  0.00000000000E+00  0.00000000000E+00 -0.93747438529E+03  0.10631852195E+04  0.50150233096E+03 0.  0.
        2    1    3    3  502    0 -0.46587434760E+02  0.10246662710E+03  0.62865219995E+01  0.11273561599E+03  0.25500000920E-02 0.  1.
       -2    1    3    3    0  502  0.46587434760E+02 -0.10246662710E+03 -0.94376090729E+03  0.95044960355E+03  0.25500000920E-02 0. -1.
</event>
<event>
 5   0  0.4884478E-02  0.4986697E+03  0.7818609E-02  0.1014127E+00
       -1   -1    0    0    0  501  0.00000000000E+00  0.00000000000E+00  0.90490168378E+02  0.90490168518E+02  0.50400001928E-02 0.  1.
        1   -1    0    0  501    0  0.00000000000E+00  0.00000000000E+00 -0.68701233943E+03  0.68701233945E+03  0.50400001928E-02 0. -1.
    10030    2    1    2    0    0  0.00000000000E+00  0.00000000000E+00 -0.59652217106E+03  0.77750250797E+03  0.49866967959E+03 0.  0.
        3    1    3    3  502    0  0.16473665128E+03  0.16897961758E+03 -0.17279450505E+03  0.29248970342E+03  0.10100000352E+00 0.  1.
       -3    1    3    3    0  502 -0.16473665128E+03 -0.16897961758E+03 -0.42372766601E+03  0.48501280455E+03  0.10100000352E+00 0. -1.
</event>
<event>
 5   0  0.5191358E-02  0.4998641E+03  0.7818609E-02  0.1013814E+00
        1   -1    0    0  501    0  0.00000000000E+00  0.00000000000E+00  0.10722175761E+04  0.10722175761E+04  0.50400001928E-02 0.  1.
       -1   -1    0    0    0  501  0.00000000000E+00  0.00000000000E+00 -0.58258721990E+02  0.58258722208E+02  0.50400001928E-02 0. -1.
    10030    2    1    2    0    0  0.00000000000E+00  0.00000000000E+00  0.10139588541E+04  0.11304762983E+04  0.49986408477E+03 0.  0.
        4    1    3    3  502    0 -0.14573884029E+03 -0.36645257278E+02  0.55335147813E+02  0.16014454700E+03  0.12699999809E+01 0. -1.
       -4    1    3    3    0  502  0.14573884029E+03  0.36645257278E+02  0.95862370632E+03  0.97033175135E+03  0.12699999809E+01 0.  1.
</event>
<event>
 5   0  0.4803890E-02  0.4976167E+03  0.7818609E-02  0.1014403E+00
       -1   -1    0    0    0  501  0.00000000000E+00  0.00000000000E+00  0.18876084053E+03  0.18876084060E+03  0.50400001928E-02 0.  1.
        1   -1    0    0  501    0  0.00000000000E+00  0.00000000000E+00 -0.32795781112E+03  0.32795781116E+03  0.50400001928E-02 0. -1.
    10030    2    1    2    0    0  0.00000000000E+00  0.00000000000E+00 -0.13919697059E+03  0.51671865176E+03  0.49761668828E+03 0.  0.
        5    1    3    3  502    0 -0.11115948722E+03  0.22201902814E+03 -0.85503836238E+02  0.26264401090E+03  0.46999998093E+01 0. -1.
       -5    1    3    3    0  502  0.11115948722E+03 -0.22201902814E+03 -0.53693134353E+02  0.25407464086E+03  0.46999998093E+01 0.  1.
</event>
<event>
 5   0  0.5191358E-02  0.4896576E+03  0.7818609E-02  0.1016514E+00
       -1   -1    0    0    0  501  0.00000000000E+00  0.00000000000E+00  0.65479285362E+02  0.65479285556E+02  0.50400001928E-02 0.  1.
        1   -1    0    0  501    0  0.00000000000E+00  0.00000000000E+00 -0.91542141085E+03  0.91542141086E+03  0.50400001928E-02 0. -1.
    10030    2    1    2    0    0  0.00000000000E+00  0.00000000000E+00 -0.84994212549E+03  0.98090069642E+03  0.48965759420E+03 0.  0.
        4    1    3    3  502    0  0.23252917916E+03  0.56401401293E+02 -0.52884218374E+03  0.58045379268E+03  0.12699999809E+01 0.  1.
       -4    1    3    3    0  502 -0.23252917916E+03 -0.56401401293E+02 -0.32109994175E+03  0.40044690374E+03  0.12699999809E+01 0. -1.
</event>
<event>
 5   0  0.5038436E-02  0.4935552E+03  0.7818609E-02  0.1015475E+00
       -1   -1    0    0    0  501  0.00000000000E+00  0.00000000000E+00  0.63002177285E+02  0.63002177486E+02  0.50400001928E-02 0. -1.
        1   -1    0    0  501    0  0.00000000000E+00  0.00000000000E+00 -0.96662042690E+03  0.96662042692E+03  0.50400001928E-02 0.  1.
    10030    2    1    2    0    0  0.00000000000E+00  0.00000000000E+00 -0.90361824962E+03  0.10296226044E+04  0.49355523141E+03 0.  0.
        1    1    3    3  502    0  0.23465075781E+03  0.68758964935E+02 -0.52132525569E+03  0.57582010702E+03  0.50400001928E-02 0. -1.
       -1    1    3    3    0  502 -0.23465075781E+03 -0.68758964935E+02 -0.38229299393E+03  0.45380249738E+03  0.50400001928E-02 0.  1.
</event>
<event>
 5   0  0.7933103E-02  0.4967872E+03  0.7818609E-02  0.1014621E+00
        2   -1    0    0  501    0  0.00000000000E+00  0.00000000000E+00  0.49994612510E+03  0.49994612511E+03  0.25500000920E-02 0. -1.
       -2   -1    0    0    0  501  0.00000000000E+00  0.00000000000E+00 -0.12341207102E+03  0.12341207104E+03  0.25500000920E-02 0.  1.
    10030    2    1    2    0    0  0.00000000000E+00  0.00000000000E+00  0.37653405409E+03  0.62335819615E+03  0.49678722490E+03 0.  0.
        5    1    3    3  502    0 -0.11026334114E+02  0.20253315880E+03  0.36808188158E+03  0.42029468472E+03  0.46999998093E+01 0. -1.
       -5    1    3    3    0  502  0.11026334114E+02 -0.20253315880E+03  0.84521725113E+01  0.20306351144E+03  0.46999998093E+01 0.  1.
</event>
<event>
 5   0  0.5191358E-02  0.5093808E+03  0.7818609E-02  0.1011359E+00
       -1   -1    0    0    0  501  0.00000000000E+00  0.00000000000E+00  0.31192186781E+03  0.31192186785E+03  0.50400001928E-02 0.  1.
        1   -1    0    0  501    0  0.00000000000E+00  0.00000000000E+00 -0.20795980193E+03  0.20795980199E+03  0.50400001928E-02 0. -1.
    10030    2    1    2    0    0  0.00000000000E+00  0.00000000000E+00  0.10396206587E+03  0.51988166984E+03  0.50938083935E+03 0.  0.
        4    1    3    3  502    0 -0.79078143564E+02 -0.64230221816E+02  0.29021695366E+03  0.30758148071E+03  0.12699999809E+01 0.  1.
       -4    1    3    3    0  502  0.79078143564E+02  0.64230221816E+02 -0.18625488778E+03  0.21230018913E+03  0.12699999809E+01 0. -1.
</event>
<event>
 5   0  0.3210875E-02  0.5076902E+03  0.7818609E-02  0.1011791E+00
        4   -1    0    0  501    0  0.00000000000E+00  0.00000000000E+00  0.39243706240E+03  0.39243911737E+03  0.12699999809E+01 0. -1.
       -4   -1    0    0    0  501  0.00000000000E+00  0.00000000000E+00 -0.16419297275E+03  0.16419788428E+03  0.12699999809E+01 0.  1.
    10030    2    1    2    0    0  0.00000000000E+00  0.00000000000E+00  0.22824408964E+03  0.55663700165E+03  0.50769024724E+03 0.  0.
        2    1    3    3  502    0  0.13163200294E+03 -0.32823445655E+02 -0.12111613776E+03  0.18186116027E+03  0.25500000920E-02 0.  1.
       -2    1    3    3    0  502 -0.13163200294E+03  0.32823445655E+02  0.34936022740E+03  0.37477584138E+03  0.25500000920E-02 0. -1.
</event>
<event>
 5   0  0.8208720E-02  0.4977893E+03  0.7818609E-02  0.1014358E+00
        2   -1    0    0  501    0  0.00000000000E+00  0.00000000000E+00  0.96372673281E+03  0.96372673281E+03  0.25500000920E-02 0.  1.
       -2   -1    0    0    0  501  0.00000000000E+00  0.00000000000E+00 -0.64280212188E+02  0.64280212238E+02  0.25500000920E-02 0. -1.
    10030    2    1    2    0    0  0.00000000000E+00  0.00000000000E+00  0.89944652062E+03  0.10280069451E+04  0.49778934864E+03 0.  0.
        3    1    3    3  502    0 -0.11733746404E+03  0.17746441115E+03  0.18295285829E+03  0.28059482577E+03  0.10100000352E+00 0. -1.
       -3    1    3    3    0  502  0.11733746404E+03 -0.17746441115E+03  0.71649366233E+03  0.74741211928E+03  0.10100000352E+00 0.  1.
</event>
<event>
 5   0  0.8208720E-02  0.4974427E+03  0.7818609E-02  0.1014449E+00
       -2   -1    0    0    0  501  0.00000000000E+00  0.00000000000E+00  0.20538327235E+03  0.20538327237E+03  0.25500000920E-02 0.  1.
        2   -1    0    0  501    0  0.00000000000E+00  0.00000000000E+00 -0.30120418995E+03  0.30120418996E+03  0.25500000920E-02 0. -1.
    10030    2    1    2    0    0  0.00000000000E+00  0.00000000000E+00 -0.95820917603E+02  0.50658746233E+03  0.49744266880E+03 0.  0.
        3    1    3    3  502    0  0.52149805210E+02  0.16836293050E+03 -0.22662623153E+03  0.28709778398E+03  0.10100000352E+00 0.  1.
       -3    1    3    3    0  502 -0.52149805210E+02 -0.16836293050E+03  0.13080531392E+03  0.21948967835E+03  0.10100000352E+00 0. -1.
</event>
<event>
 5   0  0.4803890E-02  0.5070360E+03  0.7818609E-02  0.1011959E+00
        1   -1    0    0  501    0  0.00000000000E+00  0.00000000000E+00  0.10867323504E+03  0.10867323516E+03  0.50400001928E-02 0.  1.
       -1   -1    0    0    0  501  0.00000000000E+00  0.00000000000E+00 -0.59141871668E+03  0.59141871670E+03  0.50400001928E-02 0. -1.
    10030    2    1    2    0    0  0.00000000000E+00  0.00000000000E+00 -0.48274548164E+03  0.70009195186E+03  0.50703603522E+03 0.  0.
        5    1    3    3  502    0 -0.11726993147E+02  0.25288852617E+03 -0.25879248254E+03  0.36205768609E+03  0.46999998093E+01 0.  1.
       -5    1    3    3    0  502  0.11726993147E+02 -0.25288852617E+03 -0.22395299910E+03  0.33803426577E+03  0.46999998093E+01 0. -1.
</event>
<event>
 5   0  0.7933103E-02  0.5023737E+03  0.7818609E-02  0.1013161E+00
       -2   -1    0    0    0  501  0.00000000000E+00  0.00000000000E+00  0.61872483169E+02  0.61872483221E+02  0.25500000920E-02 0. -1.
        2   -1    0    0  501    0  0.00000000000E+00  0.00000000000E+00 -0.10197557658E+04  0.10197557659E+04  0.25500000920E-02 0.  1.
    10030    2    1    2    0    0  0.00000000000E+00  0.00000000000E+00 -0.95788328268E+03  0.10816282491E+04  0.50237365173E+03 0.  0.
        5    1    3    3  502    0 -0.14902300435E+03 -0.91135551784E+02 -0.86743888581E+03  0.88486487965E+03  0.46999998093E+01 0.  1.
       -5    1    3    3    0  502  0.14902300435E+03  0.91135551784E+02 -0.90444396869E+02  0.19676336942E+03  0.46999998093E+01 0. -1.
</event>
<event>
 5   0  0.8208720E-02  0.4969278E+03  0.7818609E-02  0.1014584E+00
        2   -1    0    0  501    0  0.00000000000E+00  0.00000000000E+00  0.69973053382E+03  0.69973053382E+03  0.25500000920E-02 0.  1.
       -2   -1    0    0    0  501  0.00000000000E+00  0.00000000000E+00 -0.88225842431E+02  0.88225842468E+02  0.25500000920E-02 0. -1.
    10030    2    1    2    0    0  0.00000000000E+00  0.00000000000E+00  0.61150469139E+03  0.78795637629E+03  0.49692782509E+03 0.  0.
        3    1    3    3  502    0  0.13248586694E+02  0.23119670506E+02 -0.85953564858E+02  0.89989275620E+02  0.10100000352E+00 0. -1.
       -3    1    3    3    0  502 -0.13248586694E+02 -0.23119670506E+02  0.69745825625E+03  0.69796710067E+03  0.10100000352E+00 0.  1.
</event>
<event>
 5   0  0.5038436E-02  0.4978116E+03  0.7818609E-02  0.1014352E+00
       -1   -1    0    0    0  501  0.00000000000E+00  0.00000000000E+00  0.84806700851E+02  0.84806701001E+02  0.50400001928E-02 0.  1.
        1   -1    0    0  501    0  0.00000000000E+00  0.00000000000E+00 -0.73053293038E+03  0.73053293040E+03  0.50400001928E-02 0. -1.
    10030    2    1    2    0    0  0.00000000000E+00  0.00000000000E+00 -0.64572622953E+03  0.81533963140E+03  0.49781156176E+03 0.  0.
        1    1    3    3  502    0 -0.67149382524E+02  0.14534155808E+03 -0.63500478708E+03  0.65487730737E+03  0.50400001928E-02 0. -1.
       -1    1    3    3    0  502  0.67149382524E+02 -0.14534155808E+03 -0.10721442450E+02  0.16046232402E+03  0.50400001928E-02 0.  1.
</event>
<event>
 5   0  0.4884478E-02  0.4990830E+03  0.7818609E-02  0.1014019E+00
       -1   -1    0    0    0  501  0.00000000000E+00  0.00000000000E+00  0.22965822276E+03  0.22965822282E+03  0.50400001928E-02 0. -1.
        1   -1    0    0  501    0  0.00000000000E+00  0.00000000000E+00 -0.27114620163E+03  0.27114620168E+03  0.50400001928E-02 0.  1.
    10030    2    1    2    0    0  0.00000000000E+00  0.00000000000E+00 -0.41487978872E+02  0.50080442449E+03  0.49908297827E+03 0.  0.
        3    1    3    3  502    0  0.12331509908E+03 -0.20860302576E+03 -0.80523869890E+02  0.25535453754E+03  0.10100000352E+00 0.  1.
       -3    1    3    3    0  502 -0.12331509908E+03  0.20860302576E+03  0.39035891018E+02  0.24544988696E+03  0.10100000352E+00 0. -1.
</event>
<event>
 5   0  0.4865501E-02  0.5022759E+03  0.7818609E-02  0.1013187E+00
        1   -1    0    0  501    0  0.00000000000E+00  0.00000000000E+00  0.79746940917E+03  0.79746940919E+03  0.50400001928E-02 0. -1.
       -1   -1    0    0    0  501  0.00000000000E+00  0.00000000000E+00 -0.79088008265E+02  0.79088008426E+02  0.50400001928E-02 0.  1.
    10030    2    1    2    0    0  0.00000000000E+00  0.00000000000E+00  0.71838140091E+03  0.87655741761E+03  0.50227588953E+03 0.  0.
        2    1    3    3  502    0  0.40024459829E+02 -0.24269617995E+03  0.44760862694E+03  0.51074149632E+03  0.25500000920E-02 0.  1.
       -2    1    3    3    0  502 -0.40024459829E+02  0.24269617995E+03  0.27077277397E+03  0.36581592130E+03  0.25500000920E-02 0. -1.
</event>
<event>
 5   0  0.3210875E-02  0.5056487E+03  0.7818609E-02  0.1012315E+00
       -3   -1    0    0    0  501  0.00000000000E+00  0.00000000000E+00  0.85895708215E+02  0.85895767596E+02  0.10100000352E+00 0. -1.
        3   -1    0    0  501    0  0.00000000000E+00  0.00000000000E+00 -0.74415961695E+03  0.74415962380E+03  0.10100000352E+00 0.  1.
    10030    2    1    2    0    0  0.00000000000E+00  0.00000000000E+00 -0.65826390873E+03  0.83005539140E+03  0.50564867176E+03 0.  0.
        4    1    3    3  502    0  0.32618642007E+02  0.24712940218E+03 -0.39842108237E+03  0.46997647707E+03  0.12699999809E+01 0.  1.
       -4    1    3    3    0  502 -0.32618642007E+02 -0.24712940218E+03 -0.25984282636E+03  0.36007891432E+03  0.12699999809E+01 0. -1.
</event>
<event>
 5   0  0.7881060E-02  0.4991518E+03  0.7818609E-02  0.1014001E+00
       -2   -1    0    0    0  501  0.00000000000E+00  0.00000000000E+00  0.18274429268E+03  0.18274429269E+03  0.25500000920E-02 0. -1.
        2   -1    0    0  501    0  0.00000000000E+00  0.00000000000E+00 -0.34084849738E+03  0.34084849739E+03  0.25500000920E-02 0.  1.
    10030    2    1    2    0    0  0.00000000000E+00  0.00000000000E+00 -0.15810420470E+03  0.52359279008E+03  0.49915175075E+03 0.  0.
        1    1    3    3  502    0 -0.12006700168E+03 -0.19313142917E+03 -0.18690838890E+03  0.29436470524E+03  0.50400001928E-02 0.  1.
       -1    1    3    3    0  502  0.12006700168E+03  0.19313142917E+03  0.28804184200E+02  0.22922808484E+03  0.50400001928E-02 0. -1.
</event>
<event>
 5   0  0.7933103E-02  0.4969739E+03  0.7818609E-02  0.1014572E+00
        2   -1    0    0  501    0  0.00000000000E+00  0.00000000000E+00  0.13482125310E+04  0.13482125310E+04  0.25500000920E-02 0.  1.
       -2   -1    0    0    0  501  0.00000000000E+00  0.00000000000E+00 -0.45798242358E+02  0.45798242429E+02  0.25500000920E-02 0. -1.
    10030    2    1    2    0    0  0.00000000000E+00  0.00000000000E+00  0.13024142886E+04  0.13940107734E+04  0.49697389990E+03 0.  0.
        5    1    3    3  502    0 -0.18187459024E+03 -0.72734604281E+02  0.22253787956E+03  0.29650276065E+03  0.46999998093E+01 0. -1.
       -5    1    3    3    0  502  0.18187459024E+03  0.72734604281E+02  0.10798764091E+04  0.10975080128E+04  0.46999998093E+01 0.  1.
</event>
<event>
 5   0  0.7698747E-02  0.4932872E+03  0.7818609E-02  0.1015546E+00
        2   -1    0    0  501    0  0.00000000000E+00  0.00000000000E+00  0.10623674047E+04  0.10623674047E+04  0.25500000920E-02 0. -1.
       -2   -1    0    0    0  501  0.00000000000E+00  0.00000000000E+00 -0.57261788344E+02  0.57261788401E+02  0.25500000920E-02 0.  1.
    10030    2    1    2    0    0  0.00000000000E+00  0.00000000000E+00  0.10051056164E+04  0.11196291931E+04  0.49328716791E+03 0.  0.
        2    1    3    3  502    0 -0.11768979238E+03 -0.16619589180E+03  0.81837261440E+03  0.84333012379E+03  0.25500000920E-02 0. -1.
       -2    1    3    3    0  502  0.11768979238E+03  0.16619589180E+03  0.18673300198E+03  0.27629906934E+03  0.25500000920E-02 0.  1.
</event>
<event>
 5   0  0.8208720E-02  0.5053105E+03  0.7818609E-02  0.1012402E+00
       -2   -1    0    0    0  501  0.00000000000E+00  0.00000000000E+00  0.75491176349E+02  0.75491176392E+02  0.25500000920E-02 0.  1.
        2   -1    0    0  501    0  0.00000000000E+00  0.00000000000E+00 -0.84559121326E+03  0.84559121326E+03  0.25500000920E-02 0. -1.
    10030    2    1    2    0    0  0.00000000000E+00  0.00000000000E+00 -0.77010003691E+03  0.92108238965E+03  0.50531050027E+03 0.  0.
        3    1    3    3  502    0 -0.21459145146E+02 -0.92433418252E+02  0.41775330254E+02  0.10368037490E+03  0.10100000352E+00 0.  1.
       -3    1    3    3    0  502  0.21459145146E+02  0.92433418252E+02 -0.81187536716E+03  0.81740201476E+03  0.10100000352E+00 0. -1.
</event>
<event>
 5   0  0.4865501E-02  0.5000928E+03  0.7818609E-02  0.1013755E+00
        1   -1    0    0  501    0  0.00000000000E+00  0.00000000000E+00  0.53042611375E+03  0.53042611377E+03  0.50400001928E-02 0.  1.
       -1   -1    0    0    0  501  0.00000000000E+00  0.00000000000E+00 -0.11787355083E+03  0.11787355094E+03  0.50400001928E-02 0. -1.
    10030    2    1    2    0    0  0.00000000000E+00  0.00000000000E+00  0.41255256292E+03  0.64829966471E+03  0.50009282948E+03 0.  0.
        2    1    3    3  502    0 -0.14612482238E+03 -0.15327742830E+03  0.37863239635E+03  0.43383052603E+03  0.25500000920E-02 0.  1.
       -2    1    3    3    0  502  0.14612482238E+03  0.15327742830E+03  0.33920166570E+02  0.21446913869E+03  0.25500000920E-02 0. -1.
</event>
<event>
 5   0  0.5038436E-02  0.5034650E+03  0.7818609E-02  0.1012878E+00
        1   -1    0    0  501    0  0.00000000000E+00  0.00000000000E+00  0.31570406643E+03  0.31570406647E+03  0.50400001928E-02 0. -1.
       -1   -1    0    0    0  501  0.00000000000E+00  0.00000000000E+00 -0.20072355299E+03  0.20072355305E+03  0.50400001928E-02 0.  1.
    10030    2    1    2    0    0  0.00000000000E+00  0.00000000000E+00  0.11498051344E+03  0.51642761952E+03  0.50346496177E+03 0.  0.
        1    1    3    3  502    0 -0.14514614506E+03 -0.76549378794E+02 -0.13832273222E+03  0.21461684252E+03  0.50400001928E-02 0.  1.
       -1    1    3    3    0  502  0.14514614506E+03  0.76549378794E+02  0.25330324566E+03  0.30181077699E+03  0.50400001928E-02 0. -1.
</event>
<event>
 5   0  0.8208720E-02  0.4395808E+03  0.7818609E-02  0.1030875E+00
        2   -1    0    0  501    0  0.00000000000E+00  0.00000000000E+00  0.85977079739E+03  0.85977079740E+03  0.25500000920E-02 0.  1.
       -2   -1    0    0    0  501  0.00000000000E+00  0.00000000000E+00 -0.56186870873E+02  0.56186870931E+02  0.25500000920E-02 0. -1.
    10030    2    1    2    0    0  0.00000000000E+00  0.00000000000E+00  0.80358392652E+03  0.91595766833E+03  0.43958084946E+03 0.  0.
        3    1    3    3  502    0  0.65847383187E+02 -0.15724816343E+01 -0.35138428813E+02  0.74652996936E+02  0.10100000352E+00 0. -1.
       -3    1    3    3    0  502 -0.65847383187E+02  0.15724816343E+01  0.83872235533E+03  0.84130467139E+03  0.10100000352E+00 0.  1.
</event>
<event>
 5   0  0.7933103E-02  0.4993444E+03  0.7818609E-02  0.1013950E+00
        2   -1    0    0  501    0  0.00000000000E+00  0.00000000000E+00  0.88996320895E+03  0.88996320895E+03  0.25500000920E-02 0.  1.
       -2   -1    0    0    0  501  0.00000000000E+00  0.00000000000E+00 -0.70043582006E+02  0.70043582053E+02  0.25500000920E-02 0. -1.
    10030    2    1    2    0    0  0.00000000000E+00  0.00000000000E+00  0.81991962694E+03  0.96000679101E+03  0.49934441434E+03 0.  0.
        5    1    3    3  502    0 -0.58022122152E+02 -0.16060802303E+03  0.76001218097E+03  0.77897503743E+03  0.46999998093E+01 0.  1.
       -5    1    3    3    0  502  0.58022122152E+02  0.16060802303E+03  0.59907445973E+02  0.18103175357E+03  0.46999998093E+01 0. -1.
</event>
<event>
 5   0  0.4884478E-02  0.5058619E+03  0.7818609E-02  0.1012260E+00
       -1   -1    0    0    0  501  0.00000000000E+00  0.00000000000E+00  0.27061266289E+02  0.27061266758E+02  0.50400001928E-02 0.  1.
        1   -1    0    0  501    0  0.00000000000E+00  0.00000000000E+00 -0.23640453404E+04  0.23640453404E+04  0.50400001928E-02 0. -1.
    10030    2    1    2    0    0  0.00000000000E+00  0.00000000000E+00 -0.23369840741E+04  0.23911066072E+04  0.50586188251E+03 0.  0.
        3    1    3    3  502    0  0.94882945917E+02  0.19601366834E+03 -0.56040615140E+03  0.60123139999E+03  0.10100000352E+00 0.  1.
       -3    1    3    3    0  502 -0.94882945917E+02 -0.19601366834E+03 -0.17765779227E+04  0.17898752072E+04  0.10100000352E+00 0. -1.
</event>
<event>
 5   0  0.4865501E-02  0.5015531E+03  0.7818609E-02  0.1013374E+00
        1   -1    0    0  501    0  0.00000000000E+00  0.00000000000E+00  0.36513417668E+03  0.36513417671E+03  0.50400001928E-02 0. -1.
       -1   -1    0    0    0  501  0.00000000000E+00  0.00000000000E+00 -0.17223500465E+03  0.17223500472E+03  0.50400001928E-02 0.  1.
    10030    2    1    2    0    0  0.00000000000E+00  0.00000000000E+00  0.19289917203E+03  0.53736918143E+03  0.50155313436E+03 0.  0.
        2    1    3    3  502    0 -0.20882722527E+03  0.41812356768E+02  0.23831257415E+03  0.31960908341E+03  0.25500000920E-02 0. -1.
       -2    1    3    3    0  502  0.20882722527E+03 -0.41812356768E+02 -0.45413402123E+02  0.21776009802E+03  0.25500000920E-02 0.  1.
</event>
<event>
 5   0  0.4865501E-02  0.4946905E+03  0.7818609E-02  0.1015174E+00
        1   -1    0    0  501    0  0.00000000000E+00  0.00000000000E+00  0.61539382797E+03  0.61539382799E+03  0.50400001928E-02 0. -1.
       -1   -1    0    0    0  501  0.00000000000E+00  0.00000000000E+00 -0.99415497476E+02  0.99415497603E+02  0.50400001928E-02 0.  1.
    10030    2    1    2    0    0  0.00000000000E+00  0.00000000000E+00  0.51597833049E+03  0.71480932559E+03  0.49469054409E+03 0.  0.
        2    1    3    3  502    0 -0.44632766094E+02 -0.14808959489E+02  0.60887503901E+03  0.61068830202E+03  0.25500000920E-02 0. -1.
       -2    1    3    3    0  502  0.44632766094E+02  0.14808959489E+02 -0.92896708515E+02  0.10412102357E+03  0.25500000920E-02 0.  1.
</event>
<event>
 5   0  0.7776070E-02  0.4988302E+03  0.7818609E-02  0.1014085E+00
        2   -1    0    0  501    0  0.00000000000E+00  0.00000000000E+00  0.29434870263E+03  0.29434870265E+03  0.25500000920E-02 0. -1.
       -2   -1    0    0    0  501  0.00000000000E+00  0.00000000000E+00 -0.21134083514E+03  0.21134083515E+03  0.25500000920E-02 0.  1.
    10030    2    1    2    0    0  0.00000000000E+00  0.00000000000E+00  0.83007867496E+02  0.50568953780E+03  0.49883023422E+03 0.  0.
        4    1    3    3  502    0 -0.42479503959E+01 -0.24160671818E+03  0.10411432086E+03  0.26312213145E+03  0.12699999809E+01 0. -1.
       -4    1    3    3    0  502  0.42479503959E+01  0.24160671818E+03 -0.21106453366E+02  0.24256740635E+03  0.12699999809E+01 0.  1.
</event>
<event>
 5   0  0.3210875E-02  0.4520580E+03  0.7818609E-02  0.1027110E+00
        3   -1    0    0  501    0  0.00000000000E+00  0.00000000000E+00  0.39358586656E+03  0.39358587952E+03  0.10100000352E+00 0.  1.
       -3   -1    0    0    0  501  0.00000000000E+00  0.00000000000E+00 -0.12980419916E+03  0.12980423845E+03  0.10100000352E+00 0. -1.
    10030    2    1    2    0    0  0.00000000000E+00  0.00000000000E+00  0.26378166741E+03  0.52339011797E+03  0.45205801346E+03 0.  0.
        3    1    3    3  502    0  0.49996487801E+02  0.15060777421E+03  0.31824444953E+03  0.35561480608E+03  0.10100000352E+00 0.  1.
       -3    1    3    3    0  502 -0.49996487801E+02 -0.15060777421E+03 -0.54462782120E+02  0.16777531190E+03  0.10100000352E+00 0. -1.
</event>
<event>
 5   0  0.4803890E-02  0.5002692E+03  0.7818609E-02  0.1013709E+00
        1   -1    0    0  501    0  0.00000000000E+00  0.00000000000E+00  0.61676657998E+03  0.61676658000E+03  0.50400001928E-02 0.  1.
       -1   -1    0    0    0  501  0.00000000000E+00  0.00000000000E+00 -0.10144405981E+03  0.10144405994E+03  0.50400001928E-02 0. -1.
    10030    2    1    2    0    0  0.00000000000E+00  0.00000000000E+00  0.51532252017E+03  0.71821063994E+03  0.50026915108E+03 0.  0.
        5    1    3    3  502    0 -0.71054387179E+02  0.22109407561E+03  0.12441715132E+03  0.26350148718E+03  0.46999998093E+01 0. -1.
       -5    1    3    3    0  502  0.71054387179E+02 -0.22109407561E+03  0.39090536885E+03  0.45470915275E+03  0.46999998093E+01 0.  1.
</event>
<event>
 5   0  0.7933103E-02  0.5159414E+03  0.7818609E-02  0.1009700E+00
       -2   -1    0    0    0  501  0.00000000000E+00  0.00000000000E+00  0.18473130912E+03  0.18473130914E+03  0.25500000920E-02 0.  1.
        2   -1    0    0  501    0  0.00000000000E+00  0.00000000000E+00 -0.36024685739E+03  0.36024685740E+03  0.25500000920E-02 0. -1.
    10030    2    1    2    0    0  0.00000000000E+00  0.00000000000E+00 -0.17551554827E+03  0.54497816653E+03  0.51594136713E+03 0.  0.
        5    1    3    3  502    0 -0.24955524342E+03  0.45324442174E+02 -0.38274061182E+02  0.25655236957E+03  0.46999998093E+01 0.  1.
       -5    1    3    3    0  502  0.24955524342E+03 -0.45324442174E+02 -0.13724148708E+03  0.28842579696E+03  0.46999998093E+01 0. -1.
</event>
<event>
 5   0  0.3210875E-02  0.4973690E+03  0.7818609E-02  0.1014468E+00
       -4   -1    0    0    0  501  0.00000000000E+00  0.00000000000E+00  0.16865016888E+03  0.16865495060E+03  0.12699999809E+01 0. -1.
        4   -1    0    0  501    0  0.00000000000E+00  0.00000000000E+00 -0.36668876448E+03  0.36669096375E+03  0.12699999809E+01 0.  1.
    10030    2    1    2    0    0  0.00000000000E+00  0.00000000000E+00 -0.19803859560E+03  0.53534591435E+03  0.49736904071E+03 0.  0.
        5    1    3    3  502    0  0.16760076434E+03  0.14053233843E+03  0.28257393611E+02  0.22058994684E+03  0.46999998093E+01 0. -1.
       -5    1    3    3    0  502 -0.16760076434E+03 -0.14053233843E+03 -0.22629598921E+03  0.31475596751E+03  0.46999998093E+01 0.  1.
</event>
<event>
 5   0  0.3210875E-02  0.5353587E+03  0.7818609E-02  0.1004941E+00
        3   -1    0    0  501    0  0.00000000000E+00  0.00000000000E+00  0.98309672506E+02  0.98309724388E+02  0.10100000352E+00 0.  1.
       -3   -1    0    0    0  501  0.00000000000E+00  0.00000000000E+00 -0.72884201668E+03  0.72884202368E+03  0.10100000352E+00 0. -1.
    10030    2    1    2    0    0  0.00000000000E+00  0.00000000000E+00 -0.63053234418E+03  0.82715174807E+03  0.53535873700E+03 0.  0.
        5    1    3    3  502    0 -0.10647522661E+03  0.13548839643E+02  0.63535816352E+02  0.12481760651E+03  0.46999998093E+01 0.  1.
       -5    1    3    3    0  502  0.10647522661E+03 -0.13548839643E+02 -0.69406816053E+03  0.70233414156E+03  0.46999998093E+01 0. -1.
</event>
<event>
 5   0  0.3210875E-02  0.5008265E+03  0.7818609E-02  0.1013563E+00
        3   -1    0    0  501    0  0.00000000000E+00  0.00000000000E+00  0.14720895886E+03  0.14720899351E+03  0.10100000352E+00 0. -1.
       -3   -1    0    0    0  501  0.00000000000E+00  0.00000000000E+00 -0.42597117475E+03  0.42597118673E+03  0.10100000352E+00 0.  1.
    10030    2    1    2    0    0  0.00000000000E+00  0.00000000000E+00 -0.27876221589E+03  0.57318018023E+03  0.50082646296E+03 0.  0.
        1    1    3    3  502    0 -0.11475569945E+03  0.19805790725E+03 -0.23168326466E+02  0.23007080770E+03  0.50400001928E-02 0. -1.
       -1    1    3    3    0  502  0.11475569945E+03 -0.19805790725E+03 -0.25559388943E+03  0.34310937253E+03  0.50400001928E-02 0.  1.
</event>
<event>
 5   0  0.7881060E-02  0.4982990E+03  0.7818609E-02  0.1014224E+00
       -2   -1    0    0    0  501  0.00000000000E+00  0.00000000000E+00  0.64319106785E+02  0.64319106836E+02  0.25500000920E-02 0.  1.
        2   -1    0    0  501    0  0.00000000000E+00  0.00000000000E+00 -0.96511731722E+03  0.96511731722E+03  0.25500000920E-02 0. -1.
    10030    2    1    2    0    0  0.00000000000E+00  0.00000000000E+00 -0.90079821044E+03  0.10294364241E+04  0.49829904200E+03 0.  0.
        1    1    3    3  502    0  0.59656908773E+02  0.11816953850E+03 -0.14339854539E+02  0.13314885673E+03  0.50400001928E-02 0.  1.
       -1    1    3    3    0  502 -0.59656908773E+02 -0.11816953850E+03 -0.88645835590E+03  0.89628756733E+03  0.50400001928E-02 0. -1.
</event>
<event>
 5   0  0.4884478E-02  0.5038336E+03  0.7818609E-02  0.1012783E+00
       -1   -1    0    0    0  501  0.00000000000E+00  0.00000000000E+00  0.10043568181E+03  0.10043568194E+03  0.50400001928E-02 0.  1.
        1   -1    0    0  501    0  0.00000000000E+00  0.00000000000E+00 -0.63186790940E+03  0.63186790942E+03  0.50400001928E-02 0. -1.
    10030    2    1    2    0    0  0.00000000000E+00  0.00000000000E+00 -0.53143222759E+03  0.73230359136E+03  0.50383364059E+03 0.  0.
        3    1    3    3  502    0 -0.75754929872E+02  0.22275794662E+03 -0.39654524658E+03  0.46109441004E+03  0.10100000352E+00 0. -1.
       -3    1    3    3    0  502  0.75754929872E+02 -0.22275794662E+03 -0.13488698102E+03  0.27120918132E+03  0.10100000352E+00 0.  1.
</event>
<event>
 5   0  0.3210875E-02  0.4966908E+03  0.7818609E-02  0.1014646E+00
        4   -1    0    0  501    0  0.00000000000E+00  0.00000000000E+00  0.42330407481E+03  0.42330597994E+03  0.12699999809E+01 0.  1.
       -4   -1    0    0    0  501  0.00000000000E+00  0.00000000000E+00 -0.14569506360E+03  0.14570059868E+03  0.12699999809E+01 0. -1.
    10030    2    1    2    0    0  0.00000000000E+00  0.00000000000E+00  0.27760901122E+03  0.56900657862E+03  0.49669077242E+03 0.  0.
        4    1    3    3  502    0  0.86958207547E+02  0.61895863931E+02  0.39568616998E+03  0.40983165549E+03  0.12699999809E+01 0.  1.
       -4    1    3    3    0  502 -0.86958207547E+02 -0.61895863931E+02 -0.11807715876E+03  0.15917492313E+03  0.12699999809E+01 0. -1.
</event>
<event>
 5   0  0.7698747E-02  0.5014555E+03  0.7818609E-02  0.1013400E+00
        2   -1    0    0  501    0  0.00000000000E+00  0.00000000000E+00  0.40815028366E+02  0.40815028446E+02  0.25500000920E-02 0. -1.
       -2   -1    0    0    0  501  0.00000000000E+00  0.00000000000E+00 -0.15402268909E+04  0.15402268909E+04  0.25500000920E-02 0.  1.
    10030    2    1    2    0    0  0.00000000000E+00  0.00000000000E+00 -0.14994118626E+04  0.15810419194E+04  0.50145549876E+03 0.  0.
        2    1    3    3  502    0 -0.19718502691E+03 -0.14305595047E+03 -0.93669914616E+03  0.96785961287E+03  0.25500000920E-02 0.  1.
       -2    1    3    3    0  502  0.19718502691E+03  0.14305595047E+03 -0.56271271640E+03  0.61318230650E+03  0.25500000920E-02 0. -1.
</event>
<event>
 5   0  0.7698747E-02  0.5005710E+03  0.7818609E-02  0.1013630E+00
        2   -1    0    0  501    0  0.00000000000E+00  0.00000000000E+00  0.71979547417E+03  0.71979547418E+03  0.25500000920E-02 0.  1.
       -2   -1    0    0    0  501  0.00000000000E+00  0.00000000000E+00 -0.87028658155E+02  0.87028658192E+02  0.25500000920E-02 0. -1.
    10030    2    1    2    0    0  0.00000000000E+00  0.00000000000E+00  0.63276681602E+03  0.80682413237E+03  0.50057101107E+03 0.  0.
        2    1    3    3  502    0  0.23507627642E+03  0.34339785644E+02  0.44332548249E+03  0.50296874658E+03  0.25500000920E-02 0.  1.
       -2    1    3    3    0  502 -0.23507627642E+03 -0.34339785644E+02  0.18944133353E+03  0.30385538579E+03  0.25500000920E-02 0. -1.
</event>
<event>
 5   0  0.7776070E-02  0.5012146E+03  0.7818609E-02  0.1013462E+00
       -2   -1    0    0    0  501  0.00000000000E+00  0.00000000000E+00  0.52429472825E+02  0.52429472887E+02  0.25500000920E-02 0.  1.
        2   -1    0    0  501    0  0.00000000000E+00  0.00000000000E+00 -0.11978762221E+04  0.11978762221E+04  0.25500000920E-02 0. -1.
    10030    2    1    2    0    0  0.00000000000E+00  0.00000000000E+00 -0.11454467493E+04  0.12503056950E+04  0.50121460025E+03 0.  0.
        4    1    3    3  502    0  0.57925999139E+02  0.66586555207E+02 -0.11578178671E+04  0.11611774270E+04  0.12699999809E+01 0. -1.
       -4    1    3    3    0  502 -0.57925999139E+02 -0.66586555207E+02  0.12371117761E+02  0.89128268048E+02  0.12699999809E+01 0.  1.
</event>
<event>
 5   0  0.7698747E-02  0.5006782E+03  0.7818609E-02  0.1013602E+00
       -2   -1    0    0    0  501  0.00000000000E+00  0.00000000000E+00  0.18231364058E+03  0.18231364060E+03  0.25500000920E-02 0.  1.
        2   -1    0    0  501    0  0.00000000000E+00  0.00000000000E+00 -0.34374642236E+03  0.34374642237E+03  0.25500000920E-02 0. -1.
    10030    2    1    2    0    0  0.00000000000E+00  0.00000000000E+00 -0.16143278178E+03  0.52606006297E+03  0.50067818689E+03 0.  0.
        2    1    3    3  502    0 -0.22427417228E+03  0.12624106321E+02 -0.19682360374E+03  0.29866001307E+03  0.25500000920E-02 0. -1.
       -2    1    3    3    0  502  0.22427417228E+03 -0.12624106321E+02  0.35390821960E+02  0.22740004990E+03  0.25500000920E-02 0.  1.
</event>
<event>
 5   0  0.7698747E-02  0.5005230E+03  0.7818609E-02  0.1013642E+00
       -2   -1    0    0    0  501  0.00000000000E+00  0.00000000000E+00  0.25794584243E+03  0.25794584244E+03  0.25500000920E-02 0. -1.
        2   -1    0    0  501    0  0.00000000000E+00  0.00000000000E+00 -0.24280607763E+03  0.24280607764E+03  0.25500000920E-02 0.  1.
    10030    2    1    2    0    0  0.00000000000E+00  0.00000000000E+00  0.15139764796E+02  0.50075192008E+03  0.50052299946E+03 0.  0.
        2    1    3    3  502    0 -0.49828440473E+02 -0.64827644410E+00 -0.23779220833E+03  0.24295766728E+03  0.25500000920E-02 0.  1.
       -2    1    3    3    0  502  0.49828440473E+02  0.64827644410E+00  0.25293197313E+03  0.25779425280E+03  0.25500000920E-02 0. -1.
</event>
<event>
 5   0  0.8208720E-02  0.5013287E+03  0.7818609E-02  0.1013433E+00
       -2   -1    0    0    0  501  0.00000000000E+00  0.00000000000E+00  0.72187320988E+02  0.72187321033E+02  0.25500000920E-02 0. -1.
        2   -1    0    0  501    0  0.00000000000E+00  0.00000000000E+00 -0.87041065464E+03  0.87041065465E+03  0.25500000920E-02 0.  1.
    10030    2    1    2    0    0  0.00000000000E+00  0.00000000000E+00 -0.79822333365E+03  0.94259797568E+03  0.50132868795E+03 0.  0.
        3    1    3    3  502    0  0.10621774583E+03 -0.13297383447E+03 -0.74513149327E+03  0.76432009175E+03  0.10100000352E+00 0.  1.
       -3    1    3    3    0  502 -0.10621774583E+03  0.13297383447E+03 -0.53091840384E+02  0.17827788393E+03  0.10100000352E+00 0. -1.
</event>
<event>
 5   0  0.4865501E-02  0.4960224E+03  0.7818609E-02  0.1014822E+00
        1   -1    0    0  501    0  0.00000000000E+00  0.00000000000E+00  0.38405993127E+03  0.38405993131E+03  0.50400001928E-02 0. -1.
       -1   -1    0    0    0  501  0.00000000000E+00  0.00000000000E+00 -0.16015612466E+03  0.16015612474E+03  0.50400001928E-02 0.  1.
    10030    2    1    2    0    0  0.00000000000E+00  0.00000000000E+00  0.22390380661E+03  0.54421605604E+03  0.49602237958E+03 0.  0.
        2    1    3    3  502    0  0.21305209827E+03 -0.11671368278E+03  0.57134829095E+02  0.24955494190E+03  0.25500000920E-02 0.  1.
       -2    1    3    3    0  502 -0.21305209827E+03  0.11671368278E+03  0.16676897752E+03  0.29466111415E+03  0.25500000920E-02 0. -1.
</event>
<event>
 5   0  0.5038436E-02  0.4744610E+03  0.7818609E-02  0.1020669E+00
        1   -1    0    0  501    0  0.00000000000E+00  0.00000000000E+00  0.29185212460E+03  0.29185212464E+03  0.50400001928E-02 0. -1.
       -1   -1    0    0    0  501  0.00000000000E+00  0.00000000000E+00 -0.19283157340E+03  0.19283157346E+03  0.50400001928E-02 0.  1.
    10030    2    1    2    0    0  0.00000000000E+00  0.00000000000E+00  0.99020551201E+02  0.48468369811E+03  0.47446097590E+03 0.  0.
        1    1    3    3  502    0 -0.31355436314E+02 -0.13629817085E+03  0.24525818204E+03  0.28233301374E+03  0.50400001928E-02 0. -1.
       -1    1    3    3    0  502  0.31355436314E+02  0.13629817085E+03 -0.14623763084E+03  0.20235068437E+03  0.50400001928E-02 0.  1.
</event>
<event>
 5   0  0.4884478E-02  0.4997893E+03  0.7818609E-02  0.1013834E+00
        1   -1    0    0  501    0  0.00000000000E+00  0.00000000000E+00  0.30801342469E+03  0.30801342473E+03  0.50400001928E-02 0. -1.
       -1   -1    0    0    0  501  0.00000000000E+00  0.00000000000E+00 -0.20274227224E+03  0.20274227230E+03  0.50400001928E-02 0.  1.
    10030    2    1    2    0    0  0.00000000000E+00  0.00000000000E+00  0.10527115245E+03  0.51075569703E+03  0.49978932212E+03 0.  0.
        3    1    3    3  502    0  0.95307182719E+02  0.51441657816E+02  0.28278278598E+03  0.30281317258E+03  0.10100000352E+00 0. -1.
       -3    1    3    3    0  502 -0.95307182719E+02 -0.51441657816E+02 -0.17751163353E+03  0.20794252445E+03  0.10100000352E+00 0.  1.
</event>
<event>
 5   0  0.3210875E-02  0.4979794E+03  0.7818609E-02  0.1014308E+00
        3   -1    0    0  501    0  0.00000000000E+00  0.00000000000E+00  0.13143440429E+03  0.13143444309E+03  0.10100000352E+00 0.  1.
       -3   -1    0    0    0  501  0.00000000000E+00  0.00000000000E+00 -0.47168675609E+03  0.47168676690E+03  0.10100000352E+00 0. -1.
    10030    2    1    2    0    0  0.00000000000E+00  0.00000000000E+00 -0.34025235180E+03  0.60312120999E+03  0.49797944841E+03 0.  0.
        4    1    3    3  502    0 -0.52964641283E+02  0.22620567874E+03 -0.27858891555E+03  0.36275013313E+03  0.12699999809E+01 0. -1.
       -4    1    3    3    0  502  0.52964641283E+02 -0.22620567874E+03 -0.61663436250E+02  0.24037107686E+03  0.12699999809E+01 0.  1.
</event>
<event>
 5   0  0.4865501E-02  0.5017364E+03  0.7818609E-02  0.1013327E+00
        1   -1    0    0  501    0  0.00000000000E+00  0.00000000000E+00  0.13512400823E+04  0.13512400823E+04  0.50400001928E-02 0. -1.
       -1   -1    0    0    0  501  0.00000000000E+00  0.00000000000E+00 -0.46575627633E+02  0.46575627905E+02  0.50400001928E-02 0.  1.
    10030    2    1    2    0    0  0.00000000000E+00  0.00000000000E+00  0.13046644547E+04  0.13978157102E+04  0.50173640535E+03 0.  0.
        2    1    3    3  502    0  0.27524412949E+02  0.81467948603E+02  0.13088978813E+04  0.13117195903E+04  0.25500000920E-02 0. -1.
       -2    1    3    3    0  502 -0.27524412949E+02 -0.81467948603E+02 -0.42334266061E+01  0.86096119919E+02  0.25500000920E-02 0.  1.
</event>
<event>
 5   0  0.5038436E-02  0.5021305E+03  0.7818609E-02  0.1013224E+00
        1   -1    0    0  501    0  0.00000000000E+00  0.00000000000E+00  0.28784931094E+03  0.28784931099E+03  0.50400001928E-02 0.  1.
       -1   -1    0    0    0  501  0.00000000000E+00  0.00000000000E+00 -0.21898176360E+03  0.21898176366E+03  0.50400001928E-02 0. -1.
    10030    2    1    2    0    0  0.00000000000E+00  0.00000000000E+00  0.68867547340E+02  0.50683107465E+03  0.50213046029E+03 0.  0.
        1    1    3    3  502    0 -0.17831825831E+03 -0.14550239867E+03  0.13569943352E+03  0.26717538350E+03  0.50400001928E-02 0.  1.
       -1    1    3    3    0  502  0.17831825831E+03  0.14550239867E+03 -0.66831886178E+02  0.23965569115E+03  0.50400001928E-02 0. -1.
</event>
<event>
 5   0  0.7776070E-02  0.5087291E+03  0.7818609E-02  0.1011525E+00
       -2   -1    0    0    0  501  0.00000000000E+00  0.00000000000E+00  0.23804050386E+03  0.23804050387E+03  0.25500000920E-02 0. -1.
        2   -1    0    0  501    0  0.00000000000E+00  0.00000000000E+00 -0.27180805957E+03  0.27180805958E+03  0.25500000920E-02 0.  1.
    10030    2    1    2    0    0  0.00000000000E+00  0.00000000000E+00 -0.33767555714E+02  0.50984856345E+03  0.50872911243E+03 0.  0.
        4    1    3    3  502    0 -0.22197539412E+03 -0.85260617870E+02 -0.10740010453E+03  0.26091922870E+03  0.12699999809E+01 0.  1.
       -4    1    3    3    0  502  0.22197539412E+03  0.85260617870E+02  0.73632548821E+02  0.24892933475E+03  0.12699999809E+01 0. -1.
</event>
<event>
 5   0  0.7776070E-02  0.5021512E+03  0.7818609E-02  0.1013219E+00
        2   -1    0    0  501    0  0.00000000000E+00  0.00000000000E+00  0.26678576821E+04  0.26678576821E+04  0.25500000920E-02 0.  1.
       -2   -1    0    0    0  501  0.00000000000E+00  0.00000000000E+00 -0.23629058746E+02  0.23629058884E+02  0.25500000920E-02 0. -1.
    10030    2    1    2    0    0  0.00000000000E+00  0.00000000000E+00  0.26442286233E+04  0.26914867410E+04  0.50215123652E+03 0.  0.
        4    1    3    3  502    0 -0.89321436605E+02 -0.10242380664E+03  0.24536577226E+04  0.24574187245E+04  0.12699999809E+01 0.  1.
       -4    1    3    3    0  502  0.89321436605E+02  0.10242380664E+03  0.19057090075E+03  0.23406801643E+03  0.12699999809E+01 0. -1.
</event>
<event>
 5   0  0.7698747E-02  0.4607304E+03  0.7818609E-02  0.1024570E+00
        2   -1    0    0  501    0  0.00000000000E+00  0.00000000000E+00  0.19587372517E+04  0.19587372517E+04  0.25500000920E-02 0.  1.
       -2   -1    0    0    0  501  0.00000000000E+00  0.00000000000E+00 -0.27093030860E+02  0.27093030980E+02  0.25500000920E-02 0. -1.
    10030    2    1    2    0    0  0.00000000000E+00  0.00000000000E+00  0.19316442209E+04  0.19858302827E+04  0.46073041544E+03 0.  0.
        2    1    3    3  502    0  0.59491404465E+02 -0.15584754897E+03  0.28105367395E+03  0.32683153669E+03  0.25500000920E-02 0. -1.
       -2    1    3    3    0  502 -0.59491404465E+02  0.15584754897E+03  0.16505905469E+04  0.16589987460E+04  0.25500000920E-02 0.  1.
</event>
<event>
 5   0  0.4803890E-02  0.4908580E+03  0.7818609E-02  0.1016193E+00
       -1   -1    0    0    0  501  0.00000000000E+00  0.00000000000E+00  0.99607863821E+02  0.99607863948E+02  0.50400001928E-02 0.  1.
        1   -1    0    0  501    0  0.00000000000E+00  0.00000000000E+00 -0.60472527546E+03  0.60472527548E+03  0.50400001928E-02 0. -1.
    10030    2    1    2    0    0  0.00000000000E+00  0.00000000000E+00 -0.50511741164E+03  0.70433313943E+03  0.49085799551E+03 0.  0.
        5    1    3    3  502    0 -0.76698578471E+02 -0.23305495292E+03 -0.25830188635E+03  0.35628533159E+03  0.46999998093E+01 0.  1.
       -5    1    3    3    0  502  0.76698578471E+02  0.23305495292E+03 -0.24681552529E+03  0.34804780784E+03  0.46999998093E+01 0. -1.
</event>
<event>
 5   0  0.5191358E-02  0.4979069E+03  0.7818609E-02  0.1014327E+00
        1   -1    0    0  501    0  0.00000000000E+00  0.00000000000E+00  0.15896440961E+04  0.15896440961E+04  0.50400001928E-02 0.  1.
       -1   -1    0    0    0  501  0.00000000000E+00  0.00000000000E+00 -0.38988488510E+02  0.38988488836E+02  0.50400001928E-02 0. -1.
    10030    2    1    2    0    0  0.00000000000E+00  0.00000000000E+00  0.15506556076E+04  0.16286325850E+04  0.49790690234E+03 0.  0.
        4    1    3    3  502    0  0.22772259157E+02  0.23607941946E+03  0.52785351125E+03  0.57869077262E+03  0.12699999809E+01 0. -1.
       -4    1    3    3    0  502 -0.22772259157E+02 -0.23607941946E+03  0.10228020964E+04  0.10499418124E+04  0.12699999809E+01 0.  1.
</event>
<event>
 5   0  0.4884478E-02  0.5001110E+03  0.7818609E-02  0.1013750E+00
        1   -1    0    0  501    0  0.00000000000E+00  0.00000000000E+00  0.33839908652E+03  0.33839908655E+03  0.50400001928E-02 0.  1.
       -1   -1    0    0    0  501  0.00000000000E+00  0.00000000000E+00 -0.18477518282E+03  0.18477518289E+03  0.50400001928E-02 0. -1.
    10030    2    1    2    0    0  0.00000000000E+00  0.00000000000E+00  0.15362390370E+03  0.52317426944E+03  0.50011100010E+03 0.  0.
        3    1    3    3  502    0 -0.20582903110E+03 -0.11200956328E+03  0.16810626788E+03  0.28839462514E+03  0.10100000352E+00 0. -1.
       -3    1    3    3    0  502  0.20582903110E+03  0.11200956328E+03 -0.14482364182E+02  0.23477964431E+03  0.10100000352E+00 0.  1.
</event>
<event>
 5   0  0.3210875E-02  0.5014318E+03  0.7818609E-02  0.1013406E+00
       -3   -1    0    0    0  501  0.00000000000E+00  0.00000000000E+00  0.36802089399E+03  0.36802090785E+03  0.10100000352E+00 0. -1.
        3   -1    0    0  501    0  0.00000000000E+00  0.00000000000E+00 -0.17080127940E+03  0.17080130926E+03  0.10100000352E+00 0.  1.
    10030    2    1    2    0    0  0.00000000000E+00  0.00000000000E+00  0.19721961459E+03  0.53882221712E+03  0.50143175536E+03 0.  0.
        4    1    3    3  502    0 -0.14788907991E+03 -0.15996587829E+03  0.23194529046E+03  0.31821453901E+03  0.12699999809E+01 0. -1.
       -4    1    3    3    0  502  0.14788907991E+03  0.15996587829E+03 -0.34725675866E+02  0.22060767810E+03  0.12699999809E+01 0.  1.
</event>
<event>
 5   0  0.5191358E-02  0.5015867E+03  0.7818609E-02  0.1013366E+00
        1   -1    0    0  501    0  0.00000000000E+00  0.00000000000E+00  0.20603495435E+03  0.20603495441E+03  0.50400001928E-02 0. -1.
       -1   -1    0    0    0  501  0.00000000000E+00  0.00000000000E+00 -0.30527497563E+03  0.30527497567E+03  0.50400001928E-02 0.  1.
    10030    2    1    2    0    0  0.00000000000E+00  0.00000000000E+00 -0.99240021273E+02  0.51130993008E+03  0.50158674502E+03 0.  0.
        4    1    3    3  502    0 -0.11123282199E+03 -0.60930091691E+02 -0.27017137622E+03  0.29846172651E+03  0.12699999809E+01 0.  1.
       -4    1    3    3    0  502  0.11123282199E+03  0.60930091691E+02  0.17093135495E+03  0.21284820358E+03  0.12699999809E+01 0. -1.
</event>
<event>
 5   0  0.4865501E-02  0.5001778E+03  0.7818609E-02  0.1013733E+00
       -1   -1    0    0    0  501  0.00000000000E+00  0.00000000000E+00  0.12401469840E+03  0.12401469850E+03  0.50400001928E-02 0.  1.
        1   -1    0    0  501    0  0.00000000000E+00  0.00000000000E+00 -0.50433106105E+03  0.50433106108E+03  0.50400001928E-02 0. -1.
    10030    2    1    2    0    0  0.00000000000E+00  0.00000000000E+00 -0.38031636265E+03  0.62834575958E+03  0.50017782626E+03 0.  0.
        2    1    3    3  502    0  0.74288357557E+02  0.14658021172E+03  0.46669593857E+02  0.17082906524E+03  0.25500000920E-02 0.  1.
       -2    1    3    3    0  502 -0.74288357557E+02 -0.14658021172E+03 -0.42698595651E+03  0.45751669434E+03  0.25500000920E-02 0. -1.
</event>
<event>
 5   0  0.7881060E-02  0.5007252E+03  0.7818609E-02  0.1013590E+00
        2   -1    0    0  501    0  0.00000000000E+00  0.00000000000E+00  0.86441707638E+03  0.86441707638E+03  0.25500000920E-02 0.  1.
       -2   -1    0    0    0  501  0.00000000000E+00  0.00000000000E+00 -0.72512951288E+02  0.72512951333E+02  0.25500000920E-02 0. -1.
    10030    2    1    2    0    0  0.00000000000E+00  0.00000000000E+00  0.79190412509E+03  0.93693002771E+03  0.50072520757E+03 0.  0.
        1    1    3    3  502    0  0.16364187503E+03  0.17822329351E+03  0.27556845232E+03  0.36671539039E+03  0.50400001928E-02 0. -1.
       -1    1    3    3    0  502 -0.16364187503E+03 -0.17822329351E+03  0.51633567277E+03  0.57021463732E+03  0.50400001928E-02 0.  1.
</event>
<event>
 5   0  0.7698747E-02  0.4992612E+03  0.7818609E-02  0.1013972E+00
       -2   -1    0    0    0  501  0.00000000000E+00  0.00000000000E+00  0.40823200232E+02  0.40823200312E+02  0.25500000920E-02 0.  1.
        2   -1    0    0  501    0  0.00000000000E+00  0.00000000000E+00 -0.15264714110E+04  0.15264714110E+04  0.25500000920E-02 0. -1.
    10030    2    1    2    0    0  0.00000000000E+00  0.00000000000E+00 -0.14856482108E+04  0.15672946113E+04  0.49926124675E+03 0.  0.
        2    1    3    3  502    0 -0.11916963875E+03 -0.11493615435E+03 -0.15633671754E+03  0.22771230014E+03  0.25500000920E-02 0.  1.
       -2    1    3    3    0  502  0.11916963875E+03  0.11493615435E+03 -0.13293114933E+04  0.13395823112E+04  0.25500000920E-02 0. -1.
</event>
<event>
 5   0  0.8208720E-02  0.5011767E+03  0.7818609E-02  0.1013472E+00
        2   -1    0    0  501    0  0.00000000000E+00  0.00000000000E+00  0.10688545188E+04  0.10688545188E+04  0.25500000920E-02 0.  1.
       -2   -1    0    0    0  501  0.00000000000E+00  0.00000000000E+00 -0.58749357185E+02  0.58749357241E+02  0.25500000920E-02 0. -1.
    10030    2    1    2    0    0  0.00000000000E+00  0.00000000000E+00  0.10101051616E+04  0.11276038760E+04  0.50117667917E+03 0.  0.
        3    1    3    3  502    0  0.43661065537E+02 -0.11152914807E+02  0.10596633196E+04  0.10606210620E+04  0.10100000352E+00 0.  1.
       -3    1    3    3    0  502 -0.43661065537E+02  0.11152914807E+02 -0.49558157961E+02  0.66982814020E+02  0.10100000352E+00 0. -1.
</event>
<event>
 5   0  0.7933103E-02  0.5103763E+03  0.7818609E-02  0.1011105E+00
        2   -1    0    0  501    0  0.00000000000E+00  0.00000000000E+00  0.21732206492E+04  0.21732206492E+04  0.25500000920E-02 0. -1.
       -2   -1    0    0    0  501  0.00000000000E+00  0.00000000000E+00 -0.29965199430E+02  0.29965199539E+02  0.25500000920E-02 0.  1.
    10030    2    1    2    0    0  0.00000000000E+00  0.00000000000E+00  0.21432554498E+04  0.22031858488E+04  0.51037629365E+03 0.  0.
        5    1    3    3  502    0  0.14854350455E+03 -0.14279723635E+03  0.42205987174E+03  0.46969442065E+03  0.46999998093E+01 0.  1.
       -5    1    3    3    0  502 -0.14854350455E+03  0.14279723635E+03  0.17211955780E+04  0.17334914281E+04  0.46999998093E+01 0. -1.
</event>
<event>
 5   0  0.3210875E-02  0.4981589E+03  0.7818609E-02  0.1014261E+00
        3   -1    0    0  501    0  0.00000000000E+00  0.00000000000E+00  0.86189056448E+02  0.86189115626E+02  0.10100000352E+00 0. -1.
       -3   -1    0    0    0  501  0.00000000000E+00  0.00000000000E+00 -0.71981917567E+03  0.71981918275E+03  0.10100000352E+00 0.  1.
    10030    2    1    2    0    0  0.00000000000E+00  0.00000000000E+00 -0.63363011922E+03  0.80600829838E+03  0.49815885927E+03 0.  0.
        1    1    3    3  502    0 -0.10346063924E+03 -0.66804961462E+02 -0.66711140273E+03  0.67838383709E+03  0.50400001928E-02 0.  1.
       -1    1    3    3    0  502  0.10346063924E+03  0.66804961462E+02  0.33481283511E+02  0.12762446129E+03  0.50400001928E-02 0. -1.
</event>
<event>
 5   0  0.4803890E-02  0.5053580E+03  0.7818609E-02  0.1012390E+00
       -1   -1    0    0    0  501  0.00000000000E+00  0.00000000000E+00  0.62155784623E+02  0.62155784827E+02  0.50400001928E-02 0. -1.
        1   -1    0    0  501    0  0.00000000000E+00  0.00000000000E+00 -0.10272042952E+04  0.10272042952E+04  0.50400001928E-02 0.  1.
    10030    2    1    2    0    0  0.00000000000E+00  0.00000000000E+00 -0.96504851060E+03  0.10893600801E+04  0.50535804755E+03 0.  0.
        5    1    3    3  502    0 -0.96954156280E+02  0.61188745930E+02 -0.96780427138E+03  0.97458266389E+03  0.46999998093E+01 0.  1.
       -5    1    3    3    0  502  0.96954156280E+02 -0.61188745930E+02  0.27557607800E+01  0.11477741618E+03  0.46999998093E+01 0. -1.
</event>
<event>
 5   0  0.3210875E-02  0.4871630E+03  0.7818609E-02  0.1017185E+00
        3   -1    0    0  501    0  0.00000000000E+00  0.00000000000E+00  0.15109965039E+03  0.15109968415E+03  0.10100000352E+00 0.  1.
       -3   -1    0    0    0  501  0.00000000000E+00  0.00000000000E+00 -0.39266750570E+03  0.39266751869E+03  0.10100000352E+00 0. -1.
    10030    2    1    2    0    0  0.00000000000E+00  0.00000000000E+00 -0.24156785531E+03  0.54376720284E+03  0.48716295237E+03 0.  0.
        5    1    3    3  502    0 -0.35301829834E+02  0.22570341917E+03 -0.26589040821E+02  0.23003764845E+03  0.46999998093E+01 0.  1.
       -5    1    3    3    0  502  0.35301829834E+02 -0.22570341917E+03 -0.21497881449E+03  0.31372955439E+03  0.46999998093E+01 0. -1.
</event>
<event>
 5   0  0.4865501E-02  0.5186327E+03  0.7818609E-02  0.1009027E+00
       -1   -1    0    0    0  501  0.00000000000E+00  0.00000000000E+00  0.66955479760E+02  0.66955479949E+02  0.50400001928E-02 0.  1.
        1   -1    0    0  501    0  0.00000000000E+00  0.00000000000E+00 -0.10043237380E+04  0.10043237380E+04  0.50400001928E-02 0. -1.
    10030    2    1    2    0    0  0.00000000000E+00  0.00000000000E+00 -0.93736825822E+03  0.10712792179E+04  0.51863273255E+03 0.  0.
        2    1    3    3  502    0 -0.23070108196E+03  0.58042539090E+02 -0.25548776909E+03  0.34909300440E+03  0.25500000920E-02 0.  1.
       -2    1    3    3    0  502  0.23070108196E+03 -0.58042539090E+02 -0.68188048913E+03  0.72218621354E+03  0.25500000920E-02 0. -1.
</event>
<event>
 5   0  0.4884478E-02  0.4794927E+03  0.7818609E-02  0.1019275E+00
        1   -1    0    0  501    0  0.00000000000E+00  0.00000000000E+00  0.14747899526E+04  0.14747899526E+04  0.50400001928E-02 0.  1.
       -1   -1    0    0    0  501  0.00000000000E+00  0.00000000000E+00 -0.38973889779E+02  0.38973890104E+02  0.50400001928E-02 0. -1.
    10030    2    1    2    0    0  0.00000000000E+00  0.00000000000E+00  0.14358160628E+04  0.15137638427E+04  0.47949265400E+03 0.  0.
        3    1    3    3  502    0 -0.16947656531E+03 -0.96688984871E+02  0.27810533115E+03  0.33972584741E+03  0.10100000352E+00 0.  1.
       -3    1    3    3    0  502  0.16947656531E+03  0.96688984871E+02  0.11577107316E+04  0.11740379953E+04  0.10100000352E+00 0. -1.
</event>
<event>
 5   0  0.7698747E-02  0.4979319E+03  0.7818609E-02  0.1014320E+00
        2   -1    0    0  501    0  0.00000000000E+00  0.00000000000E+00  0.84175357911E+03  0.84175357911E+03  0.25500000920E-02 0. -1.
       -2   -1    0    0    0  501  0.00000000000E+00  0.00000000000E+00 -0.73636818287E+02  0.73636818332E+02  0.25500000920E-02 0.  1.
    10030    2    1    2    0    0  0.00000000000E+00  0.00000000000E+00  0.76811676082E+03  0.91539039744E+03  0.49793194463E+03 0.  0.
        2    1    3    3  502    0 -0.73318753654E+02 -0.38392074852E+02  0.81572447966E+03  0.81991220125E+03  0.25500000920E-02 0. -1.
       -2    1    3    3    0  502  0.73318753654E+02  0.38392074852E+02 -0.47607718834E+02  0.95478196191E+02  0.25500000920E-02 0.  1.
</event>
<event>
 5   0  0.7881060E-02  0.4996045E+03  0.7818609E-02  0.1013882E+00
       -2   -1    0    0    0  501  0.00000000000E+00  0.00000000000E+00  0.16432398561E+03  0.16432398563E+03  0.25500000920E-02 0.  1.
        2   -1    0    0  501    0  0.00000000000E+00  0.00000000000E+00 -0.37974470822E+03  0.37974470823E+03  0.25500000920E-02 0. -1.
    10030    2    1    2    0    0  0.00000000000E+00  0.00000000000E+00 -0.21542072261E+03  0.54406869386E+03  0.49960449949E+03 0.  0.
        1    1    3    3  502    0  0.60347428713E+01  0.29205953970E+02 -0.37779909326E+03  0.37897435370E+03  0.50400001928E-02 0. -1.
       -1    1    3    3    0  502 -0.60347428713E+01 -0.29205953970E+02  0.16237837065E+03  0.16509434015E+03  0.50400001928E-02 0.  1.
</event>
<event>
 5   0  0.7881060E-02  0.4987484E+03  0.7818609E-02  0.1014106E+00
        2   -1    0    0  501    0  0.00000000000E+00  0.00000000000E+00  0.15954458835E+04  0.15954458835E+04  0.25500000920E-02 0. -1.
       -2   -1    0    0    0  501  0.00000000000E+00  0.00000000000E+00 -0.38978125113E+02  0.38978125197E+02  0.25500000920E-02 0.  1.
    10030    2    1    2    0    0  0.00000000000E+00  0.00000000000E+00  0.15564677584E+04  0.16344240087E+04  0.49874839079E+03 0.  0.
        1    1    3    3  502    0  0.98117827106E+01 -0.24602883838E+03  0.90770970762E+03  0.94051229324E+03  0.50400001928E-02 0. -1.
       -1    1    3    3    0  502 -0.98117827106E+01  0.24602883838E+03  0.64875805078E+03  0.69391171548E+03  0.50400001928E-02 0.  1.
</event>
<event>
 5   0  0.8208720E-02  0.5007353E+03  0.7818609E-02  0.1013587E+00
        2   -1    0    0  501    0  0.00000000000E+00  0.00000000000E+00  0.15546622587E+04  0.15546622587E+04  0.25500000920E-02 0. -1.
       -2   -1    0    0    0  501  0.00000000000E+00  0.00000000000E+00 -0.40319978772E+02  0.40319978853E+02  0.25500000920E-02 0.  1.
    10030    2    1    2    0    0  0.00000000000E+00  0.00000000000E+00  0.15143422799E+04  0.15949822375E+04  0.50073525673E+03 0.  0.
        3    1    3    3  502    0  0.24207234435E+02  0.79210013763E+02  0.15097587722E+04  0.15120290265E+04  0.10100000352E+00 0. -1.
       -3    1    3    3    0  502 -0.24207234435E+02 -0.79210013763E+02  0.45835076994E+01  0.82953211048E+02  0.10100000352E+00 0.  1.
</event>
<event>
 5   0  0.4865501E-02  0.4896856E+03  0.7818609E-02  0.1016507E+00
        1   -1    0    0  501    0  0.00000000000E+00  0.00000000000E+00  0.10722810863E+04  0.10722810863E+04  0.50400001928E-02 0.  1.
       -1   -1    0    0    0  501  0.00000000000E+00  0.00000000000E+00 -0.55906976094E+02  0.55906976322E+02  0.50400001928E-02 0. -1.
    10030    2    1    2    0    0  0.00000000000E+00  0.00000000000E+00  0.10163741102E+04  0.11281880626E+04  0.48968558562E+03 0.  0.
        2    1    3    3  502    0 -0.22319519160E+03  0.56784019535E+02  0.31670687248E+03  0.39159131951E+03  0.25500000920E-02 0. -1.
       -2    1    3    3    0  502  0.22319519160E+03 -0.56784019535E+02  0.69966723769E+03  0.73659674309E+03  0.25500000920E-02 0.  1.
</event>
<event>
 5   0  0.8208720E-02  0.4978053E+03  0.7818609E-02  0.1014353E+00
       -2   -1    0    0    0  501  0.00000000000E+00  0.00000000000E+00  0.26063714892E+03  0.26063714893E+03  0.25500000920E-02 0. -1.
        2   -1    0    0  501    0  0.00000000000E+00  0.00000000000E+00 -0.23769643783E+03  0.23769643784E+03  0.25500000920E-02 0.  1.
    10030    2    1    2    0    0  0.00000000000E+00  0.00000000000E+00  0.22940711092E+02  0.49833358678E+03  0.49780527065E+03 0.  0.
        3    1    3    3  502    0  0.12275707782E+03  0.32480647441E+02  0.22577281658E+03  0.25903217468E+03  0.10100000352E+00 0. -1.
       -3    1    3    3    0  502 -0.12275707782E+03 -0.32480647441E+02 -0.20283210549E+03  0.23930141210E+03  0.10100000352E+00 0.  1.
</event>
<event>
 5   0  0.4865501E-02  0.5148229E+03  0.7818609E-02  0.1009981E+00
       -1   -1    0    0    0  501  0.00000000000E+00  0.00000000000E+00  0.73393166449E+03  0.73393166451E+03  0.50400001928E-02 0.  1.
        1   -1    0    0  501    0  0.00000000000E+00  0.00000000000E+00 -0.90281759075E+02  0.90281759216E+02  0.50400001928E-02 0. -1.
    10030    2    1    2    0    0  0.00000000000E+00  0.00000000000E+00  0.64364990541E+03  0.82421342372E+03  0.51482285022E+03 0.  0.
        2    1    3    3  502    0 -0.51452238526E+02 -0.74091141027E+02  0.70779971867E+03  0.71352454183E+03  0.25500000920E-02 0.  1.
       -2    1    3    3    0  502  0.51452238526E+02  0.74091141027E+02 -0.64149813259E+02  0.11068888190E+03  0.25500000920E-02 0. -1.
</event>
<event>
 5   0  0.7933103E-02  0.5009648E+03  0.7818609E-02  0.1013527E+00
        2   -1    0    0  501    0  0.00000000000E+00  0.00000000000E+00  0.32792956298E+03  0.32792956299E+03  0.25500000920E-02 0. -1.
       -2   -1    0    0    0  501  0.00000000000E+00  0.00000000000E+00 -0.19132593565E+03  0.19132593567E+03  0.25500000920E-02 0.  1.
    10030    2    1    2    0    0  0.00000000000E+00  0.00000000000E+00  0.13660362733E+03  0.51925549866E+03  0.50096479107E+03 0.  0.
        5    1    3    3  502    0 -0.66586999231E+02 -0.21123337475E+03 -0.52867929111E+02  0.22775090560E+03  0.46999998093E+01 0.  1.
       -5    1    3    3    0  502  0.66586999231E+02  0.21123337475E+03  0.18947155644E+03  0.29150459306E+03  0.46999998093E+01 0. -1.
</event>
<event>
 5   0  0.8208720E-02  0.4984456E+03  0.7818609E-02  0.1014185E+00
       -2   -1    0    0    0  501  0.00000000000E+00  0.00000000000E+00  0.23179584153E+02  0.23179584294E+02  0.25500000920E-02 0.  1.
        2   -1    0    0  501    0  0.00000000000E+00  0.00000000000E+00 -0.26796000551E+04  0.26796000551E+04  0.25500000920E-02 0. -1.
    10030    2    1    2    0    0  0.00000000000E+00  0.00000000000E+00 -0.26564204709E+04  0.27027796394E+04  0.49844564464E+03 0.  0.
        3    1    3    3  502    0 -0.11605395816E+03 -0.17282471584E+03 -0.20712019627E+04  0.20816374526E+04  0.10100000352E+00 0. -1.
       -3    1    3    3    0  502  0.11605395816E+03  0.17282471584E+03 -0.58521850823E+03  0.62114218677E+03  0.10100000352E+00 0.  1.
</event>
<event>
 5   0  0.4865501E-02  0.5043424E+03  0.7818609E-02  0.1012652E+00
        1   -1    0    0  501    0  0.00000000000E+00  0.00000000000E+00  0.19577238977E+03  0.19577238984E+03  0.50400001928E-02 0. -1.
       -1   -1    0    0    0  501  0.00000000000E+00  0.00000000000E+00 -0.32481753048E+03  0.32481753052E+03  0.50400001928E-02 0.  1.
    10030    2    1    2    0    0  0.00000000000E+00  0.00000000000E+00 -0.12904514070E+03  0.52058992036E+03  0.50434236074E+03 0.  0.
        2    1    3    3  502    0  0.70275205692E+02  0.93327859822E+02 -0.29519812770E+03  0.31747539835E+03  0.25500000920E-02 0.  1.
       -2    1    3    3    0  502 -0.70275205692E+02 -0.93327859822E+02  0.16615298700E+03  0.20311452200E+03  0.25500000920E-02 0. -1.
</event>
<event>
 5   0  0.4865501E-02  0.4967254E+03  0.7818609E-02  0.1014637E+00
        1   -1    0    0  501    0  0.00000000000E+00  0.00000000000E+00  0.97514301499E+02  0.97514301629E+02  0.50400001928E-02 0.  1.
       -1   -1    0    0    0  501  0.00000000000E+00  0.00000000000E+00 -0.63256398688E+03  0.63256398690E+03  0.50400001928E-02 0. -1.
    10030    2    1    2    0    0  0.00000000000E+00  0.00000000000E+00 -0.53504968538E+03  0.73007828853E+03  0.49672541867E+03 0.  0.
        2    1    3    3  502    0  0.56356207282E+02  0.11561672077E+03 -0.57980012730E+03  0.59389513877E+03  0.25500000920E-02 0. -1.
       -2    1    3    3    0  502 -0.56356207282E+02 -0.11561672077E+03  0.44750441924E+02  0.13618314976E+03  0.25500000920E-02 0.  1.
</event>
<event>
 5   0  0.3210875E-02  0.5010594E+03  0.7818609E-02  0.1013503E+00
        3   -1    0    0  501    0  0.00000000000E+00  0.00000000000E+00  0.63522817446E+02  0.63522897740E+02  0.10100000352E+00 0.  1.
       -3   -1    0    0    0  501  0.00000000000E+00  0.00000000000E+00 -0.98807133042E+03  0.98807133558E+03  0.10100000352E+00 0. -1.
    10030    2    1    2    0    0  0.00000000000E+00  0.00000000000E+00 -0.92454851297E+03  0.10515942333E+04  0.50105935648E+03 0.  0.
        1    1    3    3  502    0  0.91684600108E+02 -0.15246636487E+03 -0.83246912307E+03  0.85126781873E+03  0.50400001928E-02 0. -1.
       -1    1    3    3    0  502 -0.91684600108E+02  0.15246636487E+03 -0.92079389905E+02  0.20032641459E+03  0.50400001928E-02 0.  1.
</event>
<event>
 5   0  0.4803890E-02  0.4975537E+03  0.7818609E-02  0.1014419E+00
        1   -1    0    0  501    0  0.00000000000E+00  0.00000000000E+00  0.88322785912E+03  0.88322785913E+03  0.50400001928E-02 0.  1.
       -1   -1    0    0    0  501  0.00000000000E+00  0.00000000000E+00 -0.70072436939E+02  0.70072437120E+02  0.50400001928E-02 0. -1.
    10030    2    1    2    0    0  0.00000000000E+00  0.00000000000E+00  0.81315542218E+03  0.95330029625E+03  0.49755372998E+03 0.  0.
        5    1    3    3  502    0  0.20158977792E+03  0.84061739725E+02  0.63459497801E+03  0.67114654940E+03  0.46999998093E+01 0.  1.
       -5    1    3    3    0  502 -0.20158977792E+03 -0.84061739725E+02  0.17856044416E+03  0.28215374685E+03  0.46999998093E+01 0. -1.
</event>
<event>
 5   0  0.7698747E-02  0.5101815E+03  0.7818609E-02  0.1011155E+00
        2   -1    0    0  501    0  0.00000000000E+00  0.00000000000E+00  0.55099726488E+03  0.55099726489E+03  0.25500000920E-02 0.  1.
       -2   -1    0    0    0  501  0.00000000000E+00  0.00000000000E+00 -0.11809729575E+03  0.11809729578E+03  0.25500000920E-02 0. -1.
    10030    2    1    2    0    0  0.00000000000E+00  0.00000000000E+00  0.43289996913E+03  0.66909456067E+03  0.51018148520E+03 0.  0.
        2    1    3    3  502    0  0.21488369294E+03 -0.45849645960E+01  0.39663111939E+03  0.45112334041E+03  0.25500000920E-02 0. -1.
       -2    1    3    3    0  502 -0.21488369294E+03  0.45849645960E+01  0.36268849744E+02  0.21797122026E+03  0.25500000920E-02 0.  1.
</event>
<event>
 5   0  0.7698747E-02  0.4986188E+03  0.7818609E-02  0.1014140E+00
       -2   -1    0    0    0  501  0.00000000000E+00  0.00000000000E+00  0.10122310631E+03  0.10122310634E+03  0.25500000920E-02 0. -1.
        2   -1    0    0  501    0  0.00000000000E+00  0.00000000000E+00 -0.61404145503E+03  0.61404145503E+03  0.25500000920E-02 0.  1.
    10030    2    1    2    0    0  0.00000000000E+00  0.00000000000E+00 -0.51281834871E+03  0.71526456138E+03  0.49861882634E+03 0.  0.
        2    1    3    3  502    0  0.44872018137E+02 -0.24382520007E+03 -0.21870203056E+03  0.33059764726E+03  0.25500000920E-02 0. -1.
       -2    1    3    3    0  502 -0.44872018137E+02  0.24382520007E+03 -0.29411631816E+03  0.38466691411E+03  0.25500000920E-02 0.  1.
</event>
<event>
 5   0  0.4884478E-02  0.5032197E+03  0.7818609E-02  0.1012942E+00
        1   -1    0    0  501    0  0.00000000000E+00  0.00000000000E+00  0.26265064149E+03  0.26265064154E+03  0.50400001928E-02 0. -1.
       -1   -1    0    0    0  501  0.00000000000E+00  0.00000000000E+00 -0.24103315438E+03  0.24103315444E+03  0.50400001928E-02 0.  1.
    10030    2    1    2    0    0  0.00000000000E+00  0.00000000000E+00  0.21617487107E+02  0.50368379598E+03  0.50321968421E+03 0.  0.
        3    1    3    3  502    0 -0.18484214840E+03  0.17029319741E+03 -0.10811655951E+01  0.25133159776E+03  0.10100000352E+00 0.  1.
       -3    1    3    3    0  502  0.18484214840E+03 -0.17029319741E+03  0.22698652702E+02  0.25235219822E+03  0.10100000352E+00 0. -1.
</event>
<event>
 5   0  0.7776070E-02  0.4978707E+03  0.7818609E-02  0.1014336E+00
       -2   -1    0    0    0  501  0.00000000000E+00  0.00000000000E+00  0.33955314935E+02  0.33955315031E+02  0.25500000920E-02 0. -1.
        2   -1    0    0  501    0  0.00000000000E+00  0.00000000000E+00 -0.18250106253E+04  0.18250106253E+04  0.25500000920E-02 0.  1.
    10030    2    1    2    0    0  0.00000000000E+00  0.00000000000E+00 -0.17910553104E+04  0.18589659403E+04  0.49787070865E+03 0.  0.
        4    1    3    3  502    0  0.98504416670E+02 -0.17665649019E+03 -0.14373396177E+04  0.14515017827E+04  0.12699999809E+01 0.  1.
       -4    1    3    3    0  502 -0.98504416670E+02  0.17665649019E+03 -0.35371569265E+03  0.40746415763E+03  0.12699999809E+01 0. -1.
</event>
<event>
 5   0  0.5038436E-02  0.4992849E+03  0.7818609E-02  0.1013966E+00
       -1   -1    0    0    0  501  0.00000000000E+00  0.00000000000E+00  0.83523184942E+02  0.83523185094E+02  0.50400001928E-02 0. -1.
        1   -1    0    0  501    0  0.00000000000E+00  0.00000000000E+00 -0.74615642611E+03  0.74615642613E+03  0.50400001928E-02 0.  1.
    10030    2    1    2    0    0  0.00000000000E+00  0.00000000000E+00 -0.66263324117E+03  0.82967961122E+03  0.49928493366E+03 0.  0.
        1    1    3    3  502    0  0.51468217549E+02 -0.17115606872E+03 -0.62094521111E+03  0.64615503751E+03  0.50400001928E-02 0.  1.
       -1    1    3    3    0  502 -0.51468217549E+02  0.17115606872E+03 -0.41688030056E+02  0.18352457371E+03  0.50400001928E-02 0. -1.
</event>
<event>
 5   0  0.7698747E-02  0.4997246E+03  0.7818609E-02  0.1013851E+00
       -2   -1    0    0    0  501  0.00000000000E+00  0.00000000000E+00  0.10777100625E+03  0.10777100628E+03  0.25500000920E-02 0.  1.
        2   -1    0    0  501    0  0.00000000000E+00  0.00000000000E+00 -0.57929477958E+03  0.57929477959E+03  0.25500000920E-02 0. -1.
    10030    2    1    2    0    0  0.00000000000E+00  0.00000000000E+00 -0.47152377333E+03  0.68706578587E+03  0.49972464948E+03 0.  0.
        2    1    3    3  502    0 -0.13919820742E+03  0.86925776604E+02 -0.49480693933E+03  0.52131194002E+03  0.25500000920E-02 0. -1.
       -2    1    3    3    0  502  0.13919820742E+03 -0.86925776604E+02  0.23283166007E+02  0.16575384585E+03  0.25500000920E-02 0.  1.
</event>
<event>
 5   0  0.4884478E-02  0.5008210E+03  0.7818609E-02  0.1013565E+00
        1   -1    0    0  501    0  0.00000000000E+00  0.00000000000E+00  0.63424575776E+03  0.63424575778E+03  0.50400001928E-02 0. -1.
       -1   -1    0    0    0  501  0.00000000000E+00  0.00000000000E+00 -0.98866141433E+02  0.98866141561E+02  0.50400001928E-02 0.  1.
    10030    2    1    2    0    0  0.00000000000E+00  0.00000000000E+00  0.53537961633E+03  0.73311189934E+03  0.50082104925E+03 0.  0.
        3    1    3    3  502    0 -0.13136510259E+03  0.21318662096E+03  0.26723837370E+03  0.36622627448E+03  0.10100000352E+00 0.  1.
       -3    1    3    3    0  502  0.13136510259E+03 -0.21318662096E+03  0.26814124262E+03  0.36688562486E+03  0.10100000352E+00 0. -1.
</event>
<event>
 5   0  0.3210875E-02  0.5003879E+03  0.7818609E-02  0.1013678E+00
       -3   -1    0    0    0  501  0.00000000000E+00  0.00000000000E+00  0.94458229084E+02  0.94458283082E+02  0.10100000352E+00 0.  1.
        3   -1    0    0  501    0  0.00000000000E+00  0.00000000000E+00 -0.66269487257E+03  0.66269488027E+03  0.10100000352E+00 0. -1.
    10030    2    1    2    0    0  0.00000000000E+00  0.00000000000E+00 -0.56823664349E+03  0.75715316335E+03  0.50038787932E+03 0.  0.
        1    1    3    3  502    0 -0.52111204419E+01 -0.21471911600E+03 -0.89955927561E+02  0.23285945005E+03  0.50400001928E-02 0.  1.
       -1    1    3    3    0  502  0.52111204419E+01  0.21471911600E+03 -0.47828071593E+03  0.52429371330E+03  0.50400001928E-02 0. -1.
</event>
<event>
 5   0  0.7881060E-02  0.5022629E+03  0.7818609E-02  0.1013190E+00
       -2   -1    0    0    0  501  0.00000000000E+00  0.00000000000E+00  0.69220639875E+02  0.69220639922E+02  0.25500000920E-02 0. -1.
        2   -1    0    0  501    0  0.00000000000E+00  0.00000000000E+00 -0.91110130608E+03  0.91110130609E+03  0.25500000920E-02 0.  1.
    10030    2    1    2    0    0  0.00000000000E+00  0.00000000000E+00 -0.84188066621E+03  0.98032194601E+03  0.50226294079E+03 0.  0.
        1    1    3    3  502    0 -0.10926192506E+03  0.48863495219E+02  0.99688258910E+01  0.12010489977E+03  0.50400001928E-02 0. -1.
       -1    1    3    3    0  502  0.10926192506E+03 -0.48863495219E+02 -0.85184949210E+03  0.86021704624E+03  0.50400001928E-02 0.  1.
</event>
<event>
 5   0  0.7933103E-02  0.5072978E+03  0.7818609E-02  0.1011891E+00
        2   -1    0    0  501    0  0.00000000000E+00  0.00000000000E+00  0.21150382300E+03  0.21150382301E+03  0.25500000920E-02 0. -1.
       -2   -1    0    0    0  501  0.00000000000E+00  0.00000000000E+00 -0.30419201610E+03  0.30419201611E+03  0.25500000920E-02 0.  1.
    10030    2    1    2    0    0  0.00000000000E+00  0.00000000000E+00 -0.92688193109E+02  0.51569583913E+03  0.50729783890E+03 0.  0.
        5    1    3    3  502    0 -0.68391024863E+02 -0.69955916160E+02  0.19150469464E+03  0.21509835089E+03  0.46999998093E+01 0. -1.
       -5    1    3    3    0  502  0.68391024863E+02  0.69955916160E+02 -0.28419288775E+03  0.30059748824E+03  0.46999998093E+01 0.  1.
</event>
<event>
 5   0  0.5038436E-02  0.5022493E+03  0.7818609E-02  0.1013193E+00
       -1   -1    0    0    0  501  0.00000000000E+00  0.00000000000E+00  0.10953377053E+03  0.10953377065E+03  0.50400001928E-02 0. -1.
        1   -1    0    0  501    0  0.00000000000E+00  0.00000000000E+00 -0.57574559342E+03  0.57574559344E+03  0.50400001928E-02 0.  1.
    10030    2    1    2    0    0  0.00000000000E+00  0.00000000000E+00 -0.46621182289E+03  0.68527936409E+03  0.50224928378E+03 0.  0.
        1    1    3    3  502    0 -0.48794963603E+02  0.93872377602E+01  0.10275927654E+03  0.11414261977E+03  0.50400001928E-02 0. -1.
       -1    1    3    3    0  502  0.48794963603E+02 -0.93872377602E+01 -0.56897109943E+03  0.57113674433E+03  0.50400001928E-02 0.  1.
</event>
<event>
 5   0  0.4865501E-02  0.5047759E+03  0.7818609E-02  0.1012540E+00
        1   -1    0    0  501    0  0.00000000000E+00  0.00000000000E+00  0.79075205478E+03  0.79075205480E+03  0.50400001928E-02 0.  1.
       -1   -1    0    0    0  501  0.00000000000E+00  0.00000000000E+00 -0.80555800920E+02  0.80555801077E+02  0.50400001928E-02 0. -1.
    10030    2    1    2    0    0  0.00000000000E+00  0.00000000000E+00  0.71019625386E+03  0.87130785587E+03  0.50477585195E+03 0.  0.
        2    1    3    3  502    0  0.19426568146E+03  0.51137234011E+02  0.61883726863E+03  0.65062565024E+03  0.25500000920E-02 0.  1.
       -2    1    3    3    0  502 -0.19426568146E+03 -0.51137234011E+02  0.91358985226E+02  0.22068220563E+03  0.25500000920E-02 0. -1.
</event>
<event>
 5   0  0.5191358E-02  0.5000488E+03  0.7818609E-02  0.1013766E+00
       -1   -1    0    0    0  501  0.00000000000E+00  0.00000000000E+00  0.49423887920E+02  0.49423888177E+02  0.50400001928E-02 0. -1.
        1   -1    0    0  501    0  0.00000000000E+00  0.00000000000E+00 -0.12648177878E+04  0.12648177878E+04  0.50400001928E-02 0.  1.
    10030    2    1    2    0    0  0.00000000000E+00  0.00000000000E+00 -0.12153938999E+04  0.13142416760E+04  0.50004884865E+03 0.  0.
        4    1    3    3  502    0  0.14645208846E+03 -0.18025522222E+03 -0.36438447543E+03  0.43210857222E+03  0.12699999809E+01 0. -1.
       -4    1    3    3    0  502 -0.14645208846E+03  0.18025522222E+03 -0.85100942443E+03  0.88213310374E+03  0.12699999809E+01 0.  1.
</event>
<event>
 5   0  0.7698747E-02  0.4947780E+03  0.7818609E-02  0.1015151E+00
       -2   -1    0    0    0  501  0.00000000000E+00  0.00000000000E+00  0.65313699523E+02  0.65313699573E+02  0.25500000920E-02 0. -1.
        2   -1    0    0  501    0  0.00000000000E+00  0.00000000000E+00 -0.93703658944E+03  0.93703658944E+03  0.25500000920E-02 0.  1.
    10030    2    1    2    0    0  0.00000000000E+00  0.00000000000E+00 -0.87172288992E+03  0.10023502890E+04  0.49477803618E+03 0.  0.
        2    1    3    3  502    0  0.26550883276E+02  0.22784127422E+03 -0.24815791349E+03  0.33793334502E+03  0.25500000920E-02 0. -1.
       -2    1    3    3    0  502 -0.26550883276E+02 -0.22784127422E+03 -0.62356497643E+03  0.66441694400E+03  0.25500000920E-02 0.  1.
</event>
<event>
 5   0  0.7698747E-02  0.5011423E+03  0.7818609E-02  0.1013481E+00
       -2   -1    0    0    0  501  0.00000000000E+00  0.00000000000E+00  0.81381733366E+02  0.81381733406E+02  0.25500000920E-02 0. -1.
        2   -1    0    0  501    0  0.00000000000E+00  0.00000000000E+00 -0.77149876378E+03  0.77149876378E+03  0.25500000920E-02 0.  1.
    10030    2    1    2    0    0  0.00000000000E+00  0.00000000000E+00 -0.69011703041E+03  0.85288049719E+03  0.50114232192E+03 0.  0.
        2    1    3    3  502    0  0.11552239371E+03  0.20885037564E+03 -0.47491491159E+03  0.53151488794E+03  0.25500000920E-02 0. -1.
       -2    1    3    3    0  502 -0.11552239371E+03 -0.20885037564E+03 -0.21520211882E+03  0.32136560924E+03  0.25500000920E-02 0.  1.
</event>
<event>
 5   0  0.7776070E-02  0.4967073E+03  0.7818609E-02  0.1014642E+00
       -2   -1    0    0    0  501  0.00000000000E+00  0.00000000000E+00  0.71525866721E+02  0.71525866766E+02  0.25500000920E-02 0.  1.
        2   -1    0    0  501    0  0.00000000000E+00  0.00000000000E+00 -0.86233879341E+03  0.86233879342E+03  0.25500000920E-02 0. -1.
    10030    2    1    2    0    0  0.00000000000E+00  0.00000000000E+00 -0.79081292669E+03  0.93386466018E+03  0.49670727649E+03 0.  0.
        4    1    3    3  502    0 -0.77105947828E+02  0.75530730048E+02 -0.81592842339E+03  0.82303768041E+03  0.12699999809E+01 0. -1.
       -4    1    3    3    0  502  0.77105947828E+02 -0.75530730048E+02  0.25115496698E+02  0.11082697978E+03  0.12699999809E+01 0.  1.
</event>
<event>
 5   0  0.3210875E-02  0.5028744E+03  0.7818609E-02  0.1013031E+00
       -3   -1    0    0    0  501  0.00000000000E+00  0.00000000000E+00  0.65082656241E+03  0.65082657025E+03  0.10100000352E+00 0.  1.
        3   -1    0    0  501    0  0.00000000000E+00  0.00000000000E+00 -0.97138995727E+02  0.97139048234E+02  0.10100000352E+00 0. -1.
    10030    2    1    2    0    0  0.00000000000E+00  0.00000000000E+00  0.55368756669E+03  0.74796561849E+03  0.50287438286E+03 0.  0.
        3    1    3    3  502    0  0.23990526946E+02  0.17386432493E+03  0.54463964326E+03  0.57222084904E+03  0.10100000352E+00 0.  1.
       -3    1    3    3    0  502 -0.23990526946E+02 -0.17386432493E+03  0.90479234237E+01  0.17574476944E+03  0.10100000352E+00 0. -1.
</event>
<event>
 5   0  0.7933103E-02  0.5039710E+03  0.7818609E-02  0.1012748E+00
       -2   -1    0    0    0  501  0.00000000000E+00  0.00000000000E+00  0.26316163298E+03  0.26316163299E+03  0.25500000920E-02 0.  1.
        2   -1    0    0  501    0  0.00000000000E+00  0.00000000000E+00 -0.24128400291E+03  0.24128400293E+03  0.25500000920E-02 0. -1.
    10030    2    1    2    0    0  0.00000000000E+00  0.00000000000E+00  0.21877630063E+02  0.50444563592E+03  0.50397100006E+03 0.  0.
        5    1    3    3  502    0 -0.24162784158E+03  0.21598657356E+02  0.79003492773E+02  0.25517475913E+03  0.46999998093E+01 0.  1.
       -5    1    3    3    0  502  0.24162784158E+03 -0.21598657356E+02 -0.57125862710E+02  0.24927087679E+03  0.46999998093E+01 0. -1.
</event>
<event>
 5   0  0.7698747E-02  0.5010868E+03  0.7818609E-02  0.1013496E+00
       -2   -1    0    0    0  501  0.00000000000E+00  0.00000000000E+00  0.11007780323E+03  0.11007780326E+03  0.25500000920E-02 0.  1.
        2   -1    0    0  501    0  0.00000000000E+00  0.00000000000E+00 -0.57025122231E+03  0.57025122232E+03  0.25500000920E-02 0. -1.
    10030    2    1    2    0    0  0.00000000000E+00  0.00000000000E+00 -0.46017341908E+03  0.68032902558E+03  0.50108682623E+03 0.  0.
        2    1    3    3  502    0  0.55222926855E+02 -0.13943989116E+03  0.42399839622E+02  0.15585506506E+03  0.25500000920E-02 0.  1.
       -2    1    3    3    0  502 -0.55222926855E+02  0.13943989116E+03 -0.50257325871E+03  0.52447396053E+03  0.25500000920E-02 0. -1.
</event>
<event>
 5   0  0.7881060E-02  0.4840763E+03  0.7818609E-02  0.1018021E+00
        2   -1    0    0  501    0  0.00000000000E+00  0.00000000000E+00  0.56339301886E+03  0.56339301886E+03  0.25500000920E-02 0. -1.
       -2   -1    0    0    0  501  0.00000000000E+00  0.00000000000E+00 -0.10398154721E+03  0.10398154724E+03  0.25500000920E-02 0.  1.
    10030    2    1    2    0    0  0.00000000000E+00  0.00000000000E+00  0.45941147165E+03  0.66737456610E+03  0.48407634853E+03 0.  0.
        1    1    3    3  502    0  0.21868013019E+03  0.10256196711E+03  0.25117567257E+03  0.34846689219E+03  0.50400001928E-02 0.  1.
       -1    1    3    3    0  502 -0.21868013019E+03 -0.10256196711E+03  0.20823579908E+03  0.31890767391E+03  0.50400001928E-02 0. -1.
</event>
<event>
 5   0  0.7776070E-02  0.4979952E+03  0.7818609E-02  0.1014304E+00
       -2   -1    0    0    0  501  0.00000000000E+00  0.00000000000E+00  0.59372406979E+02  0.59372407034E+02  0.25500000920E-02 0. -1.
        2   -1    0    0  501    0  0.00000000000E+00  0.00000000000E+00 -0.10442527474E+04  0.10442527474E+04  0.25500000920E-02 0.  1.
    10030    2    1    2    0    0  0.00000000000E+00  0.00000000000E+00 -0.98488034044E+03  0.11036251545E+04  0.49799517725E+03 0.  0.
        4    1    3    3  502    0  0.23645303295E+03 -0.23287331392E+02 -0.65747685811E+03  0.69909210298E+03  0.12699999809E+01 0.  1.
       -4    1    3    3    0  502 -0.23645303295E+03  0.23287331392E+02 -0.32740348232E+03  0.40453305147E+03  0.12699999809E+01 0. -1.
</event>
<event>
 5   0  0.7776070E-02  0.5050901E+03  0.7818609E-02  0.1012459E+00
        2   -1    0    0  501    0  0.00000000000E+00  0.00000000000E+00  0.54678201409E+03  0.54678201410E+03  0.25500000920E-02 0.  1.
       -2   -1    0    0    0  501  0.00000000000E+00  0.00000000000E+00 -0.11664428734E+03  0.11664428737E+03  0.25500000920E-02 0. -1.
    10030    2    1    2    0    0  0.00000000000E+00  0.00000000000E+00  0.43013772675E+03  0.66342630147E+03  0.50509008454E+03 0.  0.
        4    1    3    3  502    0 -0.22529023245E+03 -0.11166739727E+03  0.24593117127E+03  0.35172297387E+03  0.12699999809E+01 0.  1.
       -4    1    3    3    0  502  0.22529023245E+03  0.11166739727E+03  0.18420655548E+03  0.31170332759E+03  0.12699999809E+01 0. -1.
</event>
<event>
 5   0  0.7933103E-02  0.4972402E+03  0.7818609E-02  0.1014502E+00
       -2   -1    0    0    0  501  0.00000000000E+00  0.00000000000E+00  0.81032141445E+02  0.81032141486E+02  0.25500000920E-02 0.  1.
        2   -1    0    0  501    0  0.00000000000E+00  0.00000000000E+00 -0.76280791977E+03  0.76280791978E+03  0.25500000920E-02 0. -1.
    10030    2    1    2    0    0  0.00000000000E+00  0.00000000000E+00 -0.68177577833E+03  0.84384006126E+03  0.49724022070E+03 0.  0.
        5    1    3    3  502    0  0.12958567090E+03  0.97733417673E+00 -0.70087180897E+03  0.71276699130E+03  0.46999998093E+01 0. -1.
       -5    1    3    3    0  502 -0.12958567090E+03 -0.97733417673E+00  0.19096030641E+02  0.13107306996E+03  0.46999998093E+01 0.  1.
</event>
<event>
 5   0  0.4865501E-02  0.5058404E+03  0.7818609E-02  0.1012266E+00
       -1   -1    0    0    0  501  0.00000000000E+00  0.00000000000E+00  0.16339945658E+03  0.16339945665E+03  0.50400001928E-02 0.  1.
        1   -1    0    0  501    0  0.00000000000E+00  0.00000000000E+00 -0.39148622957E+03  0.39148622960E+03  0.50400001928E-02 0. -1.
    10030    2    1    2    0    0  0.00000000000E+00  0.00000000000E+00 -0.22808677299E+03  0.55488568626E+03  0.50584043808E+03 0.  0.
        2    1    3    3  502    0 -0.55391987519E+00 -0.11776999947E+03 -0.35957226951E+03  0.37836793813E+03  0.25500000920E-02 0. -1.
       -2    1    3    3    0  502  0.55391987519E+00  0.11776999947E+03  0.13148549651E+03  0.17651774812E+03  0.25500000920E-02 0.  1.
</event>
<event>
 5   0  0.7933103E-02  0.5039653E+03  0.7818609E-02  0.1012749E+00
       -2   -1    0    0    0  501  0.00000000000E+00  0.00000000000E+00  0.54744562929E+02  0.54744562988E+02  0.25500000920E-02 0.  1.
        2   -1    0    0  501    0  0.00000000000E+00  0.00000000000E+00 -0.11598460665E+04  0.11598460665E+04  0.25500000920E-02 0. -1.
    10030    2    1    2    0    0  0.00000000000E+00  0.00000000000E+00 -0.11051015036E+04  0.12145906295E+04  0.50396534014E+03 0.  0.
        5    1    3    3  502    0  0.66250698978E+02  0.13607192647E+03 -0.67124260181E+02  0.16562753573E+03  0.46999998093E+01 0.  1.
       -5    1    3    3    0  502 -0.66250698978E+02 -0.13607192647E+03 -0.10379772434E+04  0.10489630938E+04  0.46999998093E+01 0. -1.
</event>
<event>
 5   0  0.8208720E-02  0.5142830E+03  0.7818609E-02  0.1010117E+00
       -2   -1    0    0    0  501  0.00000000000E+00  0.00000000000E+00  0.18944670978E+03  0.18944670980E+03  0.25500000920E-02 0.  1.
        2   -1    0    0  501    0  0.00000000000E+00  0.00000000000E+00 -0.34902562562E+03  0.34902562563E+03  0.25500000920E-02 0. -1.
    10030    2    1    2    0    0  0.00000000000E+00  0.00000000000E+00 -0.15957891584E+03  0.53847233543E+03  0.51428302095E+03 0.  0.
        3    1    3    3  502    0  0.15102621826E+03 -0.20807304044E+03 -0.84285306460E+02  0.27056853447E+03  0.10100000352E+00 0. -1.
       -3    1    3    3    0  502 -0.15102621826E+03  0.20807304044E+03 -0.75293609376E+02  0.26790380096E+03  0.10100000352E+00 0.  1.
</event>
<event>
 5   0  0.3210875E-02  0.5181139E+03  0.7818609E-02  0.1009156E+00
       -4   -1    0    0    0  501  0.00000000000E+00  0.00000000000E+00  0.48151273062E+03  0.48151440544E+03  0.12699999809E+01 0.  1.
        4   -1    0    0  501    0  0.00000000000E+00  0.00000000000E+00 -0.13936948587E+03  0.13937527217E+03  0.12699999809E+01 0. -1.
    10030    2    1    2    0    0  0.00000000000E+00  0.00000000000E+00  0.34214324475E+03  0.62088967761E+03  0.51811387922E+03 0.  0.
        2    1    3    3  502    0 -0.58441631634E+02 -0.16241250541E+03  0.40256791458E+03  0.43801161181E+03  0.25500000920E-02 0.  1.
       -2    1    3    3    0  502  0.58441631634E+02  0.16241250541E+03 -0.60424669830E+02  0.18287806580E+03  0.25500000920E-02 0. -1.
</event>
<event>
 5   0  0.5191358E-02  0.4996068E+03  0.7818609E-02  0.1013882E+00
       -1   -1    0    0    0  501  0.00000000000E+00  0.00000000000E+00  0.74179795162E+02  0.74179795334E+02  0.50400001928E-02 0.  1.
        1   -1    0    0  501    0  0.00000000000E+00  0.00000000000E+00 -0.84122297473E+03  0.84122297474E+03  0.50400001928E-02 0. -1.
    10030    2    1    2    0    0  0.00000000000E+00  0.00000000000E+00 -0.76704317956E+03  0.91540277007E+03  0.49960683757E+03 0.  0.
        4    1    3    3  502    0  0.63815607694E+02 -0.14958208051E+03 -0.73093840892E+03  0.74881226027E+03  0.12699999809E+01 0. -1.
       -4    1    3    3    0  502 -0.63815607694E+02  0.14958208051E+03 -0.36104770641E+02  0.16659050980E+03  0.12699999809E+01 0.  1.
</event>
<event>
 5   0  0.4803890E-02  0.5000860E+03  0.7818609E-02  0.1013756E+00
       -1   -1    0    0    0  501  0.00000000000E+00  0.00000000000E+00  0.44852004192E+02  0.44852004476E+02  0.50400001928E-02 0.  1.
        1   -1    0    0  501    0  0.00000000000E+00  0.00000000000E+00 -0.13939512052E+04  0.13939512052E+04  0.50400001928E-02 0. -1.
    10030    2    1    2    0    0  0.00000000000E+00  0.00000000000E+00 -0.13490992010E+04  0.14388032097E+04  0.50008601464E+03 0.  0.
        5    1    3    3  502    0  0.19939568650E+03  0.12950481339E+03 -0.89683842470E+03  0.92783155072E+03  0.46999998093E+01 0. -1.
       -5    1    3    3    0  502 -0.19939568650E+03 -0.12950481339E+03 -0.45226077629E+03  0.51097165895E+03  0.46999998093E+01 0.  1.
</event>
<event>
 5   0  0.4803890E-02  0.5094035E+03  0.7818609E-02  0.1011353E+00
       -1   -1    0    0    0  501  0.00000000000E+00  0.00000000000E+00  0.46666593966E+02  0.46666594238E+02  0.50400001928E-02 0. -1.
        1   -1    0    0  501    0  0.00000000000E+00  0.00000000000E+00 -0.13901372701E+04  0.13901372701E+04  0.50400001928E-02 0.  1.
    10030    2    1    2    0    0  0.00000000000E+00  0.00000000000E+00 -0.13434706761E+04  0.14368038643E+04  0.50940346187E+03 0.  0.
        5    1    3    3  502    0  0.14343633768E+03  0.10510789881E+03 -0.11858923034E+04  0.11991598303E+04  0.46999998093E+01 0.  1.
       -5    1    3    3    0  502 -0.14343633768E+03 -0.10510789881E+03 -0.15757837270E+03  0.23764403401E+03  0.46999998093E+01 0. -1.
</event>
<event>
 5   0  0.3210875E-02  0.4978987E+03  0.7818609E-02  0.1014329E+00
        3   -1    0    0  501    0  0.00000000000E+00  0.00000000000E+00  0.45643461398E+03  0.45643462516E+03  0.10100000352E+00 0. -1.
       -3   -1    0    0    0  501  0.00000000000E+00  0.00000000000E+00 -0.13578234108E+03  0.13578237865E+03  0.10100000352E+00 0.  1.
    10030    2    1    2    0    0  0.00000000000E+00  0.00000000000E+00  0.32065227290E+03  0.59221700380E+03  0.49789868395E+03 0.  0.
        5    1    3    3  502    0  0.12619438260E+02 -0.20710855418E+02 -0.13432085819E+03  0.13657368962E+03  0.46999998093E+01 0.  1.
       -5    1    3    3    0  502 -0.12619438260E+02  0.20710855418E+02  0.45497313108E+03  0.45564331418E+03  0.46999998093E+01 0. -1.
</event>
<event>
 5   0  0.3210875E-02  0.4965586E+03  0.7818609E-02  0.1014681E+00
        3   -1    0    0  501    0  0.00000000000E+00  0.00000000000E+00  0.88850606433E+03  0.88850607007E+03  0.10100000352E+00 0. -1.
       -3   -1    0    0    0  501  0.00000000000E+00  0.00000000000E+00 -0.69377772762E+02  0.69377846280E+02  0.10100000352E+00 0.  1.
    10030    2    1    2    0    0  0.00000000000E+00  0.00000000000E+00  0.81912829157E+03  0.95788391635E+03  0.49655859589E+03 0.  0.
        4    1    3    3  502    0  0.16243594838E+03  0.74025450669E+02  0.76694618381E+02  0.19429071532E+03  0.12699999809E+01 0.  1.
       -4    1    3    3    0  502 -0.16243594838E+03 -0.74025450669E+02  0.74243367319E+03  0.76359320103E+03  0.12699999809E+01 0. -1.
</event>
<event>
 5   0  0.7881060E-02  0.4986938E+03  0.7818609E-02  0.1014120E+00
        2   -1    0    0  501    0  0.00000000000E+00  0.00000000000E+00  0.19714494475E+04  0.19714494475E+04  0.25500000920E-02 0. -1.
       -2   -1    0    0    0  501  0.00000000000E+00  0.00000000000E+00 -0.31537136338E+02  0.31537136441E+02  0.25500000920E-02 0.  1.
    10030    2    1    2    0    0  0.00000000000E+00  0.00000000000E+00  0.19399123112E+04  0.20029865840E+04  0.49869377424E+03 0.  0.
        1    1    3    3  502    0  0.99737699371E+02  0.16634962086E+03  0.15993258039E+04  0.16110440193E+04  0.50400001928E-02 0. -1.
       -1    1    3    3    0  502 -0.99737699371E+02 -0.16634962086E+03  0.34058650729E+03  0.39194256469E+03  0.50400001928E-02 0.  1.
</event>
<event>
 5   0  0.7881060E-02  0.4994370E+03  0.7818609E-02  0.1013926E+00
        2   -1    0    0  501    0  0.00000000000E+00  0.00000000000E+00  0.76441391449E+03  0.76441391450E+03  0.25500000920E-02 0. -1.
       -2   -1    0    0    0  501  0.00000000000E+00  0.00000000000E+00 -0.81577968519E+02  0.81577968559E+02  0.25500000920E-02 0.  1.
    10030    2    1    2    0    0  0.00000000000E+00  0.00000000000E+00  0.68283594597E+03  0.84599188306E+03  0.49943702014E+03 0.  0.
        1    1    3    3  502    0 -0.18129937481E+01  0.56308781368E+02  0.75350851136E+03  0.75561170089E+03  0.50400001928E-02 0. -1.
       -1    1    3    3    0  502  0.18129937481E+01 -0.56308781368E+02 -0.70672565384E+02  0.90380182168E+02  0.50400001928E-02 0.  1.
</event>
<event>
 5   0  0.5191358E-02  0.4998892E+03  0.7818609E-02  0.1013808E+00
        1   -1    0    0  501    0  0.00000000000E+00  0.00000000000E+00  0.25272228396E+03  0.25272228401E+03  0.50400001928E-02 0.  1.
       -1   -1    0    0    0  501  0.00000000000E+00  0.00000000000E+00 -0.24719742147E+03  0.24719742152E+03  0.50400001928E-02 0. -1.
    10030    2    1    2    0    0  0.00000000000E+00  0.00000000000E+00  0.55248624888E+01  0.49991970554E+03  0.49988917560E+03 0.  0.
        4    1    3    3  502    0 -0.88443017607E+02  0.18238362125E+03 -0.14348169193E+03  0.24834363588E+03  0.12699999809E+01 0. -1.
       -4    1    3    3    0  502  0.88443017607E+02 -0.18238362125E+03  0.14900655442E+03  0.25157606966E+03  0.12699999809E+01 0.  1.
</event>
<event>
 5   0  0.7698747E-02  0.5072937E+03  0.7818609E-02  0.1011892E+00
        2   -1    0    0  501    0  0.00000000000E+00  0.00000000000E+00  0.96202051907E+03  0.96202051908E+03  0.25500000920E-02 0. -1.
       -2   -1    0    0    0  501  0.00000000000E+00  0.00000000000E+00 -0.66876663561E+02  0.66876663610E+02  0.25500000920E-02 0.  1.
    10030    2    1    2    0    0  0.00000000000E+00  0.00000000000E+00  0.89514385551E+03  0.10288971827E+04  0.50729369253E+03 0.  0.
        2    1    3    3  502    0  0.14386727801E+03 -0.19108217735E+03  0.27635307315E+03  0.36548763759E+03  0.25500000920E-02 0.  1.
       -2    1    3    3    0  502 -0.14386727801E+03  0.19108217735E+03  0.61879078236E+03  0.66340954510E+03  0.25500000920E-02 0. -1.
</event>
<event>
 5   0  0.4803890E-02  0.5005079E+03  0.7818609E-02  0.1013646E+00
       -1   -1    0    0    0  501  0.00000000000E+00  0.00000000000E+00  0.88097985674E+03  0.88097985676E+03  0.50400001928E-02 0.  1.
        1   -1    0    0  501    0  0.00000000000E+00  0.00000000000E+00 -0.71087933727E+02  0.71087933906E+02  0.50400001928E-02 0. -1.
    10030    2    1    2    0    0  0.00000000000E+00  0.00000000000E+00  0.80989192302E+03  0.95206779067E+03  0.50050789310E+03 0.  0.
        5    1    3    3  502    0 -0.13398354548E+02  0.13707697540E+03  0.80229859684E+03  0.81404836562E+03  0.46999998093E+01 0.  1.
       -5    1    3    3    0  502  0.13398354548E+02 -0.13707697540E+03  0.75933261794E+01  0.13801942504E+03  0.46999998093E+01 0. -1.
</event>
<event>
 5   0  0.7933103E-02  0.4999250E+03  0.7818609E-02  0.1013798E+00
       -2   -1    0    0    0  501  0.00000000000E+00  0.00000000000E+00  0.10959160199E+03  0.10959160202E+03  0.25500000920E-02 0.  1.
        2   -1    0    0  501    0  0.00000000000E+00  0.00000000000E+00 -0.57012806108E+03  0.57012806108E+03  0.25500000920E-02 0. -1.
    10030    2    1    2    0    0  0.00000000000E+00  0.00000000000E+00 -0.46053645908E+03  0.67971966311E+03  0.49992498464E+03 0.  0.
        5    1    3    3  502    0 -0.16189665457E+03 -0.17237257967E+03 -0.34019204565E+03  0.41433748431E+03  0.46999998093E+01 0. -1.
       -5    1    3    3    0  502  0.16189665457E+03  0.17237257967E+03 -0.12034441343E+03  0.26538217880E+03  0.46999998093E+01 0.  1.
</event>
<event>
 5   0  0.7933103E-02  0.5146267E+03  0.7818609E-02  0.1010030E+00
        2   -1    0    0  501    0  0.00000000000E+00  0.00000000000E+00  0.52089630786E+02  0.52089630849E+02  0.25500000920E-02 0. -1.
       -2   -1    0    0    0  501  0.00000000000E+00  0.00000000000E+00 -0.12710814263E+04  0.12710814263E+04  0.25500000920E-02 0.  1.
    10030    2    1    2    0    0  0.00000000000E+00  0.00000000000E+00 -0.12189917955E+04  0.13231710572E+04  0.51462670836E+03 0.  0.
        5    1    3    3  502    0  0.23666937343E+03 -0.58592350919E+02 -0.39837175698E+03  0.46708414945E+03  0.46999998093E+01 0. -1.
       -5    1    3    3    0  502 -0.23666937343E+03  0.58592350919E+02 -0.82062003855E+03  0.85608690772E+03  0.46999998093E+01 0.  1.
</event>
<event>
 5   0  0.5038436E-02  0.5073107E+03  0.7818609E-02  0.1011888E+00
        1   -1    0    0  501    0  0.00000000000E+00  0.00000000000E+00  0.17149222193E+03  0.17149222200E+03  0.50400001928E-02 0. -1.
       -1   -1    0    0    0  501  0.00000000000E+00  0.00000000000E+00 -0.37518340850E+03  0.37518340853E+03  0.50400001928E-02 0.  1.
    10030    2    1    2    0    0  0.00000000000E+00  0.00000000000E+00 -0.20369118657E+03  0.54667563054E+03  0.50731069921E+03 0.  0.
        1    1    3    3  502    0  0.11030268915E+03  0.21543080933E+03 -0.18365714816E+03  0.30382077766E+03  0.50400001928E-02 0.  1.
       -1    1    3    3    0  502 -0.11030268915E+03 -0.21543080933E+03 -0.20034038406E+02  0.24285485287E+03  0.50400001928E-02 0. -1.
</event>
<event>
 5   0  0.4865501E-02  0.5003694E+03  0.7818609E-02  0.1013683E+00
       -1   -1    0    0    0  501  0.00000000000E+00  0.00000000000E+00  0.13849510853E+03  0.13849510862E+03  0.50400001928E-02 0.  1.
        1   -1    0    0  501    0  0.00000000000E+00  0.00000000000E+00 -0.45194651831E+03  0.45194651834E+03  0.50400001928E-02 0. -1.
    10030    2    1    2    0    0  0.00000000000E+00  0.00000000000E+00 -0.31345140978E+03  0.59044162696E+03  0.50036939211E+03 0.  0.
        2    1    3    3  502    0  0.18658208660E+03 -0.14713915894E+03 -0.64340715311E+02  0.24617582088E+03  0.25500000920E-02 0.  1.
       -2    1    3    3    0  502 -0.18658208660E+03  0.14713915894E+03 -0.24911069447E+03  0.34426580608E+03  0.25500000920E-02 0. -1.
</event>
<event>
 5   0  0.8208720E-02  0.4993778E+03  0.7818609E-02  0.1013941E+00
        2   -1    0    0  501    0  0.00000000000E+00  0.00000000000E+00  0.12554456311E+04  0.12554456311E+04  0.25500000920E-02 0.  1.
       -2   -1    0    0    0  501  0.00000000000E+00  0.00000000000E+00 -0.49659304310E+02  0.49659304375E+02  0.25500000920E-02 0. -1.
    10030    2    1    2    0    0  0.00000000000E+00  0.00000000000E+00  0.12057863268E+04  0.13051049355E+04  0.49937783965E+03 0.  0.
        3    1    3    3  502    0  0.88719505261E+02 -0.19932310190E+03  0.28555714882E+03  0.35936575380E+03  0.10100000352E+00 0. -1.
       -3    1    3    3    0  502 -0.88719505261E+02  0.19932310190E+03  0.92022917798E+03  0.94573918168E+03  0.10100000352E+00 0.  1.
</event>
<event>
 5   0  0.7881060E-02  0.4900899E+03  0.7818609E-02  0.1016398E+00
       -2   -1    0    0    0  501  0.00000000000E+00  0.00000000000E+00  0.32167628618E+02  0.32167628719E+02  0.25500000920E-02 0.  1.
        2   -1    0    0  501    0  0.00000000000E+00  0.00000000000E+00 -0.18666910358E+04  0.18666910358E+04  0.25500000920E-02 0. -1.
    10030    2    1    2    0    0  0.00000000000E+00  0.00000000000E+00 -0.18345234072E+04  0.18988586645E+04  0.49008988597E+03 0.  0.
        1    1    3    3  502    0 -0.19656892396E+02 -0.49327938463E+02  0.96083522065E+01  0.53962573967E+02  0.50400001928E-02 0.  1.
       -1    1    3    3    0  502  0.19656892396E+02  0.49327938463E+02 -0.18441317594E+04  0.18448960905E+04  0.50400001928E-02 0. -1.
</event>
<event>
 5   0  0.7933103E-02  0.4988413E+03  0.7818609E-02  0.1014082E+00
       -2   -1    0    0    0  501  0.00000000000E+00  0.00000000000E+00  0.10579070276E+03  0.10579070279E+03  0.25500000920E-02 0.  1.
        2   -1    0    0  501    0  0.00000000000E+00  0.00000000000E+00 -0.58805419075E+03  0.58805419076E+03  0.25500000920E-02 0. -1.
    10030    2    1    2    0    0  0.00000000000E+00  0.00000000000E+00 -0.48226348799E+03  0.69384489355E+03  0.49884132192E+03 0.  0.
        5    1    3    3  502    0  0.11333650671E+03  0.21636911787E+03 -0.31106323802E+03  0.39552899637E+03  0.46999998093E+01 0. -1.
       -5    1    3    3    0  502 -0.11333650671E+03 -0.21636911787E+03 -0.17120024997E+03  0.29831589718E+03  0.46999998093E+01 0.  1.
</event>
<event>
 5   0  0.3210875E-02  0.4876625E+03  0.7818609E-02  0.1017050E+00
        4   -1    0    0  501    0  0.00000000000E+00  0.00000000000E+00  0.55701433147E+03  0.55701577927E+03  0.12699999809E+01 0. -1.
       -4   -1    0    0    0  501  0.00000000000E+00  0.00000000000E+00 -0.10673098638E+03  0.10673854203E+03  0.12699999809E+01 0.  1.
    10030    2    1    2    0    0  0.00000000000E+00  0.00000000000E+00  0.45028334509E+03  0.66375432130E+03  0.48766249413E+03 0.  0.
        2    1    3    3  502    0  0.85360319024E+02 -0.13098106205E+01 -0.85729187922E+02  0.12098592206E+03  0.25500000920E-02 0.  1.
       -2    1    3    3    0  502 -0.85360319024E+02  0.13098106205E+01  0.53601253301E+03  0.54276839924E+03  0.25500000920E-02 0. -1.
</event>
<event>
 5   0  0.8208720E-02  0.4994362E+03  0.7818609E-02  0.1013926E+00
        2   -1    0    0  501    0  0.00000000000E+00  0.00000000000E+00  0.21931888504E+04  0.21931888504E+04  0.25500000920E-02 0.  1.
       -2   -1    0    0    0  501  0.00000000000E+00  0.00000000000E+00 -0.28433084320E+02  0.28433084434E+02  0.25500000920E-02 0. -1.
    10030    2    1    2    0    0  0.00000000000E+00  0.00000000000E+00  0.21647557661E+04  0.22216219349E+04  0.49943617667E+03 0.  0.
        3    1    3    3  502    0 -0.15478148678E+03 -0.19070178493E+02  0.21481741536E+03  0.26545717639E+03  0.10100000352E+00 0. -1.
       -3    1    3    3    0  502  0.15478148678E+03  0.19070178493E+02  0.19499383507E+04  0.19561647585E+04  0.10100000352E+00 0.  1.
</event>
<event>
 5   0  0.7776070E-02  0.4935219E+03  0.7818609E-02  0.1015484E+00
       -2   -1    0    0    0  501  0.00000000000E+00  0.00000000000E+00  0.44424906702E+03  0.44424906703E+03  0.25500000920E-02 0. -1.
        2   -1    0    0  501    0  0.00000000000E+00  0.00000000000E+00 -0.13706492820E+03  0.13706492823E+03  0.25500000920E-02 0.  1.
    10030    2    1    2    0    0  0.00000000000E+00  0.00000000000E+00  0.30718413881E+03  0.58131399525E+03  0.49352190016E+03 0.  0.
        4    1    3    3  502    0  0.14176673908E+02 -0.20604433083E+03  0.31264681287E+03  0.37470640087E+03  0.12699999809E+01 0. -1.
       -4    1    3    3    0  502 -0.14176673908E+02  0.20604433083E+03 -0.54626740586E+01  0.20660759439E+03  0.12699999809E+01 0.  1.
</event>
<event>
 5   0  0.4803890E-02  0.5013366E+03  0.7818609E-02  0.1013431E+00
       -1   -1    0    0    0  501  0.00000000000E+00  0.00000000000E+00  0.68945243900E+02  0.68945244084E+02  0.50400001928E-02 0.  1.
        1   -1    0    0  501    0  0.00000000000E+00  0.00000000000E+00 -0.91136962444E+03  0.91136962445E+03  0.50400001928E-02 0. -1.
    10030    2    1    2    0    0  0.00000000000E+00  0.00000000000E+00 -0.84242438054E+03  0.98031486854E+03  0.50133661800E+03 0.  0.
        5    1    3    3  502    0 -0.11265048488E+02  0.24369050224E+03 -0.30887352718E+03  0.39362025861E+03  0.46999998093E+01 0.  1.
       -5    1    3    3    0  502  0.11265048488E+02 -0.24369050224E+03 -0.53355085336E+03  0.58669460993E+03  0.46999998093E+01 0. -1.
</event>
<event>
 5   0  0.8208720E-02  0.5001400E+03  0.7818609E-02  0.1013742E+00
        2   -1    0    0  501    0  0.00000000000E+00  0.00000000000E+00  0.73054422058E+03  0.73054422059E+03  0.25500000920E-02 0. -1.
       -2   -1    0    0    0  501  0.00000000000E+00  0.00000000000E+00 -0.85600589639E+02  0.85600589677E+02  0.25500000920E-02 0.  1.
    10030    2    1    2    0    0  0.00000000000E+00  0.00000000000E+00  0.64494363094E+03  0.81614481026E+03  0.50014004461E+03 0.  0.
        3    1    3    3  502    0  0.55538128857E+02  0.19158839469E+03  0.76371072855E+02  0.21359575770E+03  0.10100000352E+00 0.  1.
       -3    1    3    3    0  502 -0.55538128857E+02 -0.19158839469E+03  0.56857255809E+03  0.60254905257E+03  0.10100000352E+00 0. -1.
</event>
<event>
 5   0  0.7776070E-02  0.4966824E+03  0.7818609E-02  0.1014648E+00
        2   -1    0    0  501    0  0.00000000000E+00  0.00000000000E+00  0.88101617201E+03  0.88101617201E+03  0.25500000920E-02 0.  1.
       -2   -1    0    0    0  501  0.00000000000E+00  0.00000000000E+00 -0.70002520898E+02  0.70002520945E+02  0.25500000920E-02 0. -1.
    10030    2    1    2    0    0  0.00000000000E+00  0.00000000000E+00  0.81101365111E+03  0.95101869296E+03  0.49668240563E+03 0.  0.
        4    1    3    3  502    0  0.69928416351E+02 -0.17944979416E+03  0.70569739705E+03  0.73150710259E+03  0.12699999809E+01 0.  1.
       -4    1    3    3    0  502 -0.69928416351E+02  0.17944979416E+03  0.10531625406E+03  0.21951159036E+03  0.12699999809E+01 0. -1.
</event>
<event>
 5   0  0.7881060E-02  0.5005858E+03  0.7818609E-02  0.1013626E+00
       -2   -1    0    0    0  501  0.00000000000E+00  0.00000000000E+00  0.89857670835E+02  0.89857670871E+02  0.25500000920E-02 0.  1.
        2   -1    0    0  501    0  0.00000000000E+00  0.00000000000E+00 -0.69717508649E+03  0.69717508649E+03  0.25500000920E-02 0. -1.
    10030    2    1    2    0    0  0.00000000000E+00  0.00000000000E+00 -0.60731741565E+03  0.78703275736E+03  0.50058577468E+03 0.  0.
        1    1    3    3  502    0  0.18220435401E+03 -0.64692845053E+02 -0.55355294333E+03  0.58634840489E+03  0.50400001928E-02 0. -1.
       -1    1    3    3    0  502 -0.18220435401E+03  0.64692845053E+02 -0.53764472326E+02  0.20068435248E+03  0.50400001928E-02 0.  1.
</event>
<event>
 5   0  0.5191358E-02  0.4983925E+03  0.7818609E-02  0.1014199E+00
       -1   -1    0    0    0  501  0.00000000000E+00  0.00000000000E+00  0.30558486962E+03  0.30558486966E+03  0.50400001928E-02 0.  1.
        1   -1    0    0  501    0  0.00000000000E+00  0.00000000000E+00 -0.20321283022E+03  0.20321283028E+03  0.50400001928E-02 0. -1.
    10030    2    1    2    0    0  0.00000000000E+00  0.00000000000E+00  0.10237203939E+03  0.50879769994E+03  0.49839248090E+03 0.  0.
        4    1    3    3  502    0  0.48637816977E+01 -0.23042305926E+03 -0.45548314775E+02  0.23493553262E+03  0.12699999809E+01 0. -1.
       -4    1    3    3    0  502 -0.48637816977E+01  0.23042305926E+03  0.14792035417E+03  0.27386216732E+03  0.12699999809E+01 0.  1.
</event>
<event>
 5   0  0.8208720E-02  0.4949848E+03  0.7818609E-02  0.1015096E+00
       -2   -1    0    0    0  501  0.00000000000E+00  0.00000000000E+00  0.50882095084E+02  0.50882095148E+02  0.25500000920E-02 0.  1.
        2   -1    0    0  501    0  0.00000000000E+00  0.00000000000E+00 -0.12038120904E+04  0.12038120904E+04  0.25500000920E-02 0. -1.
    10030    2    1    2    0    0  0.00000000000E+00  0.00000000000E+00 -0.11529299953E+04  0.12546941855E+04  0.49498477265E+03 0.  0.
        3    1    3    3  502    0 -0.89927780850E+02  0.10306406763E+03 -0.10992961375E+04  0.11077730887E+04  0.10100000352E+00 0. -1.
       -3    1    3    3    0  502  0.89927780850E+02 -0.10306406763E+03 -0.53633857784E+02  0.14692109687E+03  0.10100000352E+00 0.  1.
</event>
<event>
 5   0  0.7933103E-02  0.4988775E+03  0.7818609E-02  0.1014072E+00
       -2   -1    0    0    0  501  0.00000000000E+00  0.00000000000E+00  0.78036164467E+02  0.78036164509E+02  0.25500000920E-02 0. -1.
        2   -1    0    0  501    0  0.00000000000E+00  0.00000000000E+00 -0.79731868716E+03  0.79731868716E+03  0.25500000920E-02 0.  1.
    10030    2    1    2    0    0  0.00000000000E+00  0.00000000000E+00 -0.71928252269E+03  0.87535485167E+03  0.49887750891E+03 0.  0.
        5    1    3    3  502    0 -0.21508094647E+03 -0.84638805529E+02 -0.19528337404E+03  0.30262390374E+03  0.46999998093E+01 0.  1.
       -5    1    3    3    0  502  0.21508094647E+03  0.84638805529E+02 -0.52399914865E+03  0.57273094793E+03  0.46999998093E+01 0. -1.
</event>
<event>
 5   0  0.4884478E-02  0.5156909E+03  0.7818609E-02  0.1009763E+00
       -1   -1    0    0    0  501  0.00000000000E+00  0.00000000000E+00  0.10616147359E+03  0.10616147371E+03  0.50400001928E-02 0.  1.
        1   -1    0    0  501    0  0.00000000000E+00  0.00000000000E+00 -0.62625603320E+03  0.62625603322E+03  0.50400001928E-02 0. -1.
    10030    2    1    2    0    0  0.00000000000E+00  0.00000000000E+00 -0.52009455961E+03  0.73241750693E+03  0.51569085072E+03 0.  0.
        3    1    3    3  502    0  0.96248381497E+02  0.16140763679E+03 -0.51078766839E+03  0.54426117677E+03  0.10100000352E+00 0. -1.
       -3    1    3    3    0  502 -0.96248381497E+02 -0.16140763679E+03 -0.93068912192E+01  0.18815633016E+03  0.10100000352E+00 0.  1.
</event>
<event>
 5   0  0.3210875E-02  0.4989446E+03  0.7818609E-02  0.1014055E+00
        3   -1    0    0  501    0  0.00000000000E+00  0.00000000000E+00  0.42439565926E+03  0.42439567128E+03  0.10100000352E+00 0. -1.
       -3   -1    0    0    0  501  0.00000000000E+00  0.00000000000E+00 -0.14664714671E+03  0.14664718149E+03  0.10100000352E+00 0.  1.
    10030    2    1    2    0    0  0.00000000000E+00  0.00000000000E+00  0.27774851255E+03  0.57104285278E+03  0.49894458959E+03 0.  0.
        2    1    3    3  502    0 -0.24659023703E+03  0.14713751818E+02  0.99010323296E+02  0.26613207927E+03  0.25500000920E-02 0.  1.
       -2    1    3    3    0  502  0.24659023703E+03 -0.14713751818E+02  0.17873818926E+03  0.30491077350E+03  0.25500000920E-02 0. -1.
</event>
<event>
 5   0  0.4865501E-02  0.4978178E+03  0.7818609E-02  0.1014350E+00
       -1   -1    0    0    0  501  0.00000000000E+00  0.00000000000E+00  0.62950689082E+03  0.62950689084E+03  0.50400001928E-02 0.  1.
        1   -1    0    0  501    0  0.00000000000E+00  0.00000000000E+00 -0.98419312063E+02  0.98419312192E+02  0.50400001928E-02 0. -1.
    10030    2    1    2    0    0  0.00000000000E+00  0.00000000000E+00  0.53108757876E+03  0.72792620304E+03  0.49781777866E+03 0.  0.
        2    1    3    3  502    0  0.77369411533E+02 -0.45656494801E+02 -0.73887029586E+02  0.11631781680E+03  0.25500000920E-02 0. -1.
       -2    1    3    3    0  502 -0.77369411533E+02  0.45656494801E+02  0.60497460835E+03  0.61160838623E+03  0.25500000920E-02 0.  1.
</event>
<event>
 5   0  0.7776070E-02  0.4989663E+03  0.7818609E-02  0.1014049E+00
       -2   -1    0    0    0  501  0.00000000000E+00  0.00000000000E+00  0.63201497640E+02  0.63201497691E+02  0.25500000920E-02 0. -1.
        2   -1    0    0  501    0  0.00000000000E+00  0.00000000000E+00 -0.98481613363E+03  0.98481613363E+03  0.25500000920E-02 0.  1.
    10030    2    1    2    0    0  0.00000000000E+00  0.00000000000E+00 -0.92161463599E+03  0.10480176313E+04  0.49896634986E+03 0.  0.
        4    1    3    3  502    0  0.31490567994E+02 -0.44927557445E+02 -0.97198109368E+03  0.97352914731E+03  0.12699999809E+01 0.  1.
       -4    1    3    3    0  502 -0.31490567994E+02  0.44927557445E+02  0.50366457690E+02  0.74488484014E+02  0.12699999809E+01 0. -1.
</event>
<event>
 5   0  0.4884478E-02  0.4992156E+03  0.7818609E-02  0.1013984E+00
        1   -1    0    0  501    0  0.00000000000E+00  0.00000000000E+00  0.93262678536E+02  0.93262678672E+02  0.50400001928E-02 0.  1.
       -1   -1    0    0    0  501  0.00000000000E+00  0.00000000000E+00 -0.66804908304E+03  0.66804908306E+03  0.50400001928E-02 0. -1.
    10030    2    1    2    0    0  0.00000000000E+00  0.00000000000E+00 -0.57478640451E+03  0.76131176173E+03  0.49921557242E+03 0.  0.
        3    1    3    3  502    0  0.23784366732E+03 -0.40088986915E+02 -0.18941997311E+03  0.30668660449E+03  0.10100000352E+00 0. -1.
       -3    1    3    3    0  502 -0.23784366732E+03  0.40088986915E+02 -0.38536643139E+03  0.45462515725E+03  0.10100000352E+00 0.  1.
</event>
<event>
 5   0  0.7933103E-02  0.5201995E+03  0.7818609E-02  0.1008637E+00
       -2   -1    0    0    0  501  0.00000000000E+00  0.00000000000E+00  0.11417619163E+04  0.11417619163E+04  0.25500000920E-02 0. -1.
        2   -1    0    0  501    0  0.00000000000E+00  0.00000000000E+00 -0.59252172840E+02  0.59252172895E+02  0.25500000920E-02 0.  1.
    10030    2    1    2    0    0  0.00000000000E+00  0.00000000000E+00  0.10825097435E+04  0.12010140892E+04  0.52019947883E+03 0.  0.
        5    1    3    3  502    0 -0.16453723052E+02 -0.14580183987E+03  0.10369707283E+04  0.10473104998E+04  0.46999998093E+01 0. -1.
       -5    1    3    3    0  502  0.16453723052E+02  0.14580183987E+03  0.45539015146E+02  0.15370358945E+03  0.46999998093E+01 0.  1.
</event>
<event>
 5   0  0.7698747E-02  0.5030800E+03  0.7818609E-02  0.1012978E+00
        2   -1    0    0  501    0  0.00000000000E+00  0.00000000000E+00  0.95794416338E+03  0.95794416339E+03  0.25500000920E-02 0. -1.
       -2   -1    0    0    0  501  0.00000000000E+00  0.00000000000E+00 -0.66050161033E+02  0.66050161082E+02  0.25500000920E-02 0.  1.
    10030    2    1    2    0    0  0.00000000000E+00  0.00000000000E+00  0.89189400235E+03  0.10239943245E+04  0.50307997885E+03 0.  0.
        2    1    3    3  502    0 -0.11218496905E+03  0.91203420687E+02  0.86491782146E+03  0.87691867874E+03  0.25500000920E-02 0. -1.
       -2    1    3    3    0  502  0.11218496905E+03 -0.91203420687E+02  0.26976180888E+02  0.14707564573E+03  0.25500000920E-02 0.  1.
</event>
<event>
 5   0  0.7933103E-02  0.4929125E+03  0.7818609E-02  0.1015646E+00
       -2   -1    0    0    0  501  0.00000000000E+00  0.00000000000E+00  0.72546026817E+02  0.72546026862E+02  0.25500000920E-02 0. -1.
        2   -1    0    0  501    0  0.00000000000E+00  0.00000000000E+00 -0.83727092490E+03  0.83727092490E+03  0.25500000920E-02 0.  1.
    10030    2    1    2    0    0  0.00000000000E+00  0.00000000000E+00 -0.76472489808E+03  0.90981695176E+03  0.49291248308E+03 0.  0.
        5    1    3    3  502    0  0.42472383265E+02 -0.22997299262E+03 -0.52565997946E+03  0.57535379088E+03  0.46999998093E+01 0. -1.
       -5    1    3    3    0  502 -0.42472383265E+02  0.22997299262E+03 -0.23906491862E+03  0.33446316088E+03  0.46999998093E+01 0.  1.
</event>
<event>
 5   0  0.4884478E-02  0.5037394E+03  0.7818609E-02  0.1012807E+00
       -1   -1    0    0    0  501  0.00000000000E+00  0.00000000000E+00  0.14922975542E+03  0.14922975550E+03  0.50400001928E-02 0.  1.
        1   -1    0    0  501    0  0.00000000000E+00  0.00000000000E+00 -0.42510516872E+03  0.42510516875E+03  0.50400001928E-02 0. -1.
    10030    2    1    2    0    0  0.00000000000E+00  0.00000000000E+00 -0.27587541330E+03  0.57433492425E+03  0.50373937860E+03 0.  0.
        3    1    3    3  502    0  0.14633554056E+03 -0.61366914381E+02 -0.36094670845E+03  0.39428736367E+03  0.10100000352E+00 0. -1.
       -3    1    3    3    0  502 -0.14633554056E+03  0.61366914381E+02  0.85071295146E+02  0.18004756058E+03  0.10100000352E+00 0.  1.
</event>
<event>
 5   0  0.4865501E-02  0.5019237E+03  0.7818609E-02  0.1013278E+00
       -1   -1    0    0    0  501  0.00000000000E+00  0.00000000000E+00  0.61659578492E+02  0.61659578698E+02  0.50400001928E-02 0. -1.
        1   -1    0    0  501    0  0.00000000000E+00  0.00000000000E+00 -0.10214447326E+04  0.10214447326E+04  0.50400001928E-02 0.  1.
    10030    2    1    2    0    0  0.00000000000E+00  0.00000000000E+00 -0.95978515407E+03  0.10831043113E+04  0.50192370648E+03 0.  0.
        2    1    3    3  502    0 -0.18282493195E+03  0.19452678191E+02 -0.11128523803E+03  0.21491339335E+03  0.25500000920E-02 0. -1.
       -2    1    3    3    0  502  0.18282493195E+03 -0.19452678191E+02 -0.84849991604E+03  0.86819091792E+03  0.25500000920E-02 0.  1.
</event>
<event>
 5   0  0.8208720E-02  0.5010184E+03  0.7818609E-02  0.1013513E+00
       -2   -1    0    0    0  501  0.00000000000E+00  0.00000000000E+00  0.42611428095E+02  0.42611428172E+02  0.25500000920E-02 0.  1.
        2   -1    0    0  501    0  0.00000000000E+00  0.00000000000E+00 -0.14727237084E+04  0.14727237084E+04  0.25500000920E-02 0. -1.
    10030    2    1    2    0    0  0.00000000000E+00  0.00000000000E+00 -0.14301122803E+04  0.15153351365E+04  0.50101840470E+03 0.  0.
        3    1    3    3  502    0  0.22102983132E+03 -0.56993469755E+02 -0.40289494376E+03  0.46306240167E+03  0.10100000352E+00 0.  1.
       -3    1    3    3    0  502 -0.22102983132E+03  0.56993469755E+02 -0.10272173365E+04  0.10522727349E+04  0.10100000352E+00 0. -1.
</event>
<event>
 5   0  0.4865501E-02  0.5049932E+03  0.7818609E-02  0.1012484E+00
        1   -1    0    0  501    0  0.00000000000E+00  0.00000000000E+00  0.39710565988E+03  0.39710565991E+03  0.50400001928E-02 0.  1.
       -1   -1    0    0    0  501  0.00000000000E+00  0.00000000000E+00 -0.16054802909E+03  0.16054802917E+03  0.50400001928E-02 0. -1.
    10030    2    1    2    0    0  0.00000000000E+00  0.00000000000E+00  0.23655763079E+03  0.55765368908E+03  0.50499319229E+03 0.  0.
        2    1    3    3  502    0  0.20117391727E+02 -0.69978321175E+02 -0.14870314919E+03  0.16557264711E+03  0.25500000920E-02 0. -1.
       -2    1    3    3    0  502 -0.20117391727E+02  0.69978321175E+02  0.38526077997E+03  0.39208104198E+03  0.25500000920E-02 0.  1.
</event>
<event>
 5   0  0.7776070E-02  0.5012394E+03  0.7818609E-02  0.1013456E+00
       -2   -1    0    0    0  501  0.00000000000E+00  0.00000000000E+00  0.54060047570E+03  0.54060047571E+03  0.25500000920E-02 0. -1.
        2   -1    0    0  501    0  0.00000000000E+00  0.00000000000E+00 -0.11618605787E+03  0.11618605790E+03  0.25500000920E-02 0.  1.
    10030    2    1    2    0    0  0.00000000000E+00  0.00000000000E+00  0.42441441783E+03  0.65678653361E+03  0.50123941652E+03 0.  0.
        4    1    3    3  502    0 -0.16149555905E+02  0.62557188922E+02  0.52949643326E+03  0.53342506107E+03  0.12699999809E+01 0. -1.
       -4    1    3    3    0  502  0.16149555905E+02 -0.62557188922E+02 -0.10508201543E+03  0.12336147254E+03  0.12699999809E+01 0.  1.
</event>
<event>
 5   0  0.3210875E-02  0.4993766E+03  0.7818609E-02  0.1013942E+00
       -3   -1    0    0    0  501  0.00000000000E+00  0.00000000000E+00  0.91453398310E+02  0.91453454082E+02  0.10100000352E+00 0.  1.
        3   -1    0    0  501    0  0.00000000000E+00  0.00000000000E+00 -0.68170469521E+03  0.68170470269E+03  0.10100000352E+00 0. -1.
    10030    2    1    2    0    0  0.00000000000E+00  0.00000000000E+00 -0.59025129690E+03  0.77315815677E+03  0.49937655321E+03 0.  0.
        5    1    3    3  502    0 -0.13572449809E+03 -0.16112034405E+02  0.28311257378E+02  0.13965799056E+03  0.46999998093E+01 0.  1.
       -5    1    3    3    0  502  0.13572449809E+03  0.16112034405E+02 -0.61856255428E+03  0.63350016621E+03  0.46999998093E+01 0. -1.
</event>
<event>
 5   0  0.5191358E-02  0.4986786E+03  0.7818609E-02  0.1014124E+00
        1   -1    0    0  501    0  0.00000000000E+00  0.00000000000E+00  0.13717205748E+04  0.13717205748E+04  0.50400001928E-02 0.  1.
       -1   -1    0    0    0  501  0.00000000000E+00  0.00000000000E+00 -0.45322705358E+02  0.45322705638E+02  0.50400001928E-02 0. -1.
    10030    2    1    2    0    0  0.00000000000E+00  0.00000000000E+00  0.13263978694E+04  0.14170432804E+04  0.49867860451E+03 0.  0.
        4    1    3    3  502    0 -0.10552574168E+03  0.68409295233E+02  0.51410701071E+02  0.13586827045E+03  0.12699999809E+01 0. -1.
       -4    1    3    3    0  502  0.10552574168E+03 -0.68409295233E+02  0.12749871683E+04  0.12811750099E+04  0.12699999809E+01 0.  1.
</event>
<event>
 5   0  0.5038436E-02  0.4995285E+03  0.7818609E-02  0.1013902E+00
       -1   -1    0    0    0  501  0.00000000000E+00  0.00000000000E+00  0.74975051093E+02  0.74975051263E+02  0.50400001928E-02 0. -1.
        1   -1    0    0  501    0  0.00000000000E+00  0.00000000000E+00 -0.83203915318E+03  0.83203915319E+03  0.50400001928E-02 0.  1.
    10030    2    1    2    0    0  0.00000000000E+00  0.00000000000E+00 -0.75706410208E+03  0.90701420446E+03  0.49952849010E+03 0.  0.
        1    1    3    3  502    0 -0.70580216957E+02  0.74027550892E+02 -0.79226813140E+03  0.79884318698E+03  0.50400001928E-02 0.  1.
       -1    1    3    3    0  502  0.70580216957E+02 -0.74027550892E+02  0.35204029319E+02  0.10817101748E+03  0.50400001928E-02 0. -1.
</event>
<event>
 5   0  0.4803890E-02  0.4996645E+03  0.7818609E-02  0.1013867E+00
       -1   -1    0    0    0  501  0.00000000000E+00  0.00000000000E+00  0.10802868437E+03  0.10802868449E+03  0.50400001928E-02 0. -1.
        1   -1    0    0  501    0  0.00000000000E+00  0.00000000000E+00 -0.57777384815E+03  0.57777384818E+03  0.50400001928E-02 0.  1.
    10030    2    1    2    0    0  0.00000000000E+00  0.00000000000E+00 -0.46974516379E+03  0.68580253266E+03  0.49966448233E+03 0.  0.
        5    1    3    3  502    0  0.15432849726E+02 -0.97501796146E+02  0.80059458176E+02  0.12718639842E+03  0.46999998093E+01 0. -1.
       -5    1    3    3    0  502 -0.15432849726E+02  0.97501796146E+02 -0.54980462196E+03  0.55861613424E+03  0.46999998093E+01 0.  1.
</event>
<event>
 5   0  0.4884478E-02  0.5013028E+03  0.7818609E-02  0.1013439E+00
       -1   -1    0    0    0  501  0.00000000000E+00  0.00000000000E+00  0.16466502370E+03  0.16466502378E+03  0.50400001928E-02 0. -1.
        1   -1    0    0  501    0  0.00000000000E+00  0.00000000000E+00 -0.38153893648E+03  0.38153893651E+03  0.50400001928E-02 0.  1.
    10030    2    1    2    0    0  0.00000000000E+00  0.00000000000E+00 -0.21687391278E+03  0.54620396029E+03  0.50130277497E+03 0.  0.
        3    1    3    3  502    0 -0.95251314119E+02 -0.13053976018E+03  0.10033045094E+03  0.19020949349E+03  0.10100000352E+00 0. -1.
       -3    1    3    3    0  502  0.95251314119E+02  0.13053976018E+03 -0.31720436372E+03  0.35599446680E+03  0.10100000352E+00 0.  1.
</event>
<event>
 5   0  0.7698747E-02  0.5003114E+03  0.7818609E-02  0.1013698E+00
       -2   -1    0    0    0  501  0.00000000000E+00  0.00000000000E+00  0.80688917463E+02  0.80688917504E+02  0.25500000920E-02 0.  1.
        2   -1    0    0  501    0  0.00000000000E+00  0.00000000000E+00 -0.77554489922E+03  0.77554489922E+03  0.25500000920E-02 0. -1.
    10030    2    1    2    0    0  0.00000000000E+00  0.00000000000E+00 -0.69485598175E+03  0.85623381673E+03  0.50031141654E+03 0.  0.
        2    1    3    3  502    0  0.53117860074E+02 -0.24024104715E+03 -0.27011863938E+03  0.36537836162E+03  0.25500000920E-02 0. -1.
       -2    1    3    3    0  502 -0.53117860074E+02  0.24024104715E+03 -0.42473734238E+03  0.49085545511E+03  0.25500000920E-02 0.  1.
</event>
<event>
 5   0  0.5191358E-02  0.5000379E+03  0.7818609E-02  0.1013769E+00
       -1   -1    0    0    0  501  0.00000000000E+00  0.00000000000E+00  0.24678702963E+03  0.24678702968E+03  0.50400001928E-02 0.  1.
        1   -1    0    0  501    0  0.00000000000E+00  0.00000000000E+00 -0.25329316274E+03  0.25329316279E+03  0.50400001928E-02 0. -1.
    10030    2    1    2    0    0  0.00000000000E+00  0.00000000000E+00 -0.65061331160E+01  0.50008019247E+03  0.50003786770E+03 0.  0.
        4    1    3    3  502    0  0.24398308323E+03  0.54035979089E+02 -0.11014035456E+02  0.25014106783E+03  0.12699999809E+01 0. -1.
       -4    1    3    3    0  502 -0.24398308323E+03 -0.54035979089E+02  0.45079023402E+01  0.24993912464E+03  0.12699999809E+01 0.  1.
</event>
<event>
 5   0  0.8208720E-02  0.5013376E+03  0.7818609E-02  0.1013430E+00
        2   -1    0    0  501    0  0.00000000000E+00  0.00000000000E+00  0.89800145851E+03  0.89800145852E+03  0.25500000920E-02 0. -1.
       -2   -1    0    0    0  501  0.00000000000E+00  0.00000000000E+00 -0.69971880092E+02  0.69971880139E+02  0.25500000920E-02 0.  1.
    10030    2    1    2    0    0  0.00000000000E+00  0.00000000000E+00  0.82802957842E+03  0.96797333865E+03  0.50133761240E+03 0.  0.
        3    1    3    3  502    0 -0.29192219755E+02  0.15315325029E+03  0.79299297988E+03  0.80817447380E+03  0.10100000352E+00 0. -1.
       -3    1    3    3    0  502  0.29192219755E+02 -0.15315325029E+03  0.35036598540E+02  0.15979886485E+03  0.10100000352E+00 0.  1.
</event>
<event>
 5   0  0.3210875E-02  0.4971446E+03  0.7818609E-02  0.1014527E+00
        3   -1    0    0  501    0  0.00000000000E+00  0.00000000000E+00  0.14123912202E+04  0.14123912238E+04  0.10100000352E+00 0. -1.
       -3   -1    0    0    0  501  0.00000000000E+00  0.00000000000E+00 -0.43747157900E+02  0.43747274490E+02  0.10100000352E+00 0.  1.
    10030    2    1    2    0    0  0.00000000000E+00  0.00000000000E+00  0.13686440623E+04  0.14561384983E+04  0.49714460368E+03 0.  0.
        2    1    3    3  502    0 -0.61614967895E+02 -0.19487600702E+03  0.10987023574E+04  0.11175508635E+04  0.25500000920E-02 0. -1.
       -2    1    3    3    0  502  0.61614967895E+02  0.19487600702E+03  0.26994170490E+03  0.33858763479E+03  0.25500000920E-02 0.  1.
</event>
<event>
 5   0  0.7776070E-02  0.5111749E+03  0.7818609E-02  0.1010903E+00
       -2   -1    0    0    0  501  0.00000000000E+00  0.00000000000E+00  0.13632786652E+03  0.13632786655E+03  0.25500000920E-02 0.  1.
        2   -1    0    0  501    0  0.00000000000E+00  0.00000000000E+00 -0.47917531339E+03  0.47917531340E+03  0.25500000920E-02 0. -1.
    10030    2    1    2    0    0  0.00000000000E+00  0.00000000000E+00 -0.34284744687E+03  0.61550317994E+03  0.51117491399E+03 0.  0.
        4    1    3    3  502    0 -0.21199493321E+02  0.83662665845E+02 -0.46109424480E+03  0.46910380052E+03  0.12699999809E+01 0. -1.
       -4    1    3    3    0  502  0.21199493321E+02 -0.83662665845E+02  0.11824679793E+03  0.14639937942E+03  0.12699999809E+01 0.  1.
</event>
<event>
 5   0  0.5038436E-02  0.4967234E+03  0.7818609E-02  0.1014638E+00
       -1   -1    0    0    0  501  0.00000000000E+00  0.00000000000E+00  0.23526625012E+03  0.23526625018E+03  0.50400001928E-02 0.  1.
        1   -1    0    0  501    0  0.00000000000E+00  0.00000000000E+00 -0.26218612261E+03  0.26218612266E+03  0.50400001928E-02 0. -1.
    10030    2    1    2    0    0  0.00000000000E+00  0.00000000000E+00 -0.26919872484E+02  0.49745237283E+03  0.49672344791E+03 0.  0.
        1    1    3    3  502    0 -0.10340649258E+02  0.24636299221E+03  0.16280324970E+02  0.24711677799E+03  0.50400001928E-02 0.  1.
       -1    1    3    3    0  502  0.10340649258E+02 -0.24636299221E+03 -0.43200197455E+02  0.25033559484E+03  0.50400001928E-02 0. -1.
</event>
<event>
 5   0  0.7933103E-02  0.5053414E+03  0.7818609E-02  0.1012394E+00
       -2   -1    0    0    0  501  0.00000000000E+00  0.00000000000E+00  0.26729702584E+03  0.26729702585E+03  0.25500000920E-02 0. -1.
        2   -1    0    0  501    0  0.00000000000E+00  0.00000000000E+00 -0.23884467425E+03  0.23884467427E+03  0.25500000920E-02 0.  1.
    10030    2    1    2    0    0  0.00000000000E+00  0.00000000000E+00  0.28452351589E+02  0.50614170012E+03  0.50534135422E+03 0.  0.
        5    1    3    3  502    0  0.13945421039E+03 -0.28871753694E+02 -0.19476508749E+03  0.24132257304E+03  0.46999998093E+01 0.  1.
       -5    1    3    3    0  502 -0.13945421039E+03  0.28871753694E+02  0.22321743908E+03  0.26481912707E+03  0.46999998093E+01 0. -1.
</event>
<event>
 5   0  0.3210875E-02  0.4995408E+03  0.7818609E-02  0.1013899E+00
        3   -1    0    0  501    0  0.00000000000E+00  0.00000000000E+00  0.34282616754E+03  0.34282618241E+03  0.10100000352E+00 0.  1.
       -3   -1    0    0    0  501  0.00000000000E+00  0.00000000000E+00 -0.18197336450E+03  0.18197339253E+03  0.10100000352E+00 0. -1.
    10030    2    1    2    0    0  0.00000000000E+00  0.00000000000E+00  0.16085280304E+03  0.52479957494E+03  0.49954075871E+03 0.  0.
        2    1    3    3  502    0  0.15454217232E+03  0.19288848509E+02 -0.12471597240E+03  0.19952297231E+03  0.25500000920E-02 0. -1.
       -2    1    3    3    0  502 -0.15454217232E+03 -0.19288848509E+02  0.28556877544E+03  0.32527660262E+03  0.25500000920E-02 0.  1.
</event>
<event>
 5   0  0.7881060E-02  0.4980980E+03  0.7818609E-02  0.1014277E+00
       -2   -1    0    0    0  501  0.00000000000E+00  0.00000000000E+00  0.52959652175E+02  0.52959652237E+02  0.25500000920E-02 0. -1.
        2   -1    0    0  501    0  0.00000000000E+00  0.00000000000E+00 -0.11711822016E+04  0.11711822016E+04  0.25500000920E-02 0.  1.
    10030    2    1    2    0    0  0.00000000000E+00  0.00000000000E+00 -0.11182225494E+04  0.12241418538E+04  0.49809799063E+03 0.  0.
        1    1    3    3  502    0  0.17482566750E+03  0.10442054812E+03 -0.20673666194E+03  0.29018565144E+03  0.50400001928E-02 0. -1.
       -1    1    3    3    0  502 -0.17482566750E+03 -0.10442054812E+03 -0.91148588747E+03  0.93395620238E+03  0.50400001928E-02 0.  1.
</event>
<event>
 5   0  0.8208720E-02  0.5057850E+03  0.7818609E-02  0.1012280E+00
        2   -1    0    0  501    0  0.00000000000E+00  0.00000000000E+00  0.88825195432E+03  0.88825195432E+03  0.25500000920E-02 0.  1.
       -2   -1    0    0    0  501  0.00000000000E+00  0.00000000000E+00 -0.72000526160E+02  0.72000526205E+02  0.25500000920E-02 0. -1.
    10030    2    1    2    0    0  0.00000000000E+00  0.00000000000E+00  0.81625142816E+03  0.96025248053E+03  0.50578496655E+03 0.  0.
        3    1    3    3  502    0 -0.13966006715E+03  0.17805034258E+03  0.19376948750E+03  0.29791522844E+03  0.10100000352E+00 0. -1.
       -3    1    3    3    0  502  0.13966006715E+03 -0.17805034258E+03  0.62248194066E+03  0.66233725209E+03  0.10100000352E+00 0.  1.
</event>
<event>
 5   0  0.5191358E-02  0.5046490E+03  0.7818609E-02  0.1012573E+00
        1   -1    0    0  501    0  0.00000000000E+00  0.00000000000E+00  0.69961977147E+03  0.69961977149E+03  0.50400001928E-02 0.  1.
       -1   -1    0    0    0  501  0.00000000000E+00  0.00000000000E+00 -0.91003235747E+02  0.91003235887E+02  0.50400001928E-02 0. -1.
    10030    2    1    2    0    0  0.00000000000E+00  0.00000000000E+00  0.60861653572E+03  0.79062300737E+03  0.50464903867E+03 0.  0.
        4    1    3    3  502    0  0.13866345652E+03 -0.12372148910E+03  0.57170822947E+03  0.60115428434E+03  0.12699999809E+01 0.  1.
       -4    1    3    3    0  502 -0.13866345652E+03  0.12372148910E+03  0.36908306255E+02  0.18946872304E+03  0.12699999809E+01 0. -1.
</event>
<event>
 5   0  0.3210875E-02  0.4944934E+03  0.7818609E-02  0.1015226E+00
        4   -1    0    0  501    0  0.00000000000E+00  0.00000000000E+00  0.19488082395E+03  0.19488496208E+03  0.12699999809E+01 0. -1.
       -4   -1    0    0    0  501  0.00000000000E+00  0.00000000000E+00 -0.31367495947E+03  0.31367753043E+03  0.12699999809E+01 0.  1.
    10030    2    1    2    0    0  0.00000000000E+00  0.00000000000E+00 -0.11879413552E+03  0.50856249251E+03  0.49449343995E+03 0.  0.
        1    1    3    3  502    0  0.18580964622E+03 -0.10572626683E+03 -0.18713915156E+03  0.28412027418E+03  0.50400001928E-02 0.  1.
       -1    1    3    3    0  502 -0.18580964622E+03  0.10572626683E+03  0.68345016041E+02  0.22444221833E+03  0.50400001928E-02 0. -1.
</event>
<event>
 5   0  0.7881060E-02  0.4866981E+03  0.7818609E-02  0.1017310E+00
        2   -1    0    0  501    0  0.00000000000E+00  0.00000000000E+00  0.37692598395E+03  0.37692598396E+03  0.25500000920E-02 0.  1.
       -2   -1    0    0    0  501  0.00000000000E+00  0.00000000000E+00 -0.15710975381E+03  0.15710975383E+03  0.25500000920E-02 0. -1.
    10030    2    1    2    0    0  0.00000000000E+00  0.00000000000E+00  0.21981623014E+03  0.53403573779E+03  0.48669805239E+03 0.  0.
        1    1    3    3  502    0  0.75912472328E+02 -0.15277762129E+03  0.30032368641E+03  0.34539545693E+03  0.50400001928E-02 0.  1.
       -1    1    3    3    0  502 -0.75912472328E+02  0.15277762129E+03 -0.80507456270E+02  0.18864028086E+03  0.50400001928E-02 0. -1.
</event>
<event>
 5   0  0.8208720E-02  0.4988488E+03  0.7818609E-02  0.1014080E+00
        2   -1    0    0  501    0  0.00000000000E+00  0.00000000000E+00  0.85045106867E+03  0.85045106867E+03  0.25500000920E-02 0. -1.
       -2   -1    0    0    0  501  0.00000000000E+00  0.00000000000E+00 -0.73152396182E+02  0.73152396227E+02  0.25500000920E-02 0.  1.
    10030    2    1    2    0    0  0.00000000000E+00  0.00000000000E+00  0.77729867249E+03  0.92360346490E+03  0.49884880888E+03 0.  0.
        3    1    3    3  502    0 -0.18808217987E+03  0.55310145212E+02  0.67415055850E+03  0.70207770530E+03  0.10100000352E+00 0. -1.
       -3    1    3    3    0  502  0.18808217987E+03 -0.55310145212E+02  0.10314811398E+03  0.22152575960E+03  0.10100000352E+00 0.  1.
</event>
<event>
 5   0  0.4803890E-02  0.4728542E+03  0.7818609E-02  0.1021118E+00
       -1   -1    0    0    0  501  0.00000000000E+00  0.00000000000E+00  0.25783206453E+03  0.25783206458E+03  0.50400001928E-02 0. -1.
        1   -1    0    0  501    0  0.00000000000E+00  0.00000000000E+00 -0.21679918050E+03  0.21679918056E+03  0.50400001928E-02 0.  1.
    10030    2    1    2    0    0  0.00000000000E+00  0.00000000000E+00  0.41032884030E+02  0.47463124515E+03  0.47285422838E+03 0.  0.
        5    1    3    3  502    0 -0.10290955115E+03 -0.30673733679E+01  0.23409744498E+03  0.25578015607E+03  0.46999998093E+01 0. -1.
       -5    1    3    3    0  502  0.10290955115E+03  0.30673733679E+01 -0.19306456095E+03  0.21885108907E+03  0.46999998093E+01 0.  1.
</event>
<event>
 5   0  0.8208720E-02  0.4994356E+03  0.7818609E-02  0.1013926E+00
        2   -1    0    0  501    0  0.00000000000E+00  0.00000000000E+00  0.52229904158E+03  0.52229904159E+03  0.25500000920E-02 0. -1.
       -2   -1    0    0    0  501  0.00000000000E+00  0.00000000000E+00 -0.11939325307E+03  0.11939325310E+03  0.25500000920E-02 0.  1.
    10030    2    1    2    0    0  0.00000000000E+00  0.00000000000E+00  0.40290578851E+03  0.64169229469E+03  0.49943560811E+03 0.  0.
        3    1    3    3  502    0  0.11568958106E+03  0.11153494743E+03  0.44703740544E+03  0.47504376191E+03  0.10100000352E+00 0. -1.
       -3    1    3    3    0  502 -0.11568958106E+03 -0.11153494743E+03 -0.44131616935E+02  0.16664853278E+03  0.10100000352E+00 0.  1.
</event>
<event>
 5   0  0.4865501E-02  0.5022629E+03  0.7818609E-02  0.1013190E+00
       -1   -1    0    0    0  501  0.00000000000E+00  0.00000000000E+00  0.53605271144E+03  0.53605271146E+03  0.50400001928E-02 0.  1.
        1   -1    0    0  501    0  0.00000000000E+00  0.00000000000E+00 -0.11765076354E+03  0.11765076365E+03  0.50400001928E-02 0. -1.
    10030    2    1    2    0    0  0.00000000000E+00  0.00000000000E+00  0.41840194790E+03  0.65370347511E+03  0.50226292255E+03 0.  0.
        2    1    3    3  502    0 -0.22065411606E+03 -0.10713568188E+03  0.13910349529E+03  0.28198594943E+03  0.25500000920E-02 0. -1.
       -2    1    3    3    0  502  0.22065411606E+03  0.10713568188E+03  0.27929845261E+03  0.37171752568E+03  0.25500000920E-02 0.  1.
</event>
<event>
 5   0  0.5191358E-02  0.5003608E+03  0.7818609E-02  0.1013685E+00
        1   -1    0    0  501    0  0.00000000000E+00  0.00000000000E+00  0.16157382295E+04  0.16157382295E+04  0.50400001928E-02 0. -1.
       -1   -1    0    0    0  501  0.00000000000E+00  0.00000000000E+00 -0.38737851378E+02  0.38737851706E+02  0.50400001928E-02 0.  1.
    10030    2    1    2    0    0  0.00000000000E+00  0.00000000000E+00  0.15770003781E+04  0.16544760812E+04  0.50036078054E+03 0.  0.
        4    1    3    3  502    0  0.11007253726E+03  0.11949013946E+03  0.14175717753E+04  0.14268515017E+04  0.12699999809E+01 0. -1.
       -4    1    3    3    0  502 -0.11007253726E+03 -0.11949013946E+03  0.15942860274E+03  0.22762457943E+03  0.12699999809E+01 0.  1.
</event>
<event>
 5   0  0.8208720E-02  0.4997300E+03  0.7818609E-02  0.1013849E+00
        2   -1    0    0  501    0  0.00000000000E+00  0.00000000000E+00  0.17654016992E+03  0.17654016994E+03  0.25500000920E-02 0. -1.
       -2   -1    0    0    0  501  0.00000000000E+00  0.00000000000E+00 -0.35364476099E+03  0.35364476100E+03  0.25500000920E-02 0.  1.
    10030    2    1    2    0    0  0.00000000000E+00  0.00000000000E+00 -0.17710459107E+03  0.53018493093E+03  0.49972995189E+03 0.  0.
        3    1    3    3  502    0 -0.76405207667E+02 -0.33148582283E+02  0.16138006740E+03  0.18160429681E+03  0.10100000352E+00 0. -1.
       -3    1    3    3    0  502  0.76405207667E+02  0.33148582283E+02 -0.33848465847E+03  0.34858063412E+03  0.10100000352E+00 0.  1.
</event>
<event>
 5   0  0.4884478E-02  0.5014123E+03  0.7818609E-02  0.1013411E+00
        1   -1    0    0  501    0  0.00000000000E+00  0.00000000000E+00  0.23086350714E+03  0.23086350719E+03  0.50400001928E-02 0.  1.
       -1   -1    0    0    0  501  0.00000000000E+00  0.00000000000E+00 -0.27225430672E+03  0.27225430677E+03  0.50400001928E-02 0. -1.
    10030    2    1    2    0    0  0.00000000000E+00  0.00000000000E+00 -0.41390799584E+02  0.50311781396E+03  0.50141234172E+03 0.  0.
        3    1    3    3  502    0  0.10386517447E+03  0.22439974620E+03 -0.62192485321E+02  0.25497281422E+03  0.10100000352E+00 0.  1.
       -3    1    3    3    0  502 -0.10386517447E+03 -0.22439974620E+03  0.20801685736E+02  0.24814499973E+03  0.10100000352E+00 0. -1.
</event>
<event>
 5   0  0.5038436E-02  0.4946208E+03  0.7818609E-02  0.1015193E+00
       -1   -1    0    0    0  501  0.00000000000E+00  0.00000000000E+00  0.15209984790E+03  0.15209984798E+03  0.50400001928E-02 0.  1.
        1   -1    0    0  501    0  0.00000000000E+00  0.00000000000E+00 -0.40212024005E+03  0.40212024008E+03  0.50400001928E-02 0. -1.
    10030    2    1    2    0    0  0.00000000000E+00  0.00000000000E+00 -0.25002039215E+03  0.55422008806E+03  0.49462077344E+03 0.  0.
        1    1    3    3  502    0 -0.18293151116E+02  0.18769923416E+03  0.54257742749E+02  0.19623848897E+03  0.50400001928E-02 0.  1.
       -1    1    3    3    0  502  0.18293151116E+02 -0.18769923416E+03 -0.30427813490E+03  0.35798159909E+03  0.50400001928E-02 0. -1.
</event>
<event>
 5   0  0.4865501E-02  0.5019871E+03  0.7818609E-02  0.1013262E+00
       -1   -1    0    0    0  501  0.00000000000E+00  0.00000000000E+00  0.66285836499E+03  0.66285836500E+03  0.50400001928E-02 0. -1.
        1   -1    0    0  501    0  0.00000000000E+00  0.00000000000E+00 -0.95039560766E+02  0.95039560900E+02  0.50400001928E-02 0.  1.
    10030    2    1    2    0    0  0.00000000000E+00  0.00000000000E+00  0.56781880422E+03  0.75789792590E+03  0.50198712301E+03 0.  0.
        2    1    3    3  502    0 -0.64861945734E+02  0.10206474055E+02  0.64966192843E+03  0.65297156552E+03  0.25500000920E-02 0. -1.
       -2    1    3    3    0  502  0.64861945734E+02 -0.10206474055E+02 -0.81843124211E+02  0.10492636039E+03  0.25500000920E-02 0.  1.
</event>
<event>
 5   0  0.7698747E-02  0.4999230E+03  0.7818609E-02  0.1013799E+00
       -2   -1    0    0    0  501  0.00000000000E+00  0.00000000000E+00  0.35910364586E+03  0.35910364587E+03  0.25500000920E-02 0. -1.
        2   -1    0    0  501    0  0.00000000000E+00  0.00000000000E+00 -0.17399083586E+03  0.17399083588E+03  0.25500000920E-02 0.  1.
    10030    2    1    2    0    0  0.00000000000E+00  0.00000000000E+00  0.18511281000E+03  0.53309448175E+03  0.49992296811E+03 0.  0.
        2    1    3    3  502    0 -0.39002447642E+02  0.23749665417E+03  0.16452452059E+03  0.29153759542E+03  0.25500000920E-02 0.  1.
       -2    1    3    3    0  502  0.39002447642E+02 -0.23749665417E+03  0.20588289406E+02  0.24155688632E+03  0.25500000920E-02 0. -1.
</event>
<event>
 5   0  0.7698747E-02  0.4976451E+03  0.7818609E-02  0.1014395E+00
        2   -1    0    0  501    0  0.00000000000E+00  0.00000000000E+00  0.15906359623E+04  0.15906359623E+04  0.25500000920E-02 0.  1.
       -2   -1    0    0    0  501  0.00000000000E+00  0.00000000000E+00 -0.38923206569E+02  0.38923206653E+02  0.25500000920E-02 0. -1.
    10030    2    1    2    0    0  0.00000000000E+00  0.00000000000E+00  0.15517127558E+04  0.16295591690E+04  0.49764506310E+03 0.  0.
        2    1    3    3  502    0 -0.32582115539E+02  0.24574979471E+03  0.84594198645E+03  0.88151710154E+03  0.25500000920E-02 0.  1.
       -2    1    3    3    0  502  0.32582115539E+02 -0.24574979471E+03  0.70577076932E+03  0.74804206745E+03  0.25500000920E-02 0. -1.
</event>
<event>
 5   0  0.7698747E-02  0.4913779E+03  0.7818609E-02  0.1016054E+00
       -2   -1    0    0    0  501  0.00000000000E+00  0.00000000000E+00  0.55648489666E+02  0.55648489725E+02  0.25500000920E-02 0. -1.
        2   -1    0    0  501    0  0.00000000000E+00  0.00000000000E+00 -0.10847203291E+04  0.10847203291E+04  0.25500000920E-02 0.  1.
    10030    2    1    2    0    0  0.00000000000E+00  0.00000000000E+00 -0.10290718394E+04  0.11403688188E+04  0.49137785078E+03 0.  0.
        2    1    3    3  502    0 -0.20189631587E+03  0.12070335969E+02 -0.83823984966E+03  0.86229569228E+03  0.25500000920E-02 0.  1.
       -2    1    3    3    0  502  0.20189631587E+03 -0.12070335969E+02 -0.19083198976E+03  0.27807312652E+03  0.25500000920E-02 0. -1.
</event>
<event>
 5   0  0.3210875E-02  0.4976038E+03  0.7818609E-02  0.1014406E+00
        4   -1    0    0  501    0  0.00000000000E+00  0.00000000000E+00  0.11276796710E+04  0.11276803862E+04  0.12699999809E+01 0.  1.
       -4   -1    0    0    0  501  0.00000000000E+00  0.00000000000E+00 -0.54885507228E+02  0.54900198575E+02  0.12699999809E+01 0. -1.
    10030    2    1    2    0    0  0.00000000000E+00  0.00000000000E+00  0.10727941638E+04  0.11825805848E+04  0.49760377966E+03 0.  0.
        1    1    3    3  502    0 -0.68479690649E+02  0.58292351648E+02 -0.14916129319E+02  0.91158966818E+02  0.50400001928E-02 0. -1.
       -1    1    3    3    0  502  0.68479690649E+02 -0.58292351648E+02  0.10877102931E+04  0.10914216179E+04  0.50400001928E-02 0.  1.
</event>
<event>
 5   0  0.5191358E-02  0.5017570E+03  0.7818609E-02  0.1013321E+00
       -1   -1    0    0    0  501  0.00000000000E+00  0.00000000000E+00  0.15831457245E+03  0.15831457253E+03  0.50400001928E-02 0.  1.
        1   -1    0    0  501    0  0.00000000000E+00  0.00000000000E+00 -0.39756297202E+03  0.39756297205E+03  0.50400001928E-02 0. -1.
    10030    2    1    2    0    0  0.00000000000E+00  0.00000000000E+00 -0.23924839956E+03  0.55587754458E+03  0.50175696097E+03 0.  0.
        4    1    3    3  502    0  0.25280759852E+02  0.20527739854E+03 -0.27692686136E+03  0.34564147120E+03  0.12699999809E+01 0. -1.
       -4    1    3    3    0  502 -0.25280759852E+02 -0.20527739854E+03  0.37678461799E+02  0.21023607338E+03  0.12699999809E+01 0.  1.
</event>
<event>
 5   0  0.4884478E-02  0.5023963E+03  0.7818609E-02  0.1013155E+00
       -1   -1    0    0    0  501  0.00000000000E+00  0.00000000000E+00  0.53556963030E+03  0.53556963033E+03  0.50400001928E-02 0.  1.
        1   -1    0    0  501    0  0.00000000000E+00  0.00000000000E+00 -0.11781942584E+03  0.11781942595E+03  0.50400001928E-02 0. -1.
    10030    2    1    2    0    0  0.00000000000E+00  0.00000000000E+00  0.41775020447E+03  0.65338905627E+03  0.50239628335E+03 0.  0.
        3    1    3    3  502    0 -0.20815235505E+03  0.44993781022E+02  0.35611181855E+02  0.21591667309E+03  0.10100000352E+00 0. -1.
       -3    1    3    3    0  502  0.20815235505E+03 -0.44993781022E+02  0.38213902261E+03  0.43747238318E+03  0.10100000352E+00 0.  1.
</event>
<event>
 5   0  0.7933103E-02  0.5040129E+03  0.7818609E-02  0.1012737E+00
        2   -1    0    0  501    0  0.00000000000E+00  0.00000000000E+00  0.22727516545E+03  0.22727516546E+03  0.25500000920E-02 0.  1.
       -2   -1    0    0    0  501  0.00000000000E+00  0.00000000000E+00 -0.27942890845E+03  0.27942890846E+03  0.25500000920E-02 0. -1.
    10030    2    1    2    0    0  0.00000000000E+00  0.00000000000E+00 -0.52153743001E+02  0.50670407392E+03  0.50401290224E+03 0.  0.
        5    1    3    3  502    0  0.11748924969E+03 -0.85209561167E+02 -0.23313963549E+03  0.27466447303E+03  0.46999998093E+01 0. -1.
       -5    1    3    3    0  502 -0.11748924969E+03  0.85209561167E+02  0.18098589249E+03  0.23203960090E+03  0.46999998093E+01 0.  1.
</event>
<event>
 5   0  0.4865501E-02  0.4912067E+03  0.7818609E-02  0.1016100E+00
        1   -1    0    0  501    0  0.00000000000E+00  0.00000000000E+00  0.60515574373E+02  0.60515574582E+02  0.50400001928E-02 0.  1.
       -1   -1    0    0    0  501  0.00000000000E+00  0.00000000000E+00 -0.99678501182E+03  0.99678501183E+03  0.50400001928E-02 0. -1.
    10030    2    1    2    0    0  0.00000000000E+00  0.00000000000E+00 -0.93626943744E+03  0.10573005864E+04  0.49120674928E+03 0.  0.
        2    1    3    3  502    0 -0.14273728467E+03 -0.11828976058E+03 -0.12136476055E+03  0.22157573198E+03  0.25500000920E-02 0.  1.
       -2    1    3    3    0  502  0.14273728467E+03  0.11828976058E+03 -0.81490467689E+03  0.83572485443E+03  0.25500000920E-02 0. -1.
</event>
<event>
 5   0  0.7933103E-02  0.5008558E+03  0.7818609E-02  0.1013556E+00
        2   -1    0    0  501    0  0.00000000000E+00  0.00000000000E+00  0.10458278990E+03  0.10458278993E+03  0.25500000920E-02 0. -1.
       -2   -1    0    0    0  501  0.00000000000E+00  0.00000000000E+00 -0.59966014721E+03  0.59966014721E+03  0.25500000920E-02 0.  1.
    10030    2    1    2    0    0  0.00000000000E+00  0.00000000000E+00 -0.49507735731E+03  0.70424293714E+03  0.50085579241E+03 0.  0.
        5    1    3    3  502    0 -0.25657865419E+02  0.24275280145E+03 -0.16919100747E+03  0.29704365955E+03  0.46999998093E+01 0.  1.
       -5    1    3    3    0  502  0.25657865419E+02 -0.24275280145E+03 -0.32588634984E+03  0.40719927760E+03  0.46999998093E+01 0. -1.
</event>
<event>
 5   0  0.5191358E-02  0.5008074E+03  0.7818609E-02  0.1013568E+00
        1   -1    0    0  501    0  0.00000000000E+00  0.00000000000E+00  0.10191870520E+04  0.10191870520E+04  0.50400001928E-02 0.  1.
       -1   -1    0    0    0  501  0.00000000000E+00  0.00000000000E+00 -0.61521591191E+02  0.61521591397E+02  0.50400001928E-02 0. -1.
    10030    2    1    2    0    0  0.00000000000E+00  0.00000000000E+00  0.95766546078E+03  0.10807086434E+04  0.50080738523E+03 0.  0.
        4    1    3    3  502    0 -0.16313336920E+03  0.18899273191E+03  0.43734384230E+03  0.50358911640E+03  0.12699999809E+01 0. -1.
       -4    1    3    3    0  502  0.16313336920E+03 -0.18899273191E+03  0.52032161848E+03  0.57711952698E+03  0.12699999809E+01 0.  1.
</event>
<event>
 5   0  0.4803890E-02  0.4849181E+03  0.7818609E-02  0.1017792E+00
        1   -1    0    0  501    0  0.00000000000E+00  0.00000000000E+00  0.38965892231E+02  0.38965892557E+02  0.50400001928E-02 0.  1.
       -1   -1    0    0    0  501  0.00000000000E+00  0.00000000000E+00 -0.15086628907E+04  0.15086628908E+04  0.50400001928E-02 0. -1.
    10030    2    1    2    0    0  0.00000000000E+00  0.00000000000E+00 -0.14696969985E+04  0.15476287833E+04  0.48491812039E+03 0.  0.
        5    1    3    3  502    0  0.53008441752E+02 -0.23603799607E+03 -0.78434035081E+03  0.82081405104E+03  0.46999998093E+01 0. -1.
       -5    1    3    3    0  502 -0.53008441752E+02  0.23603799607E+03 -0.68535664771E+03  0.72681473227E+03  0.46999998093E+01 0.  1.
</event>
<event>
 5   0  0.4884478E-02  0.5252090E+03  0.7818609E-02  0.1007401E+00
        1   -1    0    0  501    0  0.00000000000E+00  0.00000000000E+00  0.15732144710E+04  0.15732144710E+04  0.50400001928E-02 0.  1.
       -1   -1    0    0    0  501  0.00000000000E+00  0.00000000000E+00 -0.43834528014E+02  0.43834528304E+02  0.50400001928E-02 0. -1.
    10030    2    1    2    0    0  0.00000000000E+00  0.00000000000E+00  0.15293799430E+04  0.16170489993E+04  0.52520896428E+03 0.  0.
        3    1    3    3  502    0  0.10291363625E+03 -0.93100928239E+02  0.14510918112E+04  0.14577127475E+04  0.10100000352E+00 0.  1.
       -3    1    3    3    0  502 -0.10291363625E+03  0.93100928239E+02  0.78288131721E+02  0.15933625179E+03  0.10100000352E+00 0. -1.
</event>
<event>
 5   0  0.5038436E-02  0.5040845E+03  0.7818609E-02  0.1012718E+00
        1   -1    0    0  501    0  0.00000000000E+00  0.00000000000E+00  0.76825457528E+03  0.76825457530E+03  0.50400001928E-02 0. -1.
       -1   -1    0    0    0  501  0.00000000000E+00  0.00000000000E+00 -0.82687833185E+02  0.82687833338E+02  0.50400001928E-02 0.  1.
    10030    2    1    2    0    0  0.00000000000E+00  0.00000000000E+00  0.68556674210E+03  0.85094240864E+03  0.50408454147E+03 0.  0.
        1    1    3    3  502    0  0.20995291447E+03  0.13546657026E+03  0.28695136019E+03  0.38048981733E+03  0.50400001928E-02 0.  1.
       -1    1    3    3    0  502 -0.20995291447E+03 -0.13546657026E+03  0.39861538190E+03  0.47045259131E+03  0.50400001928E-02 0. -1.
</event>
<event>
 5   0  0.7776070E-02  0.5037818E+03  0.7818609E-02  0.1012796E+00
        2   -1    0    0  501    0  0.00000000000E+00  0.00000000000E+00  0.61379998252E+03  0.61379998252E+03  0.25500000920E-02 0.  1.
       -2   -1    0    0    0  501  0.00000000000E+00  0.00000000000E+00 -0.10337086814E+03  0.10337086818E+03  0.25500000920E-02 0. -1.
    10030    2    1    2    0    0  0.00000000000E+00  0.00000000000E+00  0.51042911437E+03  0.71717085070E+03  0.50378184593E+03 0.  0.
        4    1    3    3  502    0  0.71026797854E+02 -0.52108752797E+02  0.59115182162E+03  0.59768069840E+03  0.12699999809E+01 0.  1.
       -4    1    3    3    0  502 -0.71026797854E+02  0.52108752797E+02 -0.80722707249E+02  0.11949015230E+03  0.12699999809E+01 0. -1.
</event>
<event>
 5   0  0.7698747E-02  0.4985748E+03  0.7818609E-02  0.1014152E+00
       -2   -1    0    0    0  501  0.00000000000E+00  0.00000000000E+00  0.15122190784E+03  0.15122190786E+03  0.25500000920E-02 0. -1.
        2   -1    0    0  501    0  0.00000000000E+00  0.00000000000E+00 -0.41094716232E+03  0.41094716232E+03  0.25500000920E-02 0.  1.
    10030    2    1    2    0    0  0.00000000000E+00  0.00000000000E+00 -0.25972525448E+03  0.56216907018E+03  0.49857482453E+03 0.  0.
        2    1    3    3  502    0  0.15256106679E+03 -0.19044322572E+03 -0.72360649499E+02  0.25451829978E+03  0.25500000920E-02 0.  1.
       -2    1    3    3    0  502 -0.15256106679E+03  0.19044322572E+03 -0.18736460498E+03  0.30765077040E+03  0.25500000920E-02 0. -1.
</event>
<event>
 5   0  0.4884478E-02  0.4970641E+03  0.7818609E-02  0.1014548E+00
        1   -1    0    0  501    0  0.00000000000E+00  0.00000000000E+00  0.41227707677E+03  0.41227707680E+03  0.50400001928E-02 0. -1.
       -1   -1    0    0    0  501  0.00000000000E+00  0.00000000000E+00 -0.14982199428E+03  0.14982199436E+03  0.50400001928E-02 0.  1.
    10030    2    1    2    0    0  0.00000000000E+00  0.00000000000E+00  0.26245508249E+03  0.56209907116E+03  0.49706407583E+03 0.  0.
        3    1    3    3  502    0 -0.17537434118E+03  0.76258334742E+02 -0.48275606790E+02  0.19723599462E+03  0.10100000352E+00 0. -1.
       -3    1    3    3    0  502  0.17537434118E+03 -0.76258334742E+02  0.31073068928E+03  0.36486307654E+03  0.10100000352E+00 0.  1.
</event>
<event>
 5   0  0.8208720E-02  0.4963506E+03  0.7818609E-02  0.1014736E+00
        2   -1    0    0  501    0  0.00000000000E+00  0.00000000000E+00  0.16472488631E+04  0.16472488631E+04  0.25500000920E-02 0. -1.
       -2   -1    0    0    0  501  0.00000000000E+00  0.00000000000E+00 -0.37390203928E+02  0.37390204015E+02  0.25500000920E-02 0.  1.
    10030    2    1    2    0    0  0.00000000000E+00  0.00000000000E+00  0.16098586591E+04  0.16846390671E+04  0.49635056557E+03 0.  0.
        3    1    3    3  502    0  0.15626160805E+03 -0.10327356815E+03  0.25233614626E+03  0.31425572539E+03  0.10100000352E+00 0.  1.
       -3    1    3    3    0  502 -0.15626160805E+03  0.10327356815E+03  0.13575225129E+04  0.13703833417E+04  0.10100000352E+00 0. -1.
</event>
<event>
 5   0  0.5038436E-02  0.4983739E+03  0.7818609E-02  0.1014204E+00
       -1   -1    0    0    0  501  0.00000000000E+00  0.00000000000E+00  0.11438429490E+03  0.11438429501E+03  0.50400001928E-02 0.  1.
        1   -1    0    0  501    0  0.00000000000E+00  0.00000000000E+00 -0.54285540852E+03  0.54285540855E+03  0.50400001928E-02 0. -1.
    10030    2    1    2    0    0  0.00000000000E+00  0.00000000000E+00 -0.42847111363E+03  0.65723970356E+03  0.49837388848E+03 0.  0.
        1    1    3    3  502    0 -0.16805755903E+03  0.81176638622E+02  0.35056091992E+01  0.18666890241E+03  0.50400001928E-02 0.  1.
       -1    1    3    3    0  502  0.16805755903E+03 -0.81176638622E+02 -0.43197672282E+03  0.47057080115E+03  0.50400001928E-02 0. -1.
</event>
<event>
 5   0  0.5191358E-02  0.4941167E+03  0.7818609E-02  0.1015326E+00
        1   -1    0    0  501    0  0.00000000000E+00  0.00000000000E+00  0.15246239625E+03  0.15246239633E+03  0.50400001928E-02 0.  1.
       -1   -1    0    0    0  501  0.00000000000E+00  0.00000000000E+00 -0.40034673717E+03  0.40034673720E+03  0.50400001928E-02 0. -1.
    10030    2    1    2    0    0  0.00000000000E+00  0.00000000000E+00 -0.24788434092E+03  0.55280913354E+03  0.49411667817E+03 0.  0.
        4    1    3    3  502    0  0.11892565804E+03  0.17480833407E+03  0.19047453665E+02  0.21228679703E+03  0.12699999809E+01 0.  1.
       -4    1    3    3    0  502 -0.11892565804E+03 -0.17480833407E+03 -0.26693179459E+03  0.34052233651E+03  0.12699999809E+01 0. -1.
</event>
<event>
 5   0  0.4803890E-02  0.4928300E+03  0.7818609E-02  0.1015668E+00
       -1   -1    0    0    0  501  0.00000000000E+00  0.00000000000E+00  0.97744638521E+02  0.97744638650E+02  0.50400001928E-02 0. -1.
        1   -1    0    0  501    0  0.00000000000E+00  0.00000000000E+00 -0.62121406675E+03  0.62121406677E+03  0.50400001928E-02 0.  1.
    10030    2    1    2    0    0  0.00000000000E+00  0.00000000000E+00 -0.52346942823E+03  0.71895870542E+03  0.49282996846E+03 0.  0.
        5    1    3    3  502    0  0.19555475192E+03  0.14179544153E+03 -0.19100523284E+03  0.30798165077E+03  0.46999998093E+01 0. -1.
       -5    1    3    3    0  502 -0.19555475192E+03 -0.14179544153E+03 -0.33246419539E+03  0.41097705465E+03  0.46999998093E+01 0.  1.
</event>
<event>
 5   0  0.8208720E-02  0.4975757E+03  0.7818609E-02  0.1014414E+00
       -2   -1    0    0    0  501  0.00000000000E+00  0.00000000000E+00  0.25897982089E+03  0.25897982090E+03  0.25500000920E-02 0. -1.
        2   -1    0    0  501    0  0.00000000000E+00  0.00000000000E+00 -0.23899700302E+03  0.23899700303E+03  0.25500000920E-02 0.  1.
    10030    2    1    2    0    0  0.00000000000E+00  0.00000000000E+00  0.19982817872E+02  0.49797682393E+03  0.49757572706E+03 0.  0.
        3    1    3    3  502    0  0.95240027764E+02  0.31376945093E+02  0.23785941014E+03  0.25813230089E+03  0.10100000352E+00 0. -1.
       -3    1    3    3    0  502 -0.95240027764E+02 -0.31376945093E+02 -0.21787659227E+03  0.23984452304E+03  0.10100000352E+00 0.  1.
</event>
<event>
 5   0  0.5191358E-02  0.4987521E+03  0.7818609E-02  0.1014105E+00
       -1   -1    0    0    0  501  0.00000000000E+00  0.00000000000E+00  0.11745234239E+03  0.11745234250E+03  0.50400001928E-02 0.  1.
        1   -1    0    0  501    0  0.00000000000E+00  0.00000000000E+00 -0.52947780896E+03  0.52947780899E+03  0.50400001928E-02 0. -1.
    10030    2    1    2    0    0  0.00000000000E+00  0.00000000000E+00 -0.41202546657E+03  0.64693015149E+03  0.49875207849E+03 0.  0.
        4    1    3    3  502    0  0.13341362774E+03 -0.17821395319E+03 -0.35176973208E+03  0.41629672889E+03  0.12699999809E+01 0. -1.
       -4    1    3    3    0  502 -0.13341362774E+03  0.17821395319E+03 -0.60255734492E+02  0.23063342260E+03  0.12699999809E+01 0.  1.
</event>
<event>
 5   0  0.7881060E-02  0.5041639E+03  0.7818609E-02  0.1012698E+00
       -2   -1    0    0    0  501  0.00000000000E+00  0.00000000000E+00  0.40314852168E+02  0.40314852248E+02  0.25500000920E-02 0. -1.
        2   -1    0    0  501    0  0.00000000000E+00  0.00000000000E+00 -0.15762260226E+04  0.15762260226E+04  0.25500000920E-02 0.  1.
    10030    2    1    2    0    0  0.00000000000E+00  0.00000000000E+00 -0.15359111704E+04  0.16165408749E+04  0.50416393822E+03 0.  0.
        1    1    3    3  502    0 -0.21946899104E+03  0.88030240789E+02 -0.48789054286E+03  0.54217445823E+03  0.50400001928E-02 0. -1.
       -1    1    3    3    0  502  0.21946899104E+03 -0.88030240789E+02 -0.10480206276E+04  0.10743664166E+04  0.50400001928E-02 0.  1.
</event>
<event>
 5   0  0.5191358E-02  0.5005690E+03  0.7818609E-02  0.1013631E+00
        1   -1    0    0  501    0  0.00000000000E+00  0.00000000000E+00  0.17374081071E+04  0.17374081071E+04  0.50400001928E-02 0.  1.
       -1   -1    0    0    0  501  0.00000000000E+00  0.00000000000E+00 -0.36055040696E+02  0.36055041048E+02  0.50400001928E-02 0. -1.
    10030    2    1    2    0    0  0.00000000000E+00  0.00000000000E+00  0.17013530664E+04  0.17734631482E+04  0.50056895759E+03 0.  0.
        4    1    3    3  502    0 -0.27048957261E+02  0.20663473315E+02 -0.27804801597E+02  0.43969820447E+02  0.12699999809E+01 0. -1.
       -4    1    3    3    0  502  0.27048957261E+02 -0.20663473315E+02  0.17291578680E+04  0.17294933277E+04  0.12699999809E+01 0.  1.
</event>
<event>
 5   0  0.4803890E-02  0.5014900E+03  0.7818609E-02  0.1013391E+00
       -1   -1    0    0    0  501  0.00000000000E+00  0.00000000000E+00  0.66796688948E+02  0.66796689138E+02  0.50400001928E-02 0. -1.
        1   -1    0    0  501    0  0.00000000000E+00  0.00000000000E+00 -0.94125991676E+03  0.94125991678E+03  0.50400001928E-02 0.  1.
    10030    2    1    2    0    0  0.00000000000E+00  0.00000000000E+00 -0.87446322781E+03  0.10080566059E+04  0.50148996394E+03 0.  0.
        5    1    3    3  502    0 -0.24246778104E+03 -0.61050900286E+02 -0.40054376985E+03  0.47220254005E+03  0.46999998093E+01 0. -1.
       -5    1    3    3    0  502  0.24246778104E+03  0.61050900286E+02 -0.47391945797E+03  0.53585406587E+03  0.46999998093E+01 0.  1.
</event>
<event>
 5   0  0.3210875E-02  0.5010117E+03  0.7818609E-02  0.1013515E+00
        3   -1    0    0  501    0  0.00000000000E+00  0.00000000000E+00  0.42305267738E+03  0.42305268944E+03  0.10100000352E+00 0. -1.
       -3   -1    0    0    0  501  0.00000000000E+00  0.00000000000E+00 -0.14833419813E+03  0.14833423252E+03  0.10100000352E+00 0.  1.
    10030    2    1    2    0    0  0.00000000000E+00  0.00000000000E+00  0.27471847925E+03  0.57138692196E+03  0.50101174811E+03 0.  0.
        1    1    3    3  502    0 -0.65679286352E+02 -0.30372664426E+02 -0.13615517418E+03  0.15418981446E+03  0.50400001928E-02 0.  1.
       -1    1    3    3    0  502  0.65679286352E+02  0.30372664426E+02  0.41087365343E+03  0.41719710750E+03  0.50400001928E-02 0. -1.
</event>
<event>
 5   0  0.3210875E-02  0.4875836E+03  0.7818609E-02  0.1017072E+00
        3   -1    0    0  501    0  0.00000000000E+00  0.00000000000E+00  0.15530376645E+03  0.15530379929E+03  0.10100000352E+00 0. -1.
       -3   -1    0    0    0  501  0.00000000000E+00  0.00000000000E+00 -0.38269786052E+03  0.38269787385E+03  0.10100000352E+00 0.  1.
    10030    2    1    2    0    0  0.00000000000E+00  0.00000000000E+00 -0.22739409407E+03  0.53800167314E+03  0.48758355826E+03 0.  0.
        3    1    3    3  502    0  0.93279666955E+02 -0.18818601246E+03 -0.25026686817E+03  0.32672402277E+03  0.10100000352E+00 0.  1.
       -3    1    3    3    0  502 -0.93279666955E+02  0.18818601246E+03  0.22872774095E+02  0.21127765037E+03  0.10100000352E+00 0. -1.
</event>
<event>
 5   0  0.3210875E-02  0.5018974E+03  0.7818609E-02  0.1013285E+00
       -4   -1    0    0    0  501  0.00000000000E+00  0.00000000000E+00  0.46226993355E+03  0.46227167809E+03  0.12699999809E+01 0. -1.
        4   -1    0    0  501    0  0.00000000000E+00  0.00000000000E+00 -0.13622549452E+03  0.13623141436E+03  0.12699999809E+01 0.  1.
    10030    2    1    2    0    0  0.00000000000E+00  0.00000000000E+00  0.32604443903E+03  0.59850309245E+03  0.50189737542E+03 0.  0.
        5    1    3    3  502    0 -0.20106764713E+03 -0.12511127216E+03  0.64167595072E+02  0.24539885778E+03  0.46999998093E+01 0.  1.
       -5    1    3    3    0  502  0.20106764713E+03  0.12511127216E+03  0.26187684396E+03  0.35310423467E+03  0.46999998093E+01 0. -1.
</event>
<event>
 5   0  0.3210875E-02  0.4669330E+03  0.7818609E-02  0.1022789E+00
        3   -1    0    0  501    0  0.00000000000E+00  0.00000000000E+00  0.28214476805E+03  0.28214478613E+03  0.10100000352E+00 0. -1.
       -3   -1    0    0    0  501  0.00000000000E+00  0.00000000000E+00 -0.19318661914E+03  0.19318664554E+03  0.10100000352E+00 0.  1.
    10030    2    1    2    0    0  0.00000000000E+00  0.00000000000E+00  0.88958148908E+02  0.47533143167E+03  0.46693299057E+03 0.  0.
        3    1    3    3  502    0 -0.19214212001E+03 -0.13243395428E+03  0.37335181838E+02  0.23632873826E+03  0.10100000352E+00 0.  1.
       -3    1    3    3    0  502  0.19214212001E+03  0.13243395428E+03  0.51622967070E+02  0.23900269341E+03  0.10100000352E+00 0. -1.
</event>
<event>
 5   0  0.4865501E-02  0.4708719E+03  0.7818609E-02  0.1021674E+00
       -1   -1    0    0    0  501  0.00000000000E+00  0.00000000000E+00  0.20004569276E+03  0.20004569282E+03  0.50400001928E-02 0.  1.
        1   -1    0    0  501    0  0.00000000000E+00  0.00000000000E+00 -0.27708710785E+03  0.27708710790E+03  0.50400001928E-02 0. -1.
    10030    2    1    2    0    0  0.00000000000E+00  0.00000000000E+00 -0.77041415096E+02  0.47713280072E+03  0.47087188266E+03 0.  0.
        2    1    3    3  502    0  0.97999135318E+02  0.21268346290E+03 -0.63175202054E+02  0.24254729864E+03  0.25500000920E-02 0.  1.
       -2    1    3    3    0  502 -0.97999135318E+02 -0.21268346290E+03 -0.13866213042E+02  0.23458550208E+03  0.25500000920E-02 0. -1.
</event>
<event>
 5   0  0.3210875E-02  0.5010805E+03  0.7818609E-02  0.1013497E+00
        3   -1    0    0  501    0  0.00000000000E+00  0.00000000000E+00  0.85429338446E+03  0.85429339043E+03  0.10100000352E+00 0. -1.
       -3   -1    0    0    0  501  0.00000000000E+00  0.00000000000E+00 -0.73476386640E+02  0.73476456057E+02  0.10100000352E+00 0.  1.
    10030    2    1    2    0    0  0.00000000000E+00  0.00000000000E+00  0.78081699782E+03  0.92776984649E+03  0.50108053641E+03 0.  0.
        1    1    3    3  502    0 -0.98328200463E+02 -0.22863095223E+03  0.44374690263E+03  0.50877486273E+03  0.50400001928E-02 0.  1.
       -1    1    3    3    0  502  0.98328200463E+02  0.22863095223E+03  0.33707009519E+03  0.41899498376E+03  0.50400001928E-02 0. -1.
</event>
<event>
 5   0  0.4803890E-02  0.5015197E+03  0.7818609E-02  0.1013383E+00
       -1   -1    0    0    0  501  0.00000000000E+00  0.00000000000E+00  0.16944652439E+03  0.16944652447E+03  0.50400001928E-02 0.  1.
        1   -1    0    0  501    0  0.00000000000E+00  0.00000000000E+00 -0.37109353112E+03  0.37109353116E+03  0.50400001928E-02 0. -1.
    10030    2    1    2    0    0  0.00000000000E+00  0.00000000000E+00 -0.20164700673E+03  0.54054005563E+03  0.50151972684E+03 0.  0.
        5    1    3    3  502    0  0.98297789637E+02 -0.21346217622E+03 -0.66782928001E+01  0.23514941148E+03  0.46999998093E+01 0.  1.
       -5    1    3    3    0  502 -0.98297789637E+02  0.21346217622E+03 -0.19496871393E+03  0.30539064415E+03  0.46999998093E+01 0. -1.
</event>
<event>
 5   0  0.3210875E-02  0.4984862E+03  0.7818609E-02  0.1014175E+00
        3   -1    0    0  501    0  0.00000000000E+00  0.00000000000E+00  0.13127742395E+03  0.13127746280E+03  0.10100000352E+00 0. -1.
       -3   -1    0    0    0  501  0.00000000000E+00  0.00000000000E+00 -0.47321236830E+03  0.47321237908E+03  0.10100000352E+00 0.  1.
    10030    2    1    2    0    0  0.00000000000E+00  0.00000000000E+00 -0.34193494435E+03  0.60448984188E+03  0.49848617109E+03 0.  0.
        5    1    3    3  502    0 -0.23936430936E+03  0.62412096836E+02 -0.20753817020E+03  0.32293145482E+03  0.46999998093E+01 0. -1.
       -5    1    3    3    0  502  0.23936430936E+03 -0.62412096836E+02 -0.13439677415E+03  0.28155838706E+03  0.46999998093E+01 0.  1.
</event>
<event>
 5   0  0.7698747E-02  0.5014734E+03  0.7818609E-02  0.1013395E+00
       -2   -1    0    0    0  501  0.00000000000E+00  0.00000000000E+00  0.90162399882E+02  0.90162399918E+02  0.25500000920E-02 0. -1.
        2   -1    0    0  501    0  0.00000000000E+00  0.00000000000E+00 -0.69728509764E+03  0.69728509764E+03  0.25500000920E-02 0.  1.
    10030    2    1    2    0    0  0.00000000000E+00  0.00000000000E+00 -0.60712269775E+03  0.78744749756E+03  0.50147342032E+03 0.  0.
        2    1    3    3  502    0  0.10594184313E+03 -0.14190580753E+03 -0.58229144764E+03  0.60862489461E+03  0.25500000920E-02 0.  1.
       -2    1    3    3    0  502 -0.10594184313E+03  0.14190580753E+03 -0.24831250115E+02  0.17882260295E+03  0.25500000920E-02 0. -1.
</event>
<event>
 5   0  0.5191358E-02  0.4994320E+03  0.7818609E-02  0.1013927E+00
       -1   -1    0    0    0  501  0.00000000000E+00  0.00000000000E+00  0.17982100491E+03  0.17982100498E+03  0.50400001928E-02 0. -1.
        1   -1    0    0  501    0  0.00000000000E+00  0.00000000000E+00 -0.34677864865E+03  0.34677864869E+03  0.50400001928E-02 0.  1.
    10030    2    1    2    0    0  0.00000000000E+00  0.00000000000E+00 -0.16695764374E+03  0.52659965367E+03  0.49943201784E+03 0.  0.
        4    1    3    3  502    0  0.10236068507E+03 -0.14584937680E+02 -0.32314501877E+03  0.33928564118E+03  0.12699999809E+01 0.  1.
       -4    1    3    3    0  502 -0.10236068507E+03  0.14584937680E+02  0.15618737503E+03  0.18731401249E+03  0.12699999809E+01 0. -1.
</event>
<event>
 5   0  0.5038436E-02  0.5006097E+03  0.7818609E-02  0.1013620E+00
        1   -1    0    0  501    0  0.00000000000E+00  0.00000000000E+00  0.18442210426E+03  0.18442210433E+03  0.50400001928E-02 0. -1.
       -1   -1    0    0    0  501  0.00000000000E+00  0.00000000000E+00 -0.33972341507E+03  0.33972341511E+03  0.50400001928E-02 0.  1.
    10030    2    1    2    0    0  0.00000000000E+00  0.00000000000E+00 -0.15530131081E+03  0.52414551944E+03  0.50060965673E+03 0.  0.
        1    1    3    3  502    0  0.21990675710E+03 -0.16419360114E+02 -0.20164090108E+03  0.29881035828E+03  0.50400001928E-02 0.  1.
       -1    1    3    3    0  502 -0.21990675710E+03  0.16419360114E+02  0.46339590270E+02  0.22533516116E+03  0.50400001928E-02 0. -1.
</event>
<event>
 5   0  0.5038436E-02  0.4859164E+03  0.7818609E-02  0.1017522E+00
       -1   -1    0    0    0  501  0.00000000000E+00  0.00000000000E+00  0.14842824486E+03  0.14842824494E+03  0.50400001928E-02 0.  1.
        1   -1    0    0  501    0  0.00000000000E+00  0.00000000000E+00 -0.39769178610E+03  0.39769178614E+03  0.50400001928E-02 0. -1.
    10030    2    1    2    0    0  0.00000000000E+00  0.00000000000E+00 -0.24926354125E+03  0.54612003108E+03  0.48591642836E+03 0.  0.
        1    1    3    3  502    0 -0.87462969410E+02 -0.18740800761E+03 -0.26793265929E+03  0.33846630892E+03  0.50400001928E-02 0. -1.
       -1    1    3    3    0  502  0.87462969410E+02  0.18740800761E+03  0.18669118042E+02  0.20765372216E+03  0.50400001928E-02 0.  1.
</event>
<event>
 5   0  0.3210875E-02  0.5023166E+03  0.7818609E-02  0.1013176E+00
       -3   -1    0    0    0  501  0.00000000000E+00  0.00000000000E+00  0.79332455527E+02  0.79332519820E+02  0.10100000352E+00 0. -1.
        3   -1    0    0  501    0  0.00000000000E+00  0.00000000000E+00 -0.79514058798E+03  0.79514059439E+03  0.10100000352E+00 0.  1.
    10030    2    1    2    0    0  0.00000000000E+00  0.00000000000E+00 -0.71580813245E+03  0.87447311421E+03  0.50231657846E+03 0.  0.
        4    1    3    3  502    0 -0.79840076475E+02  0.53305580397E+02  0.46126311954E+02  0.10651371868E+03  0.12699999809E+01 0. -1.
       -4    1    3    3    0  502  0.79840076475E+02 -0.53305580397E+02 -0.76193444440E+03  0.76795939553E+03  0.12699999809E+01 0.  1.
</event>
<event>
 5   0  0.7776070E-02  0.4980915E+03  0.7818609E-02  0.1014278E+00
        2   -1    0    0  501    0  0.00000000000E+00  0.00000000000E+00  0.80551180557E+03  0.80551180557E+03  0.25500000920E-02 0.  1.
       -2   -1    0    0    0  501  0.00000000000E+00  0.00000000000E+00 -0.76999232734E+02  0.76999232776E+02  0.25500000920E-02 0. -1.
    10030    2    1    2    0    0  0.00000000000E+00  0.00000000000E+00  0.72851257283E+03  0.88251103835E+03  0.49809152174E+03 0.  0.
        4    1    3    3  502    0  0.14540195773E+03  0.25541418501E+02  0.71962212356E+03  0.73460990123E+03  0.12699999809E+01 0.  1.
       -4    1    3    3    0  502 -0.14540195773E+03 -0.25541418501E+02  0.88904492716E+01  0.14790113711E+03  0.12699999809E+01 0. -1.
</event>
<event>
 5   0  0.5038436E-02  0.4972205E+03  0.7818609E-02  0.1014507E+00
       -1   -1    0    0    0  501  0.00000000000E+00  0.00000000000E+00  0.15700380423E+03  0.15700380431E+03  0.50400001928E-02 0.  1.
        1   -1    0    0  501    0  0.00000000000E+00  0.00000000000E+00 -0.39366603065E+03  0.39366603068E+03  0.50400001928E-02 0. -1.
    10030    2    1    2    0    0  0.00000000000E+00  0.00000000000E+00 -0.23666222642E+03  0.55066983500E+03  0.49722053232E+03 0.  0.
        1    1    3    3  502    0 -0.15448155452E+03 -0.19012908621E+03 -0.71429672853E+02  0.25517801296E+03  0.50400001928E-02 0. -1.
       -1    1    3    3    0  502  0.15448155452E+03  0.19012908621E+03 -0.16523255356E+03  0.29549182204E+03  0.50400001928E-02 0.  1.
</event>
<event>
 5   0  0.7776070E-02  0.5081321E+03  0.7818609E-02  0.1011678E+00
       -2   -1    0    0    0  501  0.00000000000E+00  0.00000000000E+00  0.84349480943E+03  0.84349480944E+03  0.25500000920E-02 0.  1.
        2   -1    0    0  501    0  0.00000000000E+00  0.00000000000E+00 -0.76526337556E+02  0.76526337599E+02  0.25500000920E-02 0. -1.
    10030    2    1    2    0    0  0.00000000000E+00  0.00000000000E+00  0.76696847188E+03  0.92002114704E+03  0.50813214240E+03 0.  0.
        4    1    3    3  502    0 -0.34788811370E+02  0.23905520850E+03  0.52593902181E+03  0.57876689753E+03  0.12699999809E+01 0.  1.
       -4    1    3    3    0  502  0.34788811370E+02 -0.23905520850E+03  0.24102945007E+03  0.34125424951E+03  0.12699999809E+01 0. -1.
</event>
<event>
 5   0  0.8208720E-02  0.4999328E+03  0.7818609E-02  0.1013796E+00
        2   -1    0    0  501    0  0.00000000000E+00  0.00000000000E+00  0.10060491803E+04  0.10060491803E+04  0.25500000920E-02 0.  1.
       -2   -1    0    0    0  501  0.00000000000E+00  0.00000000000E+00 -0.62107504987E+02  0.62107505039E+02  0.25500000920E-02 0. -1.
    10030    2    1    2    0    0  0.00000000000E+00  0.00000000000E+00  0.94394167529E+03  0.10681566853E+04  0.49993281353E+03 0.  0.
        3    1    3    3  502    0  0.82411309082E+01 -0.10259057529E+03  0.95867722584E+03  0.96418606914E+03  0.10100000352E+00 0.  1.
       -3    1    3    3    0  502 -0.82411309082E+01  0.10259057529E+03 -0.14735550550E+02  0.10397061618E+03  0.10100000352E+00 0. -1.
</event>
<event>
 5   0  0.7881060E-02  0.5011350E+03  0.7818609E-02  0.1013483E+00
       -2   -1    0    0    0  501  0.00000000000E+00  0.00000000000E+00  0.31900954418E+03  0.31900954419E+03  0.25500000920E-02 0. -1.
        2   -1    0    0  501    0  0.00000000000E+00  0.00000000000E+00 -0.19680937500E+03  0.19680937501E+03  0.25500000920E-02 0.  1.
    10030    2    1    2    0    0  0.00000000000E+00  0.00000000000E+00  0.12220016919E+03  0.51581891921E+03  0.50113498786E+03 0.  0.
        1    1    3    3  502    0 -0.31843487596E+02 -0.25584782983E+02  0.31555928387E+03  0.31819215968E+03  0.50400001928E-02 0. -1.
       -1    1    3    3    0  502  0.31843487596E+02  0.25584782983E+02 -0.19335911468E+03  0.19762675952E+03  0.50400001928E-02 0.  1.
</event>
<event>
 5   0  0.7776070E-02  0.5005384E+03  0.7818609E-02  0.1013638E+00
       -2   -1    0    0    0  501  0.00000000000E+00  0.00000000000E+00  0.39211706088E+02  0.39211706171E+02  0.25500000920E-02 0. -1.
        2   -1    0    0  501    0  0.00000000000E+00  0.00000000000E+00 -0.15973465117E+04  0.15973465117E+04  0.25500000920E-02 0.  1.
    10030    2    1    2    0    0  0.00000000000E+00  0.00000000000E+00 -0.15581348056E+04  0.16365582178E+04  0.50053843811E+03 0.  0.
        4    1    3    3  502    0  0.52040796082E+02 -0.54496723102E+02  0.12291589773E+01  0.75374140244E+02  0.12699999809E+01 0. -1.
       -4    1    3    3    0  502 -0.52040796082E+02  0.54496723102E+02 -0.15593639646E+04  0.15611840776E+04  0.12699999809E+01 0.  1.
</event>
<event>
 5   0  0.5038436E-02  0.4991263E+03  0.7818609E-02  0.1014007E+00
       -1   -1    0    0    0  501  0.00000000000E+00  0.00000000000E+00  0.51918380954E+03  0.51918380957E+03  0.50400001928E-02 0. -1.
        1   -1    0    0  501    0  0.00000000000E+00  0.00000000000E+00 -0.11996093716E+03  0.11996093726E+03  0.50400001928E-02 0.  1.
    10030    2    1    2    0    0  0.00000000000E+00  0.00000000000E+00  0.39922287239E+03  0.63914474683E+03  0.49912634229E+03 0.  0.
        1    1    3    3  502    0  0.85604153088E+01  0.23630126661E+03  0.97407997758E+02  0.25573401683E+03  0.50400001928E-02 0.  1.
       -1    1    3    3    0  502 -0.85604153088E+01 -0.23630126661E+03  0.30181487463E+03  0.38341073000E+03  0.50400001928E-02 0. -1.
</event>
<event>
 5   0  0.8208720E-02  0.5022394E+03  0.7818609E-02  0.1013196E+00
        2   -1    0    0  501    0  0.00000000000E+00  0.00000000000E+00  0.11422439958E+04  0.11422439958E+04  0.25500000920E-02 0.  1.
       -2   -1    0    0    0  501  0.00000000000E+00  0.00000000000E+00 -0.55208091498E+02  0.55208091557E+02  0.25500000920E-02 0. -1.
    10030    2    1    2    0    0  0.00000000000E+00  0.00000000000E+00  0.10870359043E+04  0.11974520874E+04  0.50223942924E+03 0.  0.
        3    1    3    3  502    0 -0.14547150084E+03 -0.18645375343E+03  0.34213709307E+03  0.41591436664E+03  0.10100000352E+00 0.  1.
       -3    1    3    3    0  502  0.14547150084E+03  0.18645375343E+03  0.74489881126E+03  0.78153772074E+03  0.10100000352E+00 0. -1.
</event>
<event>
 5   0  0.5038436E-02  0.5007398E+03  0.7818609E-02  0.1013586E+00
       -1   -1    0    0    0  501  0.00000000000E+00  0.00000000000E+00  0.62562055246E+02  0.62562055449E+02  0.50400001928E-02 0. -1.
        1   -1    0    0  501    0  0.00000000000E+00  0.00000000000E+00 -0.10019667179E+04  0.10019667179E+04  0.50400001928E-02 0.  1.
    10030    2    1    2    0    0  0.00000000000E+00  0.00000000000E+00 -0.93940466267E+03  0.10645287734E+04  0.50073984174E+03 0.  0.
        1    1    3    3  502    0  0.21178535392E+03 -0.85231346702E+01 -0.75301083661E+03  0.78227297029E+03  0.50400001928E-02 0.  1.
       -1    1    3    3    0  502 -0.21178535392E+03  0.85231346702E+01 -0.18639382606E+03  0.28225580309E+03  0.50400001928E-02 0. -1.
</event>
<event>
 5   0  0.7776070E-02  0.5001100E+03  0.7818609E-02  0.1013750E+00
        2   -1    0    0  501    0  0.00000000000E+00  0.00000000000E+00  0.10750838235E+04  0.10750838235E+04  0.25500000920E-02 0.  1.
       -2   -1    0    0    0  501  0.00000000000E+00  0.00000000000E+00 -0.58160572565E+02  0.58160572621E+02  0.25500000920E-02 0. -1.
    10030    2    1    2    0    0  0.00000000000E+00  0.00000000000E+00  0.10169232509E+04  0.11332443961E+04  0.50010995095E+03 0.  0.
        4    1    3    3  502    0 -0.32211960519E+02  0.22462988295E+03  0.74644115540E+03  0.78017447157E+03  0.12699999809E+01 0.  1.
       -4    1    3    3    0  502  0.32211960519E+02 -0.22462988295E+03  0.27048209550E+03  0.35306992452E+03  0.12699999809E+01 0. -1.
</event>
<event>
 5   0  0.7698747E-02  0.5167501E+03  0.7818609E-02  0.1009497E+00
       -2   -1    0    0    0  501  0.00000000000E+00  0.00000000000E+00  0.80343622889E+02  0.80343622930E+02  0.25500000920E-02 0.  1.
        2   -1    0    0  501    0  0.00000000000E+00  0.00000000000E+00 -0.83090198497E+03  0.83090198498E+03  0.25500000920E-02 0. -1.
    10030    2    1    2    0    0  0.00000000000E+00  0.00000000000E+00 -0.75055836208E+03  0.91124560791E+03  0.51675013598E+03 0.  0.
        2    1    3    3  502    0 -0.42505654434E+02  0.18825042482E+03 -0.67822117999E+03  0.70514461076E+03  0.25500000920E-02 0. -1.
       -2    1    3    3    0  502  0.42505654434E+02 -0.18825042482E+03 -0.72337182099E+02  0.20610099714E+03  0.25500000920E-02 0.  1.
</event>
<event>
 5   0  0.7881060E-02  0.4941711E+03  0.7818609E-02  0.1015312E+00
       -2   -1    0    0    0  501  0.00000000000E+00  0.00000000000E+00  0.15522878415E+03  0.15522878417E+03  0.25500000920E-02 0. -1.
        2   -1    0    0  501    0  0.00000000000E+00  0.00000000000E+00 -0.39329857364E+03  0.39329857364E+03  0.25500000920E-02 0.  1.
    10030    2    1    2    0    0  0.00000000000E+00  0.00000000000E+00 -0.23806978949E+03  0.54852735781E+03  0.49417106108E+03 0.  0.
        1    1    3    3  502    0  0.17098600591E+03 -0.25438235804E+01 -0.31700202353E+03  0.36018463071E+03  0.50400001928E-02 0.  1.
       -1    1    3    3    0  502 -0.17098600591E+03  0.25438235804E+01  0.78932234040E+02  0.18834272710E+03  0.50400001928E-02 0. -1.
</event>
<event>
 5   0  0.8208720E-02  0.5044829E+03  0.7818609E-02  0.1012615E+00
        2   -1    0    0  501    0  0.00000000000E+00  0.00000000000E+00  0.11614336921E+04  0.11614336921E+04  0.25500000920E-02 0.  1.
       -2   -1    0    0    0  501  0.00000000000E+00  0.00000000000E+00 -0.54782076115E+02  0.54782076174E+02  0.25500000920E-02 0. -1.
    10030    2    1    2    0    0  0.00000000000E+00  0.00000000000E+00  0.11066516160E+04  0.12162157683E+04  0.50448289945E+03 0.  0.
        3    1    3    3  502    0  0.48510948095E+02 -0.22923624003E+03  0.77849108659E+03  0.81298889779E+03  0.10100000352E+00 0.  1.
       -3    1    3    3    0  502 -0.48510948095E+02  0.22923624003E+03  0.32816052938E+03  0.40322687047E+03  0.10100000352E+00 0. -1.
</event>
<event>
 5   0  0.3210875E-02  0.4987921E+03  0.7818609E-02  0.1014095E+00
        3   -1    0    0  501    0  0.00000000000E+00  0.00000000000E+00  0.95064363861E+02  0.95064417514E+02  0.10100000352E+00 0. -1.
       -3   -1    0    0    0  501  0.00000000000E+00  0.00000000000E+00 -0.65427631916E+03  0.65427632696E+03  0.10100000352E+00 0.  1.
    10030    2    1    2    0    0  0.00000000000E+00  0.00000000000E+00 -0.55921195530E+03  0.74934074447E+03  0.49879208131E+03 0.  0.
        4    1    3    3  502    0  0.22045231015E+03  0.15709766102E+02 -0.10602077509E+03  0.24512861002E+03  0.12699999809E+01 0. -1.
       -4    1    3    3    0  502 -0.22045231015E+03 -0.15709766102E+02 -0.45319118021E+03  0.50421213445E+03  0.12699999809E+01 0.  1.
</event>
<event>
 5   0  0.7698747E-02  0.5015910E+03  0.7818609E-02  0.1013364E+00
       -2   -1    0    0    0  501  0.00000000000E+00  0.00000000000E+00  0.38884901524E+02  0.38884901607E+02  0.25500000920E-02 0.  1.
        2   -1    0    0  501    0  0.00000000000E+00  0.00000000000E+00 -0.16175530345E+04  0.16175530345E+04  0.25500000920E-02 0. -1.
    10030    2    1    2    0    0  0.00000000000E+00  0.00000000000E+00 -0.15786681329E+04  0.16564379361E+04  0.50159103072E+03 0.  0.
        2    1    3    3  502    0 -0.33550953003E+02 -0.19102507572E+02  0.29012454006E+02  0.48293837463E+02  0.25500000920E-02 0.  1.
       -2    1    3    3    0  502  0.33550953003E+02  0.19102507572E+02 -0.16076805870E+04  0.16081440986E+04  0.25500000920E-02 0. -1.
</event>
<event>
 5   0  0.4865501E-02  0.5006759E+03  0.7818609E-02  0.1013603E+00
       -1   -1    0    0    0  501  0.00000000000E+00  0.00000000000E+00  0.35744455405E+03  0.35744455409E+03  0.50400001928E-02 0.  1.
        1   -1    0    0  501    0  0.00000000000E+00  0.00000000000E+00 -0.17532532805E+03  0.17532532812E+03  0.50400001928E-02 0. -1.
    10030    2    1    2    0    0  0.00000000000E+00  0.00000000000E+00  0.18211922600E+03  0.53276988220E+03  0.50067587809E+03 0.  0.
        2    1    3    3  502    0 -0.37881669626E+02  0.13699966841E+03  0.31033977725E+03  0.34134250745E+03  0.25500000920E-02 0.  1.
       -2    1    3    3    0  502  0.37881669626E+02 -0.13699966841E+03 -0.12822055125E+03  0.19142737476E+03  0.25500000920E-02 0. -1.
</event>
<event>
 5   0  0.4865501E-02  0.4983045E+03  0.7818609E-02  0.1014222E+00
       -1   -1    0    0    0  501  0.00000000000E+00  0.00000000000E+00  0.88581842346E+02  0.88581842490E+02  0.50400001928E-02 0.  1.
        1   -1    0    0  501    0  0.00000000000E+00  0.00000000000E+00 -0.70078527801E+03  0.70078527803E+03  0.50400001928E-02 0. -1.
    10030    2    1    2    0    0  0.00000000000E+00  0.00000000000E+00 -0.61220343567E+03  0.78936712052E+03  0.49830452970E+03 0.  0.
        2    1    3    3  502    0  0.27079926509E+02  0.21211418294E+03 -0.50866359464E+03  0.55178292974E+03  0.25500000920E-02 0. -1.
       -2    1    3    3    0  502 -0.27079926509E+02 -0.21211418294E+03 -0.10353984103E+03  0.23758419079E+03  0.25500000920E-02 0.  1.
</event>
<event>
 5   0  0.5191358E-02  0.4945073E+03  0.7818609E-02  0.1015223E+00
       -1   -1    0    0    0  501  0.00000000000E+00  0.00000000000E+00  0.46477157699E+03  0.46477157701E+03  0.50400001928E-02 0.  1.
        1   -1    0    0  501    0  0.00000000000E+00  0.00000000000E+00 -0.13153635436E+03  0.13153635445E+03  0.50400001928E-02 0. -1.
    10030    2    1    2    0    0  0.00000000000E+00  0.00000000000E+00  0.33323522263E+03  0.59630793147E+03  0.49450726540E+03 0.  0.
        4    1    3    3  502    0  0.10898384766E+03  0.79714653949E+01  0.43406842592E+03  0.44761371135E+03  0.12699999809E+01 0.  1.
       -4    1    3    3    0  502 -0.10898384766E+03 -0.79714653949E+01 -0.10083320329E+03  0.14869422012E+03  0.12699999809E+01 0. -1.
</event>
<event>
 5   0  0.4803890E-02  0.4984899E+03  0.7818609E-02  0.1014174E+00
       -1   -1    0    0    0  501  0.00000000000E+00  0.00000000000E+00  0.79662534582E+02  0.79662534742E+02  0.50400001928E-02 0. -1.
        1   -1    0    0  501    0  0.00000000000E+00  0.00000000000E+00 -0.77982749729E+03  0.77982749731E+03  0.50400001928E-02 0.  1.
    10030    2    1    2    0    0  0.00000000000E+00  0.00000000000E+00 -0.70016496271E+03  0.85949003205E+03  0.49848985966E+03 0.  0.
        5    1    3    3  502    0  0.17475783766E+03 -0.21868181891E+01 -0.43798323853E+02  0.18023725245E+03  0.46999998093E+01 0. -1.
       -5    1    3    3    0  502 -0.17475783766E+03  0.21868181891E+01 -0.65636663886E+03  0.67925277961E+03  0.46999998093E+01 0.  1.
</event>
<event>
 5   0  0.4803890E-02  0.5029657E+03  0.7818609E-02  0.1013008E+00
        1   -1    0    0  501    0  0.00000000000E+00  0.00000000000E+00  0.62269875920E+03  0.62269875922E+03  0.50400001928E-02 0. -1.
       -1   -1    0    0    0  501  0.00000000000E+00  0.00000000000E+00 -0.10156377195E+03  0.10156377208E+03  0.50400001928E-02 0.  1.
    10030    2    1    2    0    0  0.00000000000E+00  0.00000000000E+00  0.52113498725E+03  0.72426253130E+03  0.50296574368E+03 0.  0.
        5    1    3    3  502    0  0.20164127995E+03 -0.61027435838E+02  0.45820752097E+03  0.50434093228E+03  0.46999998093E+01 0. -1.
       -5    1    3    3    0  502 -0.20164127995E+03  0.61027435838E+02  0.62927466281E+02  0.21992159902E+03  0.46999998093E+01 0.  1.
</event>
<event>
 5   0  0.8208720E-02  0.5016205E+03  0.7818609E-02  0.1013357E+00
        2   -1    0    0  501    0  0.00000000000E+00  0.00000000000E+00  0.63166870049E+03  0.63166870049E+03  0.25500000920E-02 0.  1.
       -2   -1    0    0    0  501  0.00000000000E+00  0.00000000000E+00 -0.99586683123E+02  0.99586683155E+02  0.25500000920E-02 0. -1.
    10030    2    1    2    0    0  0.00000000000E+00  0.00000000000E+00  0.53208201736E+03  0.73125538365E+03  0.50162053677E+03 0.  0.
        3    1    3    3  502    0 -0.92924708142E+01 -0.21026515698E+03  0.67182787740E+02  0.22093284822E+03  0.10100000352E+00 0. -1.
       -3    1    3    3    0  502  0.92924708142E+01  0.21026515698E+03  0.46489922962E+03  0.51032253542E+03  0.10100000352E+00 0.  1.
</event>
<event>
 5   0  0.8208720E-02  0.4991205E+03  0.7818609E-02  0.1014009E+00
        2   -1    0    0  501    0  0.00000000000E+00  0.00000000000E+00  0.96962315309E+03  0.96962315309E+03  0.25500000920E-02 0. -1.
       -2   -1    0    0    0  501  0.00000000000E+00  0.00000000000E+00 -0.64231473331E+02  0.64231473381E+02  0.25500000920E-02 0.  1.
    10030    2    1    2    0    0  0.00000000000E+00  0.00000000000E+00  0.90539167975E+03  0.10338546265E+04  0.49912052142E+03 0.  0.
        3    1    3    3  502    0 -0.31831220346E+02  0.40155854708E+02 -0.53217344324E+02  0.73877027512E+02  0.10100000352E+00 0.  1.
       -3    1    3    3    0  502  0.31831220346E+02 -0.40155854708E+02  0.95860902408E+03  0.95997759896E+03  0.10100000352E+00 0. -1.
</event>
<event>
 5   0  0.4803890E-02  0.4983490E+03  0.7818609E-02  0.1014211E+00
        1   -1    0    0  501    0  0.00000000000E+00  0.00000000000E+00  0.26489917845E+03  0.26489917850E+03  0.50400001928E-02 0.  1.
       -1   -1    0    0    0  501  0.00000000000E+00  0.00000000000E+00 -0.23438324432E+03  0.23438324438E+03  0.50400001928E-02 0. -1.
    10030    2    1    2    0    0  0.00000000000E+00  0.00000000000E+00  0.30515934127E+02  0.49928242288E+03  0.49834898972E+03 0.  0.
        5    1    3    3  502    0  0.23657331453E+02 -0.21488806087E+03 -0.10878545165E+03  0.24205972925E+03  0.46999998093E+01 0. -1.
       -5    1    3    3    0  502 -0.23657331453E+02  0.21488806087E+03  0.13930138578E+03  0.25722269362E+03  0.46999998093E+01 0.  1.
</event>
<event>
 5   0  0.7881060E-02  0.5010046E+03  0.7818609E-02  0.1013517E+00
       -2   -1    0    0    0  501  0.00000000000E+00  0.00000000000E+00  0.51577884016E+02  0.51577884079E+02  0.25500000920E-02 0. -1.
        2   -1    0    0  501    0  0.00000000000E+00  0.00000000000E+00 -0.12166339275E+04  0.12166339275E+04  0.25500000920E-02 0.  1.
    10030    2    1    2    0    0  0.00000000000E+00  0.00000000000E+00 -0.11650560435E+04  0.12682118116E+04  0.50100460535E+03 0.  0.
        1    1    3    3  502    0 -0.25087504930E+02  0.13646573426E+03 -0.54581015340E+02  0.14910186717E+03  0.50400001928E-02 0. -1.
       -1    1    3    3    0  502  0.25087504930E+02 -0.13646573426E+03 -0.11104750281E+04  0.11191099444E+04  0.50400001928E-02 0.  1.
</event>
<event>
 5   0  0.4865501E-02  0.4976731E+03  0.7818609E-02  0.1014388E+00
        1   -1    0    0  501    0  0.00000000000E+00  0.00000000000E+00  0.78164386860E+03  0.78164386862E+03  0.50400001928E-02 0. -1.
       -1   -1    0    0    0  501  0.00000000000E+00  0.00000000000E+00 -0.79217193568E+02  0.79217193728E+02  0.50400001928E-02 0.  1.
    10030    2    1    2    0    0  0.00000000000E+00  0.00000000000E+00  0.70242667504E+03  0.86086106235E+03  0.49767312050E+03 0.  0.
        2    1    3    3  502    0 -0.21910803520E+03  0.75837390030E+01  0.14761549465E+03  0.26430319418E+03  0.25500000920E-02 0.  1.
       -2    1    3    3    0  502  0.21910803520E+03 -0.75837390030E+01  0.55481118039E+03  0.59655786817E+03  0.25500000920E-02 0. -1.
</event>
<event>
 5   0  0.8208720E-02  0.4981165E+03  0.7818609E-02  0.1014272E+00
       -2   -1    0    0    0  501  0.00000000000E+00  0.00000000000E+00  0.62549190508E+02  0.62549190560E+02  0.25500000920E-02 0.  1.
        2   -1    0    0  501    0  0.00000000000E+00  0.00000000000E+00 -0.99169980331E+03  0.99169980332E+03  0.25500000920E-02 0. -1.
    10030    2    1    2    0    0  0.00000000000E+00  0.00000000000E+00 -0.92915061280E+03  0.10542489939E+04  0.49811653236E+03 0.  0.
        3    1    3    3  502    0 -0.45551772931E+02 -0.17395280787E+03 -0.82929340431E+03  0.84856473178E+03  0.10100000352E+00 0. -1.
       -3    1    3    3    0  502  0.45551772931E+02  0.17395280787E+03 -0.99857208490E+02  0.20568426209E+03  0.10100000352E+00 0.  1.
</event>
<event>
 5   0  0.7776070E-02  0.5023928E+03  0.7818609E-02  0.1013156E+00
       -2   -1    0    0    0  501  0.00000000000E+00  0.00000000000E+00  0.89689771177E+02  0.89689771213E+02  0.25500000920E-02 0.  1.
        2   -1    0    0  501    0  0.00000000000E+00  0.00000000000E+00 -0.70353221518E+03  0.70353221518E+03  0.25500000920E-02 0. -1.
    10030    2    1    2    0    0  0.00000000000E+00  0.00000000000E+00 -0.61384244400E+03  0.79322198640E+03  0.50239284792E+03 0.  0.
        4    1    3    3  502    0 -0.21134033054E+03 -0.86221739252E+02 -0.14133278519E+03  0.26846879279E+03  0.12699999809E+01 0.  1.
       -4    1    3    3    0  502  0.21134033054E+03  0.86221739252E+02 -0.47250965881E+03  0.52475319361E+03  0.12699999809E+01 0. -1.
</event>
<event>
 5   0  0.7933103E-02  0.5006161E+03  0.7818609E-02  0.1013618E+00
        2   -1    0    0  501    0  0.00000000000E+00  0.00000000000E+00  0.38376052557E+03  0.38376052558E+03  0.25500000920E-02 0.  1.
       -2   -1    0    0    0  501  0.00000000000E+00  0.00000000000E+00 -0.16326360872E+03  0.16326360874E+03  0.25500000920E-02 0. -1.
    10030    2    1    2    0    0  0.00000000000E+00  0.00000000000E+00  0.22049691685E+03  0.54702413432E+03  0.50061613357E+03 0.  0.
        5    1    3    3  502    0 -0.63020472301E+02 -0.23442869333E+03  0.43749263545E+02  0.24670727643E+03  0.46999998093E+01 0. -1.
       -5    1    3    3    0  502  0.63020472301E+02  0.23442869333E+03  0.17674765330E+03  0.30031685789E+03  0.46999998093E+01 0.  1.
</event>
<event>
 5   0  0.5038436E-02  0.4990368E+03  0.7818609E-02  0.1014031E+00
       -1   -1    0    0    0  501  0.00000000000E+00  0.00000000000E+00  0.14119744674E+03  0.14119744683E+03  0.50400001928E-02 0. -1.
        1   -1    0    0  501    0  0.00000000000E+00  0.00000000000E+00 -0.44093877423E+03  0.44093877426E+03  0.50400001928E-02 0.  1.
    10030    2    1    2    0    0  0.00000000000E+00  0.00000000000E+00 -0.29974132749E+03  0.58213622109E+03  0.49903678872E+03 0.  0.
        1    1    3    3  502    0  0.52480380398E+02  0.24339277093E+03 -0.16886731474E+03  0.30084946615E+03  0.50400001928E-02 0. -1.
       -1    1    3    3    0  502 -0.52480380398E+02 -0.24339277093E+03 -0.13087401275E+03  0.28128675494E+03  0.50400001928E-02 0.  1.
</event>
<event>
 5   0  0.3210875E-02  0.5009514E+03  0.7818609E-02  0.1013531E+00
       -3   -1    0    0    0  501  0.00000000000E+00  0.00000000000E+00  0.10053713640E+04  0.10053713691E+04  0.10100000352E+00 0.  1.
        3   -1    0    0  501    0  0.00000000000E+00  0.00000000000E+00 -0.62402852083E+02  0.62402933818E+02  0.10100000352E+00 0. -1.
    10030    2    1    2    0    0  0.00000000000E+00  0.00000000000E+00  0.94296851194E+03  0.10677743029E+04  0.50095144221E+03 0.  0.
        1    1    3    3  502    0 -0.19166316462E+03  0.15100973244E+03  0.35092052751E+03  0.42741540054E+03  0.50400001928E-02 0.  1.
       -1    1    3    3    0  502  0.19166316462E+03 -0.15100973244E+03  0.59204798443E+03  0.64035890238E+03  0.50400001928E-02 0. -1.
</event>
<event>
 5   0  0.5038436E-02  0.5204656E+03  0.7818609E-02  0.1008571E+00
        1   -1    0    0  501    0  0.00000000000E+00  0.00000000000E+00  0.70459766050E+03  0.70459766052E+03  0.50400001928E-02 0. -1.
       -1   -1    0    0    0  501  0.00000000000E+00  0.00000000000E+00 -0.96113171850E+02  0.96113171982E+02  0.50400001928E-02 0.  1.
    10030    2    1    2    0    0  0.00000000000E+00  0.00000000000E+00  0.60848448865E+03  0.80071083250E+03  0.52046562265E+03 0.  0.
        1    1    3    3  502    0 -0.22066781339E+02 -0.71406754282E+02 -0.79246547295E+02  0.10893063242E+03  0.50400001928E-02 0.  1.
       -1    1    3    3    0  502  0.22066781339E+02  0.71406754282E+02  0.68773103595E+03  0.69178020008E+03  0.50400001928E-02 0. -1.
</event>
<event>
 5   0  0.5191358E-02  0.4593419E+03  0.7818609E-02  0.1024972E+00
       -1   -1    0    0    0  501  0.00000000000E+00  0.00000000000E+00  0.67149516925E+02  0.67149517114E+02  0.50400001928E-02 0.  1.
        1   -1    0    0  501    0  0.00000000000E+00  0.00000000000E+00 -0.78554158860E+03  0.78554158862E+03  0.50400001928E-02 0. -1.
    10030    2    1    2    0    0  0.00000000000E+00  0.00000000000E+00 -0.71839207168E+03  0.85269110573E+03  0.45934186958E+03 0.  0.
        4    1    3    3  502    0 -0.36414873671E+02 -0.13436901072E+03 -0.69828066695E+03  0.71202428105E+03  0.12699999809E+01 0. -1.
       -4    1    3    3    0  502  0.36414873671E+02  0.13436901072E+03 -0.20111404729E+02  0.14066682469E+03  0.12699999809E+01 0.  1.
</event>
<event>
 5   0  0.4803890E-02  0.4964963E+03  0.7818609E-02  0.1014697E+00
       -1   -1    0    0    0  501  0.00000000000E+00  0.00000000000E+00  0.12998096545E+03  0.12998096554E+03  0.50400001928E-02 0. -1.
        1   -1    0    0  501    0  0.00000000000E+00  0.00000000000E+00 -0.47412445830E+03  0.47412445833E+03  0.50400001928E-02 0.  1.
    10030    2    1    2    0    0  0.00000000000E+00  0.00000000000E+00 -0.34414349286E+03  0.60410542387E+03  0.49649634387E+03 0.  0.
        5    1    3    3  502    0 -0.10908889136E+03 -0.78363102579E+02 -0.42602867763E+03  0.44672551553E+03  0.46999998093E+01 0.  1.
       -5    1    3    3    0  502  0.10908889136E+03  0.78363102579E+02  0.81885184778E+02  0.15737990834E+03  0.46999998093E+01 0. -1.
</event>
<event>
 5   0  0.8208720E-02  0.4974608E+03  0.7818609E-02  0.1014444E+00
       -2   -1    0    0    0  501  0.00000000000E+00  0.00000000000E+00  0.91552773760E+02  0.91552773796E+02  0.25500000920E-02 0. -1.
        2   -1    0    0  501    0  0.00000000000E+00  0.00000000000E+00 -0.67575033785E+03  0.67575033785E+03  0.25500000920E-02 0.  1.
    10030    2    1    2    0    0  0.00000000000E+00  0.00000000000E+00 -0.58419756409E+03  0.76730311165E+03  0.49746082384E+03 0.  0.
        3    1    3    3  502    0 -0.12683564577E+03 -0.19090936144E+02 -0.62080508657E+03  0.63391695875E+03  0.10100000352E+00 0.  1.
       -3    1    3    3    0  502  0.12683564577E+03  0.19090936144E+02  0.36607522482E+02  0.13338615290E+03  0.10100000352E+00 0. -1.
</event>
<event>
 5   0  0.4865501E-02  0.4945985E+03  0.7818609E-02  0.1015198E+00
        1   -1    0    0  501    0  0.00000000000E+00  0.00000000000E+00  0.77208724328E+03  0.77208724330E+03  0.50400001928E-02 0. -1.
       -1   -1    0    0    0  501  0.00000000000E+00  0.00000000000E+00 -0.79209871124E+02  0.79209871284E+02  0.50400001928E-02 0.  1.
    10030    2    1    2    0    0  0.00000000000E+00  0.00000000000E+00  0.69287737216E+03  0.85129711458E+03  0.49459854877E+03 0.  0.
        2    1    3    3  502    0  0.23343963983E+03  0.34717569023E+02  0.21928544736E+03  0.32215754294E+03  0.25500000920E-02 0.  1.
       -2    1    3    3    0  502 -0.23343963983E+03 -0.34717569023E+02  0.47359192480E+03  0.52913957165E+03  0.25500000920E-02 0. -1.
</event>
<event>
 5   0  0.4865501E-02  0.5021043E+03  0.7818609E-02  0.1013231E+00
       -1   -1    0    0    0  501  0.00000000000E+00  0.00000000000E+00  0.27147020696E+03  0.27147020700E+03  0.50400001928E-02 0. -1.
        1   -1    0    0  501    0  0.00000000000E+00  0.00000000000E+00 -0.23216977481E+03  0.23216977486E+03  0.50400001928E-02 0.  1.
    10030    2    1    2    0    0  0.00000000000E+00  0.00000000000E+00  0.39300432147E+02  0.50363998187E+03  0.50210427938E+03 0.  0.
        2    1    3    3  502    0 -0.15067801557E+03 -0.17993653575E+03 -0.69763636595E+02  0.24484277869E+03  0.25500000920E-02 0.  1.
       -2    1    3    3    0  502  0.15067801557E+03  0.17993653575E+03  0.10906406874E+03  0.25879720318E+03  0.25500000920E-02 0. -1.
</event>
<event>
 5   0  0.4884478E-02  0.5000272E+03  0.7818609E-02  0.1013772E+00
        1   -1    0    0  501    0  0.00000000000E+00  0.00000000000E+00  0.28634708072E+03  0.28634708076E+03  0.50400001928E-02 0. -1.
       -1   -1    0    0    0  501  0.00000000000E+00  0.00000000000E+00 -0.21829034649E+03  0.21829034655E+03  0.50400001928E-02 0.  1.
    10030    2    1    2    0    0  0.00000000000E+00  0.00000000000E+00  0.68056734224E+02  0.50463742732E+03  0.50002721323E+03 0.  0.
        3    1    3    3  502    0 -0.14984336053E+03  0.10174532509E+03 -0.13990227513E+03  0.22886196857E+03  0.10100000352E+00 0.  1.
       -3    1    3    3    0  502  0.14984336053E+03 -0.10174532509E+03  0.20795900935E+03  0.27577545874E+03  0.10100000352E+00 0. -1.
</event>
<event>
 5   0  0.5191358E-02  0.4994336E+03  0.7818609E-02  0.1013927E+00
        1   -1    0    0  501    0  0.00000000000E+00  0.00000000000E+00  0.28037943723E+03  0.28037943728E+03  0.50400001928E-02 0. -1.
       -1   -1    0    0    0  501  0.00000000000E+00  0.00000000000E+00 -0.22240742437E+03  0.22240742442E+03  0.50400001928E-02 0.  1.
    10030    2    1    2    0    0  0.00000000000E+00  0.00000000000E+00  0.57972012864E+02  0.50278686170E+03  0.49943355316E+03 0.  0.
        4    1    3    3  502    0 -0.16499923466E+02  0.72236578515E+02 -0.21108206106E+03  0.22371325430E+03  0.12699999809E+01 0.  1.
       -4    1    3    3    0  502  0.16499923466E+02 -0.72236578515E+02  0.26905407393E+03  0.27907360740E+03  0.12699999809E+01 0. -1.
</event>
<event>
 5   0  0.7698747E-02  0.4976241E+03  0.7818609E-02  0.1014401E+00
       -2   -1    0    0    0  501  0.00000000000E+00  0.00000000000E+00  0.47773801941E+02  0.47773802009E+02  0.25500000920E-02 0.  1.
        2   -1    0    0  501    0  0.00000000000E+00  0.00000000000E+00 -0.12958448453E+04  0.12958448453E+04  0.25500000920E-02 0. -1.
    10030    2    1    2    0    0  0.00000000000E+00  0.00000000000E+00 -0.12480710433E+04  0.13436186473E+04  0.49762409521E+03 0.  0.
        2    1    3    3  502    0  0.86203676811E+02 -0.15314639459E+03 -0.14846676093E+03  0.23005927753E+03  0.25500000920E-02 0.  1.
       -2    1    3    3    0  502 -0.86203676811E+02  0.15314639459E+03 -0.10996042824E+04  0.11135593698E+04  0.25500000920E-02 0. -1.
</event>
<event>
 5   0  0.7933103E-02  0.5016073E+03  0.7818609E-02  0.1013360E+00
       -2   -1    0    0    0  501  0.00000000000E+00  0.00000000000E+00  0.17148250062E+03  0.17148250064E+03  0.25500000920E-02 0.  1.
        2   -1    0    0  501    0  0.00000000000E+00  0.00000000000E+00 -0.36681568048E+03  0.36681568048E+03  0.25500000920E-02 0. -1.
    10030    2    1    2    0    0  0.00000000000E+00  0.00000000000E+00 -0.19533317985E+03  0.53829818112E+03  0.50160729724E+03 0.  0.
        5    1    3    3  502    0  0.74335684937E+02  0.52401733906E+02  0.15311160056E+03  0.17814878050E+03  0.46999998093E+01 0.  1.
       -5    1    3    3    0  502 -0.74335684937E+02 -0.52401733906E+02 -0.34844478041E+03  0.36014940062E+03  0.46999998093E+01 0. -1.
</event>
<event>
 5   0  0.8208720E-02  0.5018575E+03  0.7818609E-02  0.1013295E+00
        2   -1    0    0  501    0  0.00000000000E+00  0.00000000000E+00  0.12256725979E+04  0.12256725979E+04  0.25500000920E-02 0.  1.
       -2   -1    0    0    0  501  0.00000000000E+00  0.00000000000E+00 -0.51371988482E+02  0.51371988545E+02  0.25500000920E-02 0. -1.
    10030    2    1    2    0    0  0.00000000000E+00  0.00000000000E+00  0.11743006094E+04  0.12770445865E+04  0.50185750418E+03 0.  0.
        3    1    3    3  502    0  0.18558551260E+03 -0.13448464786E+03  0.84711602777E+03  0.87757260537E+03  0.10100000352E+00 0. -1.
       -3    1    3    3    0  502 -0.18558551260E+03  0.13448464786E+03  0.32718458167E+03  0.39947198110E+03  0.10100000352E+00 0.  1.
</event>
<event>
 5   0  0.7933103E-02  0.5000365E+03  0.7818609E-02  0.1013769E+00
        2   -1    0    0  501    0  0.00000000000E+00  0.00000000000E+00  0.16048440240E+04  0.16048440240E+04  0.25500000920E-02 0. -1.
       -2   -1    0    0    0  501  0.00000000000E+00  0.00000000000E+00 -0.38950280487E+02  0.38950280570E+02  0.25500000920E-02 0.  1.
    10030    2    1    2    0    0  0.00000000000E+00  0.00000000000E+00  0.15658937435E+04  0.16437943045E+04  0.50003649843E+03 0.  0.
        5    1    3    3  502    0 -0.17847866124E+03 -0.61587588342E+02  0.24438954823E+03  0.30886243676E+03  0.46999998093E+01 0.  1.
       -5    1    3    3    0  502  0.17847866124E+03  0.61587588342E+02  0.13215041952E+04  0.13349318678E+04  0.46999998093E+01 0. -1.
</event>
<event>
 5   0  0.5191358E-02  0.4997794E+03  0.7818609E-02  0.1013837E+00
       -1   -1    0    0    0  501  0.00000000000E+00  0.00000000000E+00  0.43371923707E+02  0.43371924000E+02  0.50400001928E-02 0. -1.
        1   -1    0    0  501    0  0.00000000000E+00  0.00000000000E+00 -0.14397528392E+04  0.14397528392E+04  0.50400001928E-02 0.  1.
    10030    2    1    2    0    0  0.00000000000E+00  0.00000000000E+00 -0.13963809155E+04  0.14831247632E+04  0.49977935340E+03 0.  0.
        4    1    3    3  502    0 -0.12278139928E+03 -0.19331968404E+03 -0.40150184023E+03  0.46222625721E+03  0.12699999809E+01 0. -1.
       -4    1    3    3    0  502  0.12278139928E+03  0.19331968404E+03 -0.99487907524E+03  0.10208985060E+04  0.12699999809E+01 0.  1.
</event>
<event>
 5   0  0.4884478E-02  0.5074382E+03  0.7818609E-02  0.1011855E+00
       -1   -1    0    0    0  501  0.00000000000E+00  0.00000000000E+00  0.13267255767E+03  0.13267255776E+03  0.50400001928E-02 0.  1.
        1   -1    0    0  501    0  0.00000000000E+00  0.00000000000E+00 -0.48520486370E+03  0.48520486373E+03  0.50400001928E-02 0. -1.
    10030    2    1    2    0    0  0.00000000000E+00  0.00000000000E+00 -0.35253230603E+03  0.61787742149E+03  0.50743815504E+03 0.  0.
        3    1    3    3  502    0 -0.59958274354E+02 -0.12882713276E+03  0.79675855505E+02  0.16291002717E+03  0.10100000352E+00 0.  1.
       -3    1    3    3    0  502  0.59958274354E+02  0.12882713276E+03 -0.43220816154E+03  0.45496739433E+03  0.10100000352E+00 0. -1.
</event>
<event>
 5   0  0.4884478E-02  0.4883912E+03  0.7818609E-02  0.1016854E+00
       -1   -1    0    0    0  501  0.00000000000E+00  0.00000000000E+00  0.13650239798E+03  0.13650239807E+03  0.50400001928E-02 0.  1.
        1   -1    0    0  501    0  0.00000000000E+00  0.00000000000E+00 -0.43685312731E+03  0.43685312734E+03  0.50400001928E-02 0. -1.
    10030    2    1    2    0    0  0.00000000000E+00  0.00000000000E+00 -0.30035072933E+03  0.57335552541E+03  0.48839123447E+03 0.  0.
        3    1    3    3  502    0  0.22636528865E+03  0.76297679337E+02 -0.20967722494E+03  0.31784765004E+03  0.10100000352E+00 0.  1.
       -3    1    3    3    0  502 -0.22636528865E+03 -0.76297679337E+02 -0.90673504391E+02  0.25550787537E+03  0.10100000352E+00 0. -1.
</event>
<event>
 5   0  0.4803890E-02  0.4941106E+03  0.7818609E-02  0.1015328E+00
       -1   -1    0    0    0  501  0.00000000000E+00  0.00000000000E+00  0.51942044818E+02  0.51942045063E+02  0.50400001928E-02 0.  1.
        1   -1    0    0  501    0  0.00000000000E+00  0.00000000000E+00 -0.11750849465E+04  0.11750849465E+04  0.50400001928E-02 0. -1.
    10030    2    1    2    0    0  0.00000000000E+00  0.00000000000E+00 -0.11231429017E+04  0.12270269916E+04  0.49411057513E+03 0.  0.
        5    1    3    3  502    0 -0.34896077277E+02 -0.32106883162E+02 -0.11635647973E+04  0.11645401306E+04  0.46999998093E+01 0. -1.
       -5    1    3    3    0  502  0.34896077277E+02  0.32106883162E+02  0.40421895622E+02  0.62486861016E+02  0.46999998093E+01 0.  1.
</event>
<event>
 5   0  0.7698747E-02  0.5007373E+03  0.7818609E-02  0.1013587E+00
        2   -1    0    0  501    0  0.00000000000E+00  0.00000000000E+00  0.27354466131E+03  0.27354466132E+03  0.25500000920E-02 0.  1.
       -2   -1    0    0    0  501  0.00000000000E+00  0.00000000000E+00 -0.22915618588E+03  0.22915618590E+03  0.25500000920E-02 0. -1.
    10030    2    1    2    0    0  0.00000000000E+00  0.00000000000E+00  0.44388475427E+02  0.50270084722E+03  0.50073726149E+03 0.  0.
        2    1    3    3  502    0 -0.12426304259E+02  0.35326594135E+02  0.27071714213E+03  0.27329499143E+03  0.25500000920E-02 0.  1.
       -2    1    3    3    0  502  0.12426304259E+02 -0.35326594135E+02 -0.22632866671E+03  0.22940585579E+03  0.25500000920E-02 0. -1.
</event>
<event>
 5   0  0.8208720E-02  0.4999467E+03  0.7818609E-02  0.1013793E+00
       -2   -1    0    0    0  501  0.00000000000E+00  0.00000000000E+00  0.60456925756E+02  0.60456925810E+02  0.25500000920E-02 0.  1.
        2   -1    0    0  501    0  0.00000000000E+00  0.00000000000E+00 -0.10335736897E+04  0.10335736897E+04  0.25500000920E-02 0. -1.
    10030    2    1    2    0    0  0.00000000000E+00  0.00000000000E+00 -0.97311676396E+03  0.10940306155E+04  0.49994674858E+03 0.  0.
        3    1    3    3  502    0  0.81477324239E+02 -0.92232948886E+01 -0.10033066185E+04  0.10066517791E+04  0.10100000352E+00 0. -1.
       -3    1    3    3    0  502 -0.81477324239E+02  0.92232948886E+01  0.30189854521E+02  0.87378836400E+02  0.10100000352E+00 0.  1.
</event>
<event>
 5   0  0.8208720E-02  0.4928797E+03  0.7818609E-02  0.1015654E+00
        2   -1    0    0  501    0  0.00000000000E+00  0.00000000000E+00  0.15114138983E+04  0.15114138983E+04  0.25500000920E-02 0.  1.
       -2   -1    0    0    0  501  0.00000000000E+00  0.00000000000E+00 -0.40182645383E+02  0.40182645464E+02  0.25500000920E-02 0. -1.
    10030    2    1    2    0    0  0.00000000000E+00  0.00000000000E+00  0.14712312529E+04  0.15515965438E+04  0.49287973692E+03 0.  0.
        3    1    3    3  502    0  0.12504768200E+03 -0.91146315947E+02  0.13394127995E+04  0.13483216350E+04  0.10100000352E+00 0.  1.
       -3    1    3    3    0  502 -0.12504768200E+03  0.91146315947E+02  0.13181845345E+03  0.20327490882E+03  0.10100000352E+00 0. -1.
</event>
<event>
 5   0  0.4865501E-02  0.5021872E+03  0.7818609E-02  0.1013210E+00
        1   -1    0    0  501    0  0.00000000000E+00  0.00000000000E+00  0.26491798242E+03  0.26491798247E+03  0.50400001928E-02 0. -1.
       -1   -1    0    0    0  501  0.00000000000E+00  0.00000000000E+00 -0.23799059555E+03  0.23799059560E+03  0.50400001928E-02 0.  1.
    10030    2    1    2    0    0  0.00000000000E+00  0.00000000000E+00  0.26927386872E+02  0.50290857807E+03  0.50218717002E+03 0.  0.
        2    1    3    3  502    0  0.78145535117E+01 -0.15050853207E+03 -0.18765833088E+03  0.24068555135E+03  0.25500000920E-02 0.  1.
       -2    1    3    3    0  502 -0.78145535117E+01  0.15050853207E+03  0.21458571776E+03  0.26222302672E+03  0.25500000920E-02 0. -1.
</event>
<event>
 5   0  0.7776070E-02  0.5014230E+03  0.7818609E-02  0.1013408E+00
        2   -1    0    0  501    0  0.00000000000E+00  0.00000000000E+00  0.12195169529E+04  0.12195169529E+04  0.25500000920E-02 0. -1.
       -2   -1    0    0    0  501  0.00000000000E+00  0.00000000000E+00 -0.51541932730E+02  0.51541932793E+02  0.25500000920E-02 0.  1.
    10030    2    1    2    0    0  0.00000000000E+00  0.00000000000E+00  0.11679750202E+04  0.12710588857E+04  0.50142301819E+03 0.  0.
        4    1    3    3  502    0 -0.59207684480E+02  0.24361615294E+03  0.58267517531E+03  0.63432353945E+03  0.12699999809E+01 0.  1.
       -4    1    3    3    0  502  0.59207684480E+02 -0.24361615294E+03  0.58529984487E+03  0.63673534626E+03  0.12699999809E+01 0. -1.
</event>
<event>
 5   0  0.8208720E-02  0.4981555E+03  0.7818609E-02  0.1014261E+00
        2   -1    0    0  501    0  0.00000000000E+00  0.00000000000E+00  0.10558418196E+03  0.10558418199E+03  0.25500000920E-02 0.  1.
       -2   -1    0    0    0  501  0.00000000000E+00  0.00000000000E+00 -0.58758537063E+03  0.58758537064E+03  0.25500000920E-02 0. -1.
    10030    2    1    2    0    0  0.00000000000E+00  0.00000000000E+00 -0.48200118867E+03  0.69316955263E+03  0.49815548057E+03 0.  0.
        3    1    3    3  502    0  0.14668667003E+03  0.19851759965E+03 -0.28743271294E+03  0.37887173450E+03  0.10100000352E+00 0. -1.
       -3    1    3    3    0  502 -0.14668667003E+03 -0.19851759965E+03 -0.19456847574E+03  0.31429781814E+03  0.10100000352E+00 0.  1.
</event>
<event>
 5   0  0.8208720E-02  0.5017318E+03  0.7818609E-02  0.1013328E+00
        2   -1    0    0  501    0  0.00000000000E+00  0.00000000000E+00  0.54668029883E+03  0.54668029883E+03  0.25500000920E-02 0.  1.
       -2   -1    0    0    0  501  0.00000000000E+00  0.00000000000E+00 -0.11511973209E+03  0.11511973212E+03  0.25500000920E-02 0. -1.
    10030    2    1    2    0    0  0.00000000000E+00  0.00000000000E+00  0.43156056673E+03  0.66180003096E+03  0.50173175922E+03 0.  0.
        3    1    3    3  502    0 -0.11433890370E+03 -0.18451162035E+03  0.49897935191E+02  0.22272794409E+03  0.10100000352E+00 0. -1.
       -3    1    3    3    0  502  0.11433890370E+03  0.18451162035E+03  0.38166263154E+03  0.43907208686E+03  0.10100000352E+00 0.  1.
</event>
<event>
 5   0  0.3210875E-02  0.4956339E+03  0.7818609E-02  0.1014925E+00
        3   -1    0    0  501    0  0.00000000000E+00  0.00000000000E+00  0.21661186905E+03  0.21661189259E+03  0.10100000352E+00 0.  1.
       -3   -1    0    0    0  501  0.00000000000E+00  0.00000000000E+00 -0.28351735072E+03  0.28351736871E+03  0.10100000352E+00 0. -1.
    10030    2    1    2    0    0  0.00000000000E+00  0.00000000000E+00 -0.66905481673E+02  0.50012926130E+03  0.49563387145E+03 0.  0.
        4    1    3    3  502    0 -0.10175490021E+03  0.20828721102E+03  0.54943164543E+02  0.23823934650E+03  0.12699999809E+01 0.  1.
       -4    1    3    3    0  502  0.10175490021E+03 -0.20828721102E+03 -0.12184864622E+03  0.26188991480E+03  0.12699999809E+01 0. -1.
</event>
<event>
 5   0  0.8208720E-02  0.4987577E+03  0.7818609E-02  0.1014104E+00
       -2   -1    0    0    0  501  0.00000000000E+00  0.00000000000E+00  0.43790739699E+02  0.43790739773E+02  0.25500000920E-02 0.  1.
        2   -1    0    0  501    0  0.00000000000E+00  0.00000000000E+00 -0.14201592013E+04  0.14201592013E+04  0.25500000920E-02 0. -1.
    10030    2    1    2    0    0  0.00000000000E+00  0.00000000000E+00 -0.13763684616E+04  0.14639499411E+04  0.49875774469E+03 0.  0.
        3    1    3    3  502    0 -0.57941528047E+02  0.82378054615E+02 -0.13578099389E+04  0.13615400123E+04  0.10100000352E+00 0. -1.
       -3    1    3    3    0  502  0.57941528047E+02 -0.82378054615E+02 -0.18558522680E+02  0.10240992881E+03  0.10100000352E+00 0.  1.
</event>
<event>
 5   0  0.7933103E-02  0.5004981E+03  0.7818609E-02  0.1013649E+00
        2   -1    0    0  501    0  0.00000000000E+00  0.00000000000E+00  0.46216335051E+03  0.46216335051E+03  0.25500000920E-02 0. -1.
       -2   -1    0    0    0  501  0.00000000000E+00  0.00000000000E+00 -0.13550314969E+03  0.13550314971E+03  0.25500000920E-02 0.  1.
    10030    2    1    2    0    0  0.00000000000E+00  0.00000000000E+00  0.32666020082E+03  0.59766650023E+03  0.50049811058E+03 0.  0.
        5    1    3    3  502    0 -0.64237854720E+02 -0.23306010622E+03  0.24034063302E+03  0.34092407508E+03  0.46999998093E+01 0.  1.
       -5    1    3    3    0  502  0.64237854720E+02  0.23306010622E+03  0.86319567800E+02  0.25674242515E+03  0.46999998093E+01 0. -1.
</event>
<event>
 5   0  0.4884478E-02  0.4979615E+03  0.7818609E-02  0.1014312E+00
       -1   -1    0    0    0  501  0.00000000000E+00  0.00000000000E+00  0.17546597634E+03  0.17546597641E+03  0.50400001928E-02 0.  1.
        1   -1    0    0  501    0  0.00000000000E+00  0.00000000000E+00 -0.35329586455E+03  0.35329586459E+03  0.50400001928E-02 0. -1.
    10030    2    1    2    0    0  0.00000000000E+00  0.00000000000E+00 -0.17782988821E+03  0.52876184100E+03  0.49796145971E+03 0.  0.
        3    1    3    3  502    0 -0.78316945289E+02  0.94220550464E+02  0.14124113015E+03  0.18697626346E+03  0.10100000352E+00 0.  1.
       -3    1    3    3    0  502  0.78316945289E+02 -0.94220550464E+02 -0.31907101837E+03  0.34178557754E+03  0.10100000352E+00 0. -1.
</event>
<event>
 5   0  0.3210875E-02  0.4879121E+03  0.7818609E-02  0.1016983E+00
       -3   -1    0    0    0  501  0.00000000000E+00  0.00000000000E+00  0.11559278524E+04  0.11559278568E+04  0.10100000352E+00 0. -1.
        3   -1    0    0  501    0  0.00000000000E+00  0.00000000000E+00 -0.51486344998E+02  0.51486444063E+02  0.10100000352E+00 0.  1.
    10030    2    1    2    0    0  0.00000000000E+00  0.00000000000E+00  0.11044415074E+04  0.12074143008E+04  0.48791213418E+03 0.  0.
        4    1    3    3  502    0  0.10694317959E+03  0.81276590586E+02  0.10561654469E+04  0.10646735612E+04  0.12699999809E+01 0. -1.
       -4    1    3    3    0  502 -0.10694317959E+03 -0.81276590586E+02  0.48276060495E+02  0.14274073965E+03  0.12699999809E+01 0.  1.
</event>
<event>
 5   0  0.4865501E-02  0.5008606E+03  0.7818609E-02  0.1013555E+00
        1   -1    0    0  501    0  0.00000000000E+00  0.00000000000E+00  0.29053023535E+03  0.29053023539E+03  0.50400001928E-02 0. -1.
       -1   -1    0    0    0  501  0.00000000000E+00  0.00000000000E+00 -0.21586511692E+03  0.21586511698E+03  0.50400001928E-02 0.  1.
    10030    2    1    2    0    0  0.00000000000E+00  0.00000000000E+00  0.74665118423E+02  0.50639535237E+03  0.50086063231E+03 0.  0.
        2    1    3    3  502    0  0.44065863367E+02 -0.15373428645E+03  0.23217777264E+03  0.28192649620E+03  0.25500000920E-02 0. -1.
       -2    1    3    3    0  502 -0.44065863367E+02  0.15373428645E+03 -0.15751265422E+03  0.22446885617E+03  0.25500000920E-02 0.  1.
</event>
<event>
 5   0  0.5191358E-02  0.4847761E+03  0.7818609E-02  0.1017831E+00
        1   -1    0    0  501    0  0.00000000000E+00  0.00000000000E+00  0.24802279361E+03  0.24802279366E+03  0.50400001928E-02 0. -1.
       -1   -1    0    0    0  501  0.00000000000E+00  0.00000000000E+00 -0.23688127509E+03  0.23688127515E+03  0.50400001928E-02 0.  1.
    10030    2    1    2    0    0  0.00000000000E+00  0.00000000000E+00  0.11141518515E+02  0.48490406881E+03  0.48477605398E+03 0.  0.
        4    1    3    3  502    0  0.92563342667E+02  0.22171522573E+03  0.37590601135E+02  0.24318774624E+03  0.12699999809E+01 0. -1.
       -4    1    3    3    0  502 -0.92563342667E+02 -0.22171522573E+03 -0.26449082621E+02  0.24171632257E+03  0.12699999809E+01 0.  1.
</event>
<event>
 5   0  0.8208720E-02  0.5005372E+03  0.7818609E-02  0.1013639E+00
       -2   -1    0    0    0  501  0.00000000000E+00  0.00000000000E+00  0.43840116407E+02  0.43840116481E+02  0.25500000920E-02 0.  1.
        2   -1    0    0  501    0  0.00000000000E+00  0.00000000000E+00 -0.14287001512E+04  0.14287001512E+04  0.25500000920E-02 0. -1.
    10030    2    1    2    0    0  0.00000000000E+00  0.00000000000E+00 -0.13848600348E+04  0.14725402677E+04  0.50053723535E+03 0.  0.
        3    1    3    3  502    0 -0.45053020184E+02 -0.71362881923E+02  0.71478844397E+00  0.84397610556E+02  0.10100000352E+00 0.  1.
       -3    1    3    3    0  502  0.45053020184E+02  0.71362881923E+02 -0.13855748232E+04  0.13881426571E+04  0.10100000352E+00 0. -1.
</event>
<event>
 5   0  0.8208720E-02  0.4942891E+03  0.7818609E-02  0.1015280E+00
       -2   -1    0    0    0  501  0.00000000000E+00  0.00000000000E+00  0.18370573273E+03  0.18370573274E+03  0.25500000920E-02 0.  1.
        2   -1    0    0  501    0  0.00000000000E+00  0.00000000000E+00 -0.33249066095E+03  0.33249066096E+03  0.25500000920E-02 0. -1.
    10030    2    1    2    0    0  0.00000000000E+00  0.00000000000E+00 -0.14878492823E+03  0.51619639370E+03  0.49428914818E+03 0.  0.
        3    1    3    3  502    0 -0.39250761011E+02  0.12804517182E+03 -0.29131032450E+03  0.32062112162E+03  0.10100000352E+00 0. -1.
       -3    1    3    3    0  502  0.39250761011E+02 -0.12804517182E+03  0.14252539628E+03  0.19557527208E+03  0.10100000352E+00 0.  1.
</event>
<event>
 5   0  0.7881060E-02  0.5034788E+03  0.7818609E-02  0.1012875E+00
       -2   -1    0    0    0  501  0.00000000000E+00  0.00000000000E+00  0.17207420919E+03  0.17207420921E+03  0.25500000920E-02 0.  1.
        2   -1    0    0  501    0  0.00000000000E+00  0.00000000000E+00 -0.36828724112E+03  0.36828724113E+03  0.25500000920E-02 0. -1.
    10030    2    1    2    0    0  0.00000000000E+00  0.00000000000E+00 -0.19621303192E+03  0.54036145034E+03  0.50347884078E+03 0.  0.
        1    1    3    3  502    0 -0.24909679386E+03 -0.20649491709E+02 -0.65960380083E+02  0.25850799985E+03  0.50400001928E-02 0. -1.
       -1    1    3    3    0  502  0.24909679386E+03  0.20649491709E+02 -0.13025265184E+03  0.28185345049E+03  0.50400001928E-02 0.  1.
</event>
<event>
 5   0  0.5038436E-02  0.4901286E+03  0.7818609E-02  0.1016388E+00
       -1   -1    0    0    0  501  0.00000000000E+00  0.00000000000E+00  0.43908568126E+02  0.43908568415E+02  0.50400001928E-02 0.  1.
        1   -1    0    0  501    0  0.00000000000E+00  0.00000000000E+00 -0.13677627233E+04  0.13677627233E+04  0.50400001928E-02 0. -1.
    10030    2    1    2    0    0  0.00000000000E+00  0.00000000000E+00 -0.13238541552E+04  0.14116712917E+04  0.49012856651E+03 0.  0.
        1    1    3    3  502    0  0.69779677718E+02  0.21072998263E+03 -0.96097201229E+03  0.98627761681E+03  0.50400001928E-02 0.  1.
       -1    1    3    3    0  502 -0.69779677718E+02 -0.21072998263E+03 -0.36288214287E+03  0.42539367490E+03  0.50400001928E-02 0. -1.
</event>
<event>
 5   0  0.7698747E-02  0.4675788E+03  0.7818609E-02  0.1022606E+00
       -2   -1    0    0    0  501  0.00000000000E+00  0.00000000000E+00  0.15200885857E+03  0.15200885859E+03  0.25500000920E-02 0.  1.
        2   -1    0    0  501    0  0.00000000000E+00  0.00000000000E+00 -0.35956781456E+03  0.35956781457E+03  0.25500000920E-02 0. -1.
    10030    2    1    2    0    0  0.00000000000E+00  0.00000000000E+00 -0.20755895599E+03  0.51157667316E+03  0.46757884074E+03 0.  0.
        2    1    3    3  502    0  0.26965824345E+02  0.13227801376E+03  0.10505516419E+03  0.17105910129E+03  0.25500000920E-02 0.  1.
       -2    1    3    3    0  502 -0.26965824345E+02 -0.13227801376E+03 -0.31261412018E+03  0.34051757186E+03  0.25500000920E-02 0. -1.
</event>
<event>
 5   0  0.8208720E-02  0.5006359E+03  0.7818609E-02  0.1013613E+00
        2   -1    0    0  501    0  0.00000000000E+00  0.00000000000E+00  0.77750048752E+03  0.77750048752E+03  0.25500000920E-02 0. -1.
       -2   -1    0    0    0  501  0.00000000000E+00  0.00000000000E+00 -0.80590394872E+02  0.80590394912E+02  0.25500000920E-02 0.  1.
    10030    2    1    2    0    0  0.00000000000E+00  0.00000000000E+00  0.69691009265E+03  0.85809088243E+03  0.50063588094E+03 0.  0.
        3    1    3    3  502    0  0.12800862164E+03 -0.57770843529E+02  0.70361090913E+03  0.71749006907E+03  0.10100000352E+00 0. -1.
       -3    1    3    3    0  502 -0.12800862164E+03  0.57770843529E+02 -0.67008164815E+01  0.14060081336E+03  0.10100000352E+00 0.  1.
</event>
<event>
 5   0  0.5038436E-02  0.4987534E+03  0.7818609E-02  0.1014105E+00
       -1   -1    0    0    0  501  0.00000000000E+00  0.00000000000E+00  0.48275563276E+03  0.48275563279E+03  0.50400001928E-02 0.  1.
        1   -1    0    0  501    0  0.00000000000E+00  0.00000000000E+00 -0.12882030233E+03  0.12882030243E+03  0.50400001928E-02 0. -1.
    10030    2    1    2    0    0  0.00000000000E+00  0.00000000000E+00  0.35393533043E+03  0.61157593522E+03  0.49875335229E+03 0.  0.
        1    1    3    3  502    0 -0.69181840285E+02 -0.37984643218E+02  0.46703745949E+03  0.47365910605E+03  0.50400001928E-02 0.  1.
       -1    1    3    3    0  502  0.69181840285E+02  0.37984643218E+02 -0.11310212906E+03  0.13791682918E+03  0.50400001928E-02 0. -1.
</event>
<event>
 5   0  0.7776070E-02  0.5087669E+03  0.7818609E-02  0.1011516E+00
        2   -1    0    0  501    0  0.00000000000E+00  0.00000000000E+00  0.19075348905E+04  0.19075348905E+04  0.25500000920E-02 0.  1.
       -2   -1    0    0    0  501  0.00000000000E+00  0.00000000000E+00 -0.33923852952E+02  0.33923853048E+02  0.25500000920E-02 0. -1.
    10030    2    1    2    0    0  0.00000000000E+00  0.00000000000E+00  0.18736110375E+04  0.19414587435E+04  0.50876687479E+03 0.  0.
        4    1    3    3  502    0  0.89595365469E+02  0.68290596180E+02  0.18071431715E+04  0.18106515375E+04  0.12699999809E+01 0.  1.
       -4    1    3    3    0  502 -0.89595365469E+02 -0.68290596180E+02  0.66467866062E+02  0.13080720607E+03  0.12699999809E+01 0. -1.
</event>
<event>
 5   0  0.4803890E-02  0.5028919E+03  0.7818609E-02  0.1013027E+00
        1   -1    0    0  501    0  0.00000000000E+00  0.00000000000E+00  0.95577290320E+02  0.95577290453E+02  0.50400001928E-02 0.  1.
       -1   -1    0    0    0  501  0.00000000000E+00  0.00000000000E+00 -0.66150732882E+03  0.66150732884E+03  0.50400001928E-02 0. -1.
    10030    2    1    2    0    0  0.00000000000E+00  0.00000000000E+00 -0.56593003850E+03  0.75708461929E+03  0.50289194892E+03 0.  0.
        5    1    3    3  502    0 -0.20787127827E+02  0.90108547206E+02 -0.63490622739E+03  0.64162267926E+03  0.46999998093E+01 0. -1.
       -5    1    3    3    0  502  0.20787127827E+02 -0.90108547206E+02  0.68976188894E+02  0.11546194003E+03  0.46999998093E+01 0.  1.
</event>
<event>
 5   0  0.7933103E-02  0.4995873E+03  0.7818609E-02  0.1013887E+00
       -2   -1    0    0    0  501  0.00000000000E+00  0.00000000000E+00  0.29545014536E+02  0.29545014646E+02  0.25500000920E-02 0. -1.
        2   -1    0    0  501    0  0.00000000000E+00  0.00000000000E+00 -0.21119256321E+04  0.21119256321E+04  0.25500000920E-02 0.  1.
    10030    2    1    2    0    0  0.00000000000E+00  0.00000000000E+00 -0.20823806176E+04  0.21414706467E+04  0.49958732418E+03 0.  0.
        5    1    3    3  502    0  0.46058265147E+02 -0.19303382846E+03 -0.16911449579E+04  0.17027556435E+04  0.46999998093E+01 0.  1.
       -5    1    3    3    0  502 -0.46058265147E+02  0.19303382846E+03 -0.39123565967E+03  0.43871500329E+03  0.46999998093E+01 0. -1.
</event>
<event>
 5   0  0.7776070E-02  0.4933413E+03  0.7818609E-02  0.1015532E+00
        2   -1    0    0  501    0  0.00000000000E+00  0.00000000000E+00  0.64109968900E+03  0.64109968900E+03  0.25500000920E-02 0. -1.
       -2   -1    0    0    0  501  0.00000000000E+00  0.00000000000E+00 -0.94909429806E+02  0.94909429840E+02  0.25500000920E-02 0.  1.
    10030    2    1    2    0    0  0.00000000000E+00  0.00000000000E+00  0.54619025919E+03  0.73600911884E+03  0.49334128530E+03 0.  0.
        4    1    3    3  502    0 -0.47342876598E+02  0.13126298544E+02  0.63372187617E+03  0.63562463523E+03  0.12699999809E+01 0. -1.
       -4    1    3    3    0  502  0.47342876598E+02 -0.13126298544E+02 -0.87531616981E+02  0.10038448361E+03  0.12699999809E+01 0.  1.
</event>
<event>
 5   0  0.8208720E-02  0.5001636E+03  0.7818609E-02  0.1013736E+00
       -2   -1    0    0    0  501  0.00000000000E+00  0.00000000000E+00  0.11568627763E+03  0.11568627765E+03  0.25500000920E-02 0.  1.
        2   -1    0    0  501    0  0.00000000000E+00  0.00000000000E+00 -0.54060792737E+03  0.54060792737E+03  0.25500000920E-02 0. -1.
    10030    2    1    2    0    0  0.00000000000E+00  0.00000000000E+00 -0.42492164974E+03  0.65629420503E+03  0.50016364835E+03 0.  0.
        3    1    3    3  502    0  0.61570838310E+02 -0.12946728118E+03 -0.48133549180E+03  0.50223163072E+03  0.10100000352E+00 0. -1.
       -3    1    3    3    0  502 -0.61570838310E+02  0.12946728118E+03  0.56413842055E+02  0.15406257431E+03  0.10100000352E+00 0.  1.
</event>
<event>
 5   0  0.8208720E-02  0.4955310E+03  0.7818609E-02  0.1014952E+00
       -2   -1    0    0    0  501  0.00000000000E+00  0.00000000000E+00  0.72781125348E+02  0.72781125393E+02  0.25500000920E-02 0. -1.
        2   -1    0    0  501    0  0.00000000000E+00  0.00000000000E+00 -0.84345696367E+03  0.84345696368E+03  0.25500000920E-02 0.  1.
    10030    2    1    2    0    0  0.00000000000E+00  0.00000000000E+00 -0.77067583832E+03  0.91623808907E+03  0.49553101627E+03 0.  0.
        3    1    3    3  502    0 -0.18907872832E+03  0.13144077085E+03 -0.21627502399E+03  0.31591508028E+03  0.10100000352E+00 0. -1.
       -3    1    3    3    0  502  0.18907872832E+03 -0.13144077085E+03 -0.55440081433E+03  0.60032300879E+03  0.10100000352E+00 0.  1.
</event>
<event>
 5   0  0.3210875E-02  0.4986332E+03  0.7818609E-02  0.1014136E+00
       -3   -1    0    0    0  501  0.00000000000E+00  0.00000000000E+00  0.45791322104E+03  0.45791323218E+03  0.10100000352E+00 0. -1.
        3   -1    0    0  501    0  0.00000000000E+00  0.00000000000E+00 -0.13574352381E+03  0.13574356138E+03  0.10100000352E+00 0.  1.
    10030    2    1    2    0    0  0.00000000000E+00  0.00000000000E+00  0.32216969723E+03  0.59365679357E+03  0.49863320661E+03 0.  0.
        5    1    3    3  502    0  0.48712255838E+02  0.54628527197E+02  0.44477881474E+03  0.45078536344E+03  0.46999998093E+01 0. -1.
       -5    1    3    3    0  502 -0.48712255838E+02 -0.54628527197E+02 -0.12260911751E+03  0.14287143013E+03  0.46999998093E+01 0.  1.
</event>
<event>
 5   0  0.7698747E-02  0.5070328E+03  0.7818609E-02  0.1011959E+00
        2   -1    0    0  501    0  0.00000000000E+00  0.00000000000E+00  0.40374374234E+03  0.40374374235E+03  0.25500000920E-02 0. -1.
       -2   -1    0    0    0  501  0.00000000000E+00  0.00000000000E+00 -0.15918653029E+03  0.15918653031E+03  0.25500000920E-02 0.  1.
    10030    2    1    2    0    0  0.00000000000E+00  0.00000000000E+00  0.24455721205E+03  0.56293027266E+03  0.50703280162E+03 0.  0.
        2    1    3    3  502    0 -0.93613243935E+02  0.23364720430E+03  0.15588271234E+03  0.29606397202E+03  0.25500000920E-02 0. -1.
       -2    1    3    3    0  502  0.93613243935E+02 -0.23364720430E+03  0.88674499711E+02  0.26686630065E+03  0.25500000920E-02 0.  1.
</event>
<event>
 5   0  0.8208720E-02  0.4982867E+03  0.7818609E-02  0.1014227E+00
        2   -1    0    0  501    0  0.00000000000E+00  0.00000000000E+00  0.53787141713E+03  0.53787141713E+03  0.25500000920E-02 0. -1.
       -2   -1    0    0    0  501  0.00000000000E+00  0.00000000000E+00 -0.11540379513E+03  0.11540379516E+03  0.25500000920E-02 0.  1.
    10030    2    1    2    0    0  0.00000000000E+00  0.00000000000E+00  0.42246762199E+03  0.65327521229E+03  0.49828667588E+03 0.  0.
        3    1    3    3  502    0  0.17128928701E+02  0.22147261331E+03  0.63318919557E+02  0.23098228161E+03  0.10100000352E+00 0.  1.
       -3    1    3    3    0  502 -0.17128928701E+02 -0.22147261331E+03  0.35914870244E+03  0.42229293068E+03  0.10100000352E+00 0. -1.
</event>
<event>
 5   0  0.3210875E-02  0.4974968E+03  0.7818609E-02  0.1014434E+00
       -3   -1    0    0    0  501  0.00000000000E+00  0.00000000000E+00  0.10391896506E+03  0.10391901415E+03  0.10100000352E+00 0.  1.
        3   -1    0    0  501    0  0.00000000000E+00  0.00000000000E+00 -0.59542304274E+03  0.59542305131E+03  0.10100000352E+00 0. -1.
    10030    2    1    2    0    0  0.00000000000E+00  0.00000000000E+00 -0.49150407768E+03  0.69934206545E+03  0.49749680013E+03 0.  0.
        4    1    3    3  502    0  0.16470499206E+03  0.14792498942E+03 -0.86311855133E+02  0.23761499562E+03  0.12699999809E+01 0.  1.
       -4    1    3    3    0  502 -0.16470499206E+03 -0.14792498942E+03 -0.40519222254E+03  0.46172706983E+03  0.12699999809E+01 0. -1.
</event>
<event>
 5   0  0.4803890E-02  0.5161983E+03  0.7818609E-02  0.1009635E+00
       -1   -1    0    0    0  501  0.00000000000E+00  0.00000000000E+00  0.43599069602E+02  0.43599069894E+02  0.50400001928E-02 0.  1.
        1   -1    0    0  501    0  0.00000000000E+00  0.00000000000E+00 -0.15279035882E+04  0.15279035882E+04  0.50400001928E-02 0. -1.
    10030    2    1    2    0    0  0.00000000000E+00  0.00000000000E+00 -0.14843045186E+04  0.15715026581E+04  0.51619831509E+03 0.  0.
        5    1    3    3  502    0  0.10017506329E+03 -0.27214385939E+02 -0.14614081257E+04  0.14650977667E+04  0.46999998093E+01 0. -1.
       -5    1    3    3    0  502 -0.10017506329E+03  0.27214385939E+02 -0.22896392881E+02  0.10640489139E+03  0.46999998093E+01 0.  1.
</event>
<event>
 5   0  0.7881060E-02  0.5014450E+03  0.7818609E-02  0.1013402E+00
       -2   -1    0    0    0  501  0.00000000000E+00  0.00000000000E+00  0.59350395433E+02  0.59350395488E+02  0.25500000920E-02 0.  1.
        2   -1    0    0  501    0  0.00000000000E+00  0.00000000000E+00 -0.10591636204E+04  0.10591636204E+04  0.25500000920E-02 0. -1.
    10030    2    1    2    0    0  0.00000000000E+00  0.00000000000E+00 -0.99981322501E+03  0.11185140159E+04  0.50144503082E+03 0.  0.
        1    1    3    3  502    0  0.11917842580E+03 -0.17027599688E+03 -0.81270037832E+03  0.83885595738E+03  0.50400001928E-02 0. -1.
       -1    1    3    3    0  502 -0.11917842580E+03  0.17027599688E+03 -0.18711284669E+03  0.27965805855E+03  0.50400001928E-02 0.  1.
</event>
<event>
 5   0  0.5038436E-02  0.4949539E+03  0.7818609E-02  0.1015104E+00
       -1   -1    0    0    0  501  0.00000000000E+00  0.00000000000E+00  0.15960833541E+03  0.15960833549E+03  0.50400001928E-02 0.  1.
        1   -1    0    0  501    0  0.00000000000E+00  0.00000000000E+00 -0.38371958666E+03  0.38371958669E+03  0.50400001928E-02 0. -1.
    10030    2    1    2    0    0  0.00000000000E+00  0.00000000000E+00 -0.22411125125E+03  0.54332792218E+03  0.49495391511E+03 0.  0.
        1    1    3    3  502    0 -0.21653158804E+03 -0.11170571955E+03 -0.15966172248E+03  0.29130046696E+03  0.50400001928E-02 0.  1.
       -1    1    3    3    0  502  0.21653158804E+03  0.11170571955E+03 -0.64449528774E+02  0.25202745522E+03  0.50400001928E-02 0. -1.
</event>
<event>
 5   0  0.7776070E-02  0.5028195E+03  0.7818609E-02  0.1013046E+00
        2   -1    0    0  501    0  0.00000000000E+00  0.00000000000E+00  0.29395911854E+04  0.29395911854E+04  0.25500000920E-02 0. -1.
       -2   -1    0    0    0  501  0.00000000000E+00  0.00000000000E+00 -0.21501922673E+02  0.21501922824E+02  0.25500000920E-02 0.  1.
    10030    2    1    2    0    0  0.00000000000E+00  0.00000000000E+00  0.29180892628E+04  0.29610931083E+04  0.50281950075E+03 0.  0.
        4    1    3    3  502    0 -0.10047484817E+03  0.16652516349E+03  0.52087615530E+03  0.55600306407E+03  0.12699999809E+01 0.  1.
       -4    1    3    3    0  502  0.10047484817E+03 -0.16652516349E+03  0.23972131075E+04  0.24050900442E+04  0.12699999809E+01 0. -1.
</event>
<event>
 5   0  0.7776070E-02  0.4976290E+03  0.7818609E-02  0.1014400E+00
        2   -1    0    0  501    0  0.00000000000E+00  0.00000000000E+00  0.19136996971E+04  0.19136996971E+04  0.25500000920E-02 0. -1.
       -2   -1    0    0    0  501  0.00000000000E+00  0.00000000000E+00 -0.32350246763E+02  0.32350246864E+02  0.25500000920E-02 0.  1.
    10030    2    1    2    0    0  0.00000000000E+00  0.00000000000E+00  0.18813494503E+04  0.19460499439E+04  0.49762900852E+03 0.  0.
        4    1    3    3  502    0 -0.19191284958E+02  0.17840071880E+03  0.16147581860E+04  0.16246971207E+04  0.12699999809E+01 0. -1.
       -4    1    3    3    0  502  0.19191284958E+02 -0.17840071880E+03  0.26659126427E+03  0.32135282319E+03  0.12699999809E+01 0.  1.
</event>
<event>
 5   0  0.4803890E-02  0.5008884E+03  0.7818609E-02  0.1013547E+00
        1   -1    0    0  501    0  0.00000000000E+00  0.00000000000E+00  0.37407040444E+03  0.37407040448E+03  0.50400001928E-02 0. -1.
       -1   -1    0    0    0  501  0.00000000000E+00  0.00000000000E+00 -0.16767513536E+03  0.16767513544E+03  0.50400001928E-02 0.  1.
    10030    2    1    2    0    0  0.00000000000E+00  0.00000000000E+00  0.20639526908E+03  0.54174553991E+03  0.50088843360E+03 0.  0.
        5    1    3    3  502    0 -0.79224809933E+02 -0.14147543280E+03 -0.10317628997E+03  0.19224803095E+03  0.46999998093E+01 0.  1.
       -5    1    3    3    0  502  0.79224809933E+02  0.14147543280E+03  0.30957155905E+03  0.34949750896E+03  0.46999998093E+01 0. -1.
</event>
<event>
 5   0  0.7776070E-02  0.4972300E+03  0.7818609E-02  0.1014504E+00
        2   -1    0    0  501    0  0.00000000000E+00  0.00000000000E+00  0.35195785534E+03  0.35195785535E+03  0.25500000920E-02 0. -1.
       -2   -1    0    0    0  501  0.00000000000E+00  0.00000000000E+00 -0.17561593069E+03  0.17561593071E+03  0.25500000920E-02 0.  1.
    10030    2    1    2    0    0  0.00000000000E+00  0.00000000000E+00  0.17634192465E+03  0.52757378606E+03  0.49722995219E+03 0.  0.
        4    1    3    3  502    0  0.15046195422E+03 -0.19102332035E+03  0.14308952484E+03  0.28214346280E+03  0.12699999809E+01 0. -1.
       -4    1    3    3    0  502 -0.15046195422E+03  0.19102332035E+03  0.33252399814E+02  0.24543032326E+03  0.12699999809E+01 0.  1.
</event>
<event>
 5   0  0.7881060E-02  0.4981391E+03  0.7818609E-02  0.1014266E+00
        2   -1    0    0  501    0  0.00000000000E+00  0.00000000000E+00  0.73581128892E+03  0.73581128893E+03  0.25500000920E-02 0. -1.
       -2   -1    0    0    0  501  0.00000000000E+00  0.00000000000E+00 -0.84309158417E+02  0.84309158455E+02  0.25500000920E-02 0.  1.
    10030    2    1    2    0    0  0.00000000000E+00  0.00000000000E+00  0.65150213051E+03  0.82012044738E+03  0.49813905906E+03 0.  0.
        1    1    3    3  502    0 -0.74170824865E+02 -0.23646940082E+03  0.28487131040E+03  0.37758542384E+03  0.50400001928E-02 0.  1.
       -1    1    3    3    0  502  0.74170824865E+02  0.23646940082E+03  0.36663082011E+03  0.44253502354E+03  0.50400001928E-02 0. -1.
</event>
<event>
 5   0  0.5191358E-02  0.4929575E+03  0.7818609E-02  0.1015634E+00
       -1   -1    0    0    0  501  0.00000000000E+00  0.00000000000E+00  0.92314420382E+02  0.92314420520E+02  0.50400001928E-02 0.  1.
        1   -1    0    0  501    0  0.00000000000E+00  0.00000000000E+00 -0.65809633417E+03  0.65809633419E+03  0.50400001928E-02 0. -1.
    10030    2    1    2    0    0  0.00000000000E+00  0.00000000000E+00 -0.56578191379E+03  0.75041075471E+03  0.49295753044E+03 0.  0.
        4    1    3    3  502    0  0.11249531008E+03  0.16418074164E+03 -0.61561854006E+02  0.20833143182E+03  0.12699999809E+01 0.  1.
       -4    1    3    3    0  502 -0.11249531008E+03 -0.16418074164E+03 -0.50422005978E+03  0.54207932289E+03  0.12699999809E+01 0. -1.
</event>
<event>
 5   0  0.3210875E-02  0.4949411E+03  0.7818609E-02  0.1015108E+00
       -3   -1    0    0    0  501  0.00000000000E+00  0.00000000000E+00  0.77097425487E+02  0.77097491643E+02  0.10100000352E+00 0.  1.
        3   -1    0    0  501    0  0.00000000000E+00  0.00000000000E+00 -0.79434106531E+03  0.79434107173E+03  0.10100000352E+00 0. -1.
    10030    2    1    2    0    0  0.00000000000E+00  0.00000000000E+00 -0.71724363983E+03  0.87143856338E+03  0.49494113879E+03 0.  0.
        2    1    3    3  502    0 -0.13176468794E+03 -0.18016777512E+01  0.10185241796E+02  0.13217003513E+03  0.25500000920E-02 0.  1.
       -2    1    3    3    0  502  0.13176468794E+03  0.18016777512E+01 -0.72742888162E+03  0.73926852825E+03  0.25500000920E-02 0. -1.
</event>
<event>
 5   0  0.4884478E-02  0.5005569E+03  0.7818609E-02  0.1013634E+00
       -1   -1    0    0    0  501  0.00000000000E+00  0.00000000000E+00  0.99856363391E+02  0.99856363519E+02  0.50400001928E-02 0.  1.
        1   -1    0    0  501    0  0.00000000000E+00  0.00000000000E+00 -0.62729400586E+03  0.62729400588E+03  0.50400001928E-02 0. -1.
    10030    2    1    2    0    0  0.00000000000E+00  0.00000000000E+00 -0.52743764247E+03  0.72715036940E+03  0.50055688291E+03 0.  0.
        3    1    3    3  502    0  0.84010865804E+02  0.94786030870E+02  0.49862438259E+02  0.13611939675E+03  0.10100000352E+00 0.  1.
       -3    1    3    3    0  502 -0.84010865804E+02 -0.94786030870E+02 -0.57730008073E+03  0.59103097265E+03  0.10100000352E+00 0. -1.
</event>
<event>
 5   0  0.7776070E-02  0.4993048E+03  0.7818609E-02  0.1013961E+00
        2   -1    0    0  501    0  0.00000000000E+00  0.00000000000E+00  0.11933243744E+03  0.11933243747E+03  0.25500000920E-02 0. -1.
       -2   -1    0    0    0  501  0.00000000000E+00  0.00000000000E+00 -0.52229146650E+03  0.52229146651E+03  0.25500000920E-02 0.  1.
    10030    2    1    2    0    0  0.00000000000E+00  0.00000000000E+00 -0.40295902907E+03  0.64162390398E+03  0.49930477171E+03 0.  0.
        4    1    3    3  502    0 -0.69328770812E+02  0.21244042249E+03 -0.58457477590E+02  0.23098982911E+03  0.12699999809E+01 0. -1.
       -4    1    3    3    0  502  0.69328770812E+02 -0.21244042249E+03 -0.34450155148E+03  0.41063407486E+03  0.12699999809E+01 0.  1.
</event>
<event>
 5   0  0.7881060E-02  0.4999291E+03  0.7818609E-02  0.1013797E+00
        2   -1    0    0  501    0  0.00000000000E+00  0.00000000000E+00  0.12839509559E+03  0.12839509561E+03  0.25500000920E-02 0. -1.
       -2   -1    0    0    0  501  0.00000000000E+00  0.00000000000E+00 -0.48664066804E+03  0.48664066805E+03  0.25500000920E-02 0.  1.
    10030    2    1    2    0    0  0.00000000000E+00  0.00000000000E+00 -0.35824557246E+03  0.61503576366E+03  0.49992909537E+03 0.  0.
        1    1    3    3  502    0  0.16543455149E+03 -0.46839574519E+02 -0.40233612607E+03  0.43753502138E+03  0.50400001928E-02 0.  1.
       -1    1    3    3    0  502 -0.16543455149E+03  0.46839574519E+02  0.44090553614E+02  0.17750074228E+03  0.50400001928E-02 0. -1.
</event>
<event>
 5   0  0.7698747E-02  0.5041211E+03  0.7818609E-02  0.1012709E+00
       -2   -1    0    0    0  501  0.00000000000E+00  0.00000000000E+00  0.45294611282E+02  0.45294611354E+02  0.25500000920E-02 0.  1.
        2   -1    0    0  501    0  0.00000000000E+00  0.00000000000E+00 -0.14026949185E+04  0.14026949185E+04  0.25500000920E-02 0. -1.
    10030    2    1    2    0    0  0.00000000000E+00  0.00000000000E+00 -0.13574003072E+04  0.14479895298E+04  0.50412110106E+03 0.  0.
        2    1    3    3  502    0 -0.16987525128E+03  0.15634893392E+03 -0.96924243784E+03  0.99636012237E+03  0.25500000920E-02 0. -1.
       -2    1    3    3    0  502  0.16987525128E+03 -0.15634893392E+03 -0.38815786933E+03  0.45162940743E+03  0.25500000920E-02 0.  1.
</event>
<event>
 5   0  0.7933103E-02  0.5018216E+03  0.7818609E-02  0.1013305E+00
        2   -1    0    0  501    0  0.00000000000E+00  0.00000000000E+00  0.72267392308E+03  0.72267392308E+03  0.25500000920E-02 0. -1.
       -2   -1    0    0    0  501  0.00000000000E+00  0.00000000000E+00 -0.87115671484E+02  0.87115671522E+02  0.25500000920E-02 0.  1.
    10030    2    1    2    0    0  0.00000000000E+00  0.00000000000E+00  0.63555825159E+03  0.80978959460E+03  0.50182157821E+03 0.  0.
        5    1    3    3  502    0  0.20444778520E+03 -0.14264415309E+03  0.36307448122E+03  0.44044457108E+03  0.46999998093E+01 0. -1.
       -5    1    3    3    0  502 -0.20444778520E+03  0.14264415309E+03  0.27248377037E+03  0.36934502352E+03  0.46999998093E+01 0.  1.
</event>
<event>
 5   0  0.7698747E-02  0.4955577E+03  0.7818609E-02  0.1014945E+00
        2   -1    0    0  501    0  0.00000000000E+00  0.00000000000E+00  0.66115602618E+03  0.66115602619E+03  0.25500000920E-02 0. -1.
       -2   -1    0    0    0  501  0.00000000000E+00  0.00000000000E+00 -0.92859089705E+02  0.92859089740E+02  0.25500000920E-02 0.  1.
    10030    2    1    2    0    0  0.00000000000E+00  0.00000000000E+00  0.56829693648E+03  0.75401511593E+03  0.49555765259E+03 0.  0.
        2    1    3    3  502    0 -0.15078400940E+03 -0.13507244225E+03  0.66753471862E+02  0.21315817638E+03  0.25500000920E-02 0.  1.
       -2    1    3    3    0  502  0.15078400940E+03  0.13507244225E+03  0.50154346461E+03  0.54085693954E+03  0.25500000920E-02 0. -1.
</event>
<event>
 5   0  0.4884478E-02  0.5010323E+03  0.7818609E-02  0.1013510E+00
       -1   -1    0    0    0  501  0.00000000000E+00  0.00000000000E+00  0.10719659344E+03  0.10719659355E+03  0.50400001928E-02 0. -1.
        1   -1    0    0  501    0  0.00000000000E+00  0.00000000000E+00 -0.58545079320E+03  0.58545079322E+03  0.50400001928E-02 0.  1.
    10030    2    1    2    0    0  0.00000000000E+00  0.00000000000E+00 -0.47825419976E+03  0.69264738677E+03  0.50103225726E+03 0.  0.
        3    1    3    3  502    0 -0.75413133590E+02 -0.23849662974E+03 -0.25820965895E+03  0.35949968191E+03  0.10100000352E+00 0.  1.
       -3    1    3    3    0  502  0.75413133590E+02  0.23849662974E+03 -0.22004454081E+03  0.33314770487E+03  0.10100000352E+00 0. -1.
</event>
<event>
 5   0  0.7881060E-02  0.5119029E+03  0.7818609E-02  0.1010718E+00
       -2   -1    0    0    0  501  0.00000000000E+00  0.00000000000E+00  0.68430919356E+02  0.68430919403E+02  0.25500000920E-02 0. -1.
        2   -1    0    0  501    0  0.00000000000E+00  0.00000000000E+00 -0.95733235991E+03  0.95733235992E+03  0.25500000920E-02 0.  1.
    10030    2    1    2    0    0  0.00000000000E+00  0.00000000000E+00 -0.88890144056E+03  0.10257632793E+04  0.51190285619E+03 0.  0.
        1    1    3    3  502    0 -0.21227045099E+03  0.49424540745E+02 -0.71336364500E+03  0.74591502171E+03  0.50400001928E-02 0.  1.
       -1    1    3    3    0  502  0.21227045099E+03 -0.49424540745E+02 -0.17553779556E+03  0.27984825761E+03  0.50400001928E-02 0. -1.
</event>
<event>
 5   0  0.4865501E-02  0.4996883E+03  0.7818609E-02  0.1013860E+00
        1   -1    0    0  501    0  0.00000000000E+00  0.00000000000E+00  0.17268380924E+03  0.17268380931E+03  0.50400001928E-02 0. -1.
       -1   -1    0    0    0  501  0.00000000000E+00  0.00000000000E+00 -0.36148203360E+03  0.36148203363E+03  0.50400001928E-02 0.  1.
    10030    2    1    2    0    0  0.00000000000E+00  0.00000000000E+00 -0.18879822436E+03  0.53416584295E+03  0.49968828108E+03 0.  0.
        2    1    3    3  502    0  0.11191310716E+03 -0.22221783927E+03 -0.70097727339E+02  0.25849371951E+03  0.25500000920E-02 0. -1.
       -2    1    3    3    0  502 -0.11191310716E+03  0.22221783927E+03 -0.11870049702E+03  0.27567212344E+03  0.25500000920E-02 0.  1.
</event>
<event>
 5   0  0.5191358E-02  0.5069763E+03  0.7818609E-02  0.1011974E+00
       -1   -1    0    0    0  501  0.00000000000E+00  0.00000000000E+00  0.43152719841E+02  0.43152720135E+02  0.50400001928E-02 0. -1.
        1   -1    0    0  501    0  0.00000000000E+00  0.00000000000E+00 -0.14890425604E+04  0.14890425604E+04  0.50400001928E-02 0.  1.
    10030    2    1    2    0    0  0.00000000000E+00  0.00000000000E+00 -0.14458898406E+04  0.15321952806E+04  0.50697627823E+03 0.  0.
        4    1    3    3  502    0 -0.98932142032E+02  0.21464747046E+03 -0.44606050826E+03  0.50480956333E+03  0.12699999809E+01 0. -1.
       -4    1    3    3    0  502  0.98932142032E+02 -0.21464747046E+03 -0.99982933231E+03  0.10273857172E+04  0.12699999809E+01 0.  1.
</event>
<event>
 5   0  0.8208720E-02  0.4975384E+03  0.7818609E-02  0.1014423E+00
        2   -1    0    0  501    0  0.00000000000E+00  0.00000000000E+00  0.15478205362E+04  0.15478205362E+04  0.25500000920E-02 0.  1.
       -2   -1    0    0    0  501  0.00000000000E+00  0.00000000000E+00 -0.39982752210E+02  0.39982752291E+02  0.25500000920E-02 0. -1.
    10030    2    1    2    0    0  0.00000000000E+00  0.00000000000E+00  0.15078377840E+04  0.15878032885E+04  0.49753844085E+03 0.  0.
        3    1    3    3  502    0 -0.21338695212E+03 -0.12432693620E+03  0.84938872210E+03  0.88456338938E+03  0.10100000352E+00 0.  1.
       -3    1    3    3    0  502  0.21338695212E+03  0.12432693620E+03  0.65844906189E+03  0.70323989912E+03  0.10100000352E+00 0. -1.
</event>
<event>
 5   0  0.7933103E-02  0.4666440E+03  0.7818609E-02  0.1022872E+00
        2   -1    0    0  501    0  0.00000000000E+00  0.00000000000E+00  0.31893993489E+03  0.31893993490E+03  0.25500000920E-02 0. -1.
       -2   -1    0    0    0  501  0.00000000000E+00  0.00000000000E+00 -0.17068777179E+03  0.17068777181E+03  0.25500000920E-02 0.  1.
    10030    2    1    2    0    0  0.00000000000E+00  0.00000000000E+00  0.14825216310E+03  0.48962770671E+03  0.46664396205E+03 0.  0.
        5    1    3    3  502    0 -0.20803808355E+03  0.99413578924E+02  0.36967802995E+02  0.23356286593E+03  0.46999998093E+01 0.  1.
       -5    1    3    3    0  502  0.20803808355E+03 -0.99413578924E+02  0.11128436011E+03  0.25606484079E+03  0.46999998093E+01 0. -1.
</event>
<event>
 5   0  0.3210875E-02  0.5063015E+03  0.7818609E-02  0.1012147E+00
       -3   -1    0    0    0  501  0.00000000000E+00  0.00000000000E+00  0.14922337823E+03  0.14922341241E+03  0.10100000352E+00 0.  1.
        3   -1    0    0  501    0  0.00000000000E+00  0.00000000000E+00 -0.42945879452E+03  0.42945880640E+03  0.10100000352E+00 0. -1.
    10030    2    1    2    0    0  0.00000000000E+00  0.00000000000E+00 -0.28023541629E+03  0.57868221882E+03  0.50630151277E+03 0.  0.
        4    1    3    3  502    0  0.21449896713E+03  0.12848046564E+03 -0.94878220049E+02  0.26743321874E+03  0.12699999809E+01 0. -1.
       -4    1    3    3    0  502 -0.21449896713E+03 -0.12848046564E+03 -0.18535719624E+03  0.31124900007E+03  0.12699999809E+01 0.  1.
</event>
<event>
 5   0  0.4803890E-02  0.5011604E+03  0.7818609E-02  0.1013476E+00
        1   -1    0    0  501    0  0.00000000000E+00  0.00000000000E+00  0.18312831085E+04  0.18312831085E+04  0.50400001928E-02 0. -1.
       -1   -1    0    0    0  501  0.00000000000E+00  0.00000000000E+00 -0.34287677847E+02  0.34287678218E+02  0.50400001928E-02 0.  1.
    10030    2    1    2    0    0  0.00000000000E+00  0.00000000000E+00  0.17969954306E+04  0.18655707867E+04  0.50116043588E+03 0.  0.
        5    1    3    3  502    0  0.19277936601E+03 -0.23843204954E+01  0.14940839405E+04  0.15064788350E+04  0.46999998093E+01 0. -1.
       -5    1    3    3    0  502 -0.19277936601E+03  0.23843204954E+01  0.30291149008E+03  0.35909195168E+03  0.46999998093E+01 0.  1.
</event>
<event>
 5   0  0.7933103E-02  0.4996406E+03  0.7818609E-02  0.1013873E+00
       -2   -1    0    0    0  501  0.00000000000E+00  0.00000000000E+00  0.38032497463E+02  0.38032497549E+02  0.25500000920E-02 0. -1.
        2   -1    0    0  501    0  0.00000000000E+00  0.00000000000E+00 -0.16409700817E+04  0.16409700817E+04  0.25500000920E-02 0.  1.
    10030    2    1    2    0    0  0.00000000000E+00  0.00000000000E+00 -0.16029375842E+04  0.16790025792E+04  0.49964063303E+03 0.  0.
        5    1    3    3  502    0 -0.36601230310E+02  0.23923211273E+03 -0.59387076810E+03  0.64130821999E+03  0.46999998093E+01 0. -1.
       -5    1    3    3    0  502  0.36601230310E+02 -0.23923211273E+03 -0.10090668161E+04  0.10376943593E+04  0.46999998093E+01 0.  1.
</event>
<event>
 5   0  0.7881060E-02  0.5027946E+03  0.7818609E-02  0.1013052E+00
       -2   -1    0    0    0  501  0.00000000000E+00  0.00000000000E+00  0.12609889436E+04  0.12609889436E+04  0.25500000920E-02 0.  1.
        2   -1    0    0  501    0  0.00000000000E+00  0.00000000000E+00 -0.50119862088E+02  0.50119862153E+02  0.25500000920E-02 0. -1.
    10030    2    1    2    0    0  0.00000000000E+00  0.00000000000E+00  0.12108690815E+04  0.13111088057E+04  0.50279455841E+03 0.  0.
        1    1    3    3  502    0  0.14955277891E+02 -0.38405330446E+02 -0.41250256755E+02  0.58311349249E+02  0.50400001928E-02 0. -1.
       -1    1    3    3    0  502 -0.14955277891E+02  0.38405330446E+02  0.12521193383E+04  0.12527974565E+04  0.50400001928E-02 0.  1.
</event>
<event>
 5   0  0.5191358E-02  0.4968737E+03  0.7818609E-02  0.1014598E+00
        1   -1    0    0  501    0  0.00000000000E+00  0.00000000000E+00  0.10105279600E+04  0.10105279600E+04  0.50400001928E-02 0.  1.
       -1   -1    0    0    0  501  0.00000000000E+00  0.00000000000E+00 -0.61077835964E+02  0.61077836172E+02  0.50400001928E-02 0. -1.
    10030    2    1    2    0    0  0.00000000000E+00  0.00000000000E+00  0.94945012399E+03  0.10716057961E+04  0.49687367044E+03 0.  0.
        4    1    3    3  502    0  0.10917751451E+03 -0.18864008485E+03  0.73185574307E+03  0.76362245439E+03  0.12699999809E+01 0.  1.
       -4    1    3    3    0  502 -0.10917751451E+03  0.18864008485E+03  0.21759438092E+03  0.30798334175E+03  0.12699999809E+01 0. -1.
</event>
<event>
 5   0  0.3210875E-02  0.4975391E+03  0.7818609E-02  0.1014423E+00
       -3   -1    0    0    0  501  0.00000000000E+00  0.00000000000E+00  0.24276226342E+03  0.24276228443E+03  0.10100000352E+00 0. -1.
        3   -1    0    0  501    0  0.00000000000E+00  0.00000000000E+00 -0.25492546750E+03  0.25492548750E+03  0.10100000352E+00 0.  1.
    10030    2    1    2    0    0  0.00000000000E+00  0.00000000000E+00 -0.12163204079E+02  0.49768777193E+03  0.49753911886E+03 0.  0.
        3    1    3    3  502    0  0.54500417206E+02  0.63326383080E+01 -0.24879763458E+03  0.25477572678E+03  0.10100000352E+00 0.  1.
       -3    1    3    3    0  502 -0.54500417206E+02 -0.63326383080E+01  0.23663443050E+03  0.24291204515E+03  0.10100000352E+00 0. -1.
</event>
<event>
 5   0  0.4803890E-02  0.5188494E+03  0.7818609E-02  0.1008973E+00
        1   -1    0    0  501    0  0.00000000000E+00  0.00000000000E+00  0.45217435096E+03  0.45217435099E+03  0.50400001928E-02 0. -1.
       -1   -1    0    0    0  501  0.00000000000E+00  0.00000000000E+00 -0.14883898122E+03  0.14883898131E+03  0.50400001928E-02 0.  1.
    10030    2    1    2    0    0  0.00000000000E+00  0.00000000000E+00  0.30333536974E+03  0.60101333230E+03  0.51884937994E+03 0.  0.
        5    1    3    3  502    0  0.44303439203E+02  0.25137202487E+03  0.20510792791E+03  0.32747830722E+03  0.46999998093E+01 0. -1.
       -5    1    3    3    0  502 -0.44303439203E+02 -0.25137202487E+03  0.98227441838E+02  0.27353502507E+03  0.46999998093E+01 0.  1.
</event>
<event>
 5   0  0.7933103E-02  0.4988656E+03  0.7818609E-02  0.1014075E+00
       -2   -1    0    0    0  501  0.00000000000E+00  0.00000000000E+00  0.29537885522E+03  0.29537885523E+03  0.25500000920E-02 0. -1.
        2   -1    0    0  501    0  0.00000000000E+00  0.00000000000E+00 -0.21063360862E+03  0.21063360864E+03  0.25500000920E-02 0.  1.
    10030    2    1    2    0    0  0.00000000000E+00  0.00000000000E+00  0.84745246594E+02  0.50601246387E+03  0.49886556984E+03 0.  0.
        5    1    3    3  502    0 -0.20328163379E+03 -0.38446793737E+02 -0.98881356374E+02  0.22934949580E+03  0.46999998093E+01 0.  1.
       -5    1    3    3    0  502  0.20328163379E+03  0.38446793737E+02  0.18362660297E+03  0.27666296807E+03  0.46999998093E+01 0. -1.
</event>
<event>
 5   0  0.7698747E-02  0.5212329E+03  0.7818609E-02  0.1008381E+00
        2   -1    0    0  501    0  0.00000000000E+00  0.00000000000E+00  0.12146291774E+04  0.12146291774E+04  0.25500000920E-02 0. -1.
       -2   -1    0    0    0  501  0.00000000000E+00  0.00000000000E+00 -0.55919062618E+02  0.55919062676E+02  0.25500000920E-02 0.  1.
    10030    2    1    2    0    0  0.00000000000E+00  0.00000000000E+00  0.11587101147E+04  0.12705482400E+04  0.52123286568E+03 0.  0.
        2    1    3    3  502    0  0.66255073398E+02 -0.25194525751E+03  0.59739605635E+03  0.65172708681E+03  0.25500000920E-02 0. -1.
       -2    1    3    3    0  502 -0.66255073398E+02  0.25194525751E+03  0.56131405839E+03  0.61882115323E+03  0.25500000920E-02 0.  1.
</event>
<event>
 5   0  0.8208720E-02  0.4970502E+03  0.7818609E-02  0.1014552E+00
        2   -1    0    0  501    0  0.00000000000E+00  0.00000000000E+00  0.24395477819E+04  0.24395477819E+04  0.25500000920E-02 0.  1.
       -2   -1    0    0    0  501  0.00000000000E+00  0.00000000000E+00 -0.25318100383E+02  0.25318100512E+02  0.25500000920E-02 0. -1.
    10030    2    1    2    0    0  0.00000000000E+00  0.00000000000E+00  0.24142296815E+04  0.24648658824E+04  0.49705016163E+03 0.  0.
        3    1    3    3  502    0  0.61128493291E+02 -0.14398673319E+03  0.21648010493E+04  0.21704452228E+04  0.10100000352E+00 0.  1.
       -3    1    3    3    0  502 -0.61128493291E+02  0.14398673319E+03  0.24942863226E+03  0.29442065963E+03  0.10100000352E+00 0. -1.
</event>
<event>
 5   0  0.5038436E-02  0.4991936E+03  0.7818609E-02  0.1013990E+00
       -1   -1    0    0    0  501  0.00000000000E+00  0.00000000000E+00  0.97074406056E+03  0.97074406057E+03  0.50400001928E-02 0.  1.
        1   -1    0    0  501    0  0.00000000000E+00  0.00000000000E+00 -0.64176089776E+02  0.64176089974E+02  0.50400001928E-02 0. -1.
    10030    2    1    2    0    0  0.00000000000E+00  0.00000000000E+00  0.90656797078E+03  0.10349201505E+04  0.49919358205E+03 0.  0.
        1    1    3    3  502    0  0.19910971794E+03 -0.10717648842E+03  0.67236645943E+03  0.70937164818E+03  0.50400001928E-02 0. -1.
       -1    1    3    3    0  502 -0.19910971794E+03  0.10717648842E+03  0.23420151135E+03  0.32554850237E+03  0.50400001928E-02 0.  1.
</event>
<event>
 5   0  0.8208720E-02  0.4995084E+03  0.7818609E-02  0.1013907E+00
        2   -1    0    0  501    0  0.00000000000E+00  0.00000000000E+00  0.98563648964E+02  0.98563648997E+02  0.25500000920E-02 0. -1.
       -2   -1    0    0    0  501  0.00000000000E+00  0.00000000000E+00 -0.63286181895E+03  0.63286181896E+03  0.25500000920E-02 0.  1.
    10030    2    1    2    0    0  0.00000000000E+00  0.00000000000E+00 -0.53429816999E+03  0.73142546795E+03  0.49950843909E+03 0.  0.
        3    1    3    3  502    0 -0.81765816332E+02  0.22794969300E+03 -0.17771402855E+03  0.30038141987E+03  0.10100000352E+00 0.  1.
       -3    1    3    3    0  502  0.81765816332E+02 -0.22794969300E+03 -0.35658414144E+03  0.43104404808E+03  0.10100000352E+00 0. -1.
</event>
<event>
 5   0  0.7933103E-02  0.5002439E+03  0.7818609E-02  0.1013715E+00
        2   -1    0    0  501    0  0.00000000000E+00  0.00000000000E+00  0.47310235002E+03  0.47310235003E+03  0.25500000920E-02 0.  1.
       -2   -1    0    0    0  501  0.00000000000E+00  0.00000000000E+00 -0.13223564788E+03  0.13223564790E+03  0.25500000920E-02 0. -1.
    10030    2    1    2    0    0  0.00000000000E+00  0.00000000000E+00  0.34086670214E+03  0.60533799793E+03  0.50024392361E+03 0.  0.
        5    1    3    3  502    0 -0.84912410855E+02 -0.12617929783E+03  0.41065157891E+03  0.43793623049E+03  0.46999998093E+01 0.  1.
       -5    1    3    3    0  502  0.84912410855E+02  0.12617929783E+03 -0.69784876772E+02  0.16740176744E+03  0.46999998093E+01 0. -1.
</event>
<event>
 5   0  0.5191358E-02  0.4915769E+03  0.7818609E-02  0.1016001E+00
       -1   -1    0    0    0  501  0.00000000000E+00  0.00000000000E+00  0.11021023405E+03  0.11021023416E+03  0.50400001928E-02 0. -1.
        1   -1    0    0  501    0  0.00000000000E+00  0.00000000000E+00 -0.54815192237E+03  0.54815192239E+03  0.50400001928E-02 0.  1.
    10030    2    1    2    0    0  0.00000000000E+00  0.00000000000E+00 -0.43794168832E+03  0.65836215655E+03  0.49157685748E+03 0.  0.
        4    1    3    3  502    0 -0.19182367793E+03  0.10722279024E+03 -0.36639754839E+03  0.42724913871E+03  0.12699999809E+01 0.  1.
       -4    1    3    3    0  502  0.19182367793E+03 -0.10722279024E+03 -0.71544139934E+02  0.23111301785E+03  0.12699999809E+01 0. -1.
</event>
<event>
 5   0  0.3210875E-02  0.5013868E+03  0.7818609E-02  0.1013418E+00
       -4   -1    0    0    0  501  0.00000000000E+00  0.00000000000E+00  0.10602481244E+04  0.10602488851E+04  0.12699999809E+01 0. -1.
        4   -1    0    0  501    0  0.00000000000E+00  0.00000000000E+00 -0.59268331965E+02  0.59281937163E+02  0.12699999809E+01 0.  1.
    10030    2    1    2    0    0  0.00000000000E+00  0.00000000000E+00  0.10009797925E+04  0.11195308222E+04  0.50138679378E+03 0.  0.
        5    1    3    3  502    0 -0.76731368599E+02  0.20288404191E+03  0.78093900736E+03  0.81051678614E+03  0.46999998093E+01 0. -1.
       -5    1    3    3    0  502  0.76731368599E+02 -0.20288404191E+03  0.22004078512E+03  0.30901403609E+03  0.46999998093E+01 0.  1.
</event>
<event>
 5   0  0.7776070E-02  0.4986086E+03  0.7818609E-02  0.1014143E+00
        2   -1    0    0  501    0  0.00000000000E+00  0.00000000000E+00  0.37902601554E+03  0.37902601555E+03  0.25500000920E-02 0. -1.
       -2   -1    0    0    0  501  0.00000000000E+00  0.00000000000E+00 -0.16397983312E+03  0.16397983314E+03  0.25500000920E-02 0.  1.
    10030    2    1    2    0    0  0.00000000000E+00  0.00000000000E+00  0.21504618242E+03  0.54300584869E+03  0.49860855502E+03 0.  0.
        4    1    3    3  502    0 -0.17794857054E+03 -0.11437752035E+03 -0.36144257296E+02  0.21460645646E+03  0.12699999809E+01 0.  1.
       -4    1    3    3    0  502  0.17794857054E+03  0.11437752035E+03  0.25119043972E+03  0.32839939224E+03  0.12699999809E+01 0. -1.
</event>
<event>
 5   0  0.7776070E-02  0.5052617E+03  0.7818609E-02  0.1012415E+00
        2   -1    0    0  501    0  0.00000000000E+00  0.00000000000E+00  0.26209355245E+03  0.26209355247E+03  0.25500000920E-02 0. -1.
       -2   -1    0    0    0  501  0.00000000000E+00  0.00000000000E+00 -0.24350976331E+03  0.24350976332E+03  0.25500000920E-02 0.  1.
    10030    2    1    2    0    0  0.00000000000E+00  0.00000000000E+00  0.18583789144E+02  0.50560331579E+03  0.50526167054E+03 0.  0.
        4    1    3    3  502    0 -0.54353010548E+02 -0.34846589137E+01  0.25614540901E+03  0.26187492446E+03  0.12699999809E+01 0. -1.
       -4    1    3    3    0  502  0.54353010548E+02  0.34846589137E+01 -0.23756161987E+03  0.24372839133E+03  0.12699999809E+01 0.  1.
</event>
<event>
 5   0  0.7698747E-02  0.5017298E+03  0.7818609E-02  0.1013328E+00
       -2   -1    0    0    0  501  0.00000000000E+00  0.00000000000E+00  0.67148379884E+02  0.67148379933E+02  0.25500000920E-02 0.  1.
        2   -1    0    0  501    0  0.00000000000E+00  0.00000000000E+00 -0.93722576351E+03  0.93722576351E+03  0.25500000920E-02 0. -1.
    10030    2    1    2    0    0  0.00000000000E+00  0.00000000000E+00 -0.87007738362E+03  0.10043741434E+04  0.50172977441E+03 0.  0.
        2    1    3    3  502    0 -0.51233919622E+02  0.76925897005E+02 -0.90190002671E+03  0.90662349756E+03  0.25500000920E-02 0. -1.
       -2    1    3    3    0  502  0.51233919622E+02 -0.76925897005E+02  0.31822643089E+02  0.97750645877E+02  0.25500000920E-02 0.  1.
</event>
<event>
 5   0  0.7881060E-02  0.5008698E+03  0.7818609E-02  0.1013552E+00
       -2   -1    0    0    0  501  0.00000000000E+00  0.00000000000E+00  0.48128909382E+02  0.48128909450E+02  0.25500000920E-02 0. -1.
        2   -1    0    0  501    0  0.00000000000E+00  0.00000000000E+00 -0.13031180698E+04  0.13031180698E+04  0.25500000920E-02 0.  1.
    10030    2    1    2    0    0  0.00000000000E+00  0.00000000000E+00 -0.12549891604E+04  0.13512469792E+04  0.50086984953E+03 0.  0.
        1    1    3    3  502    0  0.52371468830E+01  0.95417810914E+02 -0.29921114808E+01  0.95608258553E+02  0.50400001928E-02 0. -1.
       -1    1    3    3    0  502 -0.52371468830E+01 -0.95417810914E+02 -0.12519970489E+04  0.12556387207E+04  0.50400001928E-02 0.  1.
</event>
<event>
 5   0  0.7776070E-02  0.5021638E+03  0.7818609E-02  0.1013216E+00
        2   -1    0    0  501    0  0.00000000000E+00  0.00000000000E+00  0.76347742296E+03  0.76347742297E+03  0.25500000920E-02 0. -1.
       -2   -1    0    0    0  501  0.00000000000E+00  0.00000000000E+00 -0.82572344203E+02  0.82572344242E+02  0.25500000920E-02 0.  1.
    10030    2    1    2    0    0  0.00000000000E+00  0.00000000000E+00  0.68090507876E+03  0.84604976721E+03  0.50216380028E+03 0.  0.
        4    1    3    3  502    0 -0.15045423663E+03  0.31796459586E+02  0.67484780615E+03  0.69214786464E+03  0.12699999809E+01 0. -1.
       -4    1    3    3    0  502  0.15045423663E+03 -0.31796459586E+02  0.60572726138E+01  0.15390190257E+03  0.12699999809E+01 0.  1.
</event>
<event>
 5   0  0.8208720E-02  0.4987995E+03  0.7818609E-02  0.1014093E+00
       -2   -1    0    0    0  501  0.00000000000E+00  0.00000000000E+00  0.35653170630E+02  0.35653170722E+02  0.25500000920E-02 0. -1.
        2   -1    0    0  501    0  0.00000000000E+00  0.00000000000E+00 -0.17445920420E+04  0.17445920421E+04  0.25500000920E-02 0.  1.
    10030    2    1    2    0    0  0.00000000000E+00  0.00000000000E+00 -0.17089388714E+04  0.17802452128E+04  0.49879951018E+03 0.  0.
        3    1    3    3  502    0  0.15007836928E+03 -0.50403230109E+02 -0.16668445775E+03  0.22988632231E+03  0.10100000352E+00 0.  1.
       -3    1    3    3    0  502 -0.15007836928E+03  0.50403230109E+02 -0.15422544137E+04  0.15503588905E+04  0.10100000352E+00 0. -1.
</event>
<event>
 5   0  0.3210875E-02  0.4977043E+03  0.7818609E-02  0.1014380E+00
        3   -1    0    0  501    0  0.00000000000E+00  0.00000000000E+00  0.46367053532E+03  0.46367054632E+03  0.10100000352E+00 0.  1.
       -3   -1    0    0    0  501  0.00000000000E+00  0.00000000000E+00 -0.13355903047E+03  0.13355906866E+03  0.10100000352E+00 0. -1.
    10030    2    1    2    0    0  0.00000000000E+00  0.00000000000E+00  0.33011150485E+03  0.59722961498E+03  0.49770433730E+03 0.  0.
        3    1    3    3  502    0  0.18424565962E+03 -0.10236993737E+03  0.63088104709E+01  0.21086933977E+03  0.10100000352E+00 0. -1.
       -3    1    3    3    0  502 -0.18424565962E+03  0.10236993737E+03  0.32380269438E+03  0.38636027520E+03  0.10100000352E+00 0.  1.
</event>
<event>
 5   0  0.5038436E-02  0.4998178E+03  0.7818609E-02  0.1013826E+00
       -1   -1    0    0    0  501  0.00000000000E+00  0.00000000000E+00  0.96350759796E+02  0.96350759928E+02  0.50400001928E-02 0. -1.
        1   -1    0    0  501    0  0.00000000000E+00  0.00000000000E+00 -0.64819899104E+03  0.64819899106E+03  0.50400001928E-02 0.  1.
    10030    2    1    2    0    0  0.00000000000E+00  0.00000000000E+00 -0.55184823125E+03  0.74454975099E+03  0.49981782818E+03 0.  0.
        1    1    3    3  502    0 -0.16168721996E+03 -0.12459619036E+03 -0.49069879794E+03  0.53146239573E+03  0.50400001928E-02 0.  1.
       -1    1    3    3    0  502  0.16168721996E+03  0.12459619036E+03 -0.61149433309E+02  0.21308735526E+03  0.50400001928E-02 0. -1.
</event>
<event>
 5   0  0.5038436E-02  0.5008542E+03  0.7818609E-02  0.1013556E+00
        1   -1    0    0  501    0  0.00000000000E+00  0.00000000000E+00  0.39046203279E+03  0.39046203282E+03  0.50400001928E-02 0. -1.
       -1   -1    0    0    0  501  0.00000000000E+00  0.00000000000E+00 -0.16061418681E+03  0.16061418689E+03  0.50400001928E-02 0.  1.
    10030    2    1    2    0    0  0.00000000000E+00  0.00000000000E+00  0.22984784598E+03  0.55107621971E+03  0.50085423791E+03 0.  0.
        1    1    3    3  502    0  0.67479607855E+02  0.23617065210E+03  0.16864233358E+03  0.29794346963E+03  0.50400001928E-02 0.  1.
       -1    1    3    3    0  502 -0.67479607855E+02 -0.23617065210E+03  0.61205512396E+02  0.25313275008E+03  0.50400001928E-02 0. -1.
</event>
<event>
 5   0  0.5191358E-02  0.4789288E+03  0.7818609E-02  0.1019430E+00
       -1   -1    0    0    0  501  0.00000000000E+00  0.00000000000E+00  0.10232765887E+03  0.10232765899E+03  0.50400001928E-02 0. -1.
        1   -1    0    0  501    0  0.00000000000E+00  0.00000000000E+00 -0.56038803494E+03  0.56038803497E+03  0.50400001928E-02 0.  1.
    10030    2    1    2    0    0  0.00000000000E+00  0.00000000000E+00 -0.45806037607E+03  0.66271569396E+03  0.47892878687E+03 0.  0.
        4    1    3    3  502    0 -0.74375272786E+02  0.13885259946E+03  0.20542692834E+02  0.15885635243E+03  0.12699999809E+01 0. -1.
       -4    1    3    3    0  502  0.74375272786E+02 -0.13885259946E+03 -0.47860306891E+03  0.50385934153E+03  0.12699999809E+01 0.  1.
</event>
<event>
 5   0  0.5038436E-02  0.4988847E+03  0.7818609E-02  0.1014070E+00
       -1   -1    0    0    0  501  0.00000000000E+00  0.00000000000E+00  0.97924116451E+02  0.97924116580E+02  0.50400001928E-02 0. -1.
        1   -1    0    0  501    0  0.00000000000E+00  0.00000000000E+00 -0.63540525124E+03  0.63540525126E+03  0.50400001928E-02 0.  1.
    10030    2    1    2    0    0  0.00000000000E+00  0.00000000000E+00 -0.53748113479E+03  0.73332936784E+03  0.49888474770E+03 0.  0.
        1    1    3    3  502    0  0.95212565648E+02 -0.18617244859E+03 -0.46865143518E+03  0.51318591270E+03  0.50400001928E-02 0.  1.
       -1    1    3    3    0  502 -0.95212565648E+02  0.18617244859E+03 -0.68829699613E+02  0.22014345515E+03  0.50400001928E-02 0. -1.
</event>
<event>
 5   0  0.7881060E-02  0.4987344E+03  0.7818609E-02  0.1014110E+00
       -2   -1    0    0    0  501  0.00000000000E+00  0.00000000000E+00  0.40944289131E+02  0.40944289210E+02  0.25500000920E-02 0.  1.
        2   -1    0    0  501    0  0.00000000000E+00  0.00000000000E+00 -0.15187466479E+04  0.15187466479E+04  0.25500000920E-02 0. -1.
    10030    2    1    2    0    0  0.00000000000E+00  0.00000000000E+00 -0.14778023588E+04  0.15596909371E+04  0.49873440600E+03 0.  0.
        1    1    3    3  502    0 -0.24811973907E+03  0.95959492685E+01 -0.66700633056E+03  0.71172532075E+03  0.50400001928E-02 0.  1.
       -1    1    3    3    0  502  0.24811973907E+03 -0.95959492685E+01 -0.81079602822E+03  0.84796561637E+03  0.50400001928E-02 0. -1.
</event>
<event>
 5   0  0.7776070E-02  0.5005690E+03  0.7818609E-02  0.1013630E+00
       -2   -1    0    0    0  501  0.00000000000E+00  0.00000000000E+00  0.37048141821E+03  0.37048141822E+03  0.25500000920E-02 0. -1.
        2   -1    0    0  501    0  0.00000000000E+00  0.00000000000E+00 -0.16908362956E+03  0.16908362958E+03  0.25500000920E-02 0.  1.
    10030    2    1    2    0    0  0.00000000000E+00  0.00000000000E+00  0.20139778865E+03  0.53956504779E+03  0.50056904771E+03 0.  0.
        4    1    3    3  502    0  0.41669155870E+02 -0.15566348049E+03 -0.10572252836E+03  0.19273376355E+03  0.12699999809E+01 0.  1.
       -4    1    3    3    0  502 -0.41669155870E+02  0.15566348049E+03  0.30712031701E+03  0.34683128424E+03  0.12699999809E+01 0. -1.
</event>
<event>
 5   0  0.7698747E-02  0.5015458E+03  0.7818609E-02  0.1013376E+00
        2   -1    0    0  501    0  0.00000000000E+00  0.00000000000E+00  0.48930627139E+03  0.48930627139E+03  0.25500000920E-02 0. -1.
       -2   -1    0    0    0  501  0.00000000000E+00  0.00000000000E+00 -0.12852284822E+03  0.12852284825E+03  0.25500000920E-02 0.  1.
    10030    2    1    2    0    0  0.00000000000E+00  0.00000000000E+00  0.36078342317E+03  0.61782911964E+03  0.50154575329E+03 0.  0.
        2    1    3    3  502    0  0.11183660210E+03 -0.44722270581E+02 -0.90557962152E+02  0.15069257304E+03  0.25500000920E-02 0.  1.
       -2    1    3    3    0  502 -0.11183660210E+03  0.44722270581E+02  0.45134138532E+03  0.46713654659E+03  0.25500000920E-02 0. -1.
</event>
<event>
 5   0  0.4803890E-02  0.5033484E+03  0.7818609E-02  0.1012909E+00
        1   -1    0    0  501    0  0.00000000000E+00  0.00000000000E+00  0.59395828213E+03  0.59395828215E+03  0.50400001928E-02 0.  1.
       -1   -1    0    0    0  501  0.00000000000E+00  0.00000000000E+00 -0.10664031920E+03  0.10664031932E+03  0.50400001928E-02 0. -1.
    10030    2    1    2    0    0  0.00000000000E+00  0.00000000000E+00  0.48731796293E+03  0.70059860147E+03  0.50334839165E+03 0.  0.
        5    1    3    3  502    0  0.67923964823E+02  0.44848874457E+02  0.57506794029E+03  0.58081865715E+03  0.46999998093E+01 0.  1.
       -5    1    3    3    0  502 -0.67923964823E+02 -0.44848874457E+02 -0.87749977359E+02  0.11977994432E+03  0.46999998093E+01 0. -1.
</event>
<event>
 5   0  0.4884478E-02  0.5117150E+03  0.7818609E-02  0.1010766E+00
       -1   -1    0    0    0  501  0.00000000000E+00  0.00000000000E+00  0.45362616586E+02  0.45362616866E+02  0.50400001928E-02 0. -1.
        1   -1    0    0  501    0  0.00000000000E+00  0.00000000000E+00 -0.14431061434E+04  0.14431061434E+04  0.50400001928E-02 0.  1.
    10030    2    1    2    0    0  0.00000000000E+00  0.00000000000E+00 -0.13977435268E+04  0.14884687603E+04  0.51171504137E+03 0.  0.
        3    1    3    3  502    0  0.18148593837E+03  0.61851390024E+02 -0.20608967471E+03  0.28148837365E+03  0.10100000352E+00 0. -1.
       -3    1    3    3    0  502 -0.18148593837E+03 -0.61851390024E+02 -0.11916538521E+04  0.12069803867E+04  0.10100000352E+00 0.  1.
</event>
<event>
 5   0  0.7881060E-02  0.5000087E+03  0.7818609E-02  0.1013777E+00
        2   -1    0    0  501    0  0.00000000000E+00  0.00000000000E+00  0.11101442999E+03  0.11101443002E+03  0.25500000920E-02 0. -1.
       -2   -1    0    0    0  501  0.00000000000E+00  0.00000000000E+00 -0.56300949358E+03  0.56300949358E+03  0.25500000920E-02 0.  1.
    10030    2    1    2    0    0  0.00000000000E+00  0.00000000000E+00 -0.45199506359E+03  0.67402392360E+03  0.50000871200E+03 0.  0.
        1    1    3    3  502    0  0.20122842997E+03  0.60928043693E+02 -0.43654773392E+02  0.21473436334E+03  0.50400001928E-02 0. -1.
       -1    1    3    3    0  502 -0.20122842997E+03 -0.60928043693E+02 -0.40834029020E+03  0.45928956025E+03  0.50400001928E-02 0.  1.
</event>
<event>
 5   0  0.5191358E-02  0.4983465E+03  0.7818609E-02  0.1014211E+00
        1   -1    0    0  501    0  0.00000000000E+00  0.00000000000E+00  0.24080867697E+03  0.24080867703E+03  0.50400001928E-02 0. -1.
       -1   -1    0    0    0  501  0.00000000000E+00  0.00000000000E+00 -0.25782839103E+03  0.25782839108E+03  0.50400001928E-02 0.  1.
    10030    2    1    2    0    0  0.00000000000E+00  0.00000000000E+00 -0.17019714053E+02  0.49863706810E+03  0.49834652103E+03 0.  0.
        4    1    3    3  502    0  0.10661991357E+03  0.14256894849E+02 -0.23339550644E+03  0.25699443641E+03  0.12699999809E+01 0.  1.
       -4    1    3    3    0  502 -0.10661991357E+03 -0.14256894849E+02  0.21637579239E+03  0.24164263169E+03  0.12699999809E+01 0. -1.
</event>
<event>
 5   0  0.5038436E-02  0.4992050E+03  0.7818609E-02  0.1013987E+00
        1   -1    0    0  501    0  0.00000000000E+00  0.00000000000E+00  0.50058302076E+03  0.50058302079E+03  0.50400001928E-02 0. -1.
       -1   -1    0    0    0  501  0.00000000000E+00  0.00000000000E+00 -0.12445768633E+03  0.12445768643E+03  0.50400001928E-02 0.  1.
    10030    2    1    2    0    0  0.00000000000E+00  0.00000000000E+00  0.37612533443E+03  0.62504070722E+03  0.49920498643E+03 0.  0.
        1    1    3    3  502    0 -0.17442845046E+03  0.15942176545E+03  0.28870327276E+03  0.37308197941E+03  0.50400001928E-02 0. -1.
       -1    1    3    3    0  502  0.17442845046E+03 -0.15942176545E+03  0.87422061668E+02  0.25195872781E+03  0.50400001928E-02 0.  1.
</event>
<event>
 5   0  0.5038436E-02  0.5012393E+03  0.7818609E-02  0.1013456E+00
       -1   -1    0    0    0  501  0.00000000000E+00  0.00000000000E+00  0.43943650282E+02  0.43943650571E+02  0.50400001928E-02 0.  1.
        1   -1    0    0  501    0  0.00000000000E+00  0.00000000000E+00 -0.14293355005E+04  0.14293355005E+04  0.50400001928E-02 0. -1.
    10030    2    1    2    0    0  0.00000000000E+00  0.00000000000E+00 -0.13853918502E+04  0.14732791511E+04  0.50123934239E+03 0.  0.
        1    1    3    3  502    0 -0.94147581657E+01 -0.10488332635E+03 -0.13611531797E+04  0.13652205420E+04  0.50400001928E-02 0. -1.
       -1    1    3    3    0  502  0.94147581657E+01  0.10488332635E+03 -0.24238670561E+02  0.10805860907E+03  0.50400001928E-02 0.  1.
</event>
<event>
 5   0  0.3210875E-02  0.5015047E+03  0.7818609E-02  0.1013387E+00
        3   -1    0    0  501    0  0.00000000000E+00  0.00000000000E+00  0.60317205638E+03  0.60317206484E+03  0.10100000352E+00 0. -1.
       -3   -1    0    0    0  501  0.00000000000E+00  0.00000000000E+00 -0.10424340590E+03  0.10424345483E+03  0.10100000352E+00 0.  1.
    10030    2    1    2    0    0  0.00000000000E+00  0.00000000000E+00  0.49892865048E+03  0.70741551967E+03  0.50150465521E+03 0.  0.
        4    1    3    3  502    0  0.22839338550E+03 -0.85459134419E+02  0.16711321495E+03  0.29562686229E+03  0.12699999809E+01 0.  1.
       -4    1    3    3    0  502 -0.22839338550E+03  0.85459134419E+02  0.33181543553E+03  0.41178865739E+03  0.12699999809E+01 0. -1.
</event>
<event>
 5   0  0.4803890E-02  0.5008917E+03  0.7818609E-02  0.1013546E+00
        1   -1    0    0  501    0  0.00000000000E+00  0.00000000000E+00  0.34584788174E+03  0.34584788178E+03  0.50400001928E-02 0. -1.
       -1   -1    0    0    0  501  0.00000000000E+00  0.00000000000E+00 -0.18136045032E+03  0.18136045039E+03  0.50400001928E-02 0.  1.
    10030    2    1    2    0    0  0.00000000000E+00  0.00000000000E+00  0.16448743142E+03  0.52720833216E+03  0.50089171525E+03 0.  0.
        5    1    3    3  502    0  0.10683458040E+03  0.21961959507E+03  0.24071087901E+02  0.24545447924E+03  0.46999998093E+01 0. -1.
       -5    1    3    3    0  502 -0.10683458040E+03 -0.21961959507E+03  0.14041634352E+03  0.28175385292E+03  0.46999998093E+01 0.  1.
</event>
<event>
 5   0  0.4884478E-02  0.4956034E+03  0.7818609E-02  0.1014933E+00
       -1   -1    0    0    0  501  0.00000000000E+00  0.00000000000E+00  0.48280977830E+03  0.48280977833E+03  0.50400001928E-02 0. -1.
        1   -1    0    0  501    0  0.00000000000E+00  0.00000000000E+00 -0.12718401386E+03  0.12718401396E+03  0.50400001928E-02 0.  1.
    10030    2    1    2    0    0  0.00000000000E+00  0.00000000000E+00  0.35562576444E+03  0.60999379229E+03  0.49560341232E+03 0.  0.
        3    1    3    3  502    0  0.77709904684E+02 -0.13426773374E+03  0.41564614580E+03  0.44365344846E+03  0.10100000352E+00 0. -1.
       -3    1    3    3    0  502 -0.77709904684E+02  0.13426773374E+03 -0.60020381360E+02  0.16634034384E+03  0.10100000352E+00 0.  1.
</event>
<event>
 5   0  0.7776070E-02  0.4957482E+03  0.7818609E-02  0.1014895E+00
        2   -1    0    0  501    0  0.00000000000E+00  0.00000000000E+00  0.60955467865E+03  0.60955467865E+03  0.25500000920E-02 0. -1.
       -2   -1    0    0    0  501  0.00000000000E+00  0.00000000000E+00 -0.10079747874E+03  0.10079747877E+03  0.25500000920E-02 0.  1.
    10030    2    1    2    0    0  0.00000000000E+00  0.00000000000E+00  0.50875719991E+03  0.71035215742E+03  0.49574822148E+03 0.  0.
        4    1    3    3  502    0  0.19130996609E+02  0.22506440768E+03  0.40064546925E+03  0.45993302509E+03  0.12699999809E+01 0. -1.
       -4    1    3    3    0  502 -0.19130996609E+02 -0.22506440768E+03  0.10811173065E+03  0.25041913233E+03  0.12699999809E+01 0.  1.
</event>
<event>
 5   0  0.7881060E-02  0.5004399E+03  0.7818609E-02  0.1013664E+00
       -2   -1    0    0    0  501  0.00000000000E+00  0.00000000000E+00  0.75151580619E+02  0.75151580663E+02  0.25500000920E-02 0.  1.
        2   -1    0    0  501    0  0.00000000000E+00  0.00000000000E+00 -0.83311643680E+03  0.83311643680E+03  0.25500000920E-02 0. -1.
    10030    2    1    2    0    0  0.00000000000E+00  0.00000000000E+00 -0.75796485618E+03  0.90826801747E+03  0.50043987486E+03 0.  0.
        1    1    3    3  502    0  0.15150880527E+03  0.16883865333E+02 -0.18864278164E+02  0.15360938773E+03  0.50400001928E-02 0.  1.
       -1    1    3    3    0  502 -0.15150880527E+03 -0.16883865333E+02 -0.73910057802E+03  0.75465862974E+03  0.50400001928E-02 0. -1.
</event>
<event>
 5   0  0.5191358E-02  0.4892344E+03  0.7818609E-02  0.1016628E+00
       -1   -1    0    0    0  501  0.00000000000E+00  0.00000000000E+00  0.12074922457E+03  0.12074922467E+03  0.50400001928E-02 0.  1.
        1   -1    0    0  501    0  0.00000000000E+00  0.00000000000E+00 -0.49555253432E+03  0.49555253434E+03  0.50400001928E-02 0. -1.
    10030    2    1    2    0    0  0.00000000000E+00  0.00000000000E+00 -0.37480330975E+03  0.61630175901E+03  0.48923443988E+03 0.  0.
        4    1    3    3  502    0 -0.19006663901E+03  0.25240137233E+02  0.39507273093E+01  0.19178011612E+03  0.12699999809E+01 0.  1.
       -4    1    3    3    0  502  0.19006663901E+03 -0.25240137233E+02 -0.37875403706E+03  0.42452164289E+03  0.12699999809E+01 0. -1.
</event>
<event>
 5   0  0.7933103E-02  0.4984859E+03  0.7818609E-02  0.1014175E+00
        2   -1    0    0  501    0  0.00000000000E+00  0.00000000000E+00  0.46165724026E+03  0.46165724027E+03  0.25500000920E-02 0.  1.
       -2   -1    0    0    0  501  0.00000000000E+00  0.00000000000E+00 -0.13456313320E+03  0.13456313323E+03  0.25500000920E-02 0. -1.
    10030    2    1    2    0    0  0.00000000000E+00  0.00000000000E+00  0.32709410706E+03  0.59622037350E+03  0.49848588636E+03 0.  0.
        5    1    3    3  502    0  0.82787477670E+02  0.13736266565E+03 -0.64577211562E+02  0.17295830314E+03  0.46999998093E+01 0. -1.
       -5    1    3    3    0  502 -0.82787477670E+02 -0.13736266565E+03  0.39167131862E+03  0.42326207036E+03  0.46999998093E+01 0.  1.
</event>
<event>
 5   0  0.4865501E-02  0.5014815E+03  0.7818609E-02  0.1013393E+00
       -1   -1    0    0    0  501  0.00000000000E+00  0.00000000000E+00  0.56285941450E+02  0.56285941676E+02  0.50400001928E-02 0. -1.
        1   -1    0    0  501    0  0.00000000000E+00  0.00000000000E+00 -0.11169916606E+04  0.11169916606E+04  0.50400001928E-02 0.  1.
    10030    2    1    2    0    0  0.00000000000E+00  0.00000000000E+00 -0.10607057192E+04  0.11732776023E+04  0.50148151452E+03 0.  0.
        2    1    3    3  502    0  0.14560239326E+03 -0.19015243334E+03 -0.70406764958E+03  0.74368626451E+03  0.25500000920E-02 0. -1.
       -2    1    3    3    0  502 -0.14560239326E+03  0.19015243334E+03 -0.35663806961E+03  0.42959133781E+03  0.25500000920E-02 0.  1.
</event>
<event>
 5   0  0.5038436E-02  0.4984733E+03  0.7818609E-02  0.1014178E+00
       -1   -1    0    0    0  501  0.00000000000E+00  0.00000000000E+00  0.37307669790E+02  0.37307670131E+02  0.50400001928E-02 0. -1.
        1   -1    0    0  501    0  0.00000000000E+00  0.00000000000E+00 -0.16650438737E+04  0.16650438737E+04  0.50400001928E-02 0.  1.
    10030    2    1    2    0    0  0.00000000000E+00  0.00000000000E+00 -0.16277362039E+04  0.17023515438E+04  0.49847329847E+03 0.  0.
        1    1    3    3  502    0 -0.55668628579E+02 -0.53495843393E+02 -0.45605838582E+01  0.77340806944E+02  0.50400001928E-02 0. -1.
       -1    1    3    3    0  502  0.55668628579E+02  0.53495843393E+02 -0.16231756201E+04  0.16250107369E+04  0.50400001928E-02 0.  1.
</event>
<event>
 5   0  0.5038436E-02  0.5001716E+03  0.7818609E-02  0.1013734E+00
        1   -1    0    0  501    0  0.00000000000E+00  0.00000000000E+00  0.15817047316E+04  0.15817047316E+04  0.50400001928E-02 0. -1.
       -1   -1    0    0    0  501  0.00000000000E+00  0.00000000000E+00 -0.39541454045E+02  0.39541454366E+02  0.50400001928E-02 0.  1.
    10030    2    1    2    0    0  0.00000000000E+00  0.00000000000E+00  0.15421632776E+04  0.16212461860E+04  0.50017159145E+03 0.  0.
        1    1    3    3  502    0  0.22812548296E+03  0.47931284731E+01  0.11028871146E+04  0.11262434007E+04  0.50400001928E-02 0. -1.
       -1    1    3    3    0  502 -0.22812548296E+03 -0.47931284731E+01  0.43927616297E+03  0.49500278528E+03  0.50400001928E-02 0.  1.
</event>
<event>
 5   0  0.4884478E-02  0.4987977E+03  0.7818609E-02  0.1014093E+00
       -1   -1    0    0    0  501  0.00000000000E+00  0.00000000000E+00  0.27153078638E+03  0.27153078643E+03  0.50400001928E-02 0. -1.
        1   -1    0    0  501    0  0.00000000000E+00  0.00000000000E+00 -0.22907086551E+03  0.22907086556E+03  0.50400001928E-02 0.  1.
    10030    2    1    2    0    0  0.00000000000E+00  0.00000000000E+00  0.42459920871E+02  0.50060165199E+03  0.49879772362E+03 0.  0.
        3    1    3    3  502    0  0.15709860380E+03 -0.19291076883E+03  0.36954830420E+01  0.24881359055E+03  0.10100000352E+00 0. -1.
       -3    1    3    3    0  502 -0.15709860380E+03  0.19291076883E+03  0.38764437829E+02  0.25178806144E+03  0.10100000352E+00 0.  1.
</event>
<event>
 5   0  0.7933103E-02  0.4976012E+03  0.7818609E-02  0.1014407E+00
        2   -1    0    0  501    0  0.00000000000E+00  0.00000000000E+00  0.38704904090E+03  0.38704904091E+03  0.25500000920E-02 0. -1.
       -2   -1    0    0    0  501  0.00000000000E+00  0.00000000000E+00 -0.15993253949E+03  0.15993253951E+03  0.25500000920E-02 0.  1.
    10030    2    1    2    0    0  0.00000000000E+00  0.00000000000E+00  0.22711650141E+03  0.54698158042E+03  0.49760118981E+03 0.  0.
        5    1    3    3  502    0  0.26070145847E+02  0.76245352165E+01 -0.15824873523E+03  0.16063168505E+03  0.46999998093E+01 0.  1.
       -5    1    3    3    0  502 -0.26070145847E+02 -0.76245352165E+01  0.38536523664E+03  0.38634989537E+03  0.46999998093E+01 0. -1.
</event>
<event>
 5   0  0.7881060E-02  0.4844170E+03  0.7818609E-02  0.1017928E+00
       -2   -1    0    0    0  501  0.00000000000E+00  0.00000000000E+00  0.81147298818E+02  0.81147298858E+02  0.25500000920E-02 0.  1.
        2   -1    0    0  501    0  0.00000000000E+00  0.00000000000E+00 -0.72294404484E+03  0.72294404485E+03  0.25500000920E-02 0. -1.
    10030    2    1    2    0    0  0.00000000000E+00  0.00000000000E+00 -0.64179674602E+03  0.80409134371E+03  0.48441699579E+03 0.  0.
        1    1    3    3  502    0  0.11499005980E+03 -0.57253554989E+02  0.19947722363E+02  0.12999459629E+03  0.50400001928E-02 0.  1.
       -1    1    3    3    0  502 -0.11499005980E+03  0.57253554989E+02 -0.66174446839E+03  0.67409674742E+03  0.50400001928E-02 0. -1.
</event>
<event>
 5   0  0.5191358E-02  0.5027963E+03  0.7818609E-02  0.1013052E+00
       -1   -1    0    0    0  501  0.00000000000E+00  0.00000000000E+00  0.54116890685E+02  0.54116890920E+02  0.50400001928E-02 0. -1.
        1   -1    0    0  501    0  0.00000000000E+00  0.00000000000E+00 -0.11678612665E+04  0.11678612665E+04  0.50400001928E-02 0.  1.
    10030    2    1    2    0    0  0.00000000000E+00  0.00000000000E+00 -0.11137443758E+04  0.12219781574E+04  0.50279626348E+03 0.  0.
        4    1    3    3  502    0 -0.76398281072E+02  0.91147367928E+02 -0.10951574086E+04  0.11015969783E+04  0.12699999809E+01 0.  1.
       -4    1    3    3    0  502  0.76398281072E+02 -0.91147367928E+02 -0.18586967146E+02  0.12038117909E+03  0.12699999809E+01 0. -1.
</event>
<event>
 5   0  0.4884478E-02  0.5037952E+03  0.7818609E-02  0.1012793E+00
        1   -1    0    0  501    0  0.00000000000E+00  0.00000000000E+00  0.26199277569E+03  0.26199277574E+03  0.50400001928E-02 0.  1.
       -1   -1    0    0    0  501  0.00000000000E+00  0.00000000000E+00 -0.24219139300E+03  0.24219139305E+03  0.50400001928E-02 0. -1.
    10030    2    1    2    0    0  0.00000000000E+00  0.00000000000E+00  0.19801382693E+02  0.50418416880E+03  0.50379517793E+03 0.  0.
        3    1    3    3  502    0  0.60762301453E+02 -0.79896898951E+02  0.24111330331E+03  0.26117275312E+03  0.10100000352E+00 0.  1.
       -3    1    3    3    0  502 -0.60762301453E+02  0.79896898951E+02 -0.22131192062E+03  0.24301141567E+03  0.10100000352E+00 0. -1.
</event>
<event>
 5   0  0.7933103E-02  0.5181824E+03  0.7818609E-02  0.1009139E+00
        2   -1    0    0  501    0  0.00000000000E+00  0.00000000000E+00  0.89142340630E+02  0.89142340666E+02  0.25500000920E-02 0. -1.
       -2   -1    0    0    0  501  0.00000000000E+00  0.00000000000E+00 -0.75304567273E+03  0.75304567273E+03  0.25500000920E-02 0.  1.
    10030    2    1    2    0    0  0.00000000000E+00  0.00000000000E+00 -0.66390333210E+03  0.84218801340E+03  0.51818241531E+03 0.  0.
        5    1    3    3  502    0  0.11183815863E+03  0.16891124584E+03 -0.69544865304E+02  0.21423669383E+03  0.46999998093E+01 0. -1.
       -5    1    3    3    0  502 -0.11183815863E+03 -0.16891124584E+03 -0.59435846679E+03  0.62795131956E+03  0.46999998093E+01 0.  1.
</event>
<event>
 5   0  0.4884478E-02  0.5004565E+03  0.7818609E-02  0.1013660E+00
        1   -1    0    0  501    0  0.00000000000E+00  0.00000000000E+00  0.20209825746E+03  0.20209825752E+03  0.50400001928E-02 0. -1.
       -1   -1    0    0    0  501  0.00000000000E+00  0.00000000000E+00 -0.30982041993E+03  0.30982041997E+03  0.50400001928E-02 0.  1.
    10030    2    1    2    0    0  0.00000000000E+00  0.00000000000E+00 -0.10772216247E+03  0.51191867749E+03  0.50045645973E+03 0.  0.
        3    1    3    3  502    0 -0.42534324074E+02 -0.11335768107E+03 -0.27786299732E+03  0.30309567477E+03  0.10100000352E+00 0.  1.
       -3    1    3    3    0  502  0.42534324074E+02  0.11335768107E+03  0.17014083485E+03  0.20882300273E+03  0.10100000352E+00 0. -1.
</event>
<event>
 5   0  0.5038436E-02  0.5003616E+03  0.7818609E-02  0.1013685E+00
        1   -1    0    0  501    0  0.00000000000E+00  0.00000000000E+00  0.54061152605E+03  0.54061152607E+03  0.50400001928E-02 0. -1.
       -1   -1    0    0    0  501  0.00000000000E+00  0.00000000000E+00 -0.11577708261E+03  0.11577708272E+03  0.50400001928E-02 0.  1.
    10030    2    1    2    0    0  0.00000000000E+00  0.00000000000E+00  0.42483444344E+03  0.65638860879E+03  0.50036157069E+03 0.  0.
        1    1    3    3  502    0  0.56232145751E+02  0.50438818323E+02 -0.10045952339E+03  0.12569106760E+03  0.50400001928E-02 0.  1.
       -1    1    3    3    0  502 -0.56232145751E+02 -0.50438818323E+02  0.52529396683E+03  0.53069754119E+03  0.50400001928E-02 0. -1.
</event>
<event>
 5   0  0.7776070E-02  0.4986654E+03  0.7818609E-02  0.1014128E+00
       -2   -1    0    0    0  501  0.00000000000E+00  0.00000000000E+00  0.15511955968E+03  0.15511955970E+03  0.25500000920E-02 0. -1.
        2   -1    0    0  501    0  0.00000000000E+00  0.00000000000E+00 -0.40076700580E+03  0.40076700581E+03  0.25500000920E-02 0.  1.
    10030    2    1    2    0    0  0.00000000000E+00  0.00000000000E+00 -0.24564744612E+03  0.55588656551E+03  0.49866542484E+03 0.  0.
        4    1    3    3  502    0 -0.10344259999E+01 -0.23725523982E+03 -0.20826081735E+03  0.31569811498E+03  0.12699999809E+01 0.  1.
       -4    1    3    3    0  502  0.10344259999E+01  0.23725523982E+03 -0.37386628765E+02  0.24018845053E+03  0.12699999809E+01 0. -1.
</event>
<event>
 5   0  0.7698747E-02  0.4982863E+03  0.7818609E-02  0.1014227E+00
        2   -1    0    0  501    0  0.00000000000E+00  0.00000000000E+00  0.11841211053E+04  0.11841211053E+04  0.25500000920E-02 0.  1.
       -2   -1    0    0    0  501  0.00000000000E+00  0.00000000000E+00 -0.52420583959E+02  0.52420584021E+02  0.25500000920E-02 0. -1.
    10030    2    1    2    0    0  0.00000000000E+00  0.00000000000E+00  0.11317005213E+04  0.12365416893E+04  0.49828634281E+03 0.  0.
        2    1    3    3  502    0 -0.44170420367E+01  0.63356739978E+02  0.11636954525E+04  0.11654272577E+04  0.25500000920E-02 0.  1.
       -2    1    3    3    0  502  0.44170420367E+01 -0.63356739978E+02 -0.31994931165E+02  0.71114431641E+02  0.25500000920E-02 0. -1.
</event>
<event>
 5   0  0.4865501E-02  0.4831723E+03  0.7818609E-02  0.1018267E+00
        1   -1    0    0  501    0  0.00000000000E+00  0.00000000000E+00  0.14647404087E+03  0.14647404096E+03  0.50400001928E-02 0.  1.
       -1   -1    0    0    0  501  0.00000000000E+00  0.00000000000E+00 -0.39845873200E+03  0.39845873203E+03  0.50400001928E-02 0. -1.
    10030    2    1    2    0    0  0.00000000000E+00  0.00000000000E+00 -0.25198469113E+03  0.54493277299E+03  0.48317227002E+03 0.  0.
        2    1    3    3  502    0 -0.14182518947E+03 -0.19476493678E+03 -0.14604399905E+03  0.28173855723E+03  0.25500000920E-02 0.  1.
       -2    1    3    3    0  502  0.14182518947E+03  0.19476493678E+03 -0.10594069208E+03  0.26319421576E+03  0.25500000920E-02 0. -1.
</event>
<event>
 5   0  0.7698747E-02  0.4936743E+03  0.7818609E-02  0.1015443E+00
       -2   -1    0    0    0  501  0.00000000000E+00  0.00000000000E+00  0.49305115684E+02  0.49305115750E+02  0.25500000920E-02 0.  1.
        2   -1    0    0  501    0  0.00000000000E+00  0.00000000000E+00 -0.12357454631E+04  0.12357454631E+04  0.25500000920E-02 0. -1.
    10030    2    1    2    0    0  0.00000000000E+00  0.00000000000E+00 -0.11864403474E+04  0.12850505788E+04  0.49367427746E+03 0.  0.
        2    1    3    3  502    0 -0.16090866094E+03 -0.12191612290E+03 -0.96293736708E+03  0.98387169443E+03  0.25500000920E-02 0. -1.
       -2    1    3    3    0  502  0.16090866094E+03  0.12191612290E+03 -0.22350298030E+03  0.30117888438E+03  0.25500000920E-02 0.  1.
</event>
<event>
 5   0  0.4865501E-02  0.4969700E+03  0.7818609E-02  0.1014573E+00
        1   -1    0    0  501    0  0.00000000000E+00  0.00000000000E+00  0.24424255524E+03  0.24424255529E+03  0.50400001928E-02 0. -1.
       -1   -1    0    0    0  501  0.00000000000E+00  0.00000000000E+00 -0.25280117381E+03  0.25280117386E+03  0.50400001928E-02 0.  1.
    10030    2    1    2    0    0  0.00000000000E+00  0.00000000000E+00 -0.85586185726E+01  0.49704372915E+03  0.49697003806E+03 0.  0.
        2    1    3    3  502    0  0.20782708924E+03  0.36365269020E+02 -0.13556290719E+03  0.25078244282E+03  0.25500000920E-02 0.  1.
       -2    1    3    3    0  502 -0.20782708924E+03 -0.36365269020E+02  0.12700428861E+03  0.24626128633E+03  0.25500000920E-02 0. -1.
</event>
<event>
 5   0  0.4803890E-02  0.5070996E+03  0.7818609E-02  0.1011942E+00
        1   -1    0    0  501    0  0.00000000000E+00  0.00000000000E+00  0.27463374667E+03  0.27463374672E+03  0.50400001928E-02 0. -1.
       -1   -1    0    0    0  501  0.00000000000E+00  0.00000000000E+00 -0.23408446296E+03  0.23408446302E+03  0.50400001928E-02 0.  1.
    10030    2    1    2    0    0  0.00000000000E+00  0.00000000000E+00  0.40549283709E+02  0.50871820974E+03  0.50709956864E+03 0.  0.
        5    1    3    3  502    0 -0.12115233007E+03 -0.16419014145E+02  0.24305991101E+03  0.27211703630E+03  0.46999998093E+01 0. -1.
       -5    1    3    3    0  502  0.12115233007E+03  0.16419014145E+02 -0.20251062730E+03  0.23660117344E+03  0.46999998093E+01 0.  1.
</event>
<event>
 5   0  0.5038436E-02  0.5000341E+03  0.7818609E-02  0.1013770E+00
        1   -1    0    0  501    0  0.00000000000E+00  0.00000000000E+00  0.22540077732E+03  0.22540077737E+03  0.50400001928E-02 0.  1.
       -1   -1    0    0    0  501  0.00000000000E+00  0.00000000000E+00 -0.27732170783E+03  0.27732170788E+03  0.50400001928E-02 0. -1.
    10030    2    1    2    0    0  0.00000000000E+00  0.00000000000E+00 -0.51920930513E+02  0.50272248525E+03  0.50003411299E+03 0.  0.
        1    1    3    3  502    0 -0.90295065454E+02 -0.56563251275E+02  0.20143230979E+03  0.22787622889E+03  0.50400001928E-02 0.  1.
       -1    1    3    3    0  502  0.90295065454E+02  0.56563251275E+02 -0.25335324030E+03  0.27484625636E+03  0.50400001928E-02 0. -1.
</event>
<event>
 5   0  0.7698747E-02  0.4976397E+03  0.7818609E-02  0.1014397E+00
        2   -1    0    0  501    0  0.00000000000E+00  0.00000000000E+00  0.12284409379E+04  0.12284409379E+04  0.25500000920E-02 0.  1.
       -2   -1    0    0    0  501  0.00000000000E+00  0.00000000000E+00 -0.50398285933E+02  0.50398285998E+02  0.25500000920E-02 0. -1.
    10030    2    1    2    0    0  0.00000000000E+00  0.00000000000E+00  0.11780426519E+04  0.12788392239E+04  0.49763969971E+03 0.  0.
        2    1    3    3  502    0  0.23898751379E+03  0.62322706970E+02  0.66663493848E+03  0.71091581271E+03  0.25500000920E-02 0.  1.
       -2    1    3    3    0  502 -0.23898751379E+03 -0.62322706970E+02  0.51140771346E+03  0.56792341116E+03  0.25500000920E-02 0. -1.
</event>
<event>
 5   0  0.7776070E-02  0.4994658E+03  0.7818609E-02  0.1013918E+00
        2   -1    0    0  501    0  0.00000000000E+00  0.00000000000E+00  0.16064767776E+04  0.16064767776E+04  0.25500000920E-02 0.  1.
       -2   -1    0    0    0  501  0.00000000000E+00  0.00000000000E+00 -0.38821931192E+02  0.38821931275E+02  0.25500000920E-02 0. -1.
    10030    2    1    2    0    0  0.00000000000E+00  0.00000000000E+00  0.15676548464E+04  0.16452987089E+04  0.49946583864E+03 0.  0.
        4    1    3    3  502    0  0.90523834582E+02  0.18174699862E+03  0.30489434002E+03  0.36631776862E+03  0.12699999809E+01 0. -1.
       -4    1    3    3    0  502 -0.90523834582E+02 -0.18174699862E+03  0.12627605064E+04  0.12789809403E+04  0.12699999809E+01 0.  1.
</event>
<event>
 5   0  0.7881060E-02  0.4992857E+03  0.7818609E-02  0.1013966E+00
        2   -1    0    0  501    0  0.00000000000E+00  0.00000000000E+00  0.24299265020E+03  0.24299265022E+03  0.25500000920E-02 0. -1.
       -2   -1    0    0    0  501  0.00000000000E+00  0.00000000000E+00 -0.25647508922E+03  0.25647508923E+03  0.25500000920E-02 0.  1.
    10030    2    1    2    0    0  0.00000000000E+00  0.00000000000E+00 -0.13482439020E+02  0.49946773945E+03  0.49928573642E+03 0.  0.
        1    1    3    3  502    0 -0.10866893435E+03 -0.47647289691E+02 -0.22646272003E+03  0.25566494695E+03  0.50400001928E-02 0.  1.
       -1    1    3    3    0  502  0.10866893435E+03  0.47647289691E+02  0.21298028101E+03  0.24380279250E+03  0.50400001928E-02 0. -1.
</event>
<event>
 5   0  0.7881060E-02  0.5057150E+03  0.7818609E-02  0.1012298E+00
       -2   -1    0    0    0  501  0.00000000000E+00  0.00000000000E+00  0.76341808358E+02  0.76341808401E+02  0.25500000920E-02 0. -1.
        2   -1    0    0  501    0  0.00000000000E+00  0.00000000000E+00 -0.83750850292E+03  0.83750850292E+03  0.25500000920E-02 0.  1.
    10030    2    1    2    0    0  0.00000000000E+00  0.00000000000E+00 -0.76116669456E+03  0.91385031132E+03  0.50571499345E+03 0.  0.
        1    1    3    3  502    0  0.18685886581E+03  0.16936916990E+03 -0.41364597964E+03  0.48446377361E+03  0.50400001928E-02 0. -1.
       -1    1    3    3    0  502 -0.18685886581E+03 -0.16936916990E+03 -0.34752071492E+03  0.42938653771E+03  0.50400001928E-02 0.  1.
</event>
<event>
 5   0  0.3210875E-02  0.4926486E+03  0.7818609E-02  0.1015716E+00
        4   -1    0    0  501    0  0.00000000000E+00  0.00000000000E+00  0.56438899391E+03  0.56439042280E+03  0.12699999809E+01 0. -1.
       -4   -1    0    0    0  501  0.00000000000E+00  0.00000000000E+00 -0.10750149422E+03  0.10750899572E+03  0.12699999809E+01 0.  1.
    10030    2    1    2    0    0  0.00000000000E+00  0.00000000000E+00  0.45688749969E+03  0.67189941852E+03  0.49264859812E+03 0.  0.
        3    1    3    3  502    0 -0.27762040702E+02 -0.74871119748E+02 -0.89363549636E+02  0.11984268722E+03  0.10100000352E+00 0.  1.
       -3    1    3    3    0  502  0.27762040702E+02  0.74871119748E+02  0.54625104933E+03  0.55205673130E+03  0.10100000352E+00 0. -1.
</event>
<event>
 5   0  0.3210875E-02  0.4924024E+03  0.7818609E-02  0.1015781E+00
       -4   -1    0    0    0  501  0.00000000000E+00  0.00000000000E+00  0.88745733353E+03  0.88745824225E+03  0.12699999809E+01 0.  1.
        4   -1    0    0  501    0  0.00000000000E+00  0.00000000000E+00 -0.68295052528E+02  0.68306859829E+02  0.12699999809E+01 0. -1.
    10030    2    1    2    0    0  0.00000000000E+00  0.00000000000E+00  0.81916228100E+03  0.95576510208E+03  0.49240236366E+03 0.  0.
        2    1    3    3  502    0  0.10317394357E+03  0.64307569616E+02 -0.59735767539E+01  0.12172103256E+03  0.25500000920E-02 0. -1.
       -2    1    3    3    0  502 -0.10317394357E+03 -0.64307569616E+02  0.82513585776E+03  0.83404406952E+03  0.25500000920E-02 0.  1.
</event>
<event>
 5   0  0.7881060E-02  0.5522028E+03  0.7818609E-02  0.1000985E+00
        2   -1    0    0  501    0  0.00000000000E+00  0.00000000000E+00  0.24134280859E+03  0.24134280860E+03  0.25500000920E-02 0. -1.
       -2   -1    0    0    0  501  0.00000000000E+00  0.00000000000E+00 -0.31586595883E+03  0.31586595884E+03  0.25500000920E-02 0.  1.
    10030    2    1    2    0    0  0.00000000000E+00  0.00000000000E+00 -0.74523150240E+02  0.55720876743E+03  0.55220278031E+03 0.  0.
        1    1    3    3  502    0  0.20843661405E+03  0.74856212997E+02  0.12910484504E+03  0.25635392671E+03  0.50400001928E-02 0. -1.
       -1    1    3    3    0  502 -0.20843661405E+03 -0.74856212997E+02 -0.20362799528E+03  0.30085484073E+03  0.50400001928E-02 0.  1.
</event>
<event>
 5   0  0.7933103E-02  0.4975313E+03  0.7818609E-02  0.1014425E+00
       -2   -1    0    0    0  501  0.00000000000E+00  0.00000000000E+00  0.79083330088E+03  0.79083330088E+03  0.25500000920E-02 0. -1.
        2   -1    0    0  501    0  0.00000000000E+00  0.00000000000E+00 -0.78252080005E+02  0.78252080046E+02  0.25500000920E-02 0.  1.
    10030    2    1    2    0    0  0.00000000000E+00  0.00000000000E+00  0.71258122087E+03  0.86908538093E+03  0.49753130856E+03 0.  0.
        5    1    3    3  502    0 -0.11656886340E+03 -0.82188157594E+01  0.73981627676E+03  0.74900337930E+03  0.46999998093E+01 0. -1.
       -5    1    3    3    0  502  0.11656886340E+03  0.82188157594E+01 -0.27235055889E+02  0.12008200163E+03  0.46999998093E+01 0.  1.
</event>
<event>
 5   0  0.7776070E-02  0.4997236E+03  0.7818609E-02  0.1013851E+00
       -2   -1    0    0    0  501  0.00000000000E+00  0.00000000000E+00  0.47195928070E+02  0.47195928139E+02  0.25500000920E-02 0. -1.
        2   -1    0    0  501    0  0.00000000000E+00  0.00000000000E+00 -0.13228029688E+04  0.13228029688E+04  0.25500000920E-02 0.  1.
    10030    2    1    2    0    0  0.00000000000E+00  0.00000000000E+00 -0.12756070407E+04  0.13699988969E+04  0.49972357885E+03 0.  0.
        4    1    3    3  502    0 -0.17908966134E+03  0.15812374475E+03 -0.83838556717E+03  0.87176154859E+03  0.12699999809E+01 0.  1.
       -4    1    3    3    0  502  0.17908966134E+03 -0.15812374475E+03 -0.43722147355E+03  0.49823734835E+03  0.12699999809E+01 0. -1.
</event>
<event>
 5   0  0.5038436E-02  0.4972305E+03  0.7818609E-02  0.1014504E+00
        1   -1    0    0  501    0  0.00000000000E+00  0.00000000000E+00  0.40572956541E+03  0.40572956544E+03  0.50400001928E-02 0.  1.
       -1   -1    0    0    0  501  0.00000000000E+00  0.00000000000E+00 -0.15234170812E+03  0.15234170820E+03  0.50400001928E-02 0. -1.
    10030    2    1    2    0    0  0.00000000000E+00  0.00000000000E+00  0.25338785730E+03  0.55807127365E+03  0.49723046995E+03 0.  0.
        1    1    3    3  502    0 -0.19741556552E+03  0.53897930520E+02 -0.31760170861E+02  0.20709080352E+03  0.50400001928E-02 0. -1.
       -1    1    3    3    0  502  0.19741556552E+03 -0.53897930520E+02  0.28514802816E+03  0.35098047013E+03  0.50400001928E-02 0.  1.
</event>
<event>
 5   0  0.8208720E-02  0.4980883E+03  0.7818609E-02  0.1014279E+00
       -2   -1    0    0    0  501  0.00000000000E+00  0.00000000000E+00  0.42096743381E+03  0.42096743382E+03  0.25500000920E-02 0. -1.
        2   -1    0    0  501    0  0.00000000000E+00  0.00000000000E+00 -0.14733438655E+03  0.14733438657E+03  0.25500000920E-02 0.  1.
    10030    2    1    2    0    0  0.00000000000E+00  0.00000000000E+00  0.27363304726E+03  0.56830182039E+03  0.49808825975E+03 0.  0.
        3    1    3    3  502    0  0.89802334312E+02  0.14760347871E+03 -0.67832603785E+02  0.18561389633E+03  0.10100000352E+00 0.  1.
       -3    1    3    3    0  502 -0.89802334312E+02 -0.14760347871E+03  0.34146565105E+03  0.38268792406E+03  0.10100000352E+00 0. -1.
</event>
<event>
 5   0  0.7881060E-02  0.4987785E+03  0.7818609E-02  0.1014098E+00
       -2   -1    0    0    0  501  0.00000000000E+00  0.00000000000E+00  0.54170359282E+02  0.54170359342E+02  0.25500000920E-02 0.  1.
        2   -1    0    0  501    0  0.00000000000E+00  0.00000000000E+00 -0.11481371833E+04  0.11481371833E+04  0.25500000920E-02 0. -1.
    10030    2    1    2    0    0  0.00000000000E+00  0.00000000000E+00 -0.10939668240E+04  0.12023075427E+04  0.49877852305E+03 0.  0.
        1    1    3    3  502    0 -0.57461891731E+01 -0.27123446711E+02  0.50443824470E+02  0.57561093666E+02  0.50400001928E-02 0.  1.
       -1    1    3    3    0  502  0.57461891731E+01  0.27123446711E+02 -0.11444106485E+04  0.11447464490E+04  0.50400001928E-02 0. -1.
</event>
<event>
 5   0  0.5191358E-02  0.5079313E+03  0.7818609E-02  0.1011729E+00
       -1   -1    0    0    0  501  0.00000000000E+00  0.00000000000E+00  0.33610944861E+03  0.33610944864E+03  0.50400001928E-02 0. -1.
        1   -1    0    0  501    0  0.00000000000E+00  0.00000000000E+00 -0.19189745532E+03  0.19189745538E+03  0.50400001928E-02 0.  1.
    10030    2    1    2    0    0  0.00000000000E+00  0.00000000000E+00  0.14421199329E+03  0.52800690403E+03  0.50793128639E+03 0.  0.
        4    1    3    3  502    0  0.81425319131E+02  0.50934148934E+02  0.31649938130E+03  0.33075344501E+03  0.12699999809E+01 0. -1.
       -4    1    3    3    0  502 -0.81425319131E+02 -0.50934148934E+02 -0.17228738801E+03  0.19725345901E+03  0.12699999809E+01 0.  1.
</event>
<event>
 5   0  0.8208720E-02  0.5016075E+03  0.7818609E-02  0.1013360E+00
       -2   -1    0    0    0  501  0.00000000000E+00  0.00000000000E+00  0.47963955193E+03  0.47963955194E+03  0.25500000920E-02 0.  1.
        2   -1    0    0  501    0  0.00000000000E+00  0.00000000000E+00 -0.13114539029E+03  0.13114539032E+03  0.25500000920E-02 0. -1.
    10030    2    1    2    0    0  0.00000000000E+00  0.00000000000E+00  0.34849416164E+03  0.61078494226E+03  0.50160748100E+03 0.  0.
        3    1    3    3  502    0 -0.19664685961E+02  0.18810475530E+03 -0.26324076324E+02  0.19095304667E+03  0.10100000352E+00 0. -1.
       -3    1    3    3    0  502  0.19664685961E+02 -0.18810475530E+03  0.37481823796E+03  0.41983189558E+03  0.10100000352E+00 0.  1.
</event>
<event>
 5   0  0.7881060E-02  0.5017663E+03  0.7818609E-02  0.1013319E+00
       -2   -1    0    0    0  501  0.00000000000E+00  0.00000000000E+00  0.58923599327E+02  0.58923599382E+02  0.25500000920E-02 0.  1.
        2   -1    0    0  501    0  0.00000000000E+00  0.00000000000E+00 -0.10682027591E+04  0.10682027591E+04  0.25500000920E-02 0. -1.
    10030    2    1    2    0    0  0.00000000000E+00  0.00000000000E+00 -0.10092791597E+04  0.11271263584E+04  0.50176628586E+03 0.  0.
        1    1    3    3  502    0  0.21203788319E+03 -0.69557106716E+02 -0.76217472015E+03  0.79417161815E+03  0.50400001928E-02 0.  1.
       -1    1    3    3    0  502 -0.21203788319E+03  0.69557106716E+02 -0.24710443957E+03  0.33295474029E+03  0.50400001928E-02 0. -1.
</event>
<event>
 5   0  0.4865501E-02  0.5011108E+03  0.7818609E-02  0.1013489E+00
        1   -1    0    0  501    0  0.00000000000E+00  0.00000000000E+00  0.61816108016E+03  0.61816108018E+03  0.50400001928E-02 0. -1.
       -1   -1    0    0    0  501  0.00000000000E+00  0.00000000000E+00 -0.10155607910E+03  0.10155607922E+03  0.50400001928E-02 0.  1.
    10030    2    1    2    0    0  0.00000000000E+00  0.00000000000E+00  0.51660500106E+03  0.71971715940E+03  0.50111082848E+03 0.  0.
        2    1    3    3  502    0  0.53067844105E+02  0.70842725370E+02 -0.78352259391E+02  0.11821152386E+03  0.25500000920E-02 0.  1.
       -2    1    3    3    0  502 -0.53067844105E+02 -0.70842725370E+02  0.59495726045E+03  0.60150563554E+03  0.25500000920E-02 0. -1.
</event>
<event>
 5   0  0.7933103E-02  0.5070619E+03  0.7818609E-02  0.1011952E+00
        2   -1    0    0  501    0  0.00000000000E+00  0.00000000000E+00  0.46998697833E+03  0.46998697833E+03  0.25500000920E-02 0. -1.
       -2   -1    0    0    0  501  0.00000000000E+00  0.00000000000E+00 -0.13676536822E+03  0.13676536824E+03  0.25500000920E-02 0.  1.
    10030    2    1    2    0    0  0.00000000000E+00  0.00000000000E+00  0.33322161011E+03  0.60675234657E+03  0.50706189822E+03 0.  0.
        5    1    3    3  502    0  0.13289750530E+03 -0.20674733534E+03  0.24085470965E+03  0.34415009624E+03  0.46999998093E+01 0. -1.
       -5    1    3    3    0  502 -0.13289750530E+03  0.20674733534E+03  0.92366900456E+02  0.26260225033E+03  0.46999998093E+01 0.  1.
</event>
<event>
 5   0  0.5038436E-02  0.5141652E+03  0.7818609E-02  0.1010146E+00
        1   -1    0    0  501    0  0.00000000000E+00  0.00000000000E+00  0.94631951565E+03  0.94631951567E+03  0.50400001928E-02 0. -1.
       -1   -1    0    0    0  501  0.00000000000E+00  0.00000000000E+00 -0.69840526606E+02  0.69840526788E+02  0.50400001928E-02 0.  1.
    10030    2    1    2    0    0  0.00000000000E+00  0.00000000000E+00  0.87647898905E+03  0.10161600425E+04  0.51416516183E+03 0.  0.
        1    1    3    3  502    0 -0.56747767921E+02 -0.21220033544E+03  0.17425209124E+03  0.28038024690E+03  0.50400001928E-02 0.  1.
       -1    1    3    3    0  502  0.56747767921E+02  0.21220033544E+03  0.70222689780E+03  0.73577979556E+03  0.50400001928E-02 0. -1.
</event>
<event>
 5   0  0.7881060E-02  0.4996080E+03  0.7818609E-02  0.1013881E+00
       -2   -1    0    0    0  501  0.00000000000E+00  0.00000000000E+00  0.10030089528E+03  0.10030089531E+03  0.25500000920E-02 0.  1.
        2   -1    0    0  501    0  0.00000000000E+00  0.00000000000E+00 -0.62214826982E+03  0.62214826983E+03  0.25500000920E-02 0. -1.
    10030    2    1    2    0    0  0.00000000000E+00  0.00000000000E+00 -0.52184737454E+03  0.72244916514E+03  0.49960796020E+03 0.  0.
        1    1    3    3  502    0  0.28981078135E+02  0.24141919579E+03 -0.17812148994E+03  0.30141399468E+03  0.50400001928E-02 0. -1.
       -1    1    3    3    0  502 -0.28981078135E+02 -0.24141919579E+03 -0.34372588461E+03  0.42103517046E+03  0.50400001928E-02 0.  1.
</event>
<event>
 5   0  0.7698747E-02  0.4979488E+03  0.7818609E-02  0.1014316E+00
        2   -1    0    0  501    0  0.00000000000E+00  0.00000000000E+00  0.78253835103E+03  0.78253835103E+03  0.25500000920E-02 0.  1.
       -2   -1    0    0    0  501  0.00000000000E+00  0.00000000000E+00 -0.79214339924E+02  0.79214339965E+02  0.25500000920E-02 0. -1.
    10030    2    1    2    0    0  0.00000000000E+00  0.00000000000E+00  0.70332401110E+03  0.86175269100E+03  0.49794882854E+03 0.  0.
        2    1    3    3  502    0  0.96518385682E+01  0.62663262227E+02  0.76833336725E+03  0.77094487848E+03  0.25500000920E-02 0.  1.
       -2    1    3    3    0  502 -0.96518385682E+01 -0.62663262227E+02 -0.65009356147E+02  0.90807812515E+02  0.25500000920E-02 0. -1.
</event>
<event>
 5   0  0.4803890E-02  0.5033745E+03  0.7818609E-02  0.1012902E+00
       -1   -1    0    0    0  501  0.00000000000E+00  0.00000000000E+00  0.22565278372E+03  0.22565278378E+03  0.50400001928E-02 0.  1.
        1   -1    0    0  501    0  0.00000000000E+00  0.00000000000E+00 -0.28072537988E+03  0.28072537993E+03  0.50400001928E-02 0. -1.
    10030    2    1    2    0    0  0.00000000000E+00  0.00000000000E+00 -0.55072596163E+02  0.50637816371E+03  0.50337446680E+03 0.  0.
        5    1    3    3  502    0 -0.59175041750E+02 -0.21097778148E+03  0.96939943680E+02  0.23965131446E+03  0.46999998093E+01 0.  1.
       -5    1    3    3    0  502  0.59175041750E+02  0.21097778148E+03 -0.15201253984E+03  0.26672684925E+03  0.46999998093E+01 0. -1.
</event>
<event>
 5   0  0.4884478E-02  0.5002665E+03  0.7818609E-02  0.1013709E+00
        1   -1    0    0  501    0  0.00000000000E+00  0.00000000000E+00  0.15164754525E+03  0.15164754534E+03  0.50400001928E-02 0.  1.
       -1   -1    0    0    0  501  0.00000000000E+00  0.00000000000E+00 -0.41257938963E+03  0.41257938966E+03  0.50400001928E-02 0. -1.
    10030    2    1    2    0    0  0.00000000000E+00  0.00000000000E+00 -0.26093184438E+03  0.56422693500E+03  0.50026653573E+03 0.  0.
        3    1    3    3  502    0 -0.11865905865E+03 -0.16547017904E+03 -0.29432039599E+03  0.35788944948E+03  0.10100000352E+00 0. -1.
       -3    1    3    3    0  502  0.11865905865E+03  0.16547017904E+03  0.33388551606E+02  0.20633748552E+03  0.10100000352E+00 0.  1.
</event>
<event>
 5   0  0.8208720E-02  0.4985987E+03  0.7818609E-02  0.1014145E+00
       -2   -1    0    0    0  501  0.00000000000E+00  0.00000000000E+00  0.72717938034E+02  0.72717938079E+02  0.25500000920E-02 0.  1.
        2   -1    0    0  501    0  0.00000000000E+00  0.00000000000E+00 -0.85467447292E+03  0.85467447293E+03  0.25500000920E-02 0. -1.
    10030    2    1    2    0    0  0.00000000000E+00  0.00000000000E+00 -0.78195653489E+03  0.92739241101E+03  0.49859869789E+03 0.  0.
        3    1    3    3  502    0  0.15822270230E+03 -0.17991619732E+03 -0.26284219844E+03  0.35565473856E+03  0.10100000352E+00 0.  1.
       -3    1    3    3    0  502 -0.15822270230E+03  0.17991619732E+03 -0.51911433645E+03  0.57173767245E+03  0.10100000352E+00 0. -1.
</event>
<event>
 5   0  0.7933103E-02  0.4894203E+03  0.7818609E-02  0.1016578E+00
        2   -1    0    0  501    0  0.00000000000E+00  0.00000000000E+00  0.11266998501E+04  0.11266998501E+04  0.25500000920E-02 0.  1.
       -2   -1    0    0    0  501  0.00000000000E+00  0.00000000000E+00 -0.53149079459E+02  0.53149079520E+02  0.25500000920E-02 0. -1.
    10030    2    1    2    0    0  0.00000000000E+00  0.00000000000E+00  0.10735507706E+04  0.11798489296E+04  0.48942030973E+03 0.  0.
        5    1    3    3  502    0 -0.19839528338E+03  0.47106919892E+02  0.21082837847E+03  0.29334356229E+03  0.46999998093E+01 0. -1.
       -5    1    3    3    0  502  0.19839528338E+03 -0.47106919892E+02  0.86272239212E+03  0.88650536729E+03  0.46999998093E+01 0.  1.
</event>
<event>
 5   0  0.4803890E-02  0.5060226E+03  0.7818609E-02  0.1012219E+00
       -1   -1    0    0    0  501  0.00000000000E+00  0.00000000000E+00  0.67129759938E+02  0.67129760127E+02  0.50400001928E-02 0. -1.
        1   -1    0    0  501    0  0.00000000000E+00  0.00000000000E+00 -0.95359652817E+03  0.95359652819E+03  0.50400001928E-02 0.  1.
    10030    2    1    2    0    0  0.00000000000E+00  0.00000000000E+00 -0.88646676823E+03  0.10207262883E+04  0.50602255332E+03 0.  0.
        5    1    3    3  502    0  0.10957397495E+03  0.11880615883E+03 -0.50684013861E+02  0.16944709682E+03  0.46999998093E+01 0. -1.
       -5    1    3    3    0  502 -0.10957397495E+03 -0.11880615883E+03 -0.83578275437E+03  0.85127919149E+03  0.46999998093E+01 0.  1.
</event>
<event>
 5   0  0.7881060E-02  0.4964006E+03  0.7818609E-02  0.1014723E+00
       -2   -1    0    0    0  501  0.00000000000E+00  0.00000000000E+00  0.68258369841E+02  0.68258369888E+02  0.25500000920E-02 0. -1.
        2   -1    0    0  501    0  0.00000000000E+00  0.00000000000E+00 -0.90250323782E+03  0.90250323782E+03  0.25500000920E-02 0.  1.
    10030    2    1    2    0    0  0.00000000000E+00  0.00000000000E+00 -0.83424486798E+03  0.97076160771E+03  0.49640064389E+03 0.  0.
        1    1    3    3  502    0  0.24518891498E+03  0.16527127948E+02 -0.48522256629E+03  0.54390411734E+03  0.50400001928E-02 0.  1.
       -1    1    3    3    0  502 -0.24518891498E+03 -0.16527127948E+02 -0.34902230168E+03  0.42685749037E+03  0.50400001928E-02 0. -1.
</event>
<event>
 5   0  0.5191358E-02  0.4990055E+03  0.7818609E-02  0.1014039E+00
        1   -1    0    0  501    0  0.00000000000E+00  0.00000000000E+00  0.10517187051E+03  0.10517187063E+03  0.50400001928E-02 0.  1.
       -1   -1    0    0    0  501  0.00000000000E+00  0.00000000000E+00 -0.59190381082E+03  0.59190381084E+03  0.50400001928E-02 0. -1.
    10030    2    1    2    0    0  0.00000000000E+00  0.00000000000E+00 -0.48673194031E+03  0.69707568147E+03  0.49900553501E+03 0.  0.
        4    1    3    3  502    0 -0.18108312686E+03  0.17163106379E+03 -0.24518584560E+03  0.34980856575E+03  0.12699999809E+01 0.  1.
       -4    1    3    3    0  502  0.18108312686E+03 -0.17163106379E+03 -0.24154609471E+03  0.34726711572E+03  0.12699999809E+01 0. -1.
</event>
<event>
 5   0  0.8208720E-02  0.4995122E+03  0.7818609E-02  0.1013906E+00
       -2   -1    0    0    0  501  0.00000000000E+00  0.00000000000E+00  0.33025561961E+03  0.33025561962E+03  0.25500000920E-02 0.  1.
        2   -1    0    0  501    0  0.00000000000E+00  0.00000000000E+00 -0.18887825708E+03  0.18887825709E+03  0.25500000920E-02 0. -1.
    10030    2    1    2    0    0  0.00000000000E+00  0.00000000000E+00  0.14137736253E+03  0.51913387671E+03  0.49951218535E+03 0.  0.
        3    1    3    3  502    0  0.29762086763E+02 -0.16045199213E+03 -0.12580833072E+03  0.20605428864E+03  0.10100000352E+00 0. -1.
       -3    1    3    3    0  502 -0.29762086763E+02  0.16045199213E+03  0.26718569325E+03  0.31307958807E+03  0.10100000352E+00 0.  1.
</event>
<event>
 5   0  0.3210875E-02  0.5021313E+03  0.7818609E-02  0.1013224E+00
        3   -1    0    0  501    0  0.00000000000E+00  0.00000000000E+00  0.68442967032E+02  0.68443041553E+02  0.10100000352E+00 0.  1.
       -3   -1    0    0    0  501  0.00000000000E+00  0.00000000000E+00 -0.92097020346E+03  0.92097020900E+03  0.10100000352E+00 0. -1.
    10030    2    1    2    0    0  0.00000000000E+00  0.00000000000E+00 -0.85252723643E+03  0.98941325055E+03  0.50213134887E+03 0.  0.
        3    1    3    3  502    0 -0.18858589941E+03  0.48726832201E+02 -0.11412023455E+03  0.22574849671E+03  0.10100000352E+00 0.  1.
       -3    1    3    3    0  502  0.18858589941E+03 -0.48726832201E+02 -0.73840700188E+03  0.76366475384E+03  0.10100000352E+00 0. -1.
</event>
<event>
 5   0  0.7776070E-02  0.4863868E+03  0.7818609E-02  0.1017395E+00
       -2   -1    0    0    0  501  0.00000000000E+00  0.00000000000E+00  0.10486132102E+03  0.10486132106E+03  0.25500000920E-02 0.  1.
        2   -1    0    0  501    0  0.00000000000E+00  0.00000000000E+00 -0.56401193590E+03  0.56401193590E+03  0.25500000920E-02 0. -1.
    10030    2    1    2    0    0  0.00000000000E+00  0.00000000000E+00 -0.45915061488E+03  0.66887325696E+03  0.48638682829E+03 0.  0.
        4    1    3    3  502    0  0.13582003186E+03 -0.11804625107E+03 -0.46178378999E+01  0.18001370996E+03  0.12699999809E+01 0.  1.
       -4    1    3    3    0  502 -0.13582003186E+03  0.11804625107E+03 -0.45453277698E+03  0.48885954700E+03  0.12699999809E+01 0. -1.
</event>
<event>
 5   0  0.7698747E-02  0.5001277E+03  0.7818609E-02  0.1013746E+00
        2   -1    0    0  501    0  0.00000000000E+00  0.00000000000E+00  0.18883631941E+04  0.18883631941E+04  0.25500000920E-02 0. -1.
       -2   -1    0    0    0  501  0.00000000000E+00  0.00000000000E+00 -0.33114351848E+02  0.33114351946E+02  0.25500000920E-02 0.  1.
    10030    2    1    2    0    0  0.00000000000E+00  0.00000000000E+00  0.18552488422E+04  0.19214775460E+04  0.50012767699E+03 0.  0.
        2    1    3    3  502    0  0.77886314214E+01 -0.92901745083E+02  0.18190992249E+04  0.18214865872E+04  0.25500000920E-02 0. -1.
       -2    1    3    3    0  502 -0.77886314214E+01  0.92901745083E+02  0.36149617296E+02  0.99990958872E+02  0.25500000920E-02 0.  1.
</event>
<event>
 5   0  0.7698747E-02  0.5076272E+03  0.7818609E-02  0.1011807E+00
        2   -1    0    0  501    0  0.00000000000E+00  0.00000000000E+00  0.24325453077E+03  0.24325453078E+03  0.25500000920E-02 0.  1.
       -2   -1    0    0    0  501  0.00000000000E+00  0.00000000000E+00 -0.26483100501E+03  0.26483100502E+03  0.25500000920E-02 0. -1.
    10030    2    1    2    0    0  0.00000000000E+00  0.00000000000E+00 -0.21576474235E+02  0.50808553580E+03  0.50762719337E+03 0.  0.
        2    1    3    3  502    0  0.18115409175E+03  0.15133344078E+03 -0.10416087380E+03  0.25800795122E+03  0.25500000920E-02 0. -1.
       -2    1    3    3    0  502 -0.18115409175E+03 -0.15133344078E+03  0.82584399566E+02  0.25007758458E+03  0.25500000920E-02 0.  1.
</event>
<event>
 5   0  0.7881060E-02  0.5015776E+03  0.7818609E-02  0.1013368E+00
        2   -1    0    0  501    0  0.00000000000E+00  0.00000000000E+00  0.12879615656E+04  0.12879615656E+04  0.25500000920E-02 0.  1.
       -2   -1    0    0    0  501  0.00000000000E+00  0.00000000000E+00 -0.48832993011E+02  0.48832993077E+02  0.25500000920E-02 0. -1.
    10030    2    1    2    0    0  0.00000000000E+00  0.00000000000E+00  0.12391285726E+04  0.13367945587E+04  0.50157758394E+03 0.  0.
        1    1    3    3  502    0 -0.18260074605E+03 -0.13846762469E+03  0.89108194741E+03  0.92007790571E+03  0.50400001928E-02 0.  1.
       -1    1    3    3    0  502  0.18260074605E+03  0.13846762469E+03  0.34804662520E+03  0.41671665299E+03  0.50400001928E-02 0. -1.
</event>
<event>
 5   0  0.4803890E-02  0.4998073E+03  0.7818609E-02  0.1013829E+00
       -1   -1    0    0    0  501  0.00000000000E+00  0.00000000000E+00  0.65590237350E+02  0.65590237543E+02  0.50400001928E-02 0. -1.
        1   -1    0    0  501    0  0.00000000000E+00  0.00000000000E+00 -0.95215144049E+03  0.95215144050E+03  0.50400001928E-02 0.  1.
    10030    2    1    2    0    0  0.00000000000E+00  0.00000000000E+00 -0.88656120314E+03  0.10177416780E+04  0.49980731919E+03 0.  0.
        5    1    3    3  502    0 -0.30964663949E+02  0.50814868027E+02  0.50860814842E+02  0.78421130511E+02  0.46999998093E+01 0. -1.
       -5    1    3    3    0  502  0.30964663949E+02 -0.50814868027E+02 -0.93742201798E+03  0.93932054753E+03  0.46999998093E+01 0.  1.
</event>
<event>
 5   0  0.5038436E-02  0.5015366E+03  0.7818609E-02  0.1013379E+00
       -1   -1    0    0    0  501  0.00000000000E+00  0.00000000000E+00  0.39343430591E+02  0.39343430914E+02  0.50400001928E-02 0. -1.
        1   -1    0    0  501    0  0.00000000000E+00  0.00000000000E+00 -0.15983545352E+04  0.15983545352E+04  0.50400001928E-02 0.  1.
    10030    2    1    2    0    0  0.00000000000E+00  0.00000000000E+00 -0.15590111046E+04  0.16376979661E+04  0.50153664267E+03 0.  0.
        1    1    3    3  502    0 -0.24266427661E+03  0.63236064215E+02 -0.77950335597E+03  0.81884689226E+03  0.50400001928E-02 0. -1.
       -1    1    3    3    0  502  0.24266427661E+03 -0.63236064215E+02 -0.77950774859E+03  0.81885107382E+03  0.50400001928E-02 0.  1.
</event>
<event>
 5   0  0.7881060E-02  0.4955152E+03  0.7818609E-02  0.1014956E+00
       -2   -1    0    0    0  501  0.00000000000E+00  0.00000000000E+00  0.94929542378E+02  0.94929542413E+02  0.25500000920E-02 0.  1.
        2   -1    0    0  501    0  0.00000000000E+00  0.00000000000E+00 -0.64662510553E+03  0.64662510553E+03  0.25500000920E-02 0. -1.
    10030    2    1    2    0    0  0.00000000000E+00  0.00000000000E+00 -0.55169556315E+03  0.74155464794E+03  0.49551518795E+03 0.  0.
        1    1    3    3  502    0 -0.25954301255E+02  0.11338969145E+03 -0.60321913468E+03  0.61433229799E+03  0.50400001928E-02 0. -1.
       -1    1    3    3    0  502  0.25954301255E+02 -0.11338969145E+03  0.51523571530E+02  0.12722234996E+03  0.50400001928E-02 0.  1.
</event>
<event>
 5   0  0.4865501E-02  0.4805445E+03  0.7818609E-02  0.1018986E+00
        1   -1    0    0  501    0  0.00000000000E+00  0.00000000000E+00  0.42640936091E+03  0.42640936094E+03  0.50400001928E-02 0. -1.
       -1   -1    0    0    0  501  0.00000000000E+00  0.00000000000E+00 -0.13538808965E+03  0.13538808974E+03  0.50400001928E-02 0.  1.
    10030    2    1    2    0    0  0.00000000000E+00  0.00000000000E+00  0.29102127126E+03  0.56179745068E+03  0.48054447792E+03 0.  0.
        2    1    3    3  502    0  0.89964277340E+02  0.30046145418E+02 -0.11257510785E+03  0.14720562817E+03  0.25500000920E-02 0.  1.
       -2    1    3    3    0  502 -0.89964277340E+02 -0.30046145418E+02  0.40359637911E+03  0.41459182250E+03  0.25500000920E-02 0. -1.
</event>
<event>
 5   0  0.4884478E-02  0.4989353E+03  0.7818609E-02  0.1014057E+00
       -1   -1    0    0    0  501  0.00000000000E+00  0.00000000000E+00  0.32622260830E+03  0.32622260834E+03  0.50400001928E-02 0.  1.
        1   -1    0    0  501    0  0.00000000000E+00  0.00000000000E+00 -0.19077191341E+03  0.19077191348E+03  0.50400001928E-02 0. -1.
    10030    2    1    2    0    0  0.00000000000E+00  0.00000000000E+00  0.13545069489E+03  0.51699452182E+03  0.49893531129E+03 0.  0.
        3    1    3    3  502    0  0.16272531779E+03  0.12296417461E+03 -0.81120749506E+02  0.21950012185E+03  0.10100000352E+00 0. -1.
       -3    1    3    3    0  502 -0.16272531779E+03 -0.12296417461E+03  0.21657144439E+03  0.29749439998E+03  0.10100000352E+00 0.  1.
</event>
<event>
 5   0  0.5191358E-02  0.5014579E+03  0.7818609E-02  0.1013399E+00
       -1   -1    0    0    0  501  0.00000000000E+00  0.00000000000E+00  0.93590223023E+02  0.93590223159E+02  0.50400001928E-02 0. -1.
        1   -1    0    0  501    0  0.00000000000E+00  0.00000000000E+00 -0.67170472030E+03  0.67170472032E+03  0.50400001928E-02 0.  1.
    10030    2    1    2    0    0  0.00000000000E+00  0.00000000000E+00 -0.57811449727E+03  0.76529494348E+03  0.50145785321E+03 0.  0.
        4    1    3    3  502    0  0.23176711232E+03 -0.93697005143E+02 -0.25977052004E+03  0.36052386760E+03  0.12699999809E+01 0. -1.
       -4    1    3    3    0  502 -0.23176711232E+03  0.93697005143E+02 -0.31834397723E+03  0.40477107588E+03  0.12699999809E+01 0.  1.
</event>
<event>
 5   0  0.7881060E-02  0.5139532E+03  0.7818609E-02  0.1010200E+00
        2   -1    0    0  501    0  0.00000000000E+00  0.00000000000E+00  0.50073569102E+03  0.50073569103E+03  0.25500000920E-02 0. -1.
       -2   -1    0    0    0  501  0.00000000000E+00  0.00000000000E+00 -0.13187988973E+03  0.13187988975E+03  0.25500000920E-02 0.  1.
    10030    2    1    2    0    0  0.00000000000E+00  0.00000000000E+00  0.36885580129E+03  0.63261558078E+03  0.51395317968E+03 0.  0.
        1    1    3    3  502    0 -0.22672708321E+03 -0.80267984820E+02  0.29581316326E+03  0.38125260291E+03  0.50400001928E-02 0. -1.
       -1    1    3    3    0  502  0.22672708321E+03  0.80267984820E+02  0.73042638034E+02  0.25136297787E+03  0.50400001928E-02 0.  1.
</event>
<event>
 5   0  0.4865501E-02  0.4959143E+03  0.7818609E-02  0.1014851E+00
        1   -1    0    0  501    0  0.00000000000E+00  0.00000000000E+00  0.10402297383E+04  0.10402297383E+04  0.50400001928E-02 0. -1.
       -1   -1    0    0    0  501  0.00000000000E+00  0.00000000000E+00 -0.59104966929E+02  0.59104967144E+02  0.50400001928E-02 0.  1.
    10030    2    1    2    0    0  0.00000000000E+00  0.00000000000E+00  0.98112477135E+03  0.10993347054E+04  0.49591428455E+03 0.  0.
        2    1    3    3  502    0 -0.10283520207E+03 -0.40258267398E+02  0.98270303446E+03  0.98888880104E+03  0.25500000920E-02 0. -1.
       -2    1    3    3    0  502  0.10283520207E+03  0.40258267398E+02 -0.15782631055E+01  0.11044590440E+03  0.25500000920E-02 0.  1.
</event>
<event>
 5   0  0.4884478E-02  0.4971328E+03  0.7818609E-02  0.1014530E+00
       -1   -1    0    0    0  501  0.00000000000E+00  0.00000000000E+00  0.16945673309E+03  0.16945673317E+03  0.50400001928E-02 0. -1.
        1   -1    0    0  501    0  0.00000000000E+00  0.00000000000E+00 -0.36460787099E+03  0.36460787103E+03  0.50400001928E-02 0.  1.
    10030    2    1    2    0    0  0.00000000000E+00  0.00000000000E+00 -0.19515113790E+03  0.53406460419E+03  0.49713281408E+03 0.  0.
        3    1    3    3  502    0 -0.49720451235E+02  0.13599095681E+03 -0.31462350335E+03  0.34634321513E+03  0.10100000352E+00 0.  1.
       -3    1    3    3    0  502  0.49720451235E+02 -0.13599095681E+03  0.11947236545E+03  0.18772138907E+03  0.10100000352E+00 0. -1.
</event>
<event>
 5   0  0.4803890E-02  0.5013004E+03  0.7818609E-02  0.1013440E+00
        1   -1    0    0  501    0  0.00000000000E+00  0.00000000000E+00  0.81097645002E+03  0.81097645004E+03  0.50400001928E-02 0. -1.
       -1   -1    0    0    0  501  0.00000000000E+00  0.00000000000E+00 -0.77468986610E+02  0.77468986774E+02  0.50400001928E-02 0.  1.
    10030    2    1    2    0    0  0.00000000000E+00  0.00000000000E+00  0.73350746341E+03  0.88844543681E+03  0.50130040426E+03 0.  0.
        5    1    3    3  502    0 -0.24304863836E+03  0.60093242385E+02  0.38613534902E+03  0.46022433242E+03  0.46999998093E+01 0.  1.
       -5    1    3    3    0  502  0.24304863836E+03 -0.60093242385E+02  0.34737211440E+03  0.42822110440E+03  0.46999998093E+01 0. -1.
</event>
<event>
 5   0  0.7881060E-02  0.4987731E+03  0.7818609E-02  0.1014100E+00
        2   -1    0    0  501    0  0.00000000000E+00  0.00000000000E+00  0.62169382532E+03  0.62169382532E+03  0.25500000920E-02 0.  1.
       -2   -1    0    0    0  501  0.00000000000E+00  0.00000000000E+00 -0.10003903094E+03  0.10003903097E+03  0.25500000920E-02 0. -1.
    10030    2    1    2    0    0  0.00000000000E+00  0.00000000000E+00  0.52165479438E+03  0.72173285629E+03  0.49877308604E+03 0.  0.
        1    1    3    3  502    0 -0.24678151047E+02 -0.83309516522E+02 -0.77428477144E+02  0.11638150962E+03  0.50400001928E-02 0. -1.
       -1    1    3    3    0  502  0.24678151047E+02  0.83309516522E+02  0.59908327152E+03  0.60535134668E+03  0.50400001928E-02 0.  1.
</event>
<event>
 5   0  0.3210875E-02  0.5009693E+03  0.7818609E-02  0.1013526E+00
       -3   -1    0    0    0  501  0.00000000000E+00  0.00000000000E+00  0.22950385487E+03  0.22950387709E+03  0.10100000352E+00 0. -1.
        3   -1    0    0  501    0  0.00000000000E+00  0.00000000000E+00 -0.27338337575E+03  0.27338339440E+03  0.10100000352E+00 0.  1.
    10030    2    1    2    0    0  0.00000000000E+00  0.00000000000E+00 -0.43879520880E+02  0.50288727149E+03  0.50096925602E+03 0.  0.
        2    1    3    3  502    0 -0.14292028085E+03 -0.10856108117E+03 -0.19733948286E+03  0.26674817062E+03  0.25500000920E-02 0.  1.
       -2    1    3    3    0  502  0.14292028085E+03  0.10856108117E+03  0.15345996198E+03  0.23613910088E+03  0.25500000920E-02 0. -1.
</event>
<event>
 5   0  0.4803890E-02  0.4987130E+03  0.7818609E-02  0.1014115E+00
       -1   -1    0    0    0  501  0.00000000000E+00  0.00000000000E+00  0.11257251626E+03  0.11257251637E+03  0.50400001928E-02 0. -1.
        1   -1    0    0  501    0  0.00000000000E+00  0.00000000000E+00 -0.55234311655E+03  0.55234311657E+03  0.50400001928E-02 0.  1.
    10030    2    1    2    0    0  0.00000000000E+00  0.00000000000E+00 -0.43977060030E+03  0.66491563294E+03  0.49871296158E+03 0.  0.
        5    1    3    3  502    0 -0.11262014142E+03 -0.12721327070E+03  0.23376056824E+02  0.17156643765E+03  0.46999998093E+01 0. -1.
       -5    1    3    3    0  502  0.11262014142E+03  0.12721327070E+03 -0.46314665712E+03  0.49334919529E+03  0.46999998093E+01 0.  1.
</event>
<event>
 5   0  0.3210875E-02  0.5011219E+03  0.7818609E-02  0.1013486E+00
       -3   -1    0    0    0  501  0.00000000000E+00  0.00000000000E+00  0.34914310999E+03  0.34914312460E+03  0.10100000352E+00 0. -1.
        3   -1    0    0  501    0  0.00000000000E+00  0.00000000000E+00 -0.17981390886E+03  0.17981393723E+03  0.10100000352E+00 0.  1.
    10030    2    1    2    0    0  0.00000000000E+00  0.00000000000E+00  0.16932920113E+03  0.52895706183E+03  0.50112193616E+03 0.  0.
        1    1    3    3  502    0 -0.15301358508E+03 -0.29484908257E+02 -0.12244378264E+03  0.19817920417E+03  0.50400001928E-02 0.  1.
       -1    1    3    3    0  502  0.15301358508E+03  0.29484908257E+02  0.29177298376E+03  0.33077785765E+03  0.50400001928E-02 0. -1.
</event>
<event>
 5   0  0.7698747E-02  0.5035317E+03  0.7818609E-02  0.1012861E+00
        2   -1    0    0  501    0  0.00000000000E+00  0.00000000000E+00  0.38040066151E+03  0.38040066152E+03  0.25500000920E-02 0. -1.
       -2   -1    0    0    0  501  0.00000000000E+00  0.00000000000E+00 -0.16662969805E+03  0.16662969807E+03  0.25500000920E-02 0.  1.
    10030    2    1    2    0    0  0.00000000000E+00  0.00000000000E+00  0.21377096346E+03  0.54703035959E+03  0.50353171647E+03 0.  0.
        2    1    3    3  502    0  0.22145726983E+03 -0.87290128507E+02  0.17807314524E+02  0.23870481636E+03  0.25500000920E-02 0.  1.
       -2    1    3    3    0  502 -0.22145726983E+03  0.87290128507E+02  0.19596364894E+03  0.30832554323E+03  0.25500000920E-02 0. -1.
</event>
<event>
 5   0  0.4865501E-02  0.4991067E+03  0.7818609E-02  0.1014012E+00
        1   -1    0    0  501    0  0.00000000000E+00  0.00000000000E+00  0.40519283090E+03  0.40519283093E+03  0.50400001928E-02 0.  1.
       -1   -1    0    0    0  501  0.00000000000E+00  0.00000000000E+00 -0.15369690803E+03  0.15369690812E+03  0.50400001928E-02 0. -1.
    10030    2    1    2    0    0  0.00000000000E+00  0.00000000000E+00  0.25149592287E+03  0.55888973905E+03  0.49910674329E+03 0.  0.
        2    1    3    3  502    0 -0.94662991814E+02 -0.21957167574E+03  0.20574824766E+03  0.31544435996E+03  0.25500000920E-02 0.  1.
       -2    1    3    3    0  502  0.94662991814E+02  0.21957167574E+03  0.45747675210E+02  0.24344537909E+03  0.25500000920E-02 0. -1.
</event>
<event>
 5   0  0.7933103E-02  0.4958274E+03  0.7818609E-02  0.1014874E+00
       -2   -1    0    0    0  501  0.00000000000E+00  0.00000000000E+00  0.14141797243E+03  0.14141797245E+03  0.25500000920E-02 0.  1.
        2   -1    0    0  501    0  0.00000000000E+00  0.00000000000E+00 -0.43460672709E+03  0.43460672710E+03  0.25500000920E-02 0. -1.
    10030    2    1    2    0    0  0.00000000000E+00  0.00000000000E+00 -0.29318875466E+03  0.57602469955E+03  0.49582739802E+03 0.  0.
        5    1    3    3  502    0 -0.10880188509E+03  0.22255350409E+03 -0.13679158268E+03  0.28302286033E+03  0.46999998093E+01 0.  1.
       -5    1    3    3    0  502  0.10880188509E+03 -0.22255350409E+03 -0.15639717198E+03  0.29300183921E+03  0.46999998093E+01 0. -1.
</event>
<event>
 5   0  0.7776070E-02  0.4978219E+03  0.7818609E-02  0.1014349E+00
        2   -1    0    0  501    0  0.00000000000E+00  0.00000000000E+00  0.97910726971E+03  0.97910726972E+03  0.25500000920E-02 0. -1.
       -2   -1    0    0    0  501  0.00000000000E+00  0.00000000000E+00 -0.63278725630E+02  0.63278725681E+02  0.25500000920E-02 0.  1.
    10030    2    1    2    0    0  0.00000000000E+00  0.00000000000E+00  0.91582854409E+03  0.10423859954E+04  0.49782189711E+03 0.  0.
        4    1    3    3  502    0  0.50033700402E+02 -0.14505045762E+03  0.47532309353E+02  0.16063604752E+03  0.12699999809E+01 0.  1.
       -4    1    3    3    0  502 -0.50033700402E+02  0.14505045762E+03  0.86829623473E+03  0.88174994788E+03  0.12699999809E+01 0. -1.
</event>
<event>
 5   0  0.7776070E-02  0.4983287E+03  0.7818609E-02  0.1014216E+00
       -2   -1    0    0    0  501  0.00000000000E+00  0.00000000000E+00  0.28336355099E+03  0.28336355100E+03  0.25500000920E-02 0. -1.
        2   -1    0    0  501    0  0.00000000000E+00  0.00000000000E+00 -0.21909269992E+03  0.21909269994E+03  0.25500000920E-02 0.  1.
    10030    2    1    2    0    0  0.00000000000E+00  0.00000000000E+00  0.64270851064E+02  0.50245625094E+03  0.49832874873E+03 0.  0.
        4    1    3    3  502    0  0.24174444563E+03 -0.11613280205E+02  0.91837573545E+02  0.25886482589E+03  0.12699999809E+01 0. -1.
       -4    1    3    3    0  502 -0.24174444563E+03  0.11613280205E+02 -0.27566722481E+02  0.24359142505E+03  0.12699999809E+01 0.  1.
</event>
<event>
 5   0  0.4803890E-02  0.4898784E+03  0.7818609E-02  0.1016455E+00
       -1   -1    0    0    0  501  0.00000000000E+00  0.00000000000E+00  0.38949941240E+02  0.38949941566E+02  0.50400001928E-02 0. -1.
        1   -1    0    0  501    0  0.00000000000E+00  0.00000000000E+00 -0.15403159526E+04  0.15403159526E+04  0.50400001928E-02 0.  1.
    10030    2    1    2    0    0  0.00000000000E+00  0.00000000000E+00 -0.15013660114E+04  0.15792658942E+04  0.48987841801E+03 0.  0.
        5    1    3    3  502    0  0.86077639829E+02  0.81034655198E+02 -0.59278166684E+02  0.13233278681E+03  0.46999998093E+01 0. -1.
       -5    1    3    3    0  502 -0.86077639829E+02 -0.81034655198E+02 -0.14420878447E+04  0.14469331074E+04  0.46999998093E+01 0.  1.
</event>
<event>
 5   0  0.4803890E-02  0.4949501E+03  0.7818609E-02  0.1015105E+00
        1   -1    0    0  501    0  0.00000000000E+00  0.00000000000E+00  0.59116844255E+03  0.59116844257E+03  0.50400001928E-02 0. -1.
       -1   -1    0    0    0  501  0.00000000000E+00  0.00000000000E+00 -0.10359805348E+03  0.10359805360E+03  0.50400001928E-02 0.  1.
    10030    2    1    2    0    0  0.00000000000E+00  0.00000000000E+00  0.48757038907E+03  0.69476649618E+03  0.49495009840E+03 0.  0.
        5    1    3    3  502    0 -0.20962507684E+03  0.23016473806E+01  0.42827479615E+03  0.47685360587E+03  0.46999998093E+01 0. -1.
       -5    1    3    3    0  502  0.20962507684E+03 -0.23016473806E+01  0.59295592924E+02  0.21791289030E+03  0.46999998093E+01 0.  1.
</event>
<event>
 5   0  0.4803890E-02  0.4930219E+03  0.7818609E-02  0.1015617E+00
       -1   -1    0    0    0  501  0.00000000000E+00  0.00000000000E+00  0.40122068982E+02  0.40122069298E+02  0.50400001928E-02 0. -1.
        1   -1    0    0  501    0  0.00000000000E+00  0.00000000000E+00 -0.15145688897E+04  0.15145688897E+04  0.50400001928E-02 0.  1.
    10030    2    1    2    0    0  0.00000000000E+00  0.00000000000E+00 -0.14744468207E+04  0.15546909590E+04  0.49302185640E+03 0.  0.
        5    1    3    3  502    0 -0.75700626115E+02  0.53704562892E+02 -0.14572110218E+04  0.14601715026E+04  0.46999998093E+01 0.  1.
       -5    1    3    3    0  502  0.75700626115E+02 -0.53704562892E+02 -0.17235798838E+02  0.94519456354E+02  0.46999998093E+01 0. -1.
</event>
<event>
 5   0  0.7776070E-02  0.4950575E+03  0.7818609E-02  0.1015077E+00
        2   -1    0    0  501    0  0.00000000000E+00  0.00000000000E+00  0.15247489347E+03  0.15247489349E+03  0.25500000920E-02 0. -1.
       -2   -1    0    0    0  501  0.00000000000E+00  0.00000000000E+00 -0.40183978642E+03  0.40183978643E+03  0.25500000920E-02 0.  1.
    10030    2    1    2    0    0  0.00000000000E+00  0.00000000000E+00 -0.24936489296E+03  0.55431467992E+03  0.49505748609E+03 0.  0.
        4    1    3    3  502    0  0.75433940211E+02  0.10229892402E+03 -0.36250557539E+03  0.38414483502E+03  0.12699999809E+01 0.  1.
       -4    1    3    3    0  502 -0.75433940211E+02 -0.10229892402E+03  0.11314068243E+03  0.17016984489E+03  0.12699999809E+01 0. -1.
</event>
<event>
 5   0  0.7933103E-02  0.5007034E+03  0.7818609E-02  0.1013595E+00
       -2   -1    0    0    0  501  0.00000000000E+00  0.00000000000E+00  0.98724937174E+02  0.98724937207E+02  0.25500000920E-02 0. -1.
        2   -1    0    0  501    0  0.00000000000E+00  0.00000000000E+00 -0.63485457884E+03  0.63485457885E+03  0.25500000920E-02 0.  1.
    10030    2    1    2    0    0  0.00000000000E+00  0.00000000000E+00 -0.53612964167E+03  0.73357951605E+03  0.50070341890E+03 0.  0.
        5    1    3    3  502    0 -0.19084455055E+03  0.81815234229E+02 -0.63273098942E+02  0.21711966764E+03  0.46999998093E+01 0. -1.
       -5    1    3    3    0  502  0.19084455055E+03 -0.81815234229E+02 -0.47285654273E+03  0.51645984842E+03  0.46999998093E+01 0.  1.
</event>
<event>
 5   0  0.4884478E-02  0.4985555E+03  0.7818609E-02  0.1014157E+00
        1   -1    0    0  501    0  0.00000000000E+00  0.00000000000E+00  0.65819586584E+03  0.65819586586E+03  0.50400001928E-02 0. -1.
       -1   -1    0    0    0  501  0.00000000000E+00  0.00000000000E+00 -0.94408653680E+02  0.94408653814E+02  0.50400001928E-02 0.  1.
    10030    2    1    2    0    0  0.00000000000E+00  0.00000000000E+00  0.56378721216E+03  0.75260451967E+03  0.49855545573E+03 0.  0.
        3    1    3    3  502    0  0.15185272856E+03  0.12056446843E+03  0.51839242047E+03  0.55346703066E+03  0.10100000352E+00 0. -1.
       -3    1    3    3    0  502 -0.15185272856E+03 -0.12056446843E+03  0.45394791683E+02  0.19913748901E+03  0.10100000352E+00 0.  1.
</event>
<event>
 5   0  0.7776070E-02  0.4989871E+03  0.7818609E-02  0.1014044E+00
       -2   -1    0    0    0  501  0.00000000000E+00  0.00000000000E+00  0.11072237429E+03  0.11072237432E+03  0.25500000920E-02 0. -1.
        2   -1    0    0  501    0  0.00000000000E+00  0.00000000000E+00 -0.56219016143E+03  0.56219016143E+03  0.25500000920E-02 0.  1.
    10030    2    1    2    0    0  0.00000000000E+00  0.00000000000E+00 -0.45146778714E+03  0.67291253575E+03  0.49898709196E+03 0.  0.
        4    1    3    3  502    0  0.44368920939E+02  0.56939248728E+02 -0.54779555632E+03  0.55253259055E+03  0.12699999809E+01 0.  1.
       -4    1    3    3    0  502 -0.44368920939E+02 -0.56939248728E+02  0.96327769183E+02  0.12037994520E+03  0.12699999809E+01 0. -1.
</event>
<event>
 5   0  0.7881060E-02  0.4779147E+03  0.7818609E-02  0.1019710E+00
        2   -1    0    0  501    0  0.00000000000E+00  0.00000000000E+00  0.17408279573E+04  0.17408279573E+04  0.25500000920E-02 0.  1.
       -2   -1    0    0    0  501  0.00000000000E+00  0.00000000000E+00 -0.32800843584E+02  0.32800843683E+02  0.25500000920E-02 0. -1.
    10030    2    1    2    0    0  0.00000000000E+00  0.00000000000E+00  0.17080271138E+04  0.17736288010E+04  0.47791474397E+03 0.  0.
        1    1    3    3  502    0 -0.12892699978E+03  0.16316298738E+03  0.12908670838E+04  0.13075099081E+04  0.50400001928E-02 0.  1.
       -1    1    3    3    0  502  0.12892699978E+03 -0.16316298738E+03  0.41716002996E+03  0.46611889293E+03  0.50400001928E-02 0. -1.
</event>
<event>
 5   0  0.3210875E-02  0.5027493E+03  0.7818609E-02  0.1013064E+00
        3   -1    0    0  501    0  0.00000000000E+00  0.00000000000E+00  0.80235115461E+03  0.80235116097E+03  0.10100000352E+00 0.  1.
       -3   -1    0    0    0  501  0.00000000000E+00  0.00000000000E+00 -0.78755012124E+02  0.78755076888E+02  0.10100000352E+00 0. -1.
    10030    2    1    2    0    0  0.00000000000E+00  0.00000000000E+00  0.72359614249E+03  0.88110623786E+03  0.50274926650E+03 0.  0.
        1    1    3    3  502    0 -0.11343153027E+03  0.20154480582E+03  0.53442622070E+03  0.58232156598E+03  0.50400001928E-02 0.  1.
       -1    1    3    3    0  502  0.11343153027E+03 -0.20154480582E+03  0.18916992179E+03  0.29878467187E+03  0.50400001928E-02 0. -1.
</event>
<event>
 5   0  0.5038436E-02  0.5033176E+03  0.7818609E-02  0.1012917E+00
       -1   -1    0    0    0  501  0.00000000000E+00  0.00000000000E+00  0.40088933027E+02  0.40088933344E+02  0.50400001928E-02 0.  1.
        1   -1    0    0  501    0  0.00000000000E+00  0.00000000000E+00 -0.15797915633E+04  0.15797915633E+04  0.50400001928E-02 0. -1.
    10030    2    1    2    0    0  0.00000000000E+00  0.00000000000E+00 -0.15397026303E+04  0.16198804967E+04  0.50331762712E+03 0.  0.
        1    1    3    3  502    0 -0.14030676085E+03  0.14068555851E+03 -0.12669231105E+04  0.12824088980E+04  0.50400001928E-02 0. -1.
       -1    1    3    3    0  502  0.14030676085E+03 -0.14068555851E+03 -0.27277951974E+03  0.33747159870E+03  0.50400001928E-02 0.  1.
</event>
<event>
 5   0  0.8208720E-02  0.5024374E+03  0.7818609E-02  0.1013145E+00
       -2   -1    0    0    0  501  0.00000000000E+00  0.00000000000E+00  0.31586663869E+03  0.31586663870E+03  0.25500000920E-02 0. -1.
        2   -1    0    0  501    0  0.00000000000E+00  0.00000000000E+00 -0.19980213495E+03  0.19980213497E+03  0.25500000920E-02 0.  1.
    10030    2    1    2    0    0  0.00000000000E+00  0.00000000000E+00  0.11606450374E+03  0.51566877367E+03  0.50243737432E+03 0.  0.
        3    1    3    3  502    0 -0.23435926046E+03 -0.71665494942E+02  0.11471911367E+03  0.27059322122E+03  0.10100000352E+00 0. -1.
       -3    1    3    3    0  502  0.23435926046E+03  0.71665494942E+02  0.13453900652E+01  0.24507555244E+03  0.10100000352E+00 0.  1.
</event>
<event>
 5   0  0.4884478E-02  0.5014165E+03  0.7818609E-02  0.1013410E+00
       -1   -1    0    0    0  501  0.00000000000E+00  0.00000000000E+00  0.79520786004E+02  0.79520786164E+02  0.50400001928E-02 0. -1.
        1   -1    0    0  501    0  0.00000000000E+00  0.00000000000E+00 -0.79041756438E+03  0.79041756440E+03  0.50400001928E-02 0.  1.
    10030    2    1    2    0    0  0.00000000000E+00  0.00000000000E+00 -0.71089677838E+03  0.86993835056E+03  0.50141649780E+03 0.  0.
        3    1    3    3  502    0  0.14732566569E+03  0.42928295911E+02 -0.11475356488E+02  0.15388107216E+03  0.10100000352E+00 0. -1.
       -3    1    3    3    0  502 -0.14732566569E+03 -0.42928295911E+02 -0.69942142189E+03  0.71605727841E+03  0.10100000352E+00 0.  1.
</event>
<event>
 5   0  0.4803890E-02  0.5013334E+03  0.7818609E-02  0.1013431E+00
        1   -1    0    0  501    0  0.00000000000E+00  0.00000000000E+00  0.10088667203E+04  0.10088667203E+04  0.50400001928E-02 0. -1.
       -1   -1    0    0    0  501  0.00000000000E+00  0.00000000000E+00 -0.62281571537E+02  0.62281571741E+02  0.50400001928E-02 0.  1.
    10030    2    1    2    0    0  0.00000000000E+00  0.00000000000E+00  0.94658514880E+03  0.10711482921E+04  0.50133344165E+03 0.  0.
        5    1    3    3  502    0 -0.14935176541E+03 -0.19923433819E+03  0.41242975167E+03  0.48178902168E+03  0.46999998093E+01 0. -1.
       -5    1    3    3    0  502  0.14935176541E+03  0.19923433819E+03  0.53415539713E+03  0.58935927041E+03  0.46999998093E+01 0.  1.
</event>
<event>
 5   0  0.3210875E-02  0.5011002E+03  0.7818609E-02  0.1013492E+00
        3   -1    0    0  501    0  0.00000000000E+00  0.00000000000E+00  0.68818474990E+03  0.68818475731E+03  0.10100000352E+00 0.  1.
       -3   -1    0    0    0  501  0.00000000000E+00  0.00000000000E+00 -0.91218697253E+02  0.91218753168E+02  0.10100000352E+00 0. -1.
    10030    2    1    2    0    0  0.00000000000E+00  0.00000000000E+00  0.59696605265E+03  0.77940351048E+03  0.50110015380E+03 0.  0.
        1    1    3    3  502    0 -0.18261678139E+03  0.33440460016E+02  0.56017708061E+03  0.59014025017E+03  0.50400001928E-02 0.  1.
       -1    1    3    3    0  502  0.18261678139E+03 -0.33440460016E+02  0.36788972041E+02  0.18926326031E+03  0.50400001928E-02 0. -1.
</event>
<event>
 5   0  0.5038436E-02  0.4989768E+03  0.7818609E-02  0.1014046E+00
        1   -1    0    0  501    0  0.00000000000E+00  0.00000000000E+00  0.16625132953E+04  0.16625132953E+04  0.50400001928E-02 0. -1.
       -1   -1    0    0    0  501  0.00000000000E+00  0.00000000000E+00 -0.37439976256E+02  0.37439976595E+02  0.50400001928E-02 0.  1.
    10030    2    1    2    0    0  0.00000000000E+00  0.00000000000E+00  0.16250733190E+04  0.16999532719E+04  0.49897678741E+03 0.  0.
        1    1    3    3  502    0 -0.20182484978E+03  0.12357457188E+03  0.10816695736E+04  0.11072547183E+04  0.50400001928E-02 0. -1.
       -1    1    3    3    0  502  0.20182484978E+03 -0.12357457188E+03  0.54340374542E+03  0.59269855354E+03  0.50400001928E-02 0.  1.
</event>
<event>
 5   0  0.5038436E-02  0.4982996E+03  0.7818609E-02  0.1014224E+00
       -1   -1    0    0    0  501  0.00000000000E+00  0.00000000000E+00  0.12118553903E+04  0.12118553903E+04  0.50400001928E-02 0.  1.
        1   -1    0    0  501    0  0.00000000000E+00  0.00000000000E+00 -0.51223623279E+02  0.51223623527E+02  0.50400001928E-02 0. -1.
    10030    2    1    2    0    0  0.00000000000E+00  0.00000000000E+00  0.11606317670E+04  0.12630790138E+04  0.49829960524E+03 0.  0.
        1    1    3    3  502    0  0.86233573766E+02 -0.61077919177E+02  0.11522378258E+04  0.11570733549E+04  0.50400001928E-02 0.  1.
       -1    1    3    3    0  502 -0.86233573766E+02  0.61077919177E+02  0.83939412686E+01  0.10600565896E+03  0.50400001928E-02 0. -1.
</event>
<event>
 5   0  0.3210875E-02  0.5036580E+03  0.7818609E-02  0.1012829E+00
        3   -1    0    0  501    0  0.00000000000E+00  0.00000000000E+00  0.11287199333E+03  0.11287203852E+03  0.10100000352E+00 0.  1.
       -3   -1    0    0    0  501  0.00000000000E+00  0.00000000000E+00 -0.56185617477E+03  0.56185618385E+03  0.10100000352E+00 0. -1.
    10030    2    1    2    0    0  0.00000000000E+00  0.00000000000E+00 -0.44898418144E+03  0.67472822237E+03  0.50365799792E+03 0.  0.
        1    1    3    3  502    0 -0.21432861424E+03 -0.11939902302E+03 -0.30056946537E+03  0.38798825384E+03  0.50400001928E-02 0. -1.
       -1    1    3    3    0  502  0.21432861424E+03  0.11939902302E+03 -0.14841471607E+03  0.28673996853E+03  0.50400001928E-02 0.  1.
</event>
<event>
 5   0  0.8208720E-02  0.5015926E+03  0.7818609E-02  0.1013364E+00
       -2   -1    0    0    0  501  0.00000000000E+00  0.00000000000E+00  0.71068052881E+02  0.71068052926E+02  0.25500000920E-02 0.  1.
        2   -1    0    0  501    0  0.00000000000E+00  0.00000000000E+00 -0.88505012398E+03  0.88505012398E+03  0.25500000920E-02 0. -1.
    10030    2    1    2    0    0  0.00000000000E+00  0.00000000000E+00 -0.81398207110E+03  0.95611817691E+03  0.50159261971E+03 0.  0.
        3    1    3    3  502    0 -0.96312130416E+02 -0.19872930987E+03 -0.63357152395E+03  0.67095622154E+03  0.10100000352E+00 0. -1.
       -3    1    3    3    0  502  0.96312130416E+02  0.19872930987E+03 -0.18041054715E+03  0.28516195537E+03  0.10100000352E+00 0.  1.
</event>
<event>
 5   0  0.3210875E-02  0.4898772E+03  0.7818609E-02  0.1016455E+00
       -3   -1    0    0    0  501  0.00000000000E+00  0.00000000000E+00  0.52772622008E+02  0.52772718658E+02  0.10100000352E+00 0. -1.
        3   -1    0    0  501    0  0.00000000000E+00  0.00000000000E+00 -0.11368558609E+04  0.11368558654E+04  0.10100000352E+00 0.  1.
    10030    2    1    2    0    0  0.00000000000E+00  0.00000000000E+00 -0.10840832389E+04  0.11896285841E+04  0.48987722863E+03 0.  0.
        3    1    3    3  502    0  0.41287604320E+02  0.11548093979E+03 -0.27156612842E+02  0.12561053120E+03  0.10100000352E+00 0. -1.
       -3    1    3    3    0  502 -0.41287604320E+02 -0.11548093979E+03 -0.10569266261E+04  0.10640180529E+04  0.10100000352E+00 0.  1.
</event>
<event>
 5   0  0.5038436E-02  0.5082644E+03  0.7818609E-02  0.1011644E+00
        1   -1    0    0  501    0  0.00000000000E+00  0.00000000000E+00  0.27237775250E+03  0.27237775254E+03  0.50400001928E-02 0.  1.
       -1   -1    0    0    0  501  0.00000000000E+00  0.00000000000E+00 -0.23710882923E+03  0.23710882928E+03  0.50400001928E-02 0. -1.
    10030    2    1    2    0    0  0.00000000000E+00  0.00000000000E+00  0.35268923267E+02  0.50948658182E+03  0.50826438013E+03 0.  0.
        1    1    3    3  502    0 -0.11473871215E+03 -0.22552800590E+03 -0.59873586099E+01  0.25310808364E+03  0.50400001928E-02 0.  1.
       -1    1    3    3    0  502  0.11473871215E+03  0.22552800590E+03  0.41256281877E+02  0.25637849819E+03  0.50400001928E-02 0. -1.
</event>
<event>
 5   0  0.4865501E-02  0.5022476E+03  0.7818609E-02  0.1013194E+00
       -1   -1    0    0    0  501  0.00000000000E+00  0.00000000000E+00  0.31612537402E+03  0.31612537406E+03  0.50400001928E-02 0. -1.
        1   -1    0    0  501    0  0.00000000000E+00  0.00000000000E+00 -0.19948782628E+03  0.19948782634E+03  0.50400001928E-02 0.  1.
    10030    2    1    2    0    0  0.00000000000E+00  0.00000000000E+00  0.11663754774E+03  0.51561320040E+03  0.50224760316E+03 0.  0.
        2    1    3    3  502    0 -0.34910832202E+02 -0.18108288113E+03 -0.11666772587E+03  0.21822267139E+03  0.25500000920E-02 0. -1.
       -2    1    3    3    0  502  0.34910832202E+02  0.18108288113E+03  0.23330527361E+03  0.29739052901E+03  0.25500000920E-02 0.  1.
</event>
<event>
 5   0  0.4884478E-02  0.4837310E+03  0.7818609E-02  0.1018115E+00
        1   -1    0    0  501    0  0.00000000000E+00  0.00000000000E+00  0.18002839219E+03  0.18002839226E+03  0.50400001928E-02 0. -1.
       -1   -1    0    0    0  501  0.00000000000E+00  0.00000000000E+00 -0.32494268037E+03  0.32494268041E+03  0.50400001928E-02 0.  1.
    10030    2    1    2    0    0  0.00000000000E+00  0.00000000000E+00 -0.14491428818E+03  0.50497107267E+03  0.48373095137E+03 0.  0.
        3    1    3    3  502    0 -0.60733479828E+01 -0.86964659141E+02 -0.30797179776E+03  0.32007245416E+03  0.10100000352E+00 0.  1.
       -3    1    3    3    0  502  0.60733479828E+01  0.86964659141E+02  0.16305750958E+03  0.18489861851E+03  0.10100000352E+00 0. -1.
</event>
<event>
 5   0  0.7776070E-02  0.4945716E+03  0.7818609E-02  0.1015206E+00
        2   -1    0    0  501    0  0.00000000000E+00  0.00000000000E+00  0.54974489139E+03  0.54974489140E+03  0.25500000920E-02 0.  1.
       -2   -1    0    0    0  501  0.00000000000E+00  0.00000000000E+00 -0.11123390759E+03  0.11123390762E+03  0.25500000920E-02 0. -1.
    10030    2    1    2    0    0  0.00000000000E+00  0.00000000000E+00  0.43851098380E+03  0.66097879901E+03  0.49457162255E+03 0.  0.
        4    1    3    3  502    0  0.21538667455E+03 -0.10260900246E+03  0.13234778070E+03  0.27283250341E+03  0.12699999809E+01 0. -1.
       -4    1    3    3    0  502 -0.21538667455E+03  0.10260900246E+03  0.30616320310E+03  0.38814629561E+03  0.12699999809E+01 0.  1.
</event>
<event>
 5   0  0.8208720E-02  0.4952629E+03  0.7818609E-02  0.1015023E+00
       -2   -1    0    0    0  501  0.00000000000E+00  0.00000000000E+00  0.32074919495E+03  0.32074919496E+03  0.25500000920E-02 0.  1.
        2   -1    0    0  501    0  0.00000000000E+00  0.00000000000E+00 -0.19118154523E+03  0.19118154524E+03  0.25500000920E-02 0. -1.
    10030    2    1    2    0    0  0.00000000000E+00  0.00000000000E+00  0.12956764973E+03  0.51193074021E+03  0.49526286648E+03 0.  0.
        3    1    3    3  502    0  0.24687358291E+02  0.23667976714E+03  0.13560643090E+03  0.27389029215E+03  0.10100000352E+00 0.  1.
       -3    1    3    3    0  502 -0.24687358291E+02 -0.23667976714E+03 -0.60387811725E+01  0.23804044806E+03  0.10100000352E+00 0. -1.
</event>
<event>
 5   0  0.3210875E-02  0.4524970E+03  0.7818609E-02  0.1026980E+00
       -3   -1    0    0    0  501  0.00000000000E+00  0.00000000000E+00  0.39456289914E+03  0.39456291206E+03  0.10100000352E+00 0.  1.
        3   -1    0    0  501    0  0.00000000000E+00  0.00000000000E+00 -0.12973438792E+03  0.12973442723E+03  0.10100000352E+00 0. -1.
    10030    2    1    2    0    0  0.00000000000E+00  0.00000000000E+00  0.26482851122E+03  0.52429733930E+03  0.45249702721E+03 0.  0.
        5    1    3    3  502    0  0.10468021462E+03 -0.11672737380E+03 -0.56499905284E+02  0.16672599204E+03  0.46999998093E+01 0. -1.
       -5    1    3    3    0  502 -0.10468021462E+03  0.11672737380E+03  0.32132841650E+03  0.35757134725E+03  0.46999998093E+01 0.  1.
</event>
<event>
 5   0  0.5191358E-02  0.5004928E+03  0.7818609E-02  0.1013650E+00
        1   -1    0    0  501    0  0.00000000000E+00  0.00000000000E+00  0.29040914282E+04  0.29040914282E+04  0.50400001928E-02 0. -1.
       -1   -1    0    0    0  501  0.00000000000E+00  0.00000000000E+00 -0.21563806535E+02  0.21563807124E+02  0.50400001928E-02 0.  1.
    10030    2    1    2    0    0  0.00000000000E+00  0.00000000000E+00  0.28825276216E+04  0.29256552353E+04  0.50049282347E+03 0.  0.
        4    1    3    3  502    0  0.80988513205E+02  0.95234278931E+02  0.17407412138E+03  0.21431780092E+03  0.12699999809E+01 0.  1.
       -4    1    3    3    0  502 -0.80988513205E+02 -0.95234278931E+02  0.27084535002E+04  0.27113374344E+04  0.12699999809E+01 0. -1.
</event>
<event>
 5   0  0.3210875E-02  0.4949674E+03  0.7818609E-02  0.1015101E+00
        4   -1    0    0  501    0  0.00000000000E+00  0.00000000000E+00  0.75352700136E+03  0.75352807160E+03  0.12699999809E+01 0. -1.
       -4   -1    0    0    0  501  0.00000000000E+00  0.00000000000E+00 -0.81275915128E+02  0.81285836896E+02  0.12699999809E+01 0.  1.
    10030    2    1    2    0    0  0.00000000000E+00  0.00000000000E+00  0.67225108624E+03  0.83481390849E+03  0.49496741192E+03 0.  0.
        5    1    3    3  502    0 -0.50087898016E+02  0.14320972667E+03  0.66580490772E+03  0.68288804975E+03  0.46999998093E+01 0. -1.
       -5    1    3    3    0  502  0.50087898016E+02 -0.14320972667E+03  0.64461785129E+01  0.15192585875E+03  0.46999998093E+01 0.  1.
</event>
<event>
 5   0  0.4865501E-02  0.5015586E+03  0.7818609E-02  0.1013373E+00
        1   -1    0    0  501    0  0.00000000000E+00  0.00000000000E+00  0.18212522461E+04  0.18212522461E+04  0.50400001928E-02 0. -1.
       -1   -1    0    0    0  501  0.00000000000E+00  0.00000000000E+00 -0.34531322416E+02  0.34531322784E+02  0.50400001928E-02 0.  1.
    10030    2    1    2    0    0  0.00000000000E+00  0.00000000000E+00  0.17867209237E+04  0.18557835689E+04  0.50155856631E+03 0.  0.
        2    1    3    3  502    0  0.34181912687E+02 -0.47023904207E+02  0.17959760521E+04  0.17969167011E+04  0.25500000920E-02 0. -1.
       -2    1    3    3    0  502 -0.34181912687E+02  0.47023904207E+02 -0.92551284247E+01  0.58866867850E+02  0.25500000920E-02 0.  1.
</event>
<event>
 5   0  0.5038436E-02  0.5085607E+03  0.7818609E-02  0.1011568E+00
        1   -1    0    0  501    0  0.00000000000E+00  0.00000000000E+00  0.41307971803E+03  0.41307971806E+03  0.50400001928E-02 0.  1.
       -1   -1    0    0    0  501  0.00000000000E+00  0.00000000000E+00 -0.15652787872E+03  0.15652787881E+03  0.50400001928E-02 0. -1.
    10030    2    1    2    0    0  0.00000000000E+00  0.00000000000E+00  0.25655183930E+03  0.56960759686E+03  0.50856068286E+03 0.  0.
        1    1    3    3  502    0  0.24223401563E+03 -0.17082386552E+02  0.43793777294E+02  0.24675295583E+03  0.50400001928E-02 0. -1.
       -1    1    3    3    0  502 -0.24223401563E+03  0.17082386552E+02  0.21275806201E+03  0.32285464103E+03  0.50400001928E-02 0.  1.
</event>
<event>
 5   0  0.4803890E-02  0.5046550E+03  0.7818609E-02  0.1012571E+00
       -1   -1    0    0    0  501  0.00000000000E+00  0.00000000000E+00  0.11761334314E+03  0.11761334325E+03  0.50400001928E-02 0. -1.
        1   -1    0    0  501    0  0.00000000000E+00  0.00000000000E+00 -0.54134308808E+03  0.54134308811E+03  0.50400001928E-02 0.  1.
    10030    2    1    2    0    0  0.00000000000E+00  0.00000000000E+00 -0.42372974494E+03  0.65895643135E+03  0.50465501253E+03 0.  0.
        5    1    3    3  502    0 -0.13267292327E+03  0.14103643466E+03 -0.69659457228E+00  0.19369036040E+03  0.46999998093E+01 0. -1.
       -5    1    3    3    0  502  0.13267292327E+03 -0.14103643466E+03 -0.42303315037E+03  0.46526607095E+03  0.46999998093E+01 0.  1.
</event>
<event>
 5   0  0.5191358E-02  0.5025306E+03  0.7818609E-02  0.1013121E+00
        1   -1    0    0  501    0  0.00000000000E+00  0.00000000000E+00  0.11435858738E+04  0.11435858738E+04  0.50400001928E-02 0. -1.
       -1   -1    0    0    0  501  0.00000000000E+00  0.00000000000E+00 -0.55207257363E+02  0.55207257593E+02  0.50400001928E-02 0.  1.
    10030    2    1    2    0    0  0.00000000000E+00  0.00000000000E+00  0.10883786164E+04  0.11987931314E+04  0.50253055547E+03 0.  0.
        4    1    3    3  502    0 -0.23312210806E+03 -0.81741832054E+02  0.43474176445E+03  0.50002965815E+03  0.12699999809E+01 0.  1.
       -4    1    3    3    0  502  0.23312210806E+03  0.81741832054E+02  0.65363685199E+03  0.69876347326E+03  0.12699999809E+01 0. -1.
</event>
<event>
 5   0  0.7776070E-02  0.4999846E+03  0.7818609E-02  0.1013783E+00
       -2   -1    0    0    0  501  0.00000000000E+00  0.00000000000E+00  0.50958288292E+02  0.50958288356E+02  0.25500000920E-02 0.  1.
        2   -1    0    0  501    0  0.00000000000E+00  0.00000000000E+00 -0.12264177580E+04  0.12264177580E+04  0.25500000920E-02 0. -1.
    10030    2    1    2    0    0  0.00000000000E+00  0.00000000000E+00 -0.11754594697E+04  0.12773760463E+04  0.49998459864E+03 0.  0.
        4    1    3    3  502    0 -0.30659809230E+00 -0.23865490543E+03 -0.77785925568E+03  0.81364789217E+03  0.12699999809E+01 0. -1.
       -4    1    3    3    0  502  0.30659809230E+00  0.23865490543E+03 -0.39760021398E+03  0.46372815414E+03  0.12699999809E+01 0.  1.
</event>
<event>
 5   0  0.3210875E-02  0.4987397E+03  0.7818609E-02  0.1014108E+00
        3   -1    0    0  501    0  0.00000000000E+00  0.00000000000E+00  0.69346321339E+02  0.69346394890E+02  0.10100000352E+00 0.  1.
       -3   -1    0    0    0  501  0.00000000000E+00  0.00000000000E+00 -0.89673497713E+03  0.89673498282E+03  0.10100000352E+00 0. -1.
    10030    2    1    2    0    0  0.00000000000E+00  0.00000000000E+00 -0.82738865579E+03  0.96608137771E+03  0.49873965214E+03 0.  0.
        4    1    3    3  502    0 -0.17536559542E+03  0.14084597555E+03 -0.20513095715E+03  0.30441912451E+03  0.12699999809E+01 0.  1.
       -4    1    3    3    0  502  0.17536559542E+03 -0.14084597555E+03 -0.62225769864E+03  0.66166225320E+03  0.12699999809E+01 0. -1.
</event>
<event>
 5   0  0.7776070E-02  0.4627541E+03  0.7818609E-02  0.1023985E+00
       -2   -1    0    0    0  501  0.00000000000E+00  0.00000000000E+00  0.70644309095E+02  0.70644309141E+02  0.25500000920E-02 0. -1.
        2   -1    0    0  501    0  0.00000000000E+00  0.00000000000E+00 -0.75781531237E+03  0.75781531238E+03  0.25500000920E-02 0.  1.
    10030    2    1    2    0    0  0.00000000000E+00  0.00000000000E+00 -0.68717100328E+03  0.82845962152E+03  0.46275409965E+03 0.  0.
        4    1    3    3  502    0  0.34088214950E+02  0.22840426033E+03 -0.36910649755E+03  0.43539836009E+03  0.12699999809E+01 0. -1.
       -4    1    3    3    0  502 -0.34088214950E+02 -0.22840426033E+03 -0.31806450573E+03  0.39306126143E+03  0.12699999809E+01 0.  1.
</event>
<event>
 5   0  0.5038436E-02  0.5015126E+03  0.7818609E-02  0.1013385E+00
       -1   -1    0    0    0  501  0.00000000000E+00  0.00000000000E+00  0.95099818567E+02  0.95099818701E+02  0.50400001928E-02 0. -1.
        1   -1    0    0  501    0  0.00000000000E+00  0.00000000000E+00 -0.66118665099E+03  0.66118665101E+03  0.50400001928E-02 0.  1.
    10030    2    1    2    0    0  0.00000000000E+00  0.00000000000E+00 -0.56608683243E+03  0.75628646971E+03  0.50151263436E+03 0.  0.
        1    1    3    3  502    0  0.12405087413E+03  0.14852514757E+03 -0.52352453156E+03  0.55814538787E+03  0.50400001928E-02 0.  1.
       -1    1    3    3    0  502 -0.12405087413E+03 -0.14852514757E+03 -0.42562300868E+02  0.19814108184E+03  0.50400001928E-02 0. -1.
</event>
<event>
 5   0  0.5191358E-02  0.4998000E+03  0.7818609E-02  0.1013831E+00
        1   -1    0    0  501    0  0.00000000000E+00  0.00000000000E+00  0.79000053938E+03  0.79000053940E+03  0.50400001928E-02 0. -1.
       -1   -1    0    0    0  501  0.00000000000E+00  0.00000000000E+00 -0.79050605822E+02  0.79050605983E+02  0.50400001928E-02 0.  1.
    10030    2    1    2    0    0  0.00000000000E+00  0.00000000000E+00  0.71094993356E+03  0.86905114538E+03  0.49980004528E+03 0.  0.
        4    1    3    3  502    0  0.29728236652E+01 -0.21592816213E+03  0.13681053564E+03  0.25564143725E+03  0.12699999809E+01 0.  1.
       -4    1    3    3    0  502 -0.29728236652E+01  0.21592816213E+03  0.57413939792E+03  0.61340970813E+03  0.12699999809E+01 0. -1.
</event>
<event>
 5   0  0.7776070E-02  0.5000993E+03  0.7818609E-02  0.1013753E+00
        2   -1    0    0  501    0  0.00000000000E+00  0.00000000000E+00  0.27296737126E+04  0.27296737126E+04  0.25500000920E-02 0.  1.
       -2   -1    0    0    0  501  0.00000000000E+00  0.00000000000E+00 -0.22905603773E+02  0.22905603915E+02  0.25500000920E-02 0. -1.
    10030    2    1    2    0    0  0.00000000000E+00  0.00000000000E+00  0.27067681088E+04  0.27525793165E+04  0.50009928889E+03 0.  0.
        4    1    3    3  502    0 -0.21369465930E+03  0.14029920512E+02  0.20638343354E+04  0.20749159074E+04  0.12699999809E+01 0. -1.
       -4    1    3    3    0  502  0.21369465930E+03 -0.14029920512E+02  0.64293377341E+03  0.67766340906E+03  0.12699999809E+01 0.  1.
</event>
<event>
 5   0  0.7776070E-02  0.4992028E+03  0.7818609E-02  0.1013987E+00
       -2   -1    0    0    0  501  0.00000000000E+00  0.00000000000E+00  0.54047064034E+02  0.54047064094E+02  0.25500000920E-02 0. -1.
        2   -1    0    0  501    0  0.00000000000E+00  0.00000000000E+00 -0.11527148661E+04  0.11527148661E+04  0.25500000920E-02 0.  1.
    10030    2    1    2    0    0  0.00000000000E+00  0.00000000000E+00 -0.10986678021E+04  0.12067619302E+04  0.49920278132E+03 0.  0.
        4    1    3    3  502    0  0.70885276385E+02  0.52995778552E+02  0.14832491239E+02  0.89749042607E+02  0.12699999809E+01 0. -1.
       -4    1    3    3    0  502 -0.70885276385E+02 -0.52995778552E+02 -0.11135002933E+04  0.11170128876E+04  0.12699999809E+01 0.  1.
</event>
<event>
 5   0  0.7933103E-02  0.5222994E+03  0.7818609E-02  0.1008117E+00
       -2   -1    0    0    0  501  0.00000000000E+00  0.00000000000E+00  0.38025139795E+03  0.38025139795E+03  0.25500000920E-02 0.  1.
        2   -1    0    0  501    0  0.00000000000E+00  0.00000000000E+00 -0.17935282844E+03  0.17935282846E+03  0.25500000920E-02 0. -1.
    10030    2    1    2    0    0  0.00000000000E+00  0.00000000000E+00  0.20089856951E+03  0.55960422641E+03  0.52229939210E+03 0.  0.
        5    1    3    3  502    0  0.75199269449E+02 -0.10732256357E+03  0.34242045826E+03  0.36667004652E+03  0.46999998093E+01 0.  1.
       -5    1    3    3    0  502 -0.75199269449E+02  0.10732256357E+03 -0.14152188876E+03  0.19293417990E+03  0.46999998093E+01 0. -1.
</event>
<event>
 5   0  0.7881060E-02  0.4962696E+03  0.7818609E-02  0.1014757E+00
        2   -1    0    0  501    0  0.00000000000E+00  0.00000000000E+00  0.35415776497E+03  0.35415776498E+03  0.25500000920E-02 0. -1.
       -2   -1    0    0    0  501  0.00000000000E+00  0.00000000000E+00 -0.17385153469E+03  0.17385153471E+03  0.25500000920E-02 0.  1.
    10030    2    1    2    0    0  0.00000000000E+00  0.00000000000E+00  0.18030623028E+03  0.52800929969E+03  0.49626956776E+03 0.  0.
        1    1    3    3  502    0 -0.93270292359E+02  0.18904408226E+03  0.22942117168E+03  0.31156233167E+03  0.50400001928E-02 0.  1.
       -1    1    3    3    0  502  0.93270292359E+02 -0.18904408226E+03 -0.49114941406E+02  0.21644696803E+03  0.50400001928E-02 0. -1.
</event>
<event>
 5   0  0.4803890E-02  0.4989518E+03  0.7818609E-02  0.1014053E+00
       -1   -1    0    0    0  501  0.00000000000E+00  0.00000000000E+00  0.18702937289E+03  0.18702937295E+03  0.50400001928E-02 0. -1.
        1   -1    0    0  501    0  0.00000000000E+00  0.00000000000E+00 -0.33277245261E+03  0.33277245265E+03  0.50400001928E-02 0.  1.
    10030    2    1    2    0    0  0.00000000000E+00  0.00000000000E+00 -0.14574307973E+03  0.51980182561E+03  0.49895179388E+03 0.  0.
        5    1    3    3  502    0 -0.14030274994E+03  0.90202473676E+02 -0.26607972152E+03  0.31407301077E+03  0.46999998093E+01 0.  1.
       -5    1    3    3    0  502  0.14030274994E+03 -0.90202473676E+02  0.12033664179E+03  0.20572881483E+03  0.46999998093E+01 0. -1.
</event>
<event>
 5   0  0.7933103E-02  0.4500354E+03  0.7818609E-02  0.1027711E+00
        2   -1    0    0  501    0  0.00000000000E+00  0.00000000000E+00  0.50644608657E+02  0.50644608722E+02  0.25500000920E-02 0. -1.
       -2   -1    0    0    0  501  0.00000000000E+00  0.00000000000E+00 -0.99976989208E+03  0.99976989208E+03  0.25500000920E-02 0.  1.
    10030    2    1    2    0    0  0.00000000000E+00  0.00000000000E+00 -0.94912528342E+03  0.10504145008E+04  0.45003535402E+03 0.  0.
        5    1    3    3  502    0 -0.10535100654E+03  0.14246757337E+03 -0.79810750323E+03  0.81755337487E+03  0.46999998093E+01 0.  1.
       -5    1    3    3    0  502  0.10535100654E+03 -0.14246757337E+03 -0.15101778018E+03  0.23286112593E+03  0.46999998093E+01 0. -1.
</event>
<event>
 5   0  0.3210875E-02  0.4997450E+03  0.7818609E-02  0.1013845E+00
       -4   -1    0    0    0  501  0.00000000000E+00  0.00000000000E+00  0.65380673861E+03  0.65380797208E+03  0.12699999809E+01 0. -1.
        4   -1    0    0  501    0  0.00000000000E+00  0.00000000000E+00 -0.95490985183E+02  0.95499430110E+02  0.12699999809E+01 0.  1.
    10030    2    1    2    0    0  0.00000000000E+00  0.00000000000E+00  0.55831575343E+03  0.74930740219E+03  0.49974503744E+03 0.  0.
        1    1    3    3  502    0 -0.12286358714E+03  0.16518487802E+03  0.66823465532E+02  0.21644140209E+03  0.50400001928E-02 0.  1.
       -1    1    3    3    0  502  0.12286358714E+03 -0.16518487802E+03  0.49149228790E+03  0.53286600009E+03  0.50400001928E-02 0. -1.
</event>
<event>
 5   0  0.7933103E-02  0.5053709E+03  0.7818609E-02  0.1012386E+00
       -2   -1    0    0    0  501  0.00000000000E+00  0.00000000000E+00  0.19407108242E+03  0.19407108244E+03  0.25500000920E-02 0.  1.
        2   -1    0    0  501    0  0.00000000000E+00  0.00000000000E+00 -0.32900288494E+03  0.32900288495E+03  0.25500000920E-02 0. -1.
    10030    2    1    2    0    0  0.00000000000E+00  0.00000000000E+00 -0.13493180252E+03  0.52307396739E+03  0.50537093706E+03 0.  0.
        5    1    3    3  502    0 -0.53161203725E+02  0.13755326051E+03 -0.27978793183E+03  0.31630742934E+03  0.46999998093E+01 0. -1.
       -5    1    3    3    0  502  0.53161203725E+02 -0.13755326051E+03  0.14485612932E+03  0.20676653805E+03  0.46999998093E+01 0.  1.
</event>
<event>
 5   0  0.4884478E-02  0.5000271E+03  0.7818609E-02  0.1013772E+00
        1   -1    0    0  501    0  0.00000000000E+00  0.00000000000E+00  0.19841739611E+03  0.19841739618E+03  0.50400001928E-02 0. -1.
       -1   -1    0    0    0  501  0.00000000000E+00  0.00000000000E+00 -0.31502670400E+03  0.31502670404E+03  0.50400001928E-02 0.  1.
    10030    2    1    2    0    0  0.00000000000E+00  0.00000000000E+00 -0.11660930788E+03  0.51344410022E+03  0.50002711263E+03 0.  0.
        3    1    3    3  502    0  0.75793112322E+02  0.17648845029E+03 -0.22264277232E+03  0.29404520609E+03  0.10100000352E+00 0.  1.
       -3    1    3    3    0  502 -0.75793112322E+02 -0.17648845029E+03  0.10603346444E+03  0.21939889412E+03  0.10100000352E+00 0. -1.
</event>
<event>
 5   0  0.4865501E-02  0.5013138E+03  0.7818609E-02  0.1013437E+00
       -1   -1    0    0    0  501  0.00000000000E+00  0.00000000000E+00  0.14663790535E+03  0.14663790544E+03  0.50400001928E-02 0. -1.
        1   -1    0    0  501    0  0.00000000000E+00  0.00000000000E+00 -0.42846274855E+03  0.42846274858E+03  0.50400001928E-02 0.  1.
    10030    2    1    2    0    0  0.00000000000E+00  0.00000000000E+00 -0.28182484320E+03  0.57510065402E+03  0.50131379396E+03 0.  0.
        2    1    3    3  502    0 -0.14028645597E+03  0.11926486134E+03  0.54191954380E+02  0.19194052413E+03  0.25500000920E-02 0. -1.
       -2    1    3    3    0  502  0.14028645597E+03 -0.11926486134E+03 -0.33601679758E+03  0.38316012989E+03  0.25500000920E-02 0.  1.
</event>
<event>
 5   0  0.4884478E-02  0.5417776E+03  0.7818609E-02  0.1003415E+00
       -1   -1    0    0    0  501  0.00000000000E+00  0.00000000000E+00  0.69661565760E+02  0.69661565943E+02  0.50400001928E-02 0. -1.
        1   -1    0    0  501    0  0.00000000000E+00  0.00000000000E+00 -0.10533893308E+04  0.10533893308E+04  0.50400001928E-02 0.  1.
    10030    2    1    2    0    0  0.00000000000E+00  0.00000000000E+00 -0.98372776504E+03  0.11230508968E+04  0.54177763057E+03 0.  0.
        3    1    3    3  502    0 -0.15075207947E+03 -0.17279395200E+03 -0.79079879204E+03  0.82337517512E+03  0.10100000352E+00 0.  1.
       -3    1    3    3    0  502  0.15075207947E+03  0.17279395200E+03 -0.19292897300E+03  0.29967572163E+03  0.10100000352E+00 0. -1.
</event>
<event>
 5   0  0.3210875E-02  0.5032867E+03  0.7818609E-02  0.1012925E+00
       -3   -1    0    0    0  501  0.00000000000E+00  0.00000000000E+00  0.70702168014E+03  0.70702168736E+03  0.10100000352E+00 0.  1.
        3   -1    0    0  501    0  0.00000000000E+00  0.00000000000E+00 -0.89564934879E+02  0.89564991827E+02  0.10100000352E+00 0. -1.
    10030    2    1    2    0    0  0.00000000000E+00  0.00000000000E+00  0.61745674526E+03  0.79658667918E+03  0.50328670277E+03 0.  0.
        5    1    3    3  502    0  0.54916124422E+02 -0.13001604194E+03  0.63839428445E+03  0.65382666227E+03  0.46999998093E+01 0.  1.
       -5    1    3    3    0  502 -0.54916124422E+02  0.13001604194E+03 -0.20937539182E+02  0.14276001691E+03  0.46999998093E+01 0. -1.
</event>
<event>
 5   0  0.4884478E-02  0.5002956E+03  0.7818609E-02  0.1013702E+00
        1   -1    0    0  501    0  0.00000000000E+00  0.00000000000E+00  0.49931062669E+03  0.49931062672E+03  0.50400001928E-02 0. -1.
       -1   -1    0    0    0  501  0.00000000000E+00  0.00000000000E+00 -0.12532063902E+03  0.12532063913E+03  0.50400001928E-02 0.  1.
    10030    2    1    2    0    0  0.00000000000E+00  0.00000000000E+00  0.37398998767E+03  0.62463126585E+03  0.50029562000E+03 0.  0.
        3    1    3    3  502    0 -0.75539266666E+02 -0.23633572673E+03  0.22673574387E+03  0.33610989912E+03  0.10100000352E+00 0. -1.
       -3    1    3    3    0  502  0.75539266666E+02  0.23633572673E+03  0.14725424380E+03  0.28852136673E+03  0.10100000352E+00 0.  1.
</event>
<event>
 5   0  0.7698747E-02  0.5024202E+03  0.7818609E-02  0.1013149E+00
        2   -1    0    0  501    0  0.00000000000E+00  0.00000000000E+00  0.14658709625E+04  0.14658709625E+04  0.25500000920E-02 0.  1.
       -2   -1    0    0    0  501  0.00000000000E+00  0.00000000000E+00 -0.43050520470E+02  0.43050520546E+02  0.25500000920E-02 0. -1.
    10030    2    1    2    0    0  0.00000000000E+00  0.00000000000E+00  0.14228204420E+04  0.15089214830E+04  0.50242017449E+03 0.  0.
        2    1    3    3  502    0 -0.23926254633E+02  0.15365939710E+03  0.11889189476E+03  0.19575228893E+03  0.25500000920E-02 0. -1.
       -2    1    3    3    0  502  0.23926254633E+02 -0.15365939710E+03  0.13039285472E+04  0.13131691941E+04  0.25500000920E-02 0.  1.
</event>
<event>
 5   0  0.4884478E-02  0.4940534E+03  0.7818609E-02  0.1015343E+00
        1   -1    0    0  501    0  0.00000000000E+00  0.00000000000E+00  0.62496337385E+03  0.62496337387E+03  0.50400001928E-02 0.  1.
       -1   -1    0    0    0  501  0.00000000000E+00  0.00000000000E+00 -0.97641216824E+02  0.97641216954E+02  0.50400001928E-02 0. -1.
    10030    2    1    2    0    0  0.00000000000E+00  0.00000000000E+00  0.52732215703E+03  0.72260459083E+03  0.49405337504E+03 0.  0.
        3    1    3    3  502    0 -0.21673302300E+03 -0.10668723087E+03  0.33919160812E+03  0.41642085167E+03  0.10100000352E+00 0.  1.
       -3    1    3    3    0  502  0.21673302300E+03  0.10668723087E+03  0.18813054891E+03  0.30618373915E+03  0.10100000352E+00 0. -1.
</event>
<event>
 5   0  0.4865501E-02  0.5034908E+03  0.7818609E-02  0.1012872E+00
       -1   -1    0    0    0  501  0.00000000000E+00  0.00000000000E+00  0.11903325784E+03  0.11903325795E+03  0.50400001928E-02 0.  1.
        1   -1    0    0  501    0  0.00000000000E+00  0.00000000000E+00 -0.53242051128E+03  0.53242051131E+03  0.50400001928E-02 0. -1.
    10030    2    1    2    0    0  0.00000000000E+00  0.00000000000E+00 -0.41338725344E+03  0.65145376926E+03  0.50349080644E+03 0.  0.
        2    1    3    3  502    0 -0.14282536337E+03 -0.84696576666E+02 -0.45151689803E+03  0.48108222139E+03  0.25500000920E-02 0. -1.
       -2    1    3    3    0  502  0.14282536337E+03  0.84696576666E+02  0.38129644593E+02  0.17037154787E+03  0.25500000920E-02 0.  1.
</event>
<event>
 5   0  0.5038436E-02  0.4985931E+03  0.7818609E-02  0.1014147E+00
        1   -1    0    0  501    0  0.00000000000E+00  0.00000000000E+00  0.45768189299E+03  0.45768189301E+03  0.50400001928E-02 0. -1.
       -1   -1    0    0    0  501  0.00000000000E+00  0.00000000000E+00 -0.13579029622E+03  0.13579029631E+03  0.50400001928E-02 0.  1.
    10030    2    1    2    0    0  0.00000000000E+00  0.00000000000E+00  0.32189159677E+03  0.59347218932E+03  0.49859305995E+03 0.  0.
        1    1    3    3  502    0 -0.86300111493E+02 -0.15853031425E+03 -0.43733470727E+02  0.18572072116E+03  0.50400001928E-02 0.  1.
       -1    1    3    3    0  502  0.86300111493E+02  0.15853031425E+03  0.36562506750E+03  0.40775146816E+03  0.50400001928E-02 0. -1.
</event>
<event>
 5   0  0.7881060E-02  0.4978623E+03  0.7818609E-02  0.1014338E+00
       -2   -1    0    0    0  501  0.00000000000E+00  0.00000000000E+00  0.34648552670E+02  0.34648552764E+02  0.25500000920E-02 0.  1.
        2   -1    0    0  501    0  0.00000000000E+00  0.00000000000E+00 -0.17884356046E+04  0.17884356046E+04  0.25500000920E-02 0. -1.
    10030    2    1    2    0    0  0.00000000000E+00  0.00000000000E+00 -0.17537870519E+04  0.18230841574E+04  0.49786225135E+03 0.  0.
        1    1    3    3  502    0 -0.75056127103E+02  0.48161053521E+02 -0.17279333210E+04  0.17302330684E+04  0.50400001928E-02 0. -1.
       -1    1    3    3    0  502  0.75056127103E+02 -0.48161053521E+02 -0.25853730978E+02  0.92851088969E+02  0.50400001928E-02 0.  1.
</event>
<event>
 5   0  0.7698747E-02  0.5012573E+03  0.7818609E-02  0.1013451E+00
        2   -1    0    0  501    0  0.00000000000E+00  0.00000000000E+00  0.25678317627E+03  0.25678317628E+03  0.25500000920E-02 0. -1.
       -2   -1    0    0    0  501  0.00000000000E+00  0.00000000000E+00 -0.24462165786E+03  0.24462165787E+03  0.25500000920E-02 0.  1.
    10030    2    1    2    0    0  0.00000000000E+00  0.00000000000E+00  0.12161518411E+02  0.50140483415E+03  0.50125732431E+03 0.  0.
        2    1    3    3  502    0  0.46912903395E+02 -0.20176725049E+03  0.14720339648E+03  0.25412533092E+03  0.25500000920E-02 0. -1.
       -2    1    3    3    0  502 -0.46912903395E+02  0.20176725049E+03 -0.13504187807E+03  0.24727950322E+03  0.25500000920E-02 0.  1.
</event>
<event>
 5   0  0.3210875E-02  0.5106488E+03  0.7818609E-02  0.1011036E+00
        3   -1    0    0  501    0  0.00000000000E+00  0.00000000000E+00  0.82737051690E+02  0.82737113337E+02  0.10100000352E+00 0.  1.
       -3   -1    0    0    0  501  0.00000000000E+00  0.00000000000E+00 -0.78792406144E+03  0.78792406791E+03  0.10100000352E+00 0. -1.
    10030    2    1    2    0    0  0.00000000000E+00  0.00000000000E+00 -0.70518700975E+03  0.87066118125E+03  0.51064877735E+03 0.  0.
        5    1    3    3  502    0 -0.59851678581E+02  0.18783133128E+03 -0.62912917894E+03  0.65930906731E+03  0.46999998093E+01 0. -1.
       -5    1    3    3    0  502  0.59851678581E+02 -0.18783133128E+03 -0.76057830802E+02  0.21135211394E+03  0.46999998093E+01 0.  1.
</event>
<event>
 5   0  0.4884478E-02  0.5104556E+03  0.7818609E-02  0.1011085E+00
        1   -1    0    0  501    0  0.00000000000E+00  0.00000000000E+00  0.38780742587E+03  0.38780742591E+03  0.50400001928E-02 0. -1.
       -1   -1    0    0    0  501  0.00000000000E+00  0.00000000000E+00 -0.16797312010E+03  0.16797312018E+03  0.50400001928E-02 0.  1.
    10030    2    1    2    0    0  0.00000000000E+00  0.00000000000E+00  0.21983430577E+03  0.55578054609E+03  0.51045557438E+03 0.  0.
        3    1    3    3  502    0  0.25500500893E+03  0.20348422101E+01  0.12131146538E+03  0.28239719721E+03  0.10100000352E+00 0. -1.
       -3    1    3    3    0  502 -0.25500500893E+03 -0.20348422101E+01  0.98522840391E+02  0.27338334887E+03  0.10100000352E+00 0.  1.
</event>
<event>
 5   0  0.7881060E-02  0.5015912E+03  0.7818609E-02  0.1013364E+00
       -2   -1    0    0    0  501  0.00000000000E+00  0.00000000000E+00  0.46004923545E+03  0.46004923545E+03  0.25500000920E-02 0. -1.
        2   -1    0    0  501    0  0.00000000000E+00  0.00000000000E+00 -0.13672109978E+03  0.13672109980E+03  0.25500000920E-02 0.  1.
    10030    2    1    2    0    0  0.00000000000E+00  0.00000000000E+00  0.32332813567E+03  0.59677033525E+03  0.50159121775E+03 0.  0.
        1    1    3    3  502    0 -0.17329101926E+03  0.47103138310E+02  0.36995588999E+03  0.41123696765E+03  0.50400001928E-02 0. -1.
       -1    1    3    3    0  502  0.17329101926E+03 -0.47103138310E+02 -0.46627754323E+02  0.18553336760E+03  0.50400001928E-02 0.  1.
</event>
<event>
 5   0  0.5038436E-02  0.4991205E+03  0.7818609E-02  0.1014009E+00
        1   -1    0    0  501    0  0.00000000000E+00  0.00000000000E+00  0.67122075233E+02  0.67122075422E+02  0.50400001928E-02 0. -1.
       -1   -1    0    0    0  501  0.00000000000E+00  0.00000000000E+00 -0.92786629332E+03  0.92786629333E+03  0.50400001928E-02 0.  1.
    10030    2    1    2    0    0  0.00000000000E+00  0.00000000000E+00 -0.86074421808E+03  0.99498836875E+03  0.49912047142E+03 0.  0.
        1    1    3    3  502    0 -0.86417638127E+02 -0.70227321463E+01 -0.89687697114E+03  0.90105806046E+03  0.50400001928E-02 0.  1.
       -1    1    3    3    0  502  0.86417638127E+02  0.70227321463E+01  0.36132753054E+02  0.93930308287E+02  0.50400001928E-02 0. -1.
</event>
<event>
 5   0  0.4884478E-02  0.4976289E+03  0.7818609E-02  0.1014400E+00
       -1   -1    0    0    0  501  0.00000000000E+00  0.00000000000E+00  0.76003319568E+03  0.76003319570E+03  0.50400001928E-02 0. -1.
        1   -1    0    0  501    0  0.00000000000E+00  0.00000000000E+00 -0.81455154601E+02  0.81455154757E+02  0.50400001928E-02 0.  1.
    10030    2    1    2    0    0  0.00000000000E+00  0.00000000000E+00  0.67857804108E+03  0.84148835045E+03  0.49762886383E+03 0.  0.
        3    1    3    3  502    0  0.95637956986E+02 -0.14250134094E+03  0.34649836850E+02  0.17508247309E+03  0.10100000352E+00 0. -1.
       -3    1    3    3    0  502 -0.95637956986E+02  0.14250134094E+03  0.64392820423E+03  0.66640587737E+03  0.10100000352E+00 0.  1.
</event>
<event>
 5   0  0.7776070E-02  0.5059116E+03  0.7818609E-02  0.1012247E+00
        2   -1    0    0  501    0  0.00000000000E+00  0.00000000000E+00  0.72149851104E+03  0.72149851105E+03  0.25500000920E-02 0.  1.
       -2   -1    0    0    0  501  0.00000000000E+00  0.00000000000E+00 -0.88685765825E+02  0.88685765861E+02  0.25500000920E-02 0. -1.
    10030    2    1    2    0    0  0.00000000000E+00  0.00000000000E+00  0.63281274522E+03  0.81018427691E+03  0.50591164450E+03 0.  0.
        4    1    3    3  502    0  0.16933428707E+03  0.11883094925E+03  0.54952450028E+03  0.58717432215E+03  0.12699999809E+01 0.  1.
       -4    1    3    3    0  502 -0.16933428707E+03 -0.11883094925E+03  0.83288244935E+02  0.22300995476E+03  0.12699999809E+01 0. -1.
</event>
<event>
 5   0  0.7933103E-02  0.4988890E+03  0.7818609E-02  0.1014069E+00
       -2   -1    0    0    0  501  0.00000000000E+00  0.00000000000E+00  0.33990767548E+02  0.33990767643E+02  0.25500000920E-02 0.  1.
        2   -1    0    0  501    0  0.00000000000E+00  0.00000000000E+00 -0.18305721618E+04  0.18305721618E+04  0.25500000920E-02 0. -1.
    10030    2    1    2    0    0  0.00000000000E+00  0.00000000000E+00 -0.17965813942E+04  0.18645629294E+04  0.49888897731E+03 0.  0.
        5    1    3    3  502    0  0.10833191058E+03  0.21170195039E+02 -0.62438070187E+02  0.12690383215E+03  0.46999998093E+01 0.  1.
       -5    1    3    3    0  502 -0.10833191058E+03 -0.21170195039E+02 -0.17341433240E+04  0.17376590973E+04  0.46999998093E+01 0. -1.
</event>
<event>
 5   0  0.3210875E-02  0.5027689E+03  0.7818609E-02  0.1013059E+00
       -3   -1    0    0    0  501  0.00000000000E+00  0.00000000000E+00  0.13779213965E+04  0.13779214002E+04  0.10100000352E+00 0. -1.
        3   -1    0    0  501    0  0.00000000000E+00  0.00000000000E+00 -0.45861878974E+02  0.45861990188E+02  0.10100000352E+00 0.  1.
    10030    2    1    2    0    0  0.00000000000E+00  0.00000000000E+00  0.13320595175E+04  0.14237833903E+04  0.50276891761E+03 0.  0.
        2    1    3    3  502    0  0.13292763164E+01 -0.21053801850E+03  0.27705912026E+03  0.34797956884E+03  0.25500000920E-02 0.  1.
       -2    1    3    3    0  502 -0.13292763164E+01  0.21053801850E+03  0.10550003972E+04  0.10758038215E+04  0.25500000920E-02 0. -1.
</event>
<event>
 5   0  0.7881060E-02  0.4934462E+03  0.7818609E-02  0.1015504E+00
        2   -1    0    0  501    0  0.00000000000E+00  0.00000000000E+00  0.41860880900E+03  0.41860880900E+03  0.25500000920E-02 0. -1.
       -2   -1    0    0    0  501  0.00000000000E+00  0.00000000000E+00 -0.14541568176E+03  0.14541568179E+03  0.25500000920E-02 0.  1.
    10030    2    1    2    0    0  0.00000000000E+00  0.00000000000E+00  0.27319312723E+03  0.56402449079E+03  0.49344618901E+03 0.  0.
        1    1    3    3  502    0 -0.16605690698E+03  0.17866796225E+03  0.17898358728E+03  0.30254299138E+03  0.50400001928E-02 0.  1.
       -1    1    3    3    0  502  0.16605690698E+03 -0.17866796225E+03  0.94209539954E+02  0.26148149941E+03  0.50400001928E-02 0. -1.
</event>
<event>
 5   0  0.7933103E-02  0.5063115E+03  0.7818609E-02  0.1012145E+00
        2   -1    0    0  501    0  0.00000000000E+00  0.00000000000E+00  0.36677949291E+03  0.36677949292E+03  0.25500000920E-02 0. -1.
       -2   -1    0    0    0  501  0.00000000000E+00  0.00000000000E+00 -0.17473124457E+03  0.17473124459E+03  0.25500000920E-02 0.  1.
    10030    2    1    2    0    0  0.00000000000E+00  0.00000000000E+00  0.19204824834E+03  0.54151073751E+03  0.50631151394E+03 0.  0.
        5    1    3    3  502    0  0.19442519139E+03 -0.87935112957E+02  0.24162048170E+03  0.32239151092E+03  0.46999998093E+01 0. -1.
       -5    1    3    3    0  502 -0.19442519139E+03  0.87935112957E+02 -0.49572233367E+02  0.21911922658E+03  0.46999998093E+01 0.  1.
</event>
<event>
 5   0  0.7776070E-02  0.5191975E+03  0.7818609E-02  0.1008886E+00
        2   -1    0    0  501    0  0.00000000000E+00  0.00000000000E+00  0.20557718515E+04  0.20557718515E+04  0.25500000920E-02 0.  1.
       -2   -1    0    0    0  501  0.00000000000E+00  0.00000000000E+00 -0.32781612159E+02  0.32781612258E+02  0.25500000920E-02 0. -1.
    10030    2    1    2    0    0  0.00000000000E+00  0.00000000000E+00  0.20229902393E+04  0.20885534637E+04  0.51919751782E+03 0.  0.
        4    1    3    3  502    0  0.52741701799E+02 -0.25054024986E+03  0.11839446332E+04  0.12113127636E+04  0.12699999809E+01 0.  1.
       -4    1    3    3    0  502 -0.52741701799E+02  0.25054024986E+03  0.83904560612E+03  0.87724070013E+03  0.12699999809E+01 0. -1.
</event>
<event>
 5   0  0.4884478E-02  0.5027065E+03  0.7818609E-02  0.1013075E+00
       -1   -1    0    0    0  501  0.00000000000E+00  0.00000000000E+00  0.80480770620E+03  0.80480770622E+03  0.50400001928E-02 0. -1.
        1   -1    0    0  501    0  0.00000000000E+00  0.00000000000E+00 -0.78501306674E+02  0.78501306836E+02  0.50400001928E-02 0.  1.
    10030    2    1    2    0    0  0.00000000000E+00  0.00000000000E+00  0.72630639953E+03  0.88330901305E+03  0.50270650140E+03 0.  0.
        3    1    3    3  502    0 -0.59835165296E+02 -0.22298298613E+03  0.18852836381E+03  0.29806813528E+03  0.10100000352E+00 0.  1.
       -3    1    3    3    0  502  0.59835165296E+02  0.22298298613E+03  0.53777803572E+03  0.58524087777E+03  0.10100000352E+00 0. -1.
</event>
<event>
 5   0  0.4884478E-02  0.4993932E+03  0.7818609E-02  0.1013937E+00
        1   -1    0    0  501    0  0.00000000000E+00  0.00000000000E+00  0.38849811417E+03  0.38849811421E+03  0.50400001928E-02 0.  1.
       -1   -1    0    0    0  501  0.00000000000E+00  0.00000000000E+00 -0.16048570337E+03  0.16048570345E+03  0.50400001928E-02 0. -1.
    10030    2    1    2    0    0  0.00000000000E+00  0.00000000000E+00  0.22801241081E+03  0.54898381765E+03  0.49939320436E+03 0.  0.
        3    1    3    3  502    0 -0.88160668732E+02 -0.16169957068E+03 -0.71347048213E+02  0.19750814200E+03  0.10100000352E+00 0. -1.
       -3    1    3    3    0  502  0.88160668732E+02  0.16169957068E+03  0.29935945902E+03  0.35147567565E+03  0.10100000352E+00 0.  1.
</event>
<event>
 5   0  0.8208720E-02  0.5005012E+03  0.7818609E-02  0.1013648E+00
       -2   -1    0    0    0  501  0.00000000000E+00  0.00000000000E+00  0.16239113317E+03  0.16239113319E+03  0.25500000920E-02 0. -1.
        2   -1    0    0  501    0  0.00000000000E+00  0.00000000000E+00 -0.38564515456E+03  0.38564515457E+03  0.25500000920E-02 0.  1.
    10030    2    1    2    0    0  0.00000000000E+00  0.00000000000E+00 -0.22325402139E+03  0.54803628777E+03  0.50050116348E+03 0.  0.
        3    1    3    3  502    0  0.47747747241E+02 -0.19348773909E+03  0.54101690023E+02  0.20650509827E+03  0.10100000352E+00 0. -1.
       -3    1    3    3    0  502 -0.47747747241E+02  0.19348773909E+03 -0.27735571141E+03  0.34153118950E+03  0.10100000352E+00 0.  1.
</event>
<event>
 5   0  0.7776070E-02  0.4596998E+03  0.7818609E-02  0.1024868E+00
       -2   -1    0    0    0  501  0.00000000000E+00  0.00000000000E+00  0.31460580872E+02  0.31460580976E+02  0.25500000920E-02 0.  1.
        2   -1    0    0  501    0  0.00000000000E+00  0.00000000000E+00 -0.16792756195E+04  0.16792756195E+04  0.25500000920E-02 0. -1.
    10030    2    1    2    0    0  0.00000000000E+00  0.00000000000E+00 -0.16478150386E+04  0.17107362005E+04  0.45969984348E+03 0.  0.
        4    1    3    3  502    0 -0.61623348596E+02 -0.19424209137E+02 -0.16447707571E+04  0.16460398517E+04  0.12699999809E+01 0. -1.
       -4    1    3    3    0  502  0.61623348596E+02  0.19424209137E+02 -0.30442814824E+01  0.64696348757E+02  0.12699999809E+01 0.  1.
</event>
<event>
 5   0  0.4865501E-02  0.5002607E+03  0.7818609E-02  0.1013711E+00
        1   -1    0    0  501    0  0.00000000000E+00  0.00000000000E+00  0.61043761978E+02  0.61043762186E+02  0.50400001928E-02 0. -1.
       -1   -1    0    0    0  501  0.00000000000E+00  0.00000000000E+00 -0.10249234013E+04  0.10249234014E+04  0.50400001928E-02 0.  1.
    10030    2    1    2    0    0  0.00000000000E+00  0.00000000000E+00 -0.96387963937E+03  0.10859671635E+04  0.50026065317E+03 0.  0.
        2    1    3    3  502    0  0.65770222921E+02  0.22528328063E+03 -0.66977260913E+03  0.70969967359E+03  0.25500000920E-02 0.  1.
       -2    1    3    3    0  502 -0.65770222921E+02 -0.22528328063E+03 -0.29410703024E+03  0.37626748995E+03  0.25500000920E-02 0. -1.
</event>
<event>
 5   0  0.5038436E-02  0.4960843E+03  0.7818609E-02  0.1014806E+00
       -1   -1    0    0    0  501  0.00000000000E+00  0.00000000000E+00  0.25637370518E+02  0.25637371013E+02  0.50400001928E-02 0.  1.
        1   -1    0    0  501    0  0.00000000000E+00  0.00000000000E+00 -0.23998137045E+04  0.23998137045E+04  0.50400001928E-02 0. -1.
    10030    2    1    2    0    0  0.00000000000E+00  0.00000000000E+00 -0.23741763340E+04  0.24254510755E+04  0.49608432237E+03 0.  0.
        1    1    3    3  502    0  0.17402188524E+03  0.34589517251E+02 -0.20345538606E+04  0.20422755600E+04  0.50400001928E-02 0. -1.
       -1    1    3    3    0  502 -0.17402188524E+03 -0.34589517251E+02 -0.33962247339E+03  0.38317551553E+03  0.50400001928E-02 0.  1.
</event>
<event>
 5   0  0.4865501E-02  0.4949132E+03  0.7818609E-02  0.1015115E+00
       -1   -1    0    0    0  501  0.00000000000E+00  0.00000000000E+00  0.24796677089E+03  0.24796677094E+03  0.50400001928E-02 0. -1.
        1   -1    0    0  501    0  0.00000000000E+00  0.00000000000E+00 -0.24694747727E+03  0.24694747732E+03  0.50400001928E-02 0.  1.
    10030    2    1    2    0    0  0.00000000000E+00  0.00000000000E+00  0.10192936140E+01  0.49491424826E+03  0.49491319863E+03 0.  0.
        2    1    3    3  502    0 -0.22379624459E+03  0.98831608901E+02 -0.36670030299E+02  0.24738055125E+03  0.25500000920E-02 0.  1.
       -2    1    3    3    0  502  0.22379624459E+03 -0.98831608901E+02  0.37689323913E+02  0.24753369701E+03  0.25500000920E-02 0. -1.
</event>
<event>
 5   0  0.3210875E-02  0.5010060E+03  0.7818609E-02  0.1013517E+00
        3   -1    0    0  501    0  0.00000000000E+00  0.00000000000E+00  0.33149045986E+03  0.33149047524E+03  0.10100000352E+00 0. -1.
       -3   -1    0    0    0  501  0.00000000000E+00  0.00000000000E+00 -0.18930177517E+03  0.18930180212E+03  0.10100000352E+00 0.  1.
    10030    2    1    2    0    0  0.00000000000E+00  0.00000000000E+00  0.14218868468E+03  0.52079227736E+03  0.50100596215E+03 0.  0.
        2    1    3    3  502    0 -0.11019699218E+03 -0.10651266642E+03 -0.13488121897E+03  0.20415990897E+03  0.25500000920E-02 0.  1.
       -2    1    3    3    0  502  0.11019699218E+03  0.10651266642E+03  0.27706990365E+03  0.31663236839E+03  0.25500000920E-02 0. -1.
</event>
<event>
 5   0  0.7776070E-02  0.4995893E+03  0.7818609E-02  0.1013886E+00
        2   -1    0    0  501    0  0.00000000000E+00  0.00000000000E+00  0.37873511879E+03  0.37873511880E+03  0.25500000920E-02 0.  1.
       -2   -1    0    0    0  501  0.00000000000E+00  0.00000000000E+00 -0.16475200809E+03  0.16475200811E+03  0.25500000920E-02 0. -1.
    10030    2    1    2    0    0  0.00000000000E+00  0.00000000000E+00  0.21398311070E+03  0.54348712691E+03  0.49958931679E+03 0.  0.
        4    1    3    3  502    0  0.12348215566E+03  0.21642173304E+03  0.12613151146E+03  0.27927939484E+03  0.12699999809E+01 0. -1.
       -4    1    3    3    0  502 -0.12348215566E+03 -0.21642173304E+03  0.87851599246E+02  0.26420773208E+03  0.12699999809E+01 0.  1.
</event>
<event>
 5   0  0.7776070E-02  0.5165266E+03  0.7818609E-02  0.1009553E+00
       -2   -1    0    0    0  501  0.00000000000E+00  0.00000000000E+00  0.55785251017E+02  0.55785251075E+02  0.25500000920E-02 0.  1.
        2   -1    0    0  501    0  0.00000000000E+00  0.00000000000E+00 -0.11956553583E+04  0.11956553583E+04  0.25500000920E-02 0. -1.
    10030    2    1    2    0    0  0.00000000000E+00  0.00000000000E+00 -0.11398701073E+04  0.12514406094E+04  0.51652660853E+03 0.  0.
        4    1    3    3  502    0  0.23860214027E+03  0.96205605084E+02 -0.51512290003E+03  0.57579485481E+03  0.12699999809E+01 0.  1.
       -4    1    3    3    0  502 -0.23860214027E+03 -0.96205605084E+02 -0.62474720724E+03  0.67564575456E+03  0.12699999809E+01 0. -1.
</event>
<event>
 5   0  0.7933103E-02  0.5005435E+03  0.7818609E-02  0.1013637E+00
       -2   -1    0    0    0  501  0.00000000000E+00  0.00000000000E+00  0.45115249539E+02  0.45115249611E+02  0.25500000920E-02 0.  1.
        2   -1    0    0  501    0  0.00000000000E+00  0.00000000000E+00 -0.13883543580E+04  0.13883543581E+04  0.25500000920E-02 0. -1.
    10030    2    1    2    0    0  0.00000000000E+00  0.00000000000E+00 -0.13432391085E+04  0.14334696077E+04  0.50054351805E+03 0.  0.
        5    1    3    3  502    0 -0.14923445812E+03 -0.14530713162E+03 -0.27449889254E+03  0.34461111124E+03  0.46999998093E+01 0.  1.
       -5    1    3    3    0  502  0.14923445812E+03  0.14530713162E+03 -0.10687402160E+04  0.10888584964E+04  0.46999998093E+01 0. -1.
</event>
<event>
 5   0  0.3210875E-02  0.5005702E+03  0.7818609E-02  0.1013630E+00
       -3   -1    0    0    0  501  0.00000000000E+00  0.00000000000E+00  0.12196294831E+03  0.12196299013E+03  0.10100000352E+00 0.  1.
        3   -1    0    0  501    0  0.00000000000E+00  0.00000000000E+00 -0.51362009212E+03  0.51362010205E+03  0.10100000352E+00 0. -1.
    10030    2    1    2    0    0  0.00000000000E+00  0.00000000000E+00 -0.39165714382E+03  0.63558309218E+03  0.50057022361E+03 0.  0.
        1    1    3    3  502    0 -0.14984518613E+03 -0.12305723794E+03  0.51160014582E+01  0.19396607207E+03  0.50400001928E-02 0.  1.
       -1    1    3    3    0  502  0.14984518613E+03  0.12305723794E+03 -0.39677314528E+03  0.44161702011E+03  0.50400001928E-02 0. -1.
</event>
<event>
 5   0  0.4884478E-02  0.4981098E+03  0.7818609E-02  0.1014273E+00
        1   -1    0    0  501    0  0.00000000000E+00  0.00000000000E+00  0.21426954358E+04  0.21426954358E+04  0.50400001928E-02 0. -1.
       -1   -1    0    0    0  501  0.00000000000E+00  0.00000000000E+00 -0.28948747442E+02  0.28948747880E+02  0.50400001928E-02 0.  1.
    10030    2    1    2    0    0  0.00000000000E+00  0.00000000000E+00  0.21137466883E+04  0.21716441837E+04  0.49810982523E+03 0.  0.
        3    1    3    3  502    0 -0.94697368864E+02 -0.83964828083E+02  0.19920480894E+04  0.19960644491E+04  0.10100000352E+00 0. -1.
       -3    1    3    3    0  502  0.94697368864E+02  0.83964828083E+02  0.12169859891E+03  0.17557973460E+03  0.10100000352E+00 0.  1.
</event>
<event>
 5   0  0.4865501E-02  0.4976116E+03  0.7818609E-02  0.1014404E+00
       -1   -1    0    0    0  501  0.00000000000E+00  0.00000000000E+00  0.26442245167E+03  0.26442245172E+03  0.50400001928E-02 0. -1.
        1   -1    0    0  501    0  0.00000000000E+00  0.00000000000E+00 -0.23411143918E+03  0.23411143923E+03  0.50400001928E-02 0.  1.
    10030    2    1    2    0    0  0.00000000000E+00  0.00000000000E+00  0.30311012492E+02  0.49853389095E+03  0.49761157839E+03 0.  0.
        2    1    3    3  502    0 -0.66111782732E+02  0.15128141168E+03  0.20163886528E+03  0.26060519053E+03  0.25500000920E-02 0. -1.
       -2    1    3    3    0  502  0.66111782732E+02 -0.15128141168E+03 -0.17132785279E+03  0.23792870042E+03  0.25500000920E-02 0.  1.
</event>
<event>
 5   0  0.7881060E-02  0.5004748E+03  0.7818609E-02  0.1013655E+00
        2   -1    0    0  501    0  0.00000000000E+00  0.00000000000E+00  0.10498435910E+04  0.10498435910E+04  0.25500000920E-02 0.  1.
       -2   -1    0    0    0  501  0.00000000000E+00  0.00000000000E+00 -0.59645801570E+02  0.59645801624E+02  0.25500000920E-02 0. -1.
    10030    2    1    2    0    0  0.00000000000E+00  0.00000000000E+00  0.99019778938E+03  0.11094893926E+04  0.50047482469E+03 0.  0.
        1    1    3    3  502    0 -0.13396187825E+03 -0.21079692160E+03  0.52927295717E+03  0.58524438502E+03  0.50400001928E-02 0.  1.
       -1    1    3    3    0  502  0.13396187825E+03  0.21079692160E+03  0.46092483221E+03  0.52424500756E+03  0.50400001928E-02 0. -1.
</event>
<event>
 5   0  0.4865501E-02  0.4999330E+03  0.7818609E-02  0.1013796E+00
       -1   -1    0    0    0  501  0.00000000000E+00  0.00000000000E+00  0.56326569119E+02  0.56326569345E+02  0.50400001928E-02 0. -1.
        1   -1    0    0  501    0  0.00000000000E+00  0.00000000000E+00 -0.11093032122E+04  0.11093032122E+04  0.50400001928E-02 0.  1.
    10030    2    1    2    0    0  0.00000000000E+00  0.00000000000E+00 -0.10529766431E+04  0.11656297816E+04  0.49993297229E+03 0.  0.
        2    1    3    3  502    0 -0.67987613494E+02  0.84695045666E+02 -0.15599434241E+01  0.10861859776E+03  0.25500000920E-02 0. -1.
       -2    1    3    3    0  502  0.67987613494E+02 -0.84695045666E+02 -0.10514166997E+04  0.10570111838E+04  0.25500000920E-02 0.  1.
</event>
<event>
 5   0  0.7776070E-02  0.4971621E+03  0.7818609E-02  0.1014522E+00
        2   -1    0    0  501    0  0.00000000000E+00  0.00000000000E+00  0.81773624454E+03  0.81773624454E+03  0.25500000920E-02 0.  1.
       -2   -1    0    0    0  501  0.00000000000E+00  0.00000000000E+00 -0.75565359016E+02  0.75565359059E+02  0.25500000920E-02 0. -1.
    10030    2    1    2    0    0  0.00000000000E+00  0.00000000000E+00  0.74217088553E+03  0.89330160360E+03  0.49716207788E+03 0.  0.
        4    1    3    3  502    0 -0.92743848002E+01 -0.19161868824E+03  0.87058998016E+02  0.21067657187E+03  0.12699999809E+01 0. -1.
       -4    1    3    3    0  502  0.92743848002E+01  0.19161868824E+03  0.65511188751E+03  0.68262503174E+03  0.12699999809E+01 0.  1.
</event>
<event>
 5   0  0.4803890E-02  0.5011431E+03  0.7818609E-02  0.1013481E+00
        1   -1    0    0  501    0  0.00000000000E+00  0.00000000000E+00  0.11961218128E+04  0.11961218128E+04  0.50400001928E-02 0.  1.
       -1   -1    0    0    0  501  0.00000000000E+00  0.00000000000E+00 -0.52491390206E+02  0.52491390448E+02  0.50400001928E-02 0. -1.
    10030    2    1    2    0    0  0.00000000000E+00  0.00000000000E+00  0.11436304226E+04  0.12486132033E+04  0.50114308124E+03 0.  0.
        5    1    3    3  502    0 -0.11972752269E+03 -0.20358377893E+02  0.11177666747E+04  0.11243547360E+04  0.46999998093E+01 0.  1.
       -5    1    3    3    0  502  0.11972752269E+03  0.20358377893E+02  0.25863747899E+02  0.12425846729E+03  0.46999998093E+01 0. -1.
</event>
<event>
 5   0  0.7698747E-02  0.4983228E+03  0.7818609E-02  0.1014218E+00
       -2   -1    0    0    0  501  0.00000000000E+00  0.00000000000E+00  0.76330854255E+02  0.76330854298E+02  0.25500000920E-02 0. -1.
        2   -1    0    0  501    0  0.00000000000E+00  0.00000000000E+00 -0.81331984557E+03  0.81331984557E+03  0.25500000920E-02 0.  1.
    10030    2    1    2    0    0  0.00000000000E+00  0.00000000000E+00 -0.73698899131E+03  0.88965069987E+03  0.49832278140E+03 0.  0.
        2    1    3    3  502    0  0.14691672540E+03  0.96005641803E+02 -0.68424256606E+03  0.70639188605E+03  0.25500000920E-02 0.  1.
       -2    1    3    3    0  502 -0.14691672540E+03 -0.96005641803E+02 -0.52746425250E+02  0.18325881382E+03  0.25500000920E-02 0. -1.
</event>
<event>
 5   0  0.5191358E-02  0.4989262E+03  0.7818609E-02  0.1014060E+00
        1   -1    0    0  501    0  0.00000000000E+00  0.00000000000E+00  0.58944241786E+03  0.58944241788E+03  0.50400001928E-02 0.  1.
       -1   -1    0    0    0  501  0.00000000000E+00  0.00000000000E+00 -0.10557744924E+03  0.10557744936E+03  0.50400001928E-02 0. -1.
    10030    2    1    2    0    0  0.00000000000E+00  0.00000000000E+00  0.48386496861E+03  0.69501986724E+03  0.49892615487E+03 0.  0.
        4    1    3    3  502    0 -0.20468489083E+03 -0.14239822971E+03  0.25245459894E+03  0.35483531079E+03  0.12699999809E+01 0.  1.
       -4    1    3    3    0  502  0.20468489083E+03  0.14239822971E+03  0.23141036968E+03  0.34018455646E+03  0.12699999809E+01 0. -1.
</event>
<event>
 5   0  0.7776070E-02  0.5003752E+03  0.7818609E-02  0.1013681E+00
        2   -1    0    0  501    0  0.00000000000E+00  0.00000000000E+00  0.18800535213E+04  0.18800535213E+04  0.25500000920E-02 0.  1.
       -2   -1    0    0    0  501  0.00000000000E+00  0.00000000000E+00 -0.33293645591E+02  0.33293645689E+02  0.25500000920E-02 0. -1.
    10030    2    1    2    0    0  0.00000000000E+00  0.00000000000E+00  0.18467598757E+04  0.19133471670E+04  0.50037520212E+03 0.  0.
        4    1    3    3  502    0  0.18299810182E+03  0.66564336216E+02  0.15240139447E+04  0.15364046448E+04  0.12699999809E+01 0.  1.
       -4    1    3    3    0  502 -0.18299810182E+03 -0.66564336216E+02  0.32274593097E+03  0.37694252212E+03  0.12699999809E+01 0. -1.
</event>
<event>
 5   0  0.4884478E-02  0.4998459E+03  0.7818609E-02  0.1013819E+00
        1   -1    0    0  501    0  0.00000000000E+00  0.00000000000E+00  0.62501985027E+03  0.62501985029E+03  0.50400001928E-02 0. -1.
       -1   -1    0    0    0  501  0.00000000000E+00  0.00000000000E+00 -0.99935186649E+02  0.99935186776E+02  0.50400001928E-02 0.  1.
    10030    2    1    2    0    0  0.00000000000E+00  0.00000000000E+00  0.52508466362E+03  0.72495503707E+03  0.49984587805E+03 0.  0.
        3    1    3    3  502    0  0.75999994229E+02 -0.23778488216E+03  0.27993549112E+03  0.37507537735E+03  0.10100000352E+00 0. -1.
       -3    1    3    3    0  502 -0.75999994229E+02  0.23778488216E+03  0.24514917250E+03  0.34987965972E+03  0.10100000352E+00 0.  1.
</event>
<event>
 5   0  0.7933103E-02  0.4994113E+03  0.7818609E-02  0.1013933E+00
       -2   -1    0    0    0  501  0.00000000000E+00  0.00000000000E+00  0.52307946171E+03  0.52307946171E+03  0.25500000920E-02 0. -1.
        2   -1    0    0  501    0  0.00000000000E+00  0.00000000000E+00 -0.11920352548E+03  0.11920352551E+03  0.25500000920E-02 0.  1.
    10030    2    1    2    0    0  0.00000000000E+00  0.00000000000E+00  0.40387593623E+03  0.64228298722E+03  0.49941131726E+03 0.  0.
        5    1    3    3  502    0 -0.44522991824E+02  0.21412723563E+03  0.35679214603E+03  0.41851582444E+03  0.46999998093E+01 0. -1.
       -5    1    3    3    0  502  0.44522991824E+02 -0.21412723563E+03  0.47083790199E+02  0.22376716278E+03  0.46999998093E+01 0.  1.
</event>
<event>
 5   0  0.7933103E-02  0.4995459E+03  0.7818609E-02  0.1013898E+00
       -2   -1    0    0    0  501  0.00000000000E+00  0.00000000000E+00  0.41836128600E+02  0.41836128678E+02  0.25500000920E-02 0. -1.
        2   -1    0    0  501    0  0.00000000000E+00  0.00000000000E+00 -0.14912119111E+04  0.14912119111E+04  0.25500000920E-02 0.  1.
    10030    2    1    2    0    0  0.00000000000E+00  0.00000000000E+00 -0.14493757825E+04  0.15330480398E+04  0.49954592720E+03 0.  0.
        5    1    3    3  502    0 -0.16718139155E+02 -0.16158467435E+03 -0.13067680507E+04  0.13168348156E+04  0.46999998093E+01 0.  1.
       -5    1    3    3    0  502  0.16718139155E+02  0.16158467435E+03 -0.14260773184E+03  0.21621322425E+03  0.46999998093E+01 0. -1.
</event>
<event>
 5   0  0.7881060E-02  0.5003941E+03  0.7818609E-02  0.1013676E+00
        2   -1    0    0  501    0  0.00000000000E+00  0.00000000000E+00  0.41984972868E+03  0.41984972869E+03  0.25500000920E-02 0. -1.
       -2   -1    0    0    0  501  0.00000000000E+00  0.00000000000E+00 -0.14909756678E+03  0.14909756680E+03  0.25500000920E-02 0.  1.
    10030    2    1    2    0    0  0.00000000000E+00  0.00000000000E+00  0.27075216190E+03  0.56894729549E+03  0.50039413653E+03 0.  0.
        1    1    3    3  502    0 -0.13935181467E+03  0.15880394832E+03  0.28775485862E+03  0.35698806834E+03  0.50400001928E-02 0. -1.
       -1    1    3    3    0  502  0.13935181467E+03 -0.15880394832E+03 -0.17002696713E+02  0.21195922715E+03  0.50400001928E-02 0.  1.
</event>
<event>
 5   0  0.4865501E-02  0.4891716E+03  0.7818609E-02  0.1016645E+00
       -1   -1    0    0    0  501  0.00000000000E+00  0.00000000000E+00  0.24799388232E+03  0.24799388237E+03  0.50400001928E-02 0.  1.
        1   -1    0    0  501    0  0.00000000000E+00  0.00000000000E+00 -0.24122452308E+03  0.24122452313E+03  0.50400001928E-02 0. -1.
    10030    2    1    2    0    0  0.00000000000E+00  0.00000000000E+00  0.67693592468E+01  0.48921840550E+03  0.48917156915E+03 0.  0.
        2    1    3    3  502    0 -0.69715371890E+02  0.14070432926E+03  0.19092400530E+03  0.24720420133E+03  0.25500000920E-02 0.  1.
       -2    1    3    3    0  502  0.69715371890E+02 -0.14070432926E+03 -0.18415464605E+03  0.24201420417E+03  0.25500000920E-02 0. -1.
</event>
<event>
 5   0  0.4884478E-02  0.5021930E+03  0.7818609E-02  0.1013208E+00
       -1   -1    0    0    0  501  0.00000000000E+00  0.00000000000E+00  0.14423464655E+03  0.14423464664E+03  0.50400001928E-02 0.  1.
        1   -1    0    0  501    0  0.00000000000E+00  0.00000000000E+00 -0.43713119687E+03  0.43713119690E+03  0.50400001928E-02 0. -1.
    10030    2    1    2    0    0  0.00000000000E+00  0.00000000000E+00 -0.29289655032E+03  0.58136584355E+03  0.50219304540E+03 0.  0.
        3    1    3    3  502    0 -0.24512389606E+03  0.44948528799E+02 -0.18200463416E+03  0.30859648689E+03  0.10100000352E+00 0. -1.
       -3    1    3    3    0  502  0.24512389606E+03 -0.44948528799E+02 -0.11089191616E+03  0.27276935666E+03  0.10100000352E+00 0.  1.
</event>
<event>
 5   0  0.5038436E-02  0.5008112E+03  0.7818609E-02  0.1013567E+00
        1   -1    0    0  501    0  0.00000000000E+00  0.00000000000E+00  0.95224394170E+03  0.95224394171E+03  0.50400001928E-02 0.  1.
       -1   -1    0    0    0  501  0.00000000000E+00  0.00000000000E+00 -0.65847585460E+02  0.65847585653E+02  0.50400001928E-02 0. -1.
    10030    2    1    2    0    0  0.00000000000E+00  0.00000000000E+00  0.88639635624E+03  0.10180915274E+04  0.50081119970E+03 0.  0.
        1    1    3    3  502    0  0.70359595323E+02 -0.56703050211E+02  0.91794212016E+03  0.92237923033E+03  0.50400001928E-02 0.  1.
       -1    1    3    3    0  502 -0.70359595323E+02  0.56703050211E+02 -0.31545763920E+02  0.95712297036E+02  0.50400001928E-02 0. -1.
</event>
<event>
 5   0  0.7776070E-02  0.4995274E+03  0.7818609E-02  0.1013902E+00
        2   -1    0    0  501    0  0.00000000000E+00  0.00000000000E+00  0.29656755504E+03  0.29656755505E+03  0.25500000920E-02 0. -1.
       -2   -1    0    0    0  501  0.00000000000E+00  0.00000000000E+00 -0.21034633763E+03  0.21034633765E+03  0.25500000920E-02 0.  1.
    10030    2    1    2    0    0  0.00000000000E+00  0.00000000000E+00  0.86221217411E+02  0.50691389270E+03  0.49952737290E+03 0.  0.
        4    1    3    3  502    0 -0.17504325474E+01 -0.24179089420E+03 -0.20379593011E+02  0.24265786871E+03  0.12699999809E+01 0.  1.
       -4    1    3    3    0  502  0.17504325474E+01  0.24179089420E+03  0.10660081042E+03  0.26425602399E+03  0.12699999809E+01 0. -1.
</event>
<event>
 5   0  0.4803890E-02  0.4998986E+03  0.7818609E-02  0.1013805E+00
       -1   -1    0    0    0  501  0.00000000000E+00  0.00000000000E+00  0.36608465341E+03  0.36608465344E+03  0.50400001928E-02 0.  1.
        1   -1    0    0  501    0  0.00000000000E+00  0.00000000000E+00 -0.17065628310E+03  0.17065628318E+03  0.50400001928E-02 0. -1.
    10030    2    1    2    0    0  0.00000000000E+00  0.00000000000E+00  0.19542837030E+03  0.53674093662E+03  0.49989857484E+03 0.  0.
        5    1    3    3  502    0  0.23432021526E+03 -0.70104595795E+02  0.15279758048E+03  0.28842643469E+03  0.46999998093E+01 0.  1.
       -5    1    3    3    0  502 -0.23432021526E+03  0.70104595795E+02  0.42630789826E+02  0.24831450193E+03  0.46999998093E+01 0. -1.
</event>
<event>
 5   0  0.5191358E-02  0.4984194E+03  0.7818609E-02  0.1014192E+00
        1   -1    0    0  501    0  0.00000000000E+00  0.00000000000E+00  0.20346578796E+03  0.20346578802E+03  0.50400001928E-02 0. -1.
       -1   -1    0    0    0  501  0.00000000000E+00  0.00000000000E+00 -0.30523794504E+03  0.30523794508E+03  0.50400001928E-02 0.  1.
    10030    2    1    2    0    0  0.00000000000E+00  0.00000000000E+00 -0.10177215708E+03  0.50870373310E+03  0.49841941788E+03 0.  0.
        4    1    3    3  502    0  0.29482069023E+02 -0.15993255127E+02  0.20114826652E+03  0.20392943541E+03  0.12699999809E+01 0. -1.
       -4    1    3    3    0  502 -0.29482069023E+02  0.15993255127E+02 -0.30292042360E+03  0.30477429769E+03  0.12699999809E+01 0.  1.
</event>
<event>
 5   0  0.4865501E-02  0.5007249E+03  0.7818609E-02  0.1013590E+00
       -1   -1    0    0    0  501  0.00000000000E+00  0.00000000000E+00  0.16825280807E+03  0.16825280815E+03  0.50400001928E-02 0.  1.
        1   -1    0    0  501    0  0.00000000000E+00  0.00000000000E+00 -0.37254267288E+03  0.37254267291E+03  0.50400001928E-02 0. -1.
    10030    2    1    2    0    0  0.00000000000E+00  0.00000000000E+00 -0.20428986480E+03  0.54079548106E+03  0.50072487802E+03 0.  0.
        2    1    3    3  502    0 -0.45883143203E+02 -0.17185142927E+03 -0.29243536180E+03  0.34228148856E+03  0.25500000920E-02 0. -1.
       -2    1    3    3    0  502  0.45883143203E+02  0.17185142927E+03  0.88145496995E+02  0.19851399250E+03  0.25500000920E-02 0.  1.
</event>
<event>
 5   0  0.8208720E-02  0.4943691E+03  0.7818609E-02  0.1015259E+00
        2   -1    0    0  501    0  0.00000000000E+00  0.00000000000E+00  0.46023906888E+03  0.46023906889E+03  0.25500000920E-02 0. -1.
       -2   -1    0    0    0  501  0.00000000000E+00  0.00000000000E+00 -0.13275755240E+03  0.13275755243E+03  0.25500000920E-02 0.  1.
    10030    2    1    2    0    0  0.00000000000E+00  0.00000000000E+00  0.32748151648E+03  0.59299662132E+03  0.49436914270E+03 0.  0.
        3    1    3    3  502    0  0.53134129439E+02  0.36551606243E+01 -0.12579322448E+03  0.13660359233E+03  0.10100000352E+00 0.  1.
       -3    1    3    3    0  502 -0.53134129439E+02 -0.36551606243E+01  0.45327474097E+03  0.45639302899E+03  0.10100000352E+00 0. -1.
</event>
<event>
 5   0  0.7776070E-02  0.4908110E+03  0.7818609E-02  0.1016206E+00
       -2   -1    0    0    0  501  0.00000000000E+00  0.00000000000E+00  0.13034360457E+03  0.13034360460E+03  0.25500000920E-02 0.  1.
        2   -1    0    0  501    0  0.00000000000E+00  0.00000000000E+00 -0.46203915781E+03  0.46203915782E+03  0.25500000920E-02 0. -1.
    10030    2    1    2    0    0  0.00000000000E+00  0.00000000000E+00 -0.33169555324E+03  0.59238276242E+03  0.49081095869E+03 0.  0.
        4    1    3    3  502    0 -0.14883677436E+03  0.14237454194E+03 -0.32687159499E+03  0.38635417443E+03  0.12699999809E+01 0. -1.
       -4    1    3    3    0  502  0.14883677436E+03 -0.14237454194E+03 -0.48239582511E+01  0.20602858798E+03  0.12699999809E+01 0.  1.
</event>
<event>
 5   0  0.7881060E-02  0.4966499E+03  0.7818609E-02  0.1014657E+00
       -2   -1    0    0    0  501  0.00000000000E+00  0.00000000000E+00  0.79519545030E+02  0.79519545071E+02  0.25500000920E-02 0.  1.
        2   -1    0    0  501    0  0.00000000000E+00  0.00000000000E+00 -0.77547327952E+03  0.77547327952E+03  0.25500000920E-02 0. -1.
    10030    2    1    2    0    0  0.00000000000E+00  0.00000000000E+00 -0.69595373449E+03  0.85499282459E+03  0.49664990643E+03 0.  0.
        1    1    3    3  502    0  0.45371553167E+02 -0.12280498474E+03  0.15282814850E+02  0.13180746021E+03  0.50400001928E-02 0.  1.
       -1    1    3    3    0  502 -0.45371553167E+02  0.12280498474E+03 -0.71123654934E+03  0.72318536438E+03  0.50400001928E-02 0. -1.
</event>
<event>
 5   0  0.8208720E-02  0.4917146E+03  0.7818609E-02  0.1015964E+00
        2   -1    0    0  501    0  0.00000000000E+00  0.00000000000E+00  0.19694007358E+03  0.19694007360E+03  0.25500000920E-02 0. -1.
       -2   -1    0    0    0  501  0.00000000000E+00  0.00000000000E+00 -0.30692486715E+03  0.30692486716E+03  0.25500000920E-02 0.  1.
    10030    2    1    2    0    0  0.00000000000E+00  0.00000000000E+00 -0.10998479357E+03  0.50386494076E+03  0.49171457545E+03 0.  0.
        3    1    3    3  502    0  0.15932350220E+03  0.18664483295E+03 -0.39603865933E+02  0.24857342661E+03  0.10100000352E+00 0. -1.
       -3    1    3    3    0  502 -0.15932350220E+03 -0.18664483295E+03 -0.70380927633E+02  0.25529151415E+03  0.10100000352E+00 0.  1.
</event>
<event>
 5   0  0.4803890E-02  0.5067799E+03  0.7818609E-02  0.1012024E+00
        1   -1    0    0  501    0  0.00000000000E+00  0.00000000000E+00  0.42229930056E+03  0.42229930059E+03  0.50400001928E-02 0.  1.
       -1   -1    0    0    0  501  0.00000000000E+00  0.00000000000E+00 -0.15204020509E+03  0.15204020518E+03  0.50400001928E-02 0. -1.
    10030    2    1    2    0    0  0.00000000000E+00  0.00000000000E+00  0.27025909546E+03  0.57433950576E+03  0.50677992186E+03 0.  0.
        5    1    3    3  502    0  0.70107702452E+02 -0.13863774577E+03  0.36193025857E+03  0.39389226517E+03  0.46999998093E+01 0.  1.
       -5    1    3    3    0  502 -0.70107702452E+02  0.13863774577E+03 -0.91671163106E+02  0.18044724060E+03  0.46999998093E+01 0. -1.
</event>
<event>
 5   0  0.5191358E-02  0.5013153E+03  0.7818609E-02  0.1013436E+00
       -1   -1    0    0    0  501  0.00000000000E+00  0.00000000000E+00  0.13525785171E+03  0.13525785180E+03  0.50400001928E-02 0.  1.
        1   -1    0    0  501    0  0.00000000000E+00  0.00000000000E+00 -0.46451464410E+03  0.46451464413E+03  0.50400001928E-02 0. -1.
    10030    2    1    2    0    0  0.00000000000E+00  0.00000000000E+00 -0.32925679240E+03  0.59977249593E+03  0.50131528157E+03 0.  0.
        4    1    3    3  502    0  0.16461946555E+03  0.18509931504E+03 -0.21044145184E+03  0.32503621708E+03  0.12699999809E+01 0. -1.
       -4    1    3    3    0  502 -0.16461946555E+03 -0.18509931504E+03 -0.11881534056E+03  0.27473627885E+03  0.12699999809E+01 0.  1.
</event>
<event>
 5   0  0.4884478E-02  0.5064397E+03  0.7818609E-02  0.1012112E+00
        1   -1    0    0  501    0  0.00000000000E+00  0.00000000000E+00  0.10221726718E+03  0.10221726731E+03  0.50400001928E-02 0. -1.
       -1   -1    0    0    0  501  0.00000000000E+00  0.00000000000E+00 -0.62729402355E+03  0.62729402357E+03  0.50400001928E-02 0.  1.
    10030    2    1    2    0    0  0.00000000000E+00  0.00000000000E+00 -0.52507675636E+03  0.72951129088E+03  0.50643965429E+03 0.  0.
        3    1    3    3  502    0  0.22675566569E+01  0.12399912428E+03 -0.58055085780E+03  0.59364992490E+03  0.10100000352E+00 0.  1.
       -3    1    3    3    0  502 -0.22675566569E+01 -0.12399912428E+03  0.55474101437E+02  0.13586136598E+03  0.10100000352E+00 0. -1.
</event>
<event>
 5   0  0.5038436E-02  0.5024976E+03  0.7818609E-02  0.1013129E+00
        1   -1    0    0  501    0  0.00000000000E+00  0.00000000000E+00  0.20617263970E+03  0.20617263976E+03  0.50400001928E-02 0.  1.
       -1   -1    0    0    0  501  0.00000000000E+00  0.00000000000E+00 -0.30618012472E+03  0.30618012476E+03  0.50400001928E-02 0. -1.
    10030    2    1    2    0    0  0.00000000000E+00  0.00000000000E+00 -0.10000748503E+03  0.51235276452E+03  0.50249762015E+03 0.  0.
        1    1    3    3  502    0 -0.13318806773E+03 -0.20885539839E+03 -0.71518042543E+01  0.24781199961E+03  0.50400001928E-02 0.  1.
       -1    1    3    3    0  502  0.13318806773E+03  0.20885539839E+03 -0.92855680771E+02  0.26454076491E+03  0.50400001928E-02 0. -1.
</event>
<event>
 5   0  0.7776070E-02  0.5024870E+03  0.7818609E-02  0.1013132E+00
       -2   -1    0    0    0  501  0.00000000000E+00  0.00000000000E+00  0.51734559037E+02  0.51734559100E+02  0.25500000920E-02 0.  1.
        2   -1    0    0  501    0  0.00000000000E+00  0.00000000000E+00 -0.12201380317E+04  0.12201380317E+04  0.25500000920E-02 0. -1.
    10030    2    1    2    0    0  0.00000000000E+00  0.00000000000E+00 -0.11684034727E+04  0.12718725908E+04  0.50248702701E+03 0.  0.
        4    1    3    3  502    0 -0.27661947835E+02 -0.40957189224E+02 -0.12077039752E+04  0.12087155080E+04  0.12699999809E+01 0. -1.
       -4    1    3    3    0  502  0.27661947835E+02  0.40957189224E+02  0.39300502533E+02  0.63157082789E+02  0.12699999809E+01 0.  1.
</event>
<event>
 5   0  0.7881060E-02  0.4955454E+03  0.7818609E-02  0.1014948E+00
        2   -1    0    0  501    0  0.00000000000E+00  0.00000000000E+00  0.24591567733E+03  0.24591567735E+03  0.25500000920E-02 0.  1.
       -2   -1    0    0    0  501  0.00000000000E+00  0.00000000000E+00 -0.24964370472E+03  0.24964370473E+03  0.25500000920E-02 0. -1.
    10030    2    1    2    0    0  0.00000000000E+00  0.00000000000E+00 -0.37280273858E+01  0.49555938208E+03  0.49554535915E+03 0.  0.
        1    1    3    3  502    0 -0.54960695191E+02 -0.21468490548E+03  0.10895885906E+03  0.24694598529E+03  0.50400001928E-02 0.  1.
       -1    1    3    3    0  502  0.54960695191E+02  0.21468490548E+03 -0.11268688645E+03  0.24861339678E+03  0.50400001928E-02 0. -1.
</event>
<event>
 5   0  0.7698747E-02  0.4995163E+03  0.7818609E-02  0.1013905E+00
       -2   -1    0    0    0  501  0.00000000000E+00  0.00000000000E+00  0.52395418401E+02  0.52395418463E+02  0.25500000920E-02 0.  1.
        2   -1    0    0  501    0  0.00000000000E+00  0.00000000000E+00 -0.11905456066E+04  0.11905456066E+04  0.25500000920E-02 0. -1.
    10030    2    1    2    0    0  0.00000000000E+00  0.00000000000E+00 -0.11381501882E+04  0.12429410251E+04  0.49951630693E+03 0.  0.
        2    1    3    3  502    0 -0.64628661498E+02  0.66054296518E+02 -0.11464391630E+04  0.11501577233E+04  0.25500000920E-02 0. -1.
       -2    1    3    3    0  502  0.64628661498E+02 -0.66054296518E+02  0.82889748165E+01  0.92783301760E+02  0.25500000920E-02 0.  1.
</event>
<event>
 5   0  0.4884478E-02  0.4924593E+03  0.7818609E-02  0.1015766E+00
        1   -1    0    0  501    0  0.00000000000E+00  0.00000000000E+00  0.24508462907E+03  0.24508462912E+03  0.50400001928E-02 0. -1.
       -1   -1    0    0    0  501  0.00000000000E+00  0.00000000000E+00 -0.24738000976E+03  0.24738000981E+03  0.50400001928E-02 0.  1.
    10030    2    1    2    0    0  0.00000000000E+00  0.00000000000E+00 -0.22953806901E+01  0.49246463892E+03  0.49245928950E+03 0.  0.
        3    1    3    3  502    0 -0.20971009512E+03 -0.92573313144E+02 -0.91042412178E+02  0.24665131931E+03  0.10100000352E+00 0. -1.
       -3    1    3    3    0  502  0.20971009512E+03  0.92573313144E+02  0.88747031488E+02  0.24581331961E+03  0.10100000352E+00 0.  1.
</event>
<event>
 5   0  0.8208720E-02  0.5034961E+03  0.7818609E-02  0.1012870E+00
        2   -1    0    0  501    0  0.00000000000E+00  0.00000000000E+00  0.72893629587E+03  0.72893629587E+03  0.25500000920E-02 0. -1.
       -2   -1    0    0    0  501  0.00000000000E+00  0.00000000000E+00 -0.86944602824E+02  0.86944602862E+02  0.25500000920E-02 0.  1.
    10030    2    1    2    0    0  0.00000000000E+00  0.00000000000E+00  0.64199169304E+03  0.81588089873E+03  0.50349608438E+03 0.  0.
        3    1    3    3  502    0 -0.67106283153E+02 -0.20320014091E+03  0.53586967861E+03  0.57701808737E+03  0.10100000352E+00 0. -1.
       -3    1    3    3    0  502  0.67106283153E+02  0.20320014091E+03  0.10612201443E+03  0.23886281136E+03  0.10100000352E+00 0.  1.
</event>
<event>
 5   0  0.7933103E-02  0.5027995E+03  0.7818609E-02  0.1013051E+00
        2   -1    0    0  501    0  0.00000000000E+00  0.00000000000E+00  0.17409179638E+03  0.17409179640E+03  0.25500000920E-02 0. -1.
       -2   -1    0    0    0  501  0.00000000000E+00  0.00000000000E+00 -0.36303740716E+03  0.36303740717E+03  0.25500000920E-02 0.  1.
    10030    2    1    2    0    0  0.00000000000E+00  0.00000000000E+00 -0.18894561078E+03  0.53712920356E+03  0.50279950028E+03 0.  0.
        5    1    3    3  502    0 -0.22673888478E+02  0.75806814972E+02 -0.34933911407E+03  0.35821876700E+03  0.46999998093E+01 0.  1.
       -5    1    3    3    0  502  0.22673888478E+02 -0.75806814972E+02  0.16039350329E+03  0.17891043656E+03  0.46999998093E+01 0. -1.
</event>
<event>
 5   0  0.7881060E-02  0.4985035E+03  0.7818609E-02  0.1014170E+00
       -2   -1    0    0    0  501  0.00000000000E+00  0.00000000000E+00  0.37463183970E+02  0.37463184056E+02  0.25500000920E-02 0. -1.
        2   -1    0    0  501    0  0.00000000000E+00  0.00000000000E+00 -0.16583332917E+04  0.16583332917E+04  0.25500000920E-02 0.  1.
    10030    2    1    2    0    0  0.00000000000E+00  0.00000000000E+00 -0.16208701078E+04  0.16957964758E+04  0.49850354168E+03 0.  0.
        1    1    3    3  502    0 -0.72379876092E+02 -0.44198330519E+02 -0.16077437708E+04  0.16099789972E+04  0.50400001928E-02 0.  1.
       -1    1    3    3    0  502  0.72379876092E+02  0.44198330519E+02 -0.13126336971E+02  0.85817478589E+02  0.50400001928E-02 0. -1.
</event>
<event>
 5   0  0.5038436E-02  0.5093983E+03  0.7818609E-02  0.1011355E+00
       -1   -1    0    0    0  501  0.00000000000E+00  0.00000000000E+00  0.34131421414E+03  0.34131421417E+03  0.50400001928E-02 0.  1.
        1   -1    0    0  501    0  0.00000000000E+00  0.00000000000E+00 -0.19006433182E+03  0.19006433188E+03  0.50400001928E-02 0. -1.
    10030    2    1    2    0    0  0.00000000000E+00  0.00000000000E+00  0.15124988232E+03  0.53137854606E+03  0.50939830419E+03 0.  0.
        1    1    3    3  502    0  0.86390179868E+02  0.79805495882E+02 -0.16004252482E+03  0.19860964258E+03  0.50400001928E-02 0. -1.
       -1    1    3    3    0  502 -0.86390179868E+02 -0.79805495882E+02  0.31129240714E+03  0.33276890348E+03  0.50400001928E-02 0.  1.
</event>
<event>
 5   0  0.5191358E-02  0.4975011E+03  0.7818609E-02  0.1014433E+00
        1   -1    0    0  501    0  0.00000000000E+00  0.00000000000E+00  0.33713520878E+03  0.33713520882E+03  0.50400001928E-02 0. -1.
       -1   -1    0    0    0  501  0.00000000000E+00  0.00000000000E+00 -0.18353712527E+03  0.18353712534E+03  0.50400001928E-02 0.  1.
    10030    2    1    2    0    0  0.00000000000E+00  0.00000000000E+00  0.15359808351E+03  0.52067233416E+03  0.49750106362E+03 0.  0.
        4    1    3    3  502    0 -0.24337825042E+03 -0.31282442729E+02  0.34111465857E+02  0.24774335310E+03  0.12699999809E+01 0. -1.
       -4    1    3    3    0  502  0.24337825042E+03  0.31282442729E+02  0.11948661765E+03  0.27292898106E+03  0.12699999809E+01 0.  1.
</event>
<event>
 5   0  0.4884478E-02  0.4981332E+03  0.7818609E-02  0.1014267E+00
        1   -1    0    0  501    0  0.00000000000E+00  0.00000000000E+00  0.12972796057E+03  0.12972796067E+03  0.50400001928E-02 0. -1.
       -1   -1    0    0    0  501  0.00000000000E+00  0.00000000000E+00 -0.47818662769E+03  0.47818662772E+03  0.50400001928E-02 0.  1.
    10030    2    1    2    0    0  0.00000000000E+00  0.00000000000E+00 -0.34845866712E+03  0.60791458839E+03  0.49813321922E+03 0.  0.
        3    1    3    3  502    0 -0.21689681331E+03  0.37840140635E+02 -0.31632991921E+03  0.38540982325E+03  0.10100000352E+00 0.  1.
       -3    1    3    3    0  502  0.21689681331E+03 -0.37840140635E+02 -0.32128747908E+02  0.22250476514E+03  0.10100000352E+00 0. -1.
</event>
<event>
 5   0  0.7776070E-02  0.4462798E+03  0.7818609E-02  0.1028837E+00
        2   -1    0    0  501    0  0.00000000000E+00  0.00000000000E+00  0.81999788443E+03  0.81999788443E+03  0.25500000920E-02 0.  1.
       -2   -1    0    0    0  501  0.00000000000E+00  0.00000000000E+00 -0.60721383671E+02  0.60721383724E+02  0.25500000920E-02 0. -1.
    10030    2    1    2    0    0  0.00000000000E+00  0.00000000000E+00  0.75927650076E+03  0.88071926816E+03  0.44627976058E+03 0.  0.
        4    1    3    3  502    0  0.92719394608E+02 -0.20252411380E+03  0.40588542273E+03  0.46298757229E+03  0.12699999809E+01 0.  1.
       -4    1    3    3    0  502 -0.92719394608E+02  0.20252411380E+03  0.35339107802E+03  0.41773169587E+03  0.12699999809E+01 0. -1.
</event>
<event>
 5   0  0.7933103E-02  0.5068207E+03  0.7818609E-02  0.1012014E+00
       -2   -1    0    0    0  501  0.00000000000E+00  0.00000000000E+00  0.31699779462E+02  0.31699779564E+02  0.25500000920E-02 0.  1.
        2   -1    0    0  501    0  0.00000000000E+00  0.00000000000E+00 -0.20257805556E+04  0.20257805556E+04  0.25500000920E-02 0. -1.
    10030    2    1    2    0    0  0.00000000000E+00  0.00000000000E+00 -0.19940807762E+04  0.20574803352E+04  0.50682066635E+03 0.  0.
        5    1    3    3  502    0  0.76301010541E+02 -0.49002034747E+02 -0.36610903582E+02  0.97905525269E+02  0.46999998093E+01 0.  1.
       -5    1    3    3    0  502 -0.76301010541E+02  0.49002034747E+02 -0.19574698726E+04  0.19595748099E+04  0.46999998093E+01 0. -1.
</event>
<event>
 5   0  0.7698747E-02  0.5003176E+03  0.7818609E-02  0.1013696E+00
        2   -1    0    0  501    0  0.00000000000E+00  0.00000000000E+00  0.28235965898E+03  0.28235965899E+03  0.25500000920E-02 0.  1.
       -2   -1    0    0    0  501  0.00000000000E+00  0.00000000000E+00 -0.22163016949E+03  0.22163016950E+03  0.25500000920E-02 0. -1.
    10030    2    1    2    0    0  0.00000000000E+00  0.00000000000E+00  0.60729489487E+02  0.50398982849E+03  0.50031757547E+03 0.  0.
        2    1    3    3  502    0 -0.99157186643E+02  0.21448726479E+03  0.11308007264E+03  0.26196190039E+03  0.25500000920E-02 0.  1.
       -2    1    3    3    0  502  0.99157186643E+02 -0.21448726479E+03 -0.52350583155E+02  0.24202792810E+03  0.25500000920E-02 0. -1.
</event>
<event>
 5   0  0.8208720E-02  0.4943466E+03  0.7818609E-02  0.1015265E+00
        2   -1    0    0  501    0  0.00000000000E+00  0.00000000000E+00  0.53920267914E+03  0.53920267915E+03  0.25500000920E-02 0. -1.
       -2   -1    0    0    0  501  0.00000000000E+00  0.00000000000E+00 -0.11330551814E+03  0.11330551817E+03  0.25500000920E-02 0.  1.
    10030    2    1    2    0    0  0.00000000000E+00  0.00000000000E+00  0.42589716100E+03  0.65250819732E+03  0.49434659483E+03 0.  0.
        3    1    3    3  502    0 -0.98478597612E-02  0.14802524178E+03  0.47422735726E+03  0.49679278263E+03  0.10100000352E+00 0. -1.
       -3    1    3    3    0  502  0.98478597612E-02 -0.14802524178E+03 -0.48330196257E+02  0.15571541469E+03  0.10100000352E+00 0.  1.
</event>
<event>
 5   0  0.7698747E-02  0.4965244E+03  0.7818609E-02  0.1014690E+00
       -2   -1    0    0    0  501  0.00000000000E+00  0.00000000000E+00  0.10483557489E+04  0.10483557489E+04  0.25500000920E-02 0.  1.
        2   -1    0    0  501    0  0.00000000000E+00  0.00000000000E+00 -0.58791227480E+02  0.58791227535E+02  0.25500000920E-02 0. -1.
    10030    2    1    2    0    0  0.00000000000E+00  0.00000000000E+00  0.98956452147E+03  0.11071469765E+04  0.49652440564E+03 0.  0.
        2    1    3    3  502    0 -0.19069362574E+03 -0.11294344811E+03  0.74421874498E+03  0.77651904147E+03  0.25500000920E-02 0.  1.
       -2    1    3    3    0  502  0.19069362574E+03  0.11294344811E+03  0.24534577648E+03  0.33062793502E+03  0.25500000920E-02 0. -1.
</event>
<event>
 5   0  0.8208720E-02  0.5018726E+03  0.7818609E-02  0.1013291E+00
       -2   -1    0    0    0  501  0.00000000000E+00  0.00000000000E+00  0.26753635390E+03  0.26753635392E+03  0.25500000920E-02 0.  1.
        2   -1    0    0  501    0  0.00000000000E+00  0.00000000000E+00 -0.23536619844E+03  0.23536619846E+03  0.25500000920E-02 0. -1.
    10030    2    1    2    0    0  0.00000000000E+00  0.00000000000E+00  0.32170155460E+02  0.50290255237E+03  0.50187255183E+03 0.  0.
        3    1    3    3  502    0  0.55404058862E+02 -0.12072636791E+02 -0.22886219079E+03  0.23578225309E+03  0.10100000352E+00 0. -1.
       -3    1    3    3    0  502 -0.55404058862E+02  0.12072636791E+02  0.26103234625E+03  0.26712029928E+03  0.10100000352E+00 0.  1.
</event>
<event>
 5   0  0.8208720E-02  0.5021120E+03  0.7818609E-02  0.1013229E+00
        2   -1    0    0  501    0  0.00000000000E+00  0.00000000000E+00  0.13375923160E+04  0.13375923160E+04  0.25500000920E-02 0.  1.
       -2   -1    0    0    0  501  0.00000000000E+00  0.00000000000E+00 -0.47121325649E+02  0.47121325718E+02  0.25500000920E-02 0. -1.
    10030    2    1    2    0    0  0.00000000000E+00  0.00000000000E+00  0.12904709904E+04  0.13847136417E+04  0.50211203195E+03 0.  0.
        3    1    3    3  502    0 -0.68031711274E+02  0.24020763429E+03  0.71825632064E+03  0.76040789952E+03  0.10100000352E+00 0.  1.
       -3    1    3    3    0  502  0.68031711274E+02 -0.24020763429E+03  0.57221466971E+03  0.62430574220E+03  0.10100000352E+00 0. -1.
</event>
<event>
 5   0  0.7776070E-02  0.5034334E+03  0.7818609E-02  0.1012887E+00
       -2   -1    0    0    0  501  0.00000000000E+00  0.00000000000E+00  0.19884745709E+03  0.19884745710E+03  0.25500000920E-02 0.  1.
        2   -1    0    0  501    0  0.00000000000E+00  0.00000000000E+00 -0.31864277306E+03  0.31864277307E+03  0.25500000920E-02 0. -1.
    10030    2    1    2    0    0  0.00000000000E+00  0.00000000000E+00 -0.11979531597E+03  0.51749023017E+03  0.50343343214E+03 0.  0.
        4    1    3    3  502    0  0.64914353102E+02 -0.31537658858E+01  0.19007102818E+03  0.20087913812E+03  0.12699999809E+01 0.  1.
       -4    1    3    3    0  502 -0.64914353102E+02  0.31537658858E+01 -0.30986634415E+03  0.31661109206E+03  0.12699999809E+01 0. -1.
</event>
<event>
 5   0  0.4884478E-02  0.4999547E+03  0.7818609E-02  0.1013791E+00
       -1   -1    0    0    0  501  0.00000000000E+00  0.00000000000E+00  0.98142968656E+02  0.98142968786E+02  0.50400001928E-02 0. -1.
        1   -1    0    0  501    0  0.00000000000E+00  0.00000000000E+00 -0.63671055219E+03  0.63671055221E+03  0.50400001928E-02 0.  1.
    10030    2    1    2    0    0  0.00000000000E+00  0.00000000000E+00 -0.53856758353E+03  0.73485352099E+03  0.49995465323E+03 0.  0.
        3    1    3    3  502    0  0.11268320454E+03  0.13973064176E+03 -0.13571713061E+02  0.18001766144E+03  0.10100000352E+00 0. -1.
       -3    1    3    3    0  502 -0.11268320454E+03 -0.13973064176E+03 -0.52499587047E+03  0.55483585955E+03  0.10100000352E+00 0.  1.
</event>
<event>
 5   0  0.4865501E-02  0.5026721E+03  0.7818609E-02  0.1013084E+00
        1   -1    0    0  501    0  0.00000000000E+00  0.00000000000E+00  0.40536231715E+03  0.40536231718E+03  0.50400001928E-02 0.  1.
       -1   -1    0    0    0  501  0.00000000000E+00  0.00000000000E+00 -0.15583544394E+03  0.15583544402E+03  0.50400001928E-02 0. -1.
    10030    2    1    2    0    0  0.00000000000E+00  0.00000000000E+00  0.24952687321E+03  0.56119776120E+03  0.50267212647E+03 0.  0.
        2    1    3    3  502    0  0.54926585323E+02  0.14366843774E+02  0.39810959319E+03  0.40213751898E+03  0.25500000920E-02 0.  1.
       -2    1    3    3    0  502 -0.54926585323E+02 -0.14366843774E+02 -0.14858271998E+03  0.15906024223E+03  0.25500000920E-02 0. -1.
</event>
<event>
 5   0  0.4865501E-02  0.4990860E+03  0.7818609E-02  0.1014018E+00
       -1   -1    0    0    0  501  0.00000000000E+00  0.00000000000E+00  0.32371264393E+03  0.32371264396E+03  0.50400001928E-02 0. -1.
        1   -1    0    0  501    0  0.00000000000E+00  0.00000000000E+00 -0.19236725311E+03  0.19236725318E+03  0.50400001928E-02 0.  1.
    10030    2    1    2    0    0  0.00000000000E+00  0.00000000000E+00  0.13134539081E+03  0.51607989715E+03  0.49908601318E+03 0.  0.
        2    1    3    3  502    0 -0.67414176598E+02  0.54568854994E+01 -0.18270875027E+03  0.19482539937E+03  0.25500000920E-02 0.  1.
       -2    1    3    3    0  502  0.67414176598E+02 -0.54568854994E+01  0.31405414108E+03  0.32125449778E+03  0.25500000920E-02 0. -1.
</event>
<event>
 5   0  0.4884478E-02  0.5109839E+03  0.7818609E-02  0.1010951E+00
        1   -1    0    0  501    0  0.00000000000E+00  0.00000000000E+00  0.86170776421E+02  0.86170776568E+02  0.50400001928E-02 0. -1.
       -1   -1    0    0    0  501  0.00000000000E+00  0.00000000000E+00 -0.75752049694E+03  0.75752049695E+03  0.50400001928E-02 0.  1.
    10030    2    1    2    0    0  0.00000000000E+00  0.00000000000E+00 -0.67134972052E+03  0.84369127352E+03  0.51098387233E+03 0.  0.
        3    1    3    3  502    0 -0.11960400666E+03 -0.22573817507E+03 -0.32965856954E+03  0.41705829900E+03  0.10100000352E+00 0.  1.
       -3    1    3    3    0  502  0.11960400666E+03  0.22573817507E+03 -0.34169115097E+03  0.42663297452E+03  0.10100000352E+00 0. -1.
</event>
<event>
 5   0  0.7881060E-02  0.4877614E+03  0.7818609E-02  0.1017024E+00
        2   -1    0    0  501    0  0.00000000000E+00  0.00000000000E+00  0.14671918377E+04  0.14671918377E+04  0.25500000920E-02 0. -1.
       -2   -1    0    0    0  501  0.00000000000E+00  0.00000000000E+00 -0.40538518931E+02  0.40538519011E+02  0.25500000920E-02 0.  1.
    10030    2    1    2    0    0  0.00000000000E+00  0.00000000000E+00  0.14266533188E+04  0.15077303567E+04  0.48776135210E+03 0.  0.
        1    1    3    3  502    0 -0.33061989077E+02  0.60965179403E+02  0.14360675581E+04  0.14377412422E+04  0.50400001928E-02 0. -1.
       -1    1    3    3    0  502  0.33061989077E+02 -0.60965179403E+02 -0.94142392940E+01  0.69989114498E+02  0.50400001928E-02 0.  1.
</event>
<event>
 5   0  0.4884478E-02  0.4976151E+03  0.7818609E-02  0.1014403E+00
        1   -1    0    0  501    0  0.00000000000E+00  0.00000000000E+00  0.19928597033E+03  0.19928597039E+03  0.50400001928E-02 0.  1.
       -1   -1    0    0    0  501  0.00000000000E+00  0.00000000000E+00 -0.31063499390E+03  0.31063499394E+03  0.50400001928E-02 0. -1.
    10030    2    1    2    0    0  0.00000000000E+00  0.00000000000E+00 -0.11134902357E+03  0.50992096433E+03  0.49761509705E+03 0.  0.
        3    1    3    3  502    0  0.19797504778E+03 -0.79237610319E+02  0.75684753743E+02  0.22627618209E+03  0.10100000352E+00 0. -1.
       -3    1    3    3    0  502 -0.19797504778E+03  0.79237610319E+02 -0.18703377732E+03  0.28364478224E+03  0.10100000352E+00 0.  1.
</event>
<event>
 5   0  0.8208720E-02  0.5050885E+03  0.7818609E-02  0.1012459E+00
       -2   -1    0    0    0  501  0.00000000000E+00  0.00000000000E+00  0.23895792870E+03  0.23895792871E+03  0.25500000920E-02 0. -1.
        2   -1    0    0  501    0  0.00000000000E+00  0.00000000000E+00 -0.26690306369E+03  0.26690306370E+03  0.25500000920E-02 0.  1.
    10030    2    1    2    0    0  0.00000000000E+00  0.00000000000E+00 -0.27945134993E+02  0.50586099242E+03  0.50508852004E+03 0.  0.
        3    1    3    3  502    0 -0.14495218176E+03  0.11781057219E+03  0.15625245000E+03  0.24352680396E+03  0.10100000352E+00 0. -1.
       -3    1    3    3    0  502  0.14495218176E+03 -0.11781057219E+03 -0.18419758499E+03  0.26233418846E+03  0.10100000352E+00 0.  1.
</event>
<event>
 5   0  0.5038436E-02  0.4984121E+03  0.7818609E-02  0.1014194E+00
       -1   -1    0    0    0  501  0.00000000000E+00  0.00000000000E+00  0.38894210759E+03  0.38894210762E+03  0.50400001928E-02 0. -1.
        1   -1    0    0  501    0  0.00000000000E+00  0.00000000000E+00 -0.15967328627E+03  0.15967328635E+03  0.50400001928E-02 0.  1.
    10030    2    1    2    0    0  0.00000000000E+00  0.00000000000E+00  0.22926882132E+03  0.54861539397E+03  0.49841213676E+03 0.  0.
        1    1    3    3  502    0  0.69623906090E+02  0.23013880042E+03  0.42519535421E+02  0.24417056881E+03  0.50400001928E-02 0.  1.
       -1    1    3    3    0  502 -0.69623906090E+02 -0.23013880042E+03  0.18674928590E+03  0.30444482516E+03  0.50400001928E-02 0. -1.
</event>
<event>
 5   0  0.7776070E-02  0.5076376E+03  0.7818609E-02  0.1011804E+00
       -2   -1    0    0    0  501  0.00000000000E+00  0.00000000000E+00  0.46532359310E+03  0.46532359311E+03  0.25500000920E-02 0.  1.
        2   -1    0    0  501    0  0.00000000000E+00  0.00000000000E+00 -0.13844984676E+03  0.13844984679E+03  0.25500000920E-02 0. -1.
    10030    2    1    2    0    0  0.00000000000E+00  0.00000000000E+00  0.32687374634E+03  0.60377343990E+03  0.50763758793E+03 0.  0.
        4    1    3    3  502    0 -0.73781297407E+02 -0.15722940717E+02 -0.12480408467E+03  0.14583745459E+03  0.12699999809E+01 0. -1.
       -4    1    3    3    0  502  0.73781297407E+02  0.15722940717E+02  0.45167783101E+03  0.45793598530E+03  0.12699999809E+01 0.  1.
</event>
<event>
 5   0  0.7776070E-02  0.5003527E+03  0.7818609E-02  0.1013687E+00
       -2   -1    0    0    0  501  0.00000000000E+00  0.00000000000E+00  0.12747670305E+03  0.12747670307E+03  0.25500000920E-02 0. -1.
        2   -1    0    0  501    0  0.00000000000E+00  0.00000000000E+00 -0.49097763607E+03  0.49097763608E+03  0.25500000920E-02 0.  1.
    10030    2    1    2    0    0  0.00000000000E+00  0.00000000000E+00 -0.36350093302E+03  0.61845433915E+03  0.50035271690E+03 0.  0.
        4    1    3    3  502    0 -0.10787483873E+03  0.22552422032E+03 -0.19337464402E+03  0.31605936251E+03  0.12699999809E+01 0. -1.
       -4    1    3    3    0  502  0.10787483873E+03 -0.22552422032E+03 -0.17012628900E+03  0.30239497663E+03  0.12699999809E+01 0.  1.
</event>
<event>
 5   0  0.4803890E-02  0.4485478E+03  0.7818609E-02  0.1028156E+00
       -1   -1    0    0    0  501  0.00000000000E+00  0.00000000000E+00  0.29769441369E+03  0.29769441373E+03  0.50400001928E-02 0. -1.
        1   -1    0    0  501    0  0.00000000000E+00  0.00000000000E+00 -0.16896114069E+03  0.16896114077E+03  0.50400001928E-02 0.  1.
    10030    2    1    2    0    0  0.00000000000E+00  0.00000000000E+00  0.12873327300E+03  0.46665555450E+03  0.44854782462E+03 0.  0.
        5    1    3    3  502    0  0.54980714064E+02 -0.21890655892E+02 -0.16063869534E+03  0.17125700036E+03  0.46999998093E+01 0.  1.
       -5    1    3    3    0  502 -0.54980714064E+02  0.21890655892E+02  0.28937196833E+03  0.29539855414E+03  0.46999998093E+01 0. -1.
</event>
<event>
 5   0  0.4884478E-02  0.5011595E+03  0.7818609E-02  0.1013477E+00
        1   -1    0    0  501    0  0.00000000000E+00  0.00000000000E+00  0.10422972554E+04  0.10422972555E+04  0.50400001928E-02 0. -1.
       -1   -1    0    0    0  501  0.00000000000E+00  0.00000000000E+00 -0.60242144110E+02  0.60242144321E+02  0.50400001928E-02 0.  1.
    10030    2    1    2    0    0  0.00000000000E+00  0.00000000000E+00  0.98205511134E+03  0.11025393998E+04  0.50115954183E+03 0.  0.
        3    1    3    3  502    0 -0.20657918211E+03  0.54477150956E+02  0.77911108626E+03  0.80787178029E+03  0.10100000352E+00 0. -1.
       -3    1    3    3    0  502  0.20657918211E+03 -0.54477150956E+02  0.20294402508E+03  0.29466761949E+03  0.10100000352E+00 0.  1.
</event>
<event>
 5   0  0.4865501E-02  0.5017046E+03  0.7818609E-02  0.1013335E+00
        1   -1    0    0  501    0  0.00000000000E+00  0.00000000000E+00  0.21293405398E+03  0.21293405404E+03  0.50400001928E-02 0. -1.
       -1   -1    0    0    0  501  0.00000000000E+00  0.00000000000E+00 -0.29552285517E+03  0.29552285521E+03  0.50400001928E-02 0.  1.
    10030    2    1    2    0    0  0.00000000000E+00  0.00000000000E+00 -0.82588801187E+02  0.50845690925E+03  0.50170461278E+03 0.  0.
        2    1    3    3  502    0 -0.23323010935E+03 -0.35958596501E+02 -0.12751332469E+03  0.26823301912E+03  0.25500000920E-02 0.  1.
       -2    1    3    3    0  502  0.23323010935E+03  0.35958596501E+02  0.44924523498E+02  0.24022389013E+03  0.25500000920E-02 0. -1.
</event>
<event>
 5   0  0.7776070E-02  0.5016272E+03  0.7818609E-02  0.1013355E+00
       -2   -1    0    0    0  501  0.00000000000E+00  0.00000000000E+00  0.50515667302E+02  0.50515667367E+02  0.25500000920E-02 0.  1.
        2   -1    0    0  501    0  0.00000000000E+00  0.00000000000E+00 -0.12453060944E+04  0.12453060944E+04  0.25500000920E-02 0. -1.
    10030    2    1    2    0    0  0.00000000000E+00  0.00000000000E+00 -0.11947904271E+04  0.12958217618E+04  0.50162722573E+03 0.  0.
        4    1    3    3  502    0 -0.58354434517E+02  0.13547500330E+03 -0.73391951000E+02  0.16476258045E+03  0.12699999809E+01 0.  1.
       -4    1    3    3    0  502  0.58354434517E+02 -0.13547500330E+03 -0.11213984761E+04  0.11310591813E+04  0.12699999809E+01 0. -1.
</event>
<event>
 5   0  0.4884478E-02  0.5013436E+03  0.7818609E-02  0.1013429E+00
       -1   -1    0    0    0  501  0.00000000000E+00  0.00000000000E+00  0.94356131847E+02  0.94356131982E+02  0.50400001928E-02 0.  1.
        1   -1    0    0  501    0  0.00000000000E+00  0.00000000000E+00 -0.66594867418E+03  0.66594867420E+03  0.50400001928E-02 0. -1.
    10030    2    1    2    0    0  0.00000000000E+00  0.00000000000E+00 -0.57159254234E+03  0.76030480618E+03  0.50134355870E+03 0.  0.
        3    1    3    3  502    0 -0.21816192136E+03  0.97202134461E+02 -0.17036565903E+03  0.29337236893E+03  0.10100000352E+00 0. -1.
       -3    1    3    3    0  502  0.21816192136E+03 -0.97202134461E+02 -0.40122688330E+03  0.46693243725E+03  0.10100000352E+00 0.  1.
</event>
<event>
 5   0  0.7698747E-02  0.4999829E+03  0.7818609E-02  0.1013783E+00
       -2   -1    0    0    0  501  0.00000000000E+00  0.00000000000E+00  0.40990987376E+02  0.40990987456E+02  0.25500000920E-02 0.  1.
        2   -1    0    0  501    0  0.00000000000E+00  0.00000000000E+00 -0.15246210208E+04  0.15246210208E+04  0.25500000920E-02 0. -1.
    10030    2    1    2    0    0  0.00000000000E+00  0.00000000000E+00 -0.14836300334E+04  0.15656120082E+04  0.49998288403E+03 0.  0.
        2    1    3    3  502    0 -0.18850656590E+03 -0.71367781602E+02 -0.12048671815E+04  0.12216108262E+04  0.25500000920E-02 0.  1.
       -2    1    3    3    0  502  0.18850656590E+03  0.71367781602E+02 -0.27876285194E+03  0.34400118207E+03  0.25500000920E-02 0. -1.
</event>
<event>
 5   0  0.7776070E-02  0.5050124E+03  0.7818609E-02  0.1012479E+00
       -2   -1    0    0    0  501  0.00000000000E+00  0.00000000000E+00  0.79030997280E+02  0.79030997321E+02  0.25500000920E-02 0. -1.
        2   -1    0    0  501    0  0.00000000000E+00  0.00000000000E+00 -0.80676410912E+03  0.80676410912E+03  0.25500000920E-02 0.  1.
    10030    2    1    2    0    0  0.00000000000E+00  0.00000000000E+00 -0.72773311184E+03  0.88579510644E+03  0.50501236473E+03 0.  0.
        4    1    3    3  502    0  0.68443275762E+02 -0.15049304310E+03 -0.69862517527E+03  0.71792157402E+03  0.12699999809E+01 0.  1.
       -4    1    3    3    0  502 -0.68443275762E+02  0.15049304310E+03 -0.29107936567E+02  0.16787353243E+03  0.12699999809E+01 0. -1.
</event>
<event>
 5   0  0.4803890E-02  0.4978362E+03  0.7818609E-02  0.1014345E+00
       -1   -1    0    0    0  501  0.00000000000E+00  0.00000000000E+00  0.12975323124E+03  0.12975323133E+03  0.50400001928E-02 0.  1.
        1   -1    0    0  501    0  0.00000000000E+00  0.00000000000E+00 -0.47752351124E+03  0.47752351126E+03  0.50400001928E-02 0. -1.
    10030    2    1    2    0    0  0.00000000000E+00  0.00000000000E+00 -0.34777028000E+03  0.60727674260E+03  0.49783619238E+03 0.  0.
        5    1    3    3  502    0  0.24485451327E+03 -0.36660739047E+02 -0.14301624027E+03  0.28596062218E+03  0.46999998093E+01 0. -1.
       -5    1    3    3    0  502 -0.24485451327E+03  0.36660739047E+02 -0.20475403973E+03  0.32131612042E+03  0.46999998093E+01 0.  1.
</event>
<event>
 5   0  0.3210875E-02  0.5013478E+03  0.7818609E-02  0.1013428E+00
        4   -1    0    0  501    0  0.00000000000E+00  0.00000000000E+00  0.82469649791E+03  0.82469747578E+03  0.12699999809E+01 0.  1.
       -4   -1    0    0    0  501  0.00000000000E+00  0.00000000000E+00 -0.76188268931E+02  0.76198853158E+02  0.12699999809E+01 0. -1.
    10030    2    1    2    0    0  0.00000000000E+00  0.00000000000E+00  0.74850822897E+03  0.90089632894E+03  0.50134781006E+03 0.  0.
        4    1    3    3  502    0 -0.67511388730E+02 -0.23896169815E+03  0.31264961124E+03  0.39926416456E+03  0.12699999809E+01 0. -1.
       -4    1    3    3    0  502  0.67511388730E+02  0.23896169815E+03  0.43585861773E+03  0.50163216438E+03  0.12699999809E+01 0.  1.
</event>
<event>
 5   0  0.7698747E-02  0.5041321E+03  0.7818609E-02  0.1012706E+00
       -2   -1    0    0    0  501  0.00000000000E+00  0.00000000000E+00  0.17269310530E+03  0.17269310532E+03  0.25500000920E-02 0.  1.
        2   -1    0    0  501    0  0.00000000000E+00  0.00000000000E+00 -0.36792032080E+03  0.36792032081E+03  0.25500000920E-02 0. -1.
    10030    2    1    2    0    0  0.00000000000E+00  0.00000000000E+00 -0.19522721550E+03  0.54061342613E+03  0.50413213629E+03 0.  0.
        2    1    3    3  502    0  0.95396742072E+02 -0.22893750739E+03 -0.14586264806E+03  0.28773048638E+03  0.25500000920E-02 0. -1.
       -2    1    3    3    0  502 -0.95396742072E+02  0.22893750739E+03 -0.49364567440E+02  0.25288293974E+03  0.25500000920E-02 0.  1.
</event>
<event>
 5   0  0.8208720E-02  0.4975883E+03  0.7818609E-02  0.1014410E+00
        2   -1    0    0  501    0  0.00000000000E+00  0.00000000000E+00  0.27637416922E+03  0.27637416923E+03  0.25500000920E-02 0. -1.
       -2   -1    0    0    0  501  0.00000000000E+00  0.00000000000E+00 -0.22396641958E+03  0.22396641959E+03  0.25500000920E-02 0.  1.
    10030    2    1    2    0    0  0.00000000000E+00  0.00000000000E+00  0.52407749637E+02  0.50034058882E+03  0.49758831638E+03 0.  0.
        3    1    3    3  502    0  0.13141329480E+02 -0.24817501002E+03  0.14520968824E+02  0.24894657835E+03  0.10100000352E+00 0.  1.
       -3    1    3    3    0  502 -0.13141329480E+02  0.24817501002E+03  0.37886780813E+02  0.25139401047E+03  0.10100000352E+00 0. -1.
</event>
<event>
 5   0  0.7933103E-02  0.5024925E+03  0.7818609E-02  0.1013130E+00
       -2   -1    0    0    0  501  0.00000000000E+00  0.00000000000E+00  0.19830509846E+03  0.19830509848E+03  0.25500000920E-02 0.  1.
        2   -1    0    0  501    0  0.00000000000E+00  0.00000000000E+00 -0.31832096336E+03  0.31832096337E+03  0.25500000920E-02 0. -1.
    10030    2    1    2    0    0  0.00000000000E+00  0.00000000000E+00 -0.12001586490E+03  0.51662606185E+03  0.50249246757E+03 0.  0.
        5    1    3    3  502    0  0.67157566673E+02  0.15634118345E+03  0.12998669387E+03  0.21417594399E+03  0.46999998093E+01 0.  1.
       -5    1    3    3    0  502 -0.67157566673E+02 -0.15634118345E+03 -0.25000255877E+03  0.30245011786E+03  0.46999998093E+01 0. -1.
</event>
<event>
 5   0  0.4865501E-02  0.4985926E+03  0.7818609E-02  0.1014147E+00
        1   -1    0    0  501    0  0.00000000000E+00  0.00000000000E+00  0.10927270536E+04  0.10927270536E+04  0.50400001928E-02 0. -1.
       -1   -1    0    0    0  501  0.00000000000E+00  0.00000000000E+00 -0.56874802814E+02  0.56874803038E+02  0.50400001928E-02 0.  1.
    10030    2    1    2    0    0  0.00000000000E+00  0.00000000000E+00  0.10358522508E+04  0.11496018566E+04  0.49859256247E+03 0.  0.
        2    1    3    3  502    0 -0.82528361528E+02 -0.13121432794E+03  0.96810072430E+03  0.98043212040E+03  0.25500000920E-02 0. -1.
       -2    1    3    3    0  502  0.82528361528E+02  0.13121432794E+03  0.67751526474E+02  0.16916973624E+03  0.25500000920E-02 0.  1.
</event>
<event>
 5   0  0.7698747E-02  0.4998451E+03  0.7818609E-02  0.1013819E+00
       -2   -1    0    0    0  501  0.00000000000E+00  0.00000000000E+00  0.30595180056E+03  0.30595180057E+03  0.25500000920E-02 0. -1.
        2   -1    0    0  501    0  0.00000000000E+00  0.00000000000E+00 -0.20415401050E+03  0.20415401052E+03  0.25500000920E-02 0.  1.
    10030    2    1    2    0    0  0.00000000000E+00  0.00000000000E+00  0.10179779006E+03  0.51010581108E+03  0.49984512445E+03 0.  0.
        2    1    3    3  502    0 -0.66023839942E+02  0.13637155015E+02  0.29649683463E+03  0.30406494765E+03  0.25500000920E-02 0. -1.
       -2    1    3    3    0  502  0.66023839942E+02 -0.13637155015E+02 -0.19469904458E+03  0.20604086343E+03  0.25500000920E-02 0.  1.
</event>
<event>
 5   0  0.3210875E-02  0.5084528E+03  0.7818609E-02  0.1011596E+00
        4   -1    0    0  501    0  0.00000000000E+00  0.00000000000E+00  0.19110312267E+03  0.19110734259E+03  0.12699999809E+01 0. -1.
       -4   -1    0    0    0  501  0.00000000000E+00  0.00000000000E+00 -0.33819081559E+03  0.33819320018E+03  0.12699999809E+01 0.  1.
    10030    2    1    2    0    0  0.00000000000E+00  0.00000000000E+00 -0.14708769292E+03  0.52930054277E+03  0.50845282492E+03 0.  0.
        1    1    3    3  502    0 -0.23068327228E+02  0.14785453486E+03  0.14040164039E+03  0.20519681248E+03  0.50400001928E-02 0. -1.
       -1    1    3    3    0  502  0.23068327228E+02 -0.14785453486E+03 -0.28748933331E+03  0.32410373030E+03  0.50400001928E-02 0.  1.
</event>
<event>
 5   0  0.7933103E-02  0.5039266E+03  0.7818609E-02  0.1012759E+00
       -2   -1    0    0    0  501  0.00000000000E+00  0.00000000000E+00  0.88411319235E+02  0.88411319272E+02  0.25500000920E-02 0. -1.
        2   -1    0    0  501    0  0.00000000000E+00  0.00000000000E+00 -0.71807001223E+03  0.71807001224E+03  0.25500000920E-02 0.  1.
    10030    2    1    2    0    0  0.00000000000E+00  0.00000000000E+00 -0.62965869300E+03  0.80648133151E+03  0.50392664983E+03 0.  0.
        5    1    3    3  502    0 -0.20282704948E+03 -0.73396582037E+02 -0.52311165154E+03  0.56585666050E+03  0.46999998093E+01 0.  1.
       -5    1    3    3    0  502  0.20282704948E+03  0.73396582037E+02 -0.10654704146E+03  0.24062467101E+03  0.46999998093E+01 0. -1.
</event>
<event>
 5   0  0.5191358E-02  0.5018279E+03  0.7818609E-02  0.1013303E+00
       -1   -1    0    0    0  501  0.00000000000E+00  0.00000000000E+00  0.52251318843E+02  0.52251319086E+02  0.50400001928E-02 0. -1.
        1   -1    0    0  501    0  0.00000000000E+00  0.00000000000E+00 -0.12049036123E+04  0.12049036123E+04  0.50400001928E-02 0.  1.
    10030    2    1    2    0    0  0.00000000000E+00  0.00000000000E+00 -0.11526522935E+04  0.12571549314E+04  0.50182787081E+03 0.  0.
        4    1    3    3  502    0 -0.91632401852E+02 -0.20075210852E+03 -0.87546143933E+03  0.90284674823E+03  0.12699999809E+01 0.  1.
       -4    1    3    3    0  502  0.91632401852E+02  0.20075210852E+03 -0.27719085413E+03  0.35430818316E+03  0.12699999809E+01 0. -1.
</event>
<event>
 5   0  0.4865501E-02  0.4994891E+03  0.7818609E-02  0.1013912E+00
       -1   -1    0    0    0  501  0.00000000000E+00  0.00000000000E+00  0.14248883858E+03  0.14248883867E+03  0.50400001928E-02 0.  1.
        1   -1    0    0  501    0  0.00000000000E+00  0.00000000000E+00 -0.43773500395E+03  0.43773500397E+03  0.50400001928E-02 0. -1.
    10030    2    1    2    0    0  0.00000000000E+00  0.00000000000E+00 -0.29524616536E+03  0.58022384265E+03  0.49948914845E+03 0.  0.
        2    1    3    3  502    0  0.44542927840E+02 -0.24526420929E+03 -0.12986307840E+03  0.28107476570E+03  0.25500000920E-02 0.  1.
       -2    1    3    3    0  502 -0.44542927840E+02  0.24526420929E+03 -0.16538308696E+03  0.29914907695E+03  0.25500000920E-02 0. -1.
</event>
<event>
 5   0  0.5038436E-02  0.5018841E+03  0.7818609E-02  0.1013288E+00
       -1   -1    0    0    0  501  0.00000000000E+00  0.00000000000E+00  0.29540436598E+03  0.29540436603E+03  0.50400001928E-02 0.  1.
        1   -1    0    0  501    0  0.00000000000E+00  0.00000000000E+00 -0.21317186805E+03  0.21317186811E+03  0.50400001928E-02 0. -1.
    10030    2    1    2    0    0  0.00000000000E+00  0.00000000000E+00  0.82232497934E+02  0.50857623414E+03  0.50188405256E+03 0.  0.
        1    1    3    3  502    0  0.12825642381E+03 -0.14036527122E+03 -0.12483490568E+03  0.22745521166E+03  0.50400001928E-02 0. -1.
       -1    1    3    3    0  502 -0.12825642381E+03  0.14036527122E+03  0.20706740361E+03  0.28112102247E+03  0.50400001928E-02 0.  1.
</event>
<event>
 5   0  0.7933103E-02  0.5027398E+03  0.7818609E-02  0.1013066E+00
        2   -1    0    0  501    0  0.00000000000E+00  0.00000000000E+00  0.35921457990E+03  0.35921457991E+03  0.25500000920E-02 0. -1.
       -2   -1    0    0    0  501  0.00000000000E+00  0.00000000000E+00 -0.17590271130E+03  0.17590271132E+03  0.25500000920E-02 0.  1.
    10030    2    1    2    0    0  0.00000000000E+00  0.00000000000E+00  0.18331186860E+03  0.53511729123E+03  0.50273976787E+03 0.  0.
        5    1    3    3  502    0  0.20672594926E+03 -0.14213176933E+03  0.10771644031E+03  0.27306039526E+03  0.46999998093E+01 0. -1.
       -5    1    3    3    0  502 -0.20672594926E+03  0.14213176933E+03  0.75595428286E+02  0.26205689597E+03  0.46999998093E+01 0.  1.
</event>
<event>
 5   0  0.4803890E-02  0.5017356E+03  0.7818609E-02  0.1013327E+00
        1   -1    0    0  501    0  0.00000000000E+00  0.00000000000E+00  0.13060170530E+03  0.13060170540E+03  0.50400001928E-02 0.  1.
       -1   -1    0    0    0  501  0.00000000000E+00  0.00000000000E+00 -0.48188222916E+03  0.48188222919E+03  0.50400001928E-02 0. -1.
    10030    2    1    2    0    0  0.00000000000E+00  0.00000000000E+00 -0.35128052386E+03  0.61248393459E+03  0.50173555155E+03 0.  0.
        5    1    3    3  502    0  0.21235025078E+02 -0.47800130926E+02 -0.47509712504E+03  0.47799073947E+03  0.46999998093E+01 0. -1.
       -5    1    3    3    0  502 -0.21235025078E+02  0.47800130926E+02  0.12381660118E+03  0.13449319512E+03  0.46999998093E+01 0.  1.
</event>
<event>
 5   0  0.4884478E-02  0.5017836E+03  0.7818609E-02  0.1013314E+00
       -1   -1    0    0    0  501  0.00000000000E+00  0.00000000000E+00  0.16574241313E+03  0.16574241321E+03  0.50400001928E-02 0.  1.
        1   -1    0    0  501    0  0.00000000000E+00  0.00000000000E+00 -0.37978626116E+03  0.37978626119E+03  0.50400001928E-02 0. -1.
    10030    2    1    2    0    0  0.00000000000E+00  0.00000000000E+00 -0.21404384802E+03  0.54552867440E+03  0.50178358454E+03 0.  0.
        3    1    3    3  502    0 -0.10176958112E+03  0.15224239286E+02  0.14174467068E+03  0.17515817700E+03  0.10100000352E+00 0.  1.
       -3    1    3    3    0  502  0.10176958112E+03 -0.15224239286E+02 -0.35578851870E+03  0.37037049740E+03  0.10100000352E+00 0. -1.
</event>
<event>
 5   0  0.7881060E-02  0.5000322E+03  0.7818609E-02  0.1013771E+00
        2   -1    0    0  501    0  0.00000000000E+00  0.00000000000E+00  0.41688743501E+03  0.41688743502E+03  0.25500000920E-02 0.  1.
       -2   -1    0    0    0  501  0.00000000000E+00  0.00000000000E+00 -0.14993985074E+03  0.14993985076E+03  0.25500000920E-02 0. -1.
    10030    2    1    2    0    0  0.00000000000E+00  0.00000000000E+00  0.26694758427E+03  0.56682728578E+03  0.50003215812E+03 0.  0.
        1    1    3    3  502    0  0.16260828941E+03  0.57258666974E+02 -0.71789111400E+02  0.18674497923E+03  0.50400001928E-02 0. -1.
       -1    1    3    3    0  502 -0.16260828941E+03 -0.57258666974E+02  0.33873669567E+03  0.38008230654E+03  0.50400001928E-02 0.  1.
</event>
<event>
 5   0  0.5038436E-02  0.5006863E+03  0.7818609E-02  0.1013600E+00
        1   -1    0    0  501    0  0.00000000000E+00  0.00000000000E+00  0.92673505163E+02  0.92673505300E+02  0.50400001928E-02 0. -1.
       -1   -1    0    0    0  501  0.00000000000E+00  0.00000000000E+00 -0.67626329930E+03  0.67626329932E+03  0.50400001928E-02 0.  1.
    10030    2    1    2    0    0  0.00000000000E+00  0.00000000000E+00 -0.58358979414E+03  0.76893680462E+03  0.50068629068E+03 0.  0.
        1    1    3    3  502    0  0.17859282244E+03  0.13941862839E+03 -0.12826116380E+03  0.26035336820E+03  0.50400001928E-02 0. -1.
       -1    1    3    3    0  502 -0.17859282244E+03 -0.13941862839E+03 -0.45532863034E+03  0.50858343642E+03  0.50400001928E-02 0.  1.
</event>
<event>
 5   0  0.8208720E-02  0.5062980E+03  0.7818609E-02  0.1012148E+00
        2   -1    0    0  501    0  0.00000000000E+00  0.00000000000E+00  0.16168533064E+03  0.16168533066E+03  0.25500000920E-02 0.  1.
       -2   -1    0    0    0  501  0.00000000000E+00  0.00000000000E+00 -0.39635272133E+03  0.39635272134E+03  0.25500000920E-02 0. -1.
    10030    2    1    2    0    0  0.00000000000E+00  0.00000000000E+00 -0.23466739069E+03  0.55803805200E+03  0.50629801819E+03 0.  0.
        3    1    3    3  502    0  0.18697115210E+03  0.14318806740E+03 -0.14981714025E+02  0.23597774539E+03  0.10100000352E+00 0.  1.
       -3    1    3    3    0  502 -0.18697115210E+03 -0.14318806740E+03 -0.21968567667E+03  0.32206030661E+03  0.10100000352E+00 0. -1.
</event>
<event>
 5   0  0.5038436E-02  0.4986929E+03  0.7818609E-02  0.1014121E+00
        1   -1    0    0  501    0  0.00000000000E+00  0.00000000000E+00  0.32708975364E+03  0.32708975368E+03  0.50400001928E-02 0. -1.
       -1   -1    0    0    0  501  0.00000000000E+00  0.00000000000E+00 -0.19008135802E+03  0.19008135809E+03  0.50400001928E-02 0.  1.
    10030    2    1    2    0    0  0.00000000000E+00  0.00000000000E+00  0.13700839562E+03  0.51717111176E+03  0.49869294999E+03 0.  0.
        1    1    3    3  502    0  0.23046794630E+03 -0.75949234204E+02  0.12798716851E+03  0.27434371831E+03  0.50400001928E-02 0. -1.
       -1    1    3    3    0  502 -0.23046794630E+03  0.75949234204E+02  0.90212271050E+01  0.24282739345E+03  0.50400001928E-02 0.  1.
</event>
<event>
 5   0  0.5191358E-02  0.4992690E+03  0.7818609E-02  0.1013970E+00
        1   -1    0    0  501    0  0.00000000000E+00  0.00000000000E+00  0.33195475298E+03  0.33195475302E+03  0.50400001928E-02 0.  1.
       -1   -1    0    0    0  501  0.00000000000E+00  0.00000000000E+00 -0.18772851980E+03  0.18772851987E+03  0.50400001928E-02 0. -1.
    10030    2    1    2    0    0  0.00000000000E+00  0.00000000000E+00  0.14422623318E+03  0.51968327289E+03  0.49926896337E+03 0.  0.
        4    1    3    3  502    0  0.95287582442E+02 -0.30177509285E+02  0.31021359354E+03  0.32592099035E+03  0.12699999809E+01 0.  1.
       -4    1    3    3    0  502 -0.95287582442E+02  0.30177509285E+02 -0.16598736036E+03  0.19376228254E+03  0.12699999809E+01 0. -1.
</event>
<event>
 5   0  0.7881060E-02  0.4998598E+03  0.7818609E-02  0.1013816E+00
       -2   -1    0    0    0  501  0.00000000000E+00  0.00000000000E+00  0.83488982130E+02  0.83488982169E+02  0.25500000920E-02 0.  1.
        2   -1    0    0  501    0  0.00000000000E+00  0.00000000000E+00 -0.74818208102E+03  0.74818208102E+03  0.25500000920E-02 0. -1.
    10030    2    1    2    0    0  0.00000000000E+00  0.00000000000E+00 -0.66469309889E+03  0.83167106319E+03  0.49985982199E+03 0.  0.
        1    1    3    3  502    0 -0.10168588789E+03 -0.23199082467E+02  0.45549555923E+02  0.11381115627E+03  0.50400001928E-02 0.  1.
       -1    1    3    3    0  502  0.10168588789E+03  0.23199082467E+02 -0.71024265481E+03  0.71785990692E+03  0.50400001928E-02 0. -1.
</event>
<event>
 5   0  0.5038436E-02  0.5207232E+03  0.7818609E-02  0.1008507E+00
       -1   -1    0    0    0  501  0.00000000000E+00  0.00000000000E+00  0.29225270297E+03  0.29225270302E+03  0.50400001928E-02 0.  1.
        1   -1    0    0  501    0  0.00000000000E+00  0.00000000000E+00 -0.23195054151E+03  0.23195054157E+03  0.50400001928E-02 0. -1.
    10030    2    1    2    0    0  0.00000000000E+00  0.00000000000E+00  0.60302161458E+02  0.52420324459E+03  0.52072323835E+03 0.  0.
        1    1    3    3  502    0 -0.25876442724E+03  0.15646151265E+02  0.58163668818E+01  0.25930225800E+03  0.50400001928E-02 0. -1.
       -1    1    3    3    0  502  0.25876442724E+03 -0.15646151265E+02  0.54485794576E+02  0.26490098658E+03  0.50400001928E-02 0.  1.
</event>
<event>
 5   0  0.5038436E-02  0.4993150E+03  0.7818609E-02  0.1013958E+00
        1   -1    0    0  501    0  0.00000000000E+00  0.00000000000E+00  0.39909882640E+03  0.39909882644E+03  0.50400001928E-02 0. -1.
       -1   -1    0    0    0  501  0.00000000000E+00  0.00000000000E+00 -0.15617401836E+03  0.15617401844E+03  0.50400001928E-02 0.  1.
    10030    2    1    2    0    0  0.00000000000E+00  0.00000000000E+00  0.24292480805E+03  0.55527284487E+03  0.49931500066E+03 0.  0.
        1    1    3    3  502    0 -0.17125872351E+03  0.60247490527E+02 -0.69118998742E+02  0.19425948241E+03  0.50400001928E-02 0.  1.
       -1    1    3    3    0  502  0.17125872351E+03 -0.60247490527E+02  0.31204380679E+03  0.36101336246E+03  0.50400001928E-02 0. -1.
</event>
<event>
 5   0  0.8208720E-02  0.4971150E+03  0.7818609E-02  0.1014535E+00
        2   -1    0    0  501    0  0.00000000000E+00  0.00000000000E+00  0.29424962644E+04  0.29424962644E+04  0.25500000920E-02 0. -1.
       -2   -1    0    0    0  501  0.00000000000E+00  0.00000000000E+00 -0.20996063239E+02  0.20996063394E+02  0.25500000920E-02 0.  1.
    10030    2    1    2    0    0  0.00000000000E+00  0.00000000000E+00  0.29215002012E+04  0.29634923278E+04  0.49711502846E+03 0.  0.
        3    1    3    3  502    0 -0.78166779277E+02 -0.59969062013E+02  0.28211276106E+04  0.28228473815E+04  0.10100000352E+00 0. -1.
       -3    1    3    3    0  502  0.78166779277E+02  0.59969062013E+02  0.10037259058E+03  0.14064494631E+03  0.10100000352E+00 0.  1.
</event>
<event>
 5   0  0.7933103E-02  0.5072215E+03  0.7818609E-02  0.1011911E+00
        2   -1    0    0  501    0  0.00000000000E+00  0.00000000000E+00  0.17500867199E+04  0.17500867199E+04  0.25500000920E-02 0.  1.
       -2   -1    0    0    0  501  0.00000000000E+00  0.00000000000E+00 -0.36751554548E+02  0.36751554637E+02  0.25500000920E-02 0. -1.
    10030    2    1    2    0    0  0.00000000000E+00  0.00000000000E+00  0.17133351654E+04  0.17868382746E+04  0.50722148074E+03 0.  0.
        5    1    3    3  502    0 -0.14058527593E+02 -0.14273563065E+03  0.12003048462E+03  0.18708423154E+03  0.46999998093E+01 0. -1.
       -5    1    3    3    0  502  0.14058527593E+02  0.14273563065E+03  0.15933046807E+04  0.15997540430E+04  0.46999998093E+01 0.  1.
</event>
<event>
 5   0  0.3210875E-02  0.4996013E+03  0.7818609E-02  0.1013883E+00
       -3   -1    0    0    0  501  0.00000000000E+00  0.00000000000E+00  0.50816564424E+03  0.50816565427E+03  0.10100000352E+00 0. -1.
        3   -1    0    0  501    0  0.00000000000E+00  0.00000000000E+00 -0.12279529574E+03  0.12279533728E+03  0.10100000352E+00 0.  1.
    10030    2    1    2    0    0  0.00000000000E+00  0.00000000000E+00  0.38537034849E+03  0.63096099155E+03  0.49960130841E+03 0.  0.
        3    1    3    3  502    0 -0.22170137013E+03 -0.30748104600E+02  0.33277021082E+03  0.40103985695E+03  0.10100000352E+00 0. -1.
       -3    1    3    3    0  502  0.22170137013E+03  0.30748104600E+02  0.52600137671E+02  0.22992113460E+03  0.10100000352E+00 0.  1.
</event>
<event>
 5   0  0.7698747E-02  0.5007948E+03  0.7818609E-02  0.1013572E+00
       -2   -1    0    0    0  501  0.00000000000E+00  0.00000000000E+00  0.43448846884E+02  0.43448846959E+02  0.25500000920E-02 0.  1.
        2   -1    0    0  501    0  0.00000000000E+00  0.00000000000E+00 -0.14430500162E+04  0.14430500162E+04  0.25500000920E-02 0. -1.
    10030    2    1    2    0    0  0.00000000000E+00  0.00000000000E+00 -0.13996011693E+04  0.14864988631E+04  0.50079480531E+03 0.  0.
        2    1    3    3  502    0 -0.18668937491E+03  0.13871215489E+03 -0.97514548653E+03  0.10024982317E+04  0.25500000920E-02 0. -1.
       -2    1    3    3    0  502  0.18668937491E+03 -0.13871215489E+03 -0.42445568276E+03  0.48400063146E+03  0.25500000920E-02 0.  1.
</event>
<event>
 5   0  0.7698747E-02  0.4979769E+03  0.7818609E-02  0.1014308E+00
       -2   -1    0    0    0  501  0.00000000000E+00  0.00000000000E+00  0.70867248442E+02  0.70867248488E+02  0.25500000920E-02 0. -1.
        2   -1    0    0  501    0  0.00000000000E+00  0.00000000000E+00 -0.87480817141E+03  0.87480817142E+03  0.25500000920E-02 0.  1.
    10030    2    1    2    0    0  0.00000000000E+00  0.00000000000E+00 -0.80394092297E+03  0.94567541990E+03  0.49797689925E+03 0.  0.
        2    1    3    3  502    0 -0.69575168866E+02 -0.18606069521E+03 -0.11688770365E+03  0.23048215050E+03  0.25500000920E-02 0. -1.
       -2    1    3    3    0  502  0.69575168866E+02  0.18606069521E+03 -0.68705321932E+03  0.71519326941E+03  0.25500000920E-02 0.  1.
</event>
<event>
 5   0  0.8208720E-02  0.5015119E+03  0.7818609E-02  0.1013385E+00
       -2   -1    0    0    0  501  0.00000000000E+00  0.00000000000E+00  0.17184957186E+03  0.17184957187E+03  0.25500000920E-02 0.  1.
        2   -1    0    0  501    0  0.00000000000E+00  0.00000000000E+00 -0.36589292876E+03  0.36589292877E+03  0.25500000920E-02 0. -1.
    10030    2    1    2    0    0  0.00000000000E+00  0.00000000000E+00 -0.19404335690E+03  0.53774250064E+03  0.50151188684E+03 0.  0.
        3    1    3    3  502    0  0.26259840315E+02  0.28893976682E+02 -0.36261362223E+03  0.36470959725E+03  0.10100000352E+00 0. -1.
       -3    1    3    3    0  502 -0.26259840315E+02 -0.28893976682E+02  0.16857026533E+03  0.17303290339E+03  0.10100000352E+00 0.  1.
</event>
<event>
 5   0  0.4865501E-02  0.4995711E+03  0.7818609E-02  0.1013891E+00
       -1   -1    0    0    0  501  0.00000000000E+00  0.00000000000E+00  0.69827916815E+02  0.69827916997E+02  0.50400001928E-02 0. -1.
        1   -1    0    0  501    0  0.00000000000E+00  0.00000000000E+00 -0.89352257822E+03  0.89352257823E+03  0.50400001928E-02 0.  1.
    10030    2    1    2    0    0  0.00000000000E+00  0.00000000000E+00 -0.82369466141E+03  0.96335049523E+03  0.49957109748E+03 0.  0.
        2    1    3    3  502    0  0.74028830121E+02 -0.20031412176E+03 -0.16200210954E+03  0.26804980613E+03  0.25500000920E-02 0. -1.
       -2    1    3    3    0  502 -0.74028830121E+02  0.20031412176E+03 -0.66169255187E+03  0.69530068911E+03  0.25500000920E-02 0.  1.
</event>
<event>
 5   0  0.7881060E-02  0.4979141E+03  0.7818609E-02  0.1014325E+00
       -2   -1    0    0    0  501  0.00000000000E+00  0.00000000000E+00  0.20211452143E+02  0.20211452304E+02  0.25500000920E-02 0. -1.
        2   -1    0    0  501    0  0.00000000000E+00  0.00000000000E+00 -0.30665586583E+04  0.30665586583E+04  0.25500000920E-02 0.  1.
    10030    2    1    2    0    0  0.00000000000E+00  0.00000000000E+00 -0.30463472061E+04  0.30867701106E+04  0.49791406413E+03 0.  0.
        1    1    3    3  502    0 -0.21546049911E+03  0.23715474633E+02 -0.22822892981E+04  0.22925597246E+04  0.50400001928E-02 0. -1.
       -1    1    3    3    0  502  0.21546049911E+03 -0.23715474633E+02 -0.76405790803E+03  0.79421038602E+03  0.50400001928E-02 0.  1.
</event>
<event>
 5   0  0.5038436E-02  0.4978967E+03  0.7818609E-02  0.1014329E+00
       -1   -1    0    0    0  501  0.00000000000E+00  0.00000000000E+00  0.23541706004E+03  0.23541706010E+03  0.50400001928E-02 0.  1.
        1   -1    0    0  501    0  0.00000000000E+00  0.00000000000E+00 -0.26325734387E+03  0.26325734391E+03  0.50400001928E-02 0. -1.
    10030    2    1    2    0    0  0.00000000000E+00  0.00000000000E+00 -0.27840283822E+02  0.49867440401E+03  0.49789665576E+03 0.  0.
        1    1    3    3  502    0 -0.20675963588E+03 -0.24866749709E+01  0.12493096785E+03  0.24158534173E+03  0.50400001928E-02 0.  1.
       -1    1    3    3    0  502  0.20675963588E+03  0.24866749709E+01 -0.15277125167E+03  0.25708906228E+03  0.50400001928E-02 0. -1.
</event>
<event>
 5   0  0.4884478E-02  0.5066059E+03  0.7818609E-02  0.1012069E+00
       -1   -1    0    0    0  501  0.00000000000E+00  0.00000000000E+00  0.56132427135E+03  0.56132427137E+03  0.50400001928E-02 0.  1.
        1   -1    0    0  501    0  0.00000000000E+00  0.00000000000E+00 -0.11430538267E+03  0.11430538278E+03  0.50400001928E-02 0. -1.
    10030    2    1    2    0    0  0.00000000000E+00  0.00000000000E+00  0.44701888868E+03  0.67562965415E+03  0.50660590475E+03 0.  0.
        3    1    3    3  502    0  0.18971065072E+03 -0.68530056281E+02  0.42784754763E+03  0.47301166352E+03  0.10100000352E+00 0.  1.
       -3    1    3    3    0  502 -0.18971065072E+03  0.68530056281E+02  0.19171341051E+02  0.20261799063E+03  0.10100000352E+00 0. -1.
</event>
<event>
 5   0  0.4865501E-02  0.4992189E+03  0.7818609E-02  0.1013983E+00
       -1   -1    0    0    0  501  0.00000000000E+00  0.00000000000E+00  0.43408619626E+02  0.43408619918E+02  0.50400001928E-02 0.  1.
        1   -1    0    0  501    0  0.00000000000E+00  0.00000000000E+00 -0.14353112374E+04  0.14353112374E+04  0.50400001928E-02 0. -1.
    10030    2    1    2    0    0  0.00000000000E+00  0.00000000000E+00 -0.13919026177E+04  0.14787198573E+04  0.49921890898E+03 0.  0.
        2    1    3    3  502    0 -0.85841713645E+02 -0.12795298590E+03 -0.12776345527E+04  0.12868919211E+04  0.25500000920E-02 0. -1.
       -2    1    3    3    0  502  0.85841713645E+02  0.12795298590E+03 -0.11426806505E+03  0.19182793618E+03  0.25500000920E-02 0.  1.
</event>
<event>
 5   0  0.7776070E-02  0.4988529E+03  0.7818609E-02  0.1014079E+00
       -2   -1    0    0    0  501  0.00000000000E+00  0.00000000000E+00  0.86210518135E+02  0.86210518173E+02  0.25500000920E-02 0.  1.
        2   -1    0    0  501    0  0.00000000000E+00  0.00000000000E+00 -0.72164700347E+03  0.72164700347E+03  0.25500000920E-02 0. -1.
    10030    2    1    2    0    0  0.00000000000E+00  0.00000000000E+00 -0.63543648533E+03  0.80785752165E+03  0.49885293262E+03 0.  0.
        4    1    3    3  502    0  0.17480730822E+03  0.48042980251E+02 -0.59513863008E+03  0.62213931307E+03  0.12699999809E+01 0. -1.
       -4    1    3    3    0  502 -0.17480730822E+03 -0.48042980251E+02 -0.40297855257E+02  0.18571820858E+03  0.12699999809E+01 0.  1.
</event>
<event>
 5   0  0.4884478E-02  0.4976965E+03  0.7818609E-02  0.1014382E+00
        1   -1    0    0  501    0  0.00000000000E+00  0.00000000000E+00  0.94873837583E+03  0.94873837584E+03  0.50400001928E-02 0.  1.
       -1   -1    0    0    0  501  0.00000000000E+00  0.00000000000E+00 -0.65271369975E+02  0.65271370169E+02  0.50400001928E-02 0. -1.
    10030    2    1    2    0    0  0.00000000000E+00  0.00000000000E+00  0.88346700586E+03  0.10140097460E+04  0.49769650850E+03 0.  0.
        3    1    3    3  502    0 -0.10521667235E+03  0.21994117605E+01  0.90116763977E+03  0.90729185532E+03  0.10100000352E+00 0.  1.
       -3    1    3    3    0  502  0.10521667235E+03 -0.21994117605E+01 -0.17700633915E+02  0.10671789070E+03  0.10100000352E+00 0. -1.
</event>
<event>
 5   0  0.7933103E-02  0.5014909E+03  0.7818609E-02  0.1013390E+00
       -2   -1    0    0    0  501  0.00000000000E+00  0.00000000000E+00  0.82673741461E+02  0.82673741501E+02  0.25500000920E-02 0. -1.
        2   -1    0    0  501    0  0.00000000000E+00  0.00000000000E+00 -0.76049884760E+03  0.76049884761E+03  0.25500000920E-02 0.  1.
    10030    2    1    2    0    0  0.00000000000E+00  0.00000000000E+00 -0.67782510614E+03  0.84317258911E+03  0.50149091767E+03 0.  0.
        5    1    3    3  502    0  0.14868207663E+03  0.87231370089E+02 -0.64496814875E+03  0.66762390217E+03  0.46999998093E+01 0.  1.
       -5    1    3    3    0  502 -0.14868207663E+03 -0.87231370089E+02 -0.32856957388E+02  0.17554868694E+03  0.46999998093E+01 0. -1.
</event>
<event>
 5   0  0.4884478E-02  0.4983547E+03  0.7818609E-02  0.1014209E+00
        1   -1    0    0  501    0  0.00000000000E+00  0.00000000000E+00  0.21706401725E+03  0.21706401731E+03  0.50400001928E-02 0.  1.
       -1   -1    0    0    0  501  0.00000000000E+00  0.00000000000E+00 -0.28604162676E+03  0.28604162681E+03  0.50400001928E-02 0. -1.
    10030    2    1    2    0    0  0.00000000000E+00  0.00000000000E+00 -0.68977609513E+02  0.50310564412E+03  0.49835467142E+03 0.  0.
        3    1    3    3  502    0 -0.22579238547E+03  0.10025509057E+03 -0.16820797569E+01  0.24705490101E+03  0.10100000352E+00 0. -1.
       -3    1    3    3    0  502  0.22579238547E+03 -0.10025509057E+03 -0.67295529756E+02  0.25605074311E+03  0.10100000352E+00 0.  1.
</event>
<event>
 5   0  0.7881060E-02  0.4997783E+03  0.7818609E-02  0.1013837E+00
        2   -1    0    0  501    0  0.00000000000E+00  0.00000000000E+00  0.81403647824E+03  0.81403647824E+03  0.25500000920E-02 0.  1.
       -2   -1    0    0    0  501  0.00000000000E+00  0.00000000000E+00 -0.76709809270E+02  0.76709809312E+02  0.25500000920E-02 0. -1.
    10030    2    1    2    0    0  0.00000000000E+00  0.00000000000E+00  0.73732666897E+03  0.89074628756E+03  0.49977828286E+03 0.  0.
        1    1    3    3  502    0  0.87377753901E+02  0.15431914959E+03  0.54883780908E+02  0.18563809210E+03  0.50400001928E-02 0. -1.
       -1    1    3    3    0  502 -0.87377753901E+02 -0.15431914959E+03  0.68244288806E+03  0.70510819546E+03  0.50400001928E-02 0.  1.
</event>
<event>
 5   0  0.4884478E-02  0.4971836E+03  0.7818609E-02  0.1014517E+00
       -1   -1    0    0    0  501  0.00000000000E+00  0.00000000000E+00  0.11778340833E+03  0.11778340844E+03  0.50400001928E-02 0. -1.
        1   -1    0    0  501    0  0.00000000000E+00  0.00000000000E+00 -0.52467386770E+03  0.52467386773E+03  0.50400001928E-02 0.  1.
    10030    2    1    2    0    0  0.00000000000E+00  0.00000000000E+00 -0.40689045937E+03  0.64245727617E+03  0.49718357352E+03 0.  0.
        3    1    3    3  502    0 -0.72661458480E+02 -0.30276498647E+02 -0.50814405695E+03  0.51420496569E+03  0.10100000352E+00 0.  1.
       -3    1    3    3    0  502  0.72661458480E+02  0.30276498647E+02  0.10125359759E+03  0.12825231048E+03  0.10100000352E+00 0. -1.
</event>
<event>
 5   0  0.7933103E-02  0.5005757E+03  0.7818609E-02  0.1013629E+00
       -2   -1    0    0    0  501  0.00000000000E+00  0.00000000000E+00  0.99265404921E+02  0.99265404954E+02  0.25500000920E-02 0.  1.
        2   -1    0    0  501    0  0.00000000000E+00  0.00000000000E+00 -0.63107595091E+03  0.63107595091E+03  0.25500000920E-02 0. -1.
    10030    2    1    2    0    0  0.00000000000E+00  0.00000000000E+00 -0.53181054599E+03  0.73034135587E+03  0.50057570783E+03 0.  0.
        5    1    3    3  502    0 -0.28311217456E+02  0.19929166648E+03 -0.48281746339E+03  0.52311899824E+03  0.46999998093E+01 0. -1.
       -5    1    3    3    0  502  0.28311217456E+02 -0.19929166648E+03 -0.48993082594E+02  0.20722235763E+03  0.46999998093E+01 0.  1.
</event>
<event>
 5   0  0.8208720E-02  0.4986818E+03  0.7818609E-02  0.1014124E+00
        2   -1    0    0  501    0  0.00000000000E+00  0.00000000000E+00  0.46249743148E+03  0.46249743148E+03  0.25500000920E-02 0. -1.
       -2   -1    0    0    0  501  0.00000000000E+00  0.00000000000E+00 -0.13442425808E+03  0.13442425810E+03  0.25500000920E-02 0.  1.
    10030    2    1    2    0    0  0.00000000000E+00  0.00000000000E+00  0.32807317340E+03  0.59692168958E+03  0.49868175863E+03 0.  0.
        3    1    3    3  502    0 -0.15198538351E+03 -0.15564566383E+03  0.18190520122E+02  0.21830262182E+03  0.10100000352E+00 0.  1.
       -3    1    3    3    0  502  0.15198538351E+03  0.15564566383E+03  0.30988265328E+03  0.37861906776E+03  0.10100000352E+00 0. -1.
</event>
<event>
 5   0  0.3210875E-02  0.5201261E+03  0.7818609E-02  0.1008655E+00
       -3   -1    0    0    0  501  0.00000000000E+00  0.00000000000E+00  0.36323841233E+03  0.36323842638E+03  0.10100000352E+00 0.  1.
        3   -1    0    0  501    0  0.00000000000E+00  0.00000000000E+00 -0.18619391000E+03  0.18619393739E+03  0.10100000352E+00 0. -1.
    10030    2    1    2    0    0  0.00000000000E+00  0.00000000000E+00  0.17704450233E+03  0.54943236377E+03  0.52012610639E+03 0.  0.
        1    1    3    3  502    0  0.56363672091E+02  0.23977260374E+03  0.36318648135E+00  0.24630854018E+03  0.50400001928E-02 0. -1.
       -1    1    3    3    0  502 -0.56363672091E+02 -0.23977260374E+03  0.17668131585E+03  0.30312382359E+03  0.50400001928E-02 0.  1.
</event>
<event>
 5   0  0.8208720E-02  0.5027286E+03  0.7818609E-02  0.1013069E+00
       -2   -1    0    0    0  501  0.00000000000E+00  0.00000000000E+00  0.43401384436E+03  0.43401384437E+03  0.25500000920E-02 0.  1.
        2   -1    0    0  501    0  0.00000000000E+00  0.00000000000E+00 -0.14558064459E+03  0.14558064461E+03  0.25500000920E-02 0. -1.
    10030    2    1    2    0    0  0.00000000000E+00  0.00000000000E+00  0.28843319977E+03  0.57959448898E+03  0.50272861559E+03 0.  0.
        3    1    3    3  502    0  0.16819828005E+03  0.66766321507E+02 -0.56915593097E+02  0.18970450189E+03  0.10100000352E+00 0. -1.
       -3    1    3    3    0  502 -0.16819828005E+03 -0.66766321507E+02  0.34534879287E+03  0.38988998709E+03  0.10100000352E+00 0.  1.
</event>
<event>
 5   0  0.5191358E-02  0.4974655E+03  0.7818609E-02  0.1014443E+00
        1   -1    0    0  501    0  0.00000000000E+00  0.00000000000E+00  0.12463687065E+04  0.12463687065E+04  0.50400001928E-02 0. -1.
       -1   -1    0    0    0  501  0.00000000000E+00  0.00000000000E+00 -0.49638583932E+02  0.49638584187E+02  0.50400001928E-02 0.  1.
    10030    2    1    2    0    0  0.00000000000E+00  0.00000000000E+00  0.11967301225E+04  0.12960072906E+04  0.49746548752E+03 0.  0.
        4    1    3    3  502    0 -0.58780675444E+02 -0.15095850088E+03  0.10900739697E+04  0.11020465095E+04  0.12699999809E+01 0. -1.
       -4    1    3    3    0  502  0.58780675444E+02  0.15095850088E+03  0.10665615285E+03  0.19396078118E+03  0.12699999809E+01 0.  1.
</event>
<event>
 5   0  0.5191358E-02  0.4972091E+03  0.7818609E-02  0.1014510E+00
       -1   -1    0    0    0  501  0.00000000000E+00  0.00000000000E+00  0.15716894963E+03  0.15716894971E+03  0.50400001928E-02 0.  1.
        1   -1    0    0  501    0  0.00000000000E+00  0.00000000000E+00 -0.39323429329E+03  0.39323429333E+03  0.50400001928E-02 0. -1.
    10030    2    1    2    0    0  0.00000000000E+00  0.00000000000E+00 -0.23606534366E+03  0.55040324304E+03  0.49720909431E+03 0.  0.
        4    1    3    3  502    0  0.14788556563E+03  0.12664542836E+03  0.53079508013E+02  0.20181241815E+03  0.12699999809E+01 0.  1.
       -4    1    3    3    0  502 -0.14788556563E+03 -0.12664542836E+03 -0.28914485168E+03  0.34859082489E+03  0.12699999809E+01 0. -1.
</event>
<event>
 5   0  0.5038436E-02  0.5028877E+03  0.7818609E-02  0.1013028E+00
       -1   -1    0    0    0  501  0.00000000000E+00  0.00000000000E+00  0.17665022700E+03  0.17665022707E+03  0.50400001928E-02 0.  1.
        1   -1    0    0  501    0  0.00000000000E+00  0.00000000000E+00 -0.35790504956E+03  0.35790504959E+03  0.50400001928E-02 0. -1.
    10030    2    1    2    0    0  0.00000000000E+00  0.00000000000E+00 -0.18125482256E+03  0.53455527666E+03  0.50288769433E+03 0.  0.
        1    1    3    3  502    0  0.20429294713E+03  0.14413697478E+03 -0.11900959585E+03  0.27690135369E+03  0.50400001928E-02 0. -1.
       -1    1    3    3    0  502 -0.20429294713E+03 -0.14413697478E+03 -0.62245226709E+02  0.25765392297E+03  0.50400001928E-02 0.  1.
</event>
<event>
 5   0  0.4803890E-02  0.4976919E+03  0.7818609E-02  0.1014383E+00
       -1   -1    0    0    0  501  0.00000000000E+00  0.00000000000E+00  0.13239828022E+03  0.13239828032E+03  0.50400001928E-02 0.  1.
        1   -1    0    0  501    0  0.00000000000E+00  0.00000000000E+00 -0.46771225400E+03  0.46771225403E+03  0.50400001928E-02 0. -1.
    10030    2    1    2    0    0  0.00000000000E+00  0.00000000000E+00 -0.33531397378E+03  0.60011053435E+03  0.49769186494E+03 0.  0.
        5    1    3    3  502    0 -0.23522997231E+02  0.38922860664E+02 -0.46260421507E+03  0.46485811844E+03  0.46999998093E+01 0. -1.
       -5    1    3    3    0  502  0.23522997231E+02 -0.38922860664E+02  0.12729024130E+03  0.13525241591E+03  0.46999998093E+01 0.  1.
</event>
<event>
 5   0  0.4884478E-02  0.5050390E+03  0.7818609E-02  0.1012472E+00
       -1   -1    0    0    0  501  0.00000000000E+00  0.00000000000E+00  0.22781139028E+03  0.22781139034E+03  0.50400001928E-02 0.  1.
        1   -1    0    0  501    0  0.00000000000E+00  0.00000000000E+00 -0.27990737353E+03  0.27990737358E+03  0.50400001928E-02 0. -1.
    10030    2    1    2    0    0  0.00000000000E+00  0.00000000000E+00 -0.52095983247E+02  0.50771876392E+03  0.50503896064E+03 0.  0.
        3    1    3    3  502    0  0.18981346439E+03 -0.15364224214E+03  0.38565809896E+02  0.24722949203E+03  0.10100000352E+00 0.  1.
       -3    1    3    3    0  502 -0.18981346439E+03  0.15364224214E+03 -0.90661793144E+02  0.26048927189E+03  0.10100000352E+00 0. -1.
</event>
<event>
 5   0  0.4865501E-02  0.5048899E+03  0.7818609E-02  0.1012510E+00
        1   -1    0    0  501    0  0.00000000000E+00  0.00000000000E+00  0.11833810013E+04  0.11833810013E+04  0.50400001928E-02 0.  1.
       -1   -1    0    0    0  501  0.00000000000E+00  0.00000000000E+00 -0.53852861179E+02  0.53852861415E+02  0.50400001928E-02 0. -1.
    10030    2    1    2    0    0  0.00000000000E+00  0.00000000000E+00  0.11295281401E+04  0.12372338627E+04  0.50488990062E+03 0.  0.
        2    1    3    3  502    0  0.16747952397E+03  0.15963051611E+03  0.81221821794E+03  0.84452929267E+03  0.25500000920E-02 0.  1.
       -2    1    3    3    0  502 -0.16747952397E+03 -0.15963051611E+03  0.31730992219E+03  0.39270457006E+03  0.25500000920E-02 0. -1.
</event>
<event>
 5   0  0.3210875E-02  0.4922231E+03  0.7818609E-02  0.1015829E+00
       -4   -1    0    0    0  501  0.00000000000E+00  0.00000000000E+00  0.59123752663E+03  0.59123889063E+03  0.12699999809E+01 0.  1.
        4   -1    0    0  501    0  0.00000000000E+00  0.00000000000E+00 -0.10244223064E+03  0.10245010257E+03  0.12699999809E+01 0. -1.
    10030    2    1    2    0    0  0.00000000000E+00  0.00000000000E+00  0.48879529600E+03  0.69368899321E+03  0.49222309770E+03 0.  0.
        5    1    3    3  502    0 -0.40064781908E+02 -0.68927227999E+02  0.57247256562E+03  0.57801650314E+03  0.46999998093E+01 0.  1.
       -5    1    3    3    0  502  0.40064781908E+02  0.68927227999E+02 -0.83677269627E+02  0.11567249007E+03  0.46999998093E+01 0. -1.
</event>
<event>
 5   0  0.7698747E-02  0.4984257E+03  0.7818609E-02  0.1014191E+00
       -2   -1    0    0    0  501  0.00000000000E+00  0.00000000000E+00  0.75287464185E+02  0.75287464228E+02  0.25500000920E-02 0. -1.
        2   -1    0    0  501    0  0.00000000000E+00  0.00000000000E+00 -0.82493204913E+03  0.82493204913E+03  0.25500000920E-02 0.  1.
    10030    2    1    2    0    0  0.00000000000E+00  0.00000000000E+00 -0.74964458494E+03  0.90021951336E+03  0.49842569005E+03 0.  0.
        2    1    3    3  502    0  0.64125505513E+02 -0.14580852072E+03 -0.28654178411E+02  0.16184334128E+03  0.25500000920E-02 0. -1.
       -2    1    3    3    0  502 -0.64125505513E+02  0.14580852072E+03 -0.72099040653E+03  0.73837617207E+03  0.25500000920E-02 0.  1.
</event>
<event>
 5   0  0.4884478E-02  0.4987385E+03  0.7818609E-02  0.1014109E+00
       -1   -1    0    0    0  501  0.00000000000E+00  0.00000000000E+00  0.73045002576E+02  0.73045002750E+02  0.50400001928E-02 0. -1.
        1   -1    0    0  501    0  0.00000000000E+00  0.00000000000E+00 -0.85132477831E+03  0.85132477832E+03  0.50400001928E-02 0.  1.
    10030    2    1    2    0    0  0.00000000000E+00  0.00000000000E+00 -0.77827977573E+03  0.92436978107E+03  0.49873849145E+03 0.  0.
        3    1    3    3  502    0  0.24193439736E+03  0.21208209987E+02 -0.28424622087E+03  0.37386891429E+03  0.10100000352E+00 0. -1.
       -3    1    3    3    0  502 -0.24193439736E+03 -0.21208209987E+02 -0.49403355487E+03  0.55050086678E+03  0.10100000352E+00 0.  1.
</event>
<event>
 5   0  0.5038436E-02  0.4984795E+03  0.7818609E-02  0.1014177E+00
        1   -1    0    0  501    0  0.00000000000E+00  0.00000000000E+00  0.98252250334E+03  0.98252250335E+03  0.50400001928E-02 0.  1.
       -1   -1    0    0    0  501  0.00000000000E+00  0.00000000000E+00 -0.63225482961E+02  0.63225483162E+02  0.50400001928E-02 0. -1.
    10030    2    1    2    0    0  0.00000000000E+00  0.00000000000E+00  0.91929702038E+03  0.10457479865E+04  0.49847952779E+03 0.  0.
        1    1    3    3  502    0 -0.79166455695E+02  0.20932036477E+03  0.68982395515E+03  0.72521681720E+03  0.50400001928E-02 0.  1.
       -1    1    3    3    0  502  0.79166455695E+02 -0.20932036477E+03  0.22947306522E+03  0.32053116932E+03  0.50400001928E-02 0. -1.
</event>
<event>
 5   0  0.7698747E-02  0.5014695E+03  0.7818609E-02  0.1013396E+00
        2   -1    0    0  501    0  0.00000000000E+00  0.00000000000E+00  0.41306484234E+03  0.41306484235E+03  0.25500000920E-02 0.  1.
       -2   -1    0    0    0  501  0.00000000000E+00  0.00000000000E+00 -0.15219867671E+03  0.15219867673E+03  0.25500000920E-02 0. -1.
    10030    2    1    2    0    0  0.00000000000E+00  0.00000000000E+00  0.26086616563E+03  0.56526351909E+03  0.50146953012E+03 0.  0.
        2    1    3    3  502    0  0.25566612488E+02 -0.24679222199E+03  0.89667967084E+02  0.26381887126E+03  0.25500000920E-02 0. -1.
       -2    1    3    3    0  502 -0.25566612488E+02  0.24679222199E+03  0.17119819855E+03  0.30144464782E+03  0.25500000920E-02 0.  1.
</event>
<event>
 5   0  0.4865501E-02  0.4959355E+03  0.7818609E-02  0.1014845E+00
       -1   -1    0    0    0  501  0.00000000000E+00  0.00000000000E+00  0.63594512796E+02  0.63594512996E+02  0.50400001928E-02 0.  1.
        1   -1    0    0  501    0  0.00000000000E+00  0.00000000000E+00 -0.96687577863E+03  0.96687577864E+03  0.50400001928E-02 0. -1.
    10030    2    1    2    0    0  0.00000000000E+00  0.00000000000E+00 -0.90328126584E+03  0.10304702916E+04  0.49593545623E+03 0.  0.
        2    1    3    3  502    0  0.11655346031E+03  0.10160538473E+03 -0.48843313373E+02  0.16215434803E+03  0.25500000920E-02 0.  1.
       -2    1    3    3    0  502 -0.11655346031E+03 -0.10160538473E+03 -0.85443795246E+03  0.86831594361E+03  0.25500000920E-02 0. -1.
</event>
<event>
 5   0  0.4884478E-02  0.5028212E+03  0.7818609E-02  0.1013045E+00
       -1   -1    0    0    0  501  0.00000000000E+00  0.00000000000E+00  0.10106424115E+03  0.10106424128E+03  0.50400001928E-02 0.  1.
        1   -1    0    0  501    0  0.00000000000E+00  0.00000000000E+00 -0.62541692850E+03  0.62541692852E+03  0.50400001928E-02 0. -1.
    10030    2    1    2    0    0  0.00000000000E+00  0.00000000000E+00 -0.52435268735E+03  0.72648116980E+03  0.50282119023E+03 0.  0.
        3    1    3    3  502    0  0.54885279266E+02  0.35231235383E+02  0.88628931186E+02  0.11003968135E+03  0.10100000352E+00 0.  1.
       -3    1    3    3    0  502 -0.54885279266E+02 -0.35231235383E+02 -0.61298161853E+03  0.61644148846E+03  0.10100000352E+00 0. -1.
</event>
<event>
 5   0  0.7881060E-02  0.4998085E+03  0.7818609E-02  0.1013829E+00
       -2   -1    0    0    0  501  0.00000000000E+00  0.00000000000E+00  0.20642524013E+03  0.20642524015E+03  0.25500000920E-02 0.  1.
        2   -1    0    0  501    0  0.00000000000E+00  0.00000000000E+00 -0.30254111826E+03  0.30254111827E+03  0.25500000920E-02 0. -1.
    10030    2    1    2    0    0  0.00000000000E+00  0.00000000000E+00 -0.96115878122E+02  0.50896635842E+03  0.49980845528E+03 0.  0.
        1    1    3    3  502    0  0.47371351522E+01 -0.13875866754E+03  0.16353698546E+03  0.21452448323E+03  0.50400001928E-02 0.  1.
       -1    1    3    3    0  502 -0.47371351522E+01  0.13875866754E+03 -0.25965286359E+03  0.29444187518E+03  0.50400001928E-02 0. -1.
</event>
<event>
 5   0  0.7698747E-02  0.4984822E+03  0.7818609E-02  0.1014176E+00
        2   -1    0    0  501    0  0.00000000000E+00  0.00000000000E+00  0.18633053518E+04  0.18633053518E+04  0.25500000920E-02 0.  1.
       -2   -1    0    0    0  501  0.00000000000E+00  0.00000000000E+00 -0.33339212908E+02  0.33339213006E+02  0.25500000920E-02 0. -1.
    10030    2    1    2    0    0  0.00000000000E+00  0.00000000000E+00  0.18299661389E+04  0.18966445648E+04  0.49848223210E+03 0.  0.
        2    1    3    3  502    0 -0.28744879265E+02  0.23280186025E+03  0.12355429378E+04  0.12576125498E+04  0.25500000920E-02 0. -1.
       -2    1    3    3    0  502  0.28744879265E+02 -0.23280186025E+03  0.59442320105E+03  0.63903201498E+03  0.25500000920E-02 0.  1.
</event>
<event>
 5   0  0.7776070E-02  0.5021682E+03  0.7818609E-02  0.1013215E+00
       -2   -1    0    0    0  501  0.00000000000E+00  0.00000000000E+00  0.10013632551E+04  0.10013632551E+04  0.25500000920E-02 0. -1.
        2   -1    0    0  501    0  0.00000000000E+00  0.00000000000E+00 -0.62957397782E+02  0.62957397834E+02  0.25500000920E-02 0.  1.
    10030    2    1    2    0    0  0.00000000000E+00  0.00000000000E+00  0.93840585728E+03  0.10643206529E+04  0.50216819813E+03 0.  0.
        4    1    3    3  502    0 -0.17903539774E+03  0.15020310534E+03  0.66376531724E+03  0.70370494937E+03  0.12699999809E+01 0. -1.
       -4    1    3    3    0  502  0.17903539774E+03 -0.15020310534E+03  0.27464054003E+03  0.36061570352E+03  0.12699999809E+01 0.  1.
</event>
<event>
 5   0  0.7933103E-02  0.5010289E+03  0.7818609E-02  0.1013511E+00
        2   -1    0    0  501    0  0.00000000000E+00  0.00000000000E+00  0.72418930668E+03  0.72418930668E+03  0.25500000920E-02 0.  1.
       -2   -1    0    0    0  501  0.00000000000E+00  0.00000000000E+00 -0.86658968399E+02  0.86658968437E+02  0.25500000920E-02 0. -1.
    10030    2    1    2    0    0  0.00000000000E+00  0.00000000000E+00  0.63753033828E+03  0.81084827512E+03  0.50102893433E+03 0.  0.
        5    1    3    3  502    0  0.12599355392E+03  0.17961499486E+03  0.12322068189E+03  0.25167707176E+03  0.46999998093E+01 0. -1.
       -5    1    3    3    0  502 -0.12599355392E+03 -0.17961499486E+03  0.51430965639E+03  0.55917120335E+03  0.46999998093E+01 0.  1.
</event>
<event>
 5   0  0.7776070E-02  0.5004828E+03  0.7818609E-02  0.1013653E+00
        2   -1    0    0  501    0  0.00000000000E+00  0.00000000000E+00  0.94956087404E+03  0.94956087405E+03  0.25500000920E-02 0. -1.
       -2   -1    0    0    0  501  0.00000000000E+00  0.00000000000E+00 -0.65947068506E+02  0.65947068555E+02  0.25500000920E-02 0.  1.
    10030    2    1    2    0    0  0.00000000000E+00  0.00000000000E+00  0.88361380554E+03  0.10155079426E+04  0.50048279106E+03 0.  0.
        4    1    3    3  502    0 -0.21249778374E+03 -0.11702030785E+03  0.56639300764E+03  0.61615883710E+03  0.12699999809E+01 0.  1.
       -4    1    3    3    0  502  0.21249778374E+03  0.11702030785E+03  0.31722079790E+03  0.39934910550E+03  0.12699999809E+01 0. -1.
</event>
<event>
 5   0  0.7881060E-02  0.4886682E+03  0.7818609E-02  0.1016780E+00
        2   -1    0    0  501    0  0.00000000000E+00  0.00000000000E+00  0.18223140929E+03  0.18223140931E+03  0.25500000920E-02 0. -1.
       -2   -1    0    0    0  501  0.00000000000E+00  0.00000000000E+00 -0.32760078023E+03  0.32760078024E+03  0.25500000920E-02 0.  1.
    10030    2    1    2    0    0  0.00000000000E+00  0.00000000000E+00 -0.14536937095E+03  0.50983218955E+03  0.48866819775E+03 0.  0.
        1    1    3    3  502    0  0.14414596117E+03 -0.58320672015E+02 -0.26931405591E+03  0.31098138150E+03  0.50400001928E-02 0. -1.
       -1    1    3    3    0  502 -0.14414596117E+03  0.58320672015E+02  0.12394468496E+03  0.19885080805E+03  0.50400001928E-02 0.  1.
</event>
<event>
 5   0  0.4865501E-02  0.5045427E+03  0.7818609E-02  0.1012600E+00
        1   -1    0    0  501    0  0.00000000000E+00  0.00000000000E+00  0.74914945211E+03  0.74914945213E+03  0.50400001928E-02 0. -1.
       -1   -1    0    0    0  501  0.00000000000E+00  0.00000000000E+00 -0.84950789210E+02  0.84950789359E+02  0.50400001928E-02 0.  1.
    10030    2    1    2    0    0  0.00000000000E+00  0.00000000000E+00  0.66419866290E+03  0.83410024149E+03  0.50454271281E+03 0.  0.
        2    1    3    3  502    0 -0.63608213532E+02  0.91149810826E+02 -0.42288761552E+02  0.11892279934E+03  0.25500000920E-02 0.  1.
       -2    1    3    3    0  502  0.63608213532E+02 -0.91149810826E+02  0.70648742445E+03  0.71517744215E+03  0.25500000920E-02 0. -1.
</event>
<event>
 5   0  0.7698747E-02  0.5063396E+03  0.7818609E-02  0.1012137E+00
       -2   -1    0    0    0  501  0.00000000000E+00  0.00000000000E+00  0.40863417238E+03  0.40863417238E+03  0.25500000920E-02 0.  1.
        2   -1    0    0  501    0  0.00000000000E+00  0.00000000000E+00 -0.15685166326E+03  0.15685166328E+03  0.25500000920E-02 0. -1.
    10030    2    1    2    0    0  0.00000000000E+00  0.00000000000E+00  0.25178250912E+03  0.56548583566E+03  0.50633960781E+03 0.  0.
        2    1    3    3  502    0 -0.19185195655E+03 -0.46036591266E+02 -0.51285894220E+02  0.20385481089E+03  0.25500000920E-02 0. -1.
       -2    1    3    3    0  502  0.19185195655E+03  0.46036591266E+02  0.30306840334E+03  0.36163102477E+03  0.25500000920E-02 0.  1.
</event>
<event>
 5   0  0.8208720E-02  0.4935072E+03  0.7818609E-02  0.1015488E+00
        2   -1    0    0  501    0  0.00000000000E+00  0.00000000000E+00  0.60193597083E+03  0.60193597084E+03  0.25500000920E-02 0.  1.
       -2   -1    0    0    0  501  0.00000000000E+00  0.00000000000E+00 -0.10115252323E+03  0.10115252326E+03  0.25500000920E-02 0. -1.
    10030    2    1    2    0    0  0.00000000000E+00  0.00000000000E+00  0.50078344760E+03  0.70308849410E+03  0.49350721286E+03 0.  0.
        3    1    3    3  502    0  0.13054285103E+03 -0.20731833202E+02 -0.46461539107E+02  0.14010685094E+03  0.10100000352E+00 0. -1.
       -3    1    3    3    0  502 -0.13054285103E+03  0.20731833202E+02  0.54724498671E+03  0.56298164316E+03  0.10100000352E+00 0.  1.
</event>
<event>
 5   0  0.7933103E-02  0.4988660E+03  0.7818609E-02  0.1014075E+00
       -2   -1    0    0    0  501  0.00000000000E+00  0.00000000000E+00  0.12930222799E+03  0.12930222802E+03  0.25500000920E-02 0.  1.
        2   -1    0    0  501    0  0.00000000000E+00  0.00000000000E+00 -0.48117358797E+03  0.48117358798E+03  0.25500000920E-02 0. -1.
    10030    2    1    2    0    0  0.00000000000E+00  0.00000000000E+00 -0.35187135998E+03  0.61047581599E+03  0.49886598194E+03 0.  0.
        5    1    3    3  502    0 -0.12930697756E+03 -0.10378670087E+03 -0.40389982245E+03  0.43663386298E+03  0.46999998093E+01 0. -1.
       -5    1    3    3    0  502  0.12930697756E+03  0.10378670087E+03  0.52028462471E+02  0.17384195302E+03  0.46999998093E+01 0.  1.
</event>
<event>
 5   0  0.7881060E-02  0.5009965E+03  0.7818609E-02  0.1013519E+00
        2   -1    0    0  501    0  0.00000000000E+00  0.00000000000E+00  0.32480672779E+03  0.32480672780E+03  0.25500000920E-02 0.  1.
       -2   -1    0    0    0  501  0.00000000000E+00  0.00000000000E+00 -0.19318990268E+03  0.19318990269E+03  0.25500000920E-02 0. -1.
    10030    2    1    2    0    0  0.00000000000E+00  0.00000000000E+00  0.13161682511E+03  0.51799663049E+03  0.50099652748E+03 0.  0.
        1    1    3    3  502    0 -0.18788809708E+03 -0.16324015836E+03  0.95054156129E+02  0.26642931323E+03  0.50400001928E-02 0.  1.
       -1    1    3    3    0  502  0.18788809708E+03  0.16324015836E+03  0.36562668983E+02  0.25156731726E+03  0.50400001928E-02 0. -1.
</event>
<event>
 5   0  0.5038436E-02  0.4948587E+03  0.7818609E-02  0.1015130E+00
       -1   -1    0    0    0  501  0.00000000000E+00  0.00000000000E+00  0.93834161596E+02  0.93834161732E+02  0.50400001928E-02 0.  1.
        1   -1    0    0  501    0  0.00000000000E+00  0.00000000000E+00 -0.65244136900E+03  0.65244136902E+03  0.50400001928E-02 0. -1.
    10030    2    1    2    0    0  0.00000000000E+00  0.00000000000E+00 -0.55860720741E+03  0.74627553075E+03  0.49485872291E+03 0.  0.
        1    1    3    3  502    0  0.69361618266E+02 -0.30630919477E+02 -0.63448882755E+03  0.63900341128E+03  0.50400001928E-02 0. -1.
       -1    1    3    3    0  502 -0.69361618266E+02  0.30630919477E+02  0.75881620141E+02  0.10727211948E+03  0.50400001928E-02 0.  1.
</event>
<event>
 5   0  0.7698747E-02  0.5130419E+03  0.7818609E-02  0.1010430E+00
        2   -1    0    0  501    0  0.00000000000E+00  0.00000000000E+00  0.71368870308E+03  0.71368870308E+03  0.25500000920E-02 0. -1.
       -2   -1    0    0    0  501  0.00000000000E+00  0.00000000000E+00 -0.92201259427E+02  0.92201259463E+02  0.25500000920E-02 0.  1.
    10030    2    1    2    0    0  0.00000000000E+00  0.00000000000E+00  0.62148744365E+03  0.80588996255E+03  0.51304189801E+03 0.  0.
        2    1    3    3  502    0  0.21853329557E+03  0.13167388779E+03  0.35254559523E+03  0.43518181340E+03  0.25500000920E-02 0.  1.
       -2    1    3    3    0  502 -0.21853329557E+03 -0.13167388779E+03  0.26894184843E+03  0.37070814914E+03  0.25500000920E-02 0. -1.
</event>
<event>
 5   0  0.4884478E-02  0.5015369E+03  0.7818609E-02  0.1013379E+00
        1   -1    0    0  501    0  0.00000000000E+00  0.00000000000E+00  0.45767043593E+02  0.45767043870E+02  0.50400001928E-02 0.  1.
       -1   -1    0    0    0  501  0.00000000000E+00  0.00000000000E+00 -0.13740195842E+04  0.13740195842E+04  0.50400001928E-02 0. -1.
    10030    2    1    2    0    0  0.00000000000E+00  0.00000000000E+00 -0.13282525406E+04  0.14197866281E+04  0.50153689560E+03 0.  0.
        3    1    3    3  502    0  0.35267549782E+02 -0.18974694106E+03 -0.11173938574E+04  0.11339385982E+04  0.10100000352E+00 0. -1.
       -3    1    3    3    0  502 -0.35267549782E+02  0.18974694106E+03 -0.21085868321E+03  0.28584802989E+03  0.10100000352E+00 0.  1.
</event>
<event>
 5   0  0.7933103E-02  0.4977662E+03  0.7818609E-02  0.1014364E+00
       -2   -1    0    0    0  501  0.00000000000E+00  0.00000000000E+00  0.14128633219E+03  0.14128633221E+03  0.25500000920E-02 0.  1.
        2   -1    0    0  501    0  0.00000000000E+00  0.00000000000E+00 -0.43842023089E+03  0.43842023090E+03  0.25500000920E-02 0. -1.
    10030    2    1    2    0    0  0.00000000000E+00  0.00000000000E+00 -0.29713389870E+03  0.57970656311E+03  0.49776615550E+03 0.  0.
        5    1    3    3  502    0 -0.24206449074E+02  0.10483891826E+02  0.13960164939E+03  0.14214983178E+03  0.46999998093E+01 0.  1.
       -5    1    3    3    0  502  0.24206449074E+02 -0.10483891826E+02 -0.43673554809E+03  0.43755673133E+03  0.46999998093E+01 0. -1.
</event>
<event>
 5   0  0.4865501E-02  0.4988723E+03  0.7818609E-02  0.1014074E+00
       -1   -1    0    0    0  501  0.00000000000E+00  0.00000000000E+00  0.30287787856E+03  0.30287787861E+03  0.50400001928E-02 0.  1.
        1   -1    0    0  501    0  0.00000000000E+00  0.00000000000E+00 -0.20542402268E+03  0.20542402274E+03  0.50400001928E-02 0. -1.
    10030    2    1    2    0    0  0.00000000000E+00  0.00000000000E+00  0.97453855882E+02  0.50830190135E+03  0.49887229717E+03 0.  0.
        2    1    3    3  502    0  0.40392886488E+02  0.24494972684E+03  0.73401151380E+02  0.25888160033E+03  0.25500000920E-02 0. -1.
       -2    1    3    3    0  502 -0.40392886488E+02 -0.24494972684E+03  0.24052704502E+02  0.24942030102E+03  0.25500000920E-02 0.  1.
</event>
<event>
 5   0  0.7776070E-02  0.5083759E+03  0.7818609E-02  0.1011616E+00
        2   -1    0    0  501    0  0.00000000000E+00  0.00000000000E+00  0.18130042457E+03  0.18130042459E+03  0.25500000920E-02 0.  1.
       -2   -1    0    0    0  501  0.00000000000E+00  0.00000000000E+00 -0.35637813300E+03  0.35637813301E+03  0.25500000920E-02 0. -1.
    10030    2    1    2    0    0  0.00000000000E+00  0.00000000000E+00 -0.17507770843E+03  0.53767855760E+03  0.50837587208E+03 0.  0.
        4    1    3    3  502    0  0.23304889877E+03  0.13656879164E+02 -0.19389133051E+03  0.30346953804E+03  0.12699999809E+01 0. -1.
       -4    1    3    3    0  502 -0.23304889877E+03 -0.13656879164E+02  0.18813622089E+02  0.23420901956E+03  0.12699999809E+01 0.  1.
</event>
<event>
 5   0  0.5038436E-02  0.5026049E+03  0.7818609E-02  0.1013101E+00
       -1   -1    0    0    0  501  0.00000000000E+00  0.00000000000E+00  0.51813733932E+02  0.51813734177E+02  0.50400001928E-02 0. -1.
        1   -1    0    0  501    0  0.00000000000E+00  0.00000000000E+00 -0.12188451060E+04  0.12188451060E+04  0.50400001928E-02 0.  1.
    10030    2    1    2    0    0  0.00000000000E+00  0.00000000000E+00 -0.11670313720E+04  0.12706588401E+04  0.50260487935E+03 0.  0.
        1    1    3    3  502    0  0.22626376806E+03  0.16541256937E+02 -0.31024174100E+03  0.38434209215E+03  0.50400001928E-02 0.  1.
       -1    1    3    3    0  502 -0.22626376806E+03 -0.16541256937E+02 -0.85678963103E+03  0.88631674800E+03  0.50400001928E-02 0. -1.
</event>
<event>
 5   0  0.7881060E-02  0.5024750E+03  0.7818609E-02  0.1013135E+00
        2   -1    0    0  501    0  0.00000000000E+00  0.00000000000E+00  0.60137387150E+03  0.60137387151E+03  0.25500000920E-02 0. -1.
       -2   -1    0    0    0  501  0.00000000000E+00  0.00000000000E+00 -0.10496015138E+03  0.10496015141E+03  0.25500000920E-02 0.  1.
    10030    2    1    2    0    0  0.00000000000E+00  0.00000000000E+00  0.49641372012E+03  0.70633402292E+03  0.50247504456E+03 0.  0.
        1    1    3    3  502    0 -0.14157393694E+03  0.20603868826E+03  0.21305928615E+03  0.32846518860E+03  0.50400001928E-02 0. -1.
       -1    1    3    3    0  502  0.14157393694E+03 -0.20603868826E+03  0.28335443397E+03  0.37786883432E+03  0.50400001928E-02 0.  1.
</event>
<event>
 5   0  0.4865501E-02  0.5140036E+03  0.7818609E-02  0.1010187E+00
        1   -1    0    0  501    0  0.00000000000E+00  0.00000000000E+00  0.72028819064E+03  0.72028819066E+03  0.50400001928E-02 0.  1.
       -1   -1    0    0    0  501  0.00000000000E+00  0.00000000000E+00 -0.91699318604E+02  0.91699318743E+02  0.50400001928E-02 0. -1.
    10030    2    1    2    0    0  0.00000000000E+00  0.00000000000E+00  0.62858887203E+03  0.81198750940E+03  0.51400364335E+03 0.  0.
        2    1    3    3  502    0 -0.11259544969E+03  0.22891924152E+03  0.36344874927E+03  0.44404588477E+03  0.25500000920E-02 0.  1.
       -2    1    3    3    0  502  0.11259544969E+03 -0.22891924152E+03  0.26514012276E+03  0.36794162463E+03  0.25500000920E-02 0. -1.
</event>
<event>
 5   0  0.3210875E-02  0.5021502E+03  0.7818609E-02  0.1013219E+00
        3   -1    0    0  501    0  0.00000000000E+00  0.00000000000E+00  0.93146224333E+02  0.93146279091E+02  0.10100000352E+00 0.  1.
       -3   -1    0    0    0  501  0.00000000000E+00  0.00000000000E+00 -0.67677115981E+03  0.67677116734E+03  0.10100000352E+00 0. -1.
    10030    2    1    2    0    0  0.00000000000E+00  0.00000000000E+00 -0.58362493547E+03  0.76991744644E+03  0.50215018572E+03 0.  0.
        2    1    3    3  502    0  0.20883809724E+03  0.13399489495E+03 -0.23301272020E+03  0.34038641353E+03  0.25500000920E-02 0. -1.
       -2    1    3    3    0  502 -0.20883809724E+03 -0.13399489495E+03 -0.35061221527E+03  0.42953103291E+03  0.25500000920E-02 0.  1.
</event>
<event>
 5   0  0.8208720E-02  0.5014236E+03  0.7818609E-02  0.1013408E+00
       -2   -1    0    0    0  501  0.00000000000E+00  0.00000000000E+00  0.41123516317E+02  0.41123516396E+02  0.25500000920E-02 0.  1.
        2   -1    0    0  501    0  0.00000000000E+00  0.00000000000E+00 -0.15284785041E+04  0.15284785041E+04  0.25500000920E-02 0. -1.
    10030    2    1    2    0    0  0.00000000000E+00  0.00000000000E+00 -0.14873549877E+04  0.15696020205E+04  0.50142361638E+03 0.  0.
        3    1    3    3  502    0  0.19561477745E+03  0.15587316469E+03 -0.79742523815E+03  0.83573237658E+03  0.10100000352E+00 0. -1.
       -3    1    3    3    0  502 -0.19561477745E+03 -0.15587316469E+03 -0.68992974959E+03  0.73386964388E+03  0.10100000352E+00 0.  1.
</event>
<event>
 5   0  0.4884478E-02  0.4420436E+03  0.7818609E-02  0.1030122E+00
       -1   -1    0    0    0  501  0.00000000000E+00  0.00000000000E+00  0.29109256476E+02  0.29109256912E+02  0.50400001928E-02 0.  1.
        1   -1    0    0  501    0  0.00000000000E+00  0.00000000000E+00 -0.16781822077E+04  0.16781822077E+04  0.50400001928E-02 0. -1.
    10030    2    1    2    0    0  0.00000000000E+00  0.00000000000E+00 -0.16490729513E+04  0.17072914647E+04  0.44204360272E+03 0.  0.
        3    1    3    3  502    0 -0.60708268044E+02  0.56210865844E+02 -0.32955241579E+02  0.89057360148E+02  0.10100000352E+00 0.  1.
       -3    1    3    3    0  502  0.60708268044E+02 -0.56210865844E+02 -0.16161177097E+04  0.16182341045E+04  0.10100000352E+00 0. -1.
</event>
<event>
 5   0  0.7881060E-02  0.5217033E+03  0.7818609E-02  0.1008264E+00
        2   -1    0    0  501    0  0.00000000000E+00  0.00000000000E+00  0.61396229397E+03  0.61396229397E+03  0.25500000920E-02 0. -1.
       -2   -1    0    0    0  501  0.00000000000E+00  0.00000000000E+00 -0.11082697369E+03  0.11082697372E+03  0.25500000920E-02 0.  1.
    10030    2    1    2    0    0  0.00000000000E+00  0.00000000000E+00  0.50313532028E+03  0.72478926770E+03  0.52170329887E+03 0.  0.
        1    1    3    3  502    0  0.22124714990E+03  0.10241450536E+03  0.12269752883E+03  0.27293536937E+03  0.50400001928E-02 0.  1.
       -1    1    3    3    0  502 -0.22124714990E+03 -0.10241450536E+03  0.38043779144E+03  0.45185389832E+03  0.50400001928E-02 0. -1.
</event>
<event>
 5   0  0.5191358E-02  0.4987607E+03  0.7818609E-02  0.1014103E+00
       -1   -1    0    0    0  501  0.00000000000E+00  0.00000000000E+00  0.86256924091E+03  0.86256924093E+03  0.50400001928E-02 0. -1.
        1   -1    0    0  501    0  0.00000000000E+00  0.00000000000E+00 -0.72099197304E+02  0.72099197480E+02  0.50400001928E-02 0.  1.
    10030    2    1    2    0    0  0.00000000000E+00  0.00000000000E+00  0.79047004361E+03  0.93466843841E+03  0.49876066396E+03 0.  0.
        4    1    3    3  502    0 -0.16860929326E+03  0.17634627735E+03  0.49191929765E+03  0.54910227791E+03  0.12699999809E+01 0.  1.
       -4    1    3    3    0  502  0.16860929326E+03 -0.17634627735E+03  0.29855074596E+03  0.38556616050E+03  0.12699999809E+01 0. -1.
</event>
<event>
 5   0  0.8208720E-02  0.4973125E+03  0.7818609E-02  0.1014483E+00
        2   -1    0    0  501    0  0.00000000000E+00  0.00000000000E+00  0.28178275403E+03  0.28178275404E+03  0.25500000920E-02 0.  1.
       -2   -1    0    0    0  501  0.00000000000E+00  0.00000000000E+00 -0.21942412372E+03  0.21942412373E+03  0.25500000920E-02 0. -1.
    10030    2    1    2    0    0  0.00000000000E+00  0.00000000000E+00  0.62358630316E+02  0.50120687777E+03  0.49731251297E+03 0.  0.
        3    1    3    3  502    0 -0.58328848429E+02 -0.13126251411E+03  0.23574122093E+03  0.27605440699E+03  0.10100000352E+00 0.  1.
       -3    1    3    3    0  502  0.58328848429E+02  0.13126251411E+03 -0.17338259062E+03  0.22515247078E+03  0.10100000352E+00 0. -1.
</event>
<event>
 5   0  0.5191358E-02  0.5026089E+03  0.7818609E-02  0.1013100E+00
        1   -1    0    0  501    0  0.00000000000E+00  0.00000000000E+00  0.72273282227E+03  0.72273282229E+03  0.50400001928E-02 0.  1.
       -1   -1    0    0    0  501  0.00000000000E+00  0.00000000000E+00 -0.87382132115E+02  0.87382132260E+02  0.50400001928E-02 0. -1.
    10030    2    1    2    0    0  0.00000000000E+00  0.00000000000E+00  0.63535069015E+03  0.81011495455E+03  0.50260893357E+03 0.  0.
        4    1    3    3  502    0 -0.13917631409E+03  0.20916437466E+03  0.32686979682E+03  0.41226843076E+03  0.12699999809E+01 0.  1.
       -4    1    3    3    0  502  0.13917631409E+03 -0.20916437466E+03  0.30848089334E+03  0.39784652378E+03  0.12699999809E+01 0. -1.
</event>
<event>
 5   0  0.4803890E-02  0.4978747E+03  0.7818609E-02  0.1014335E+00
       -1   -1    0    0    0  501  0.00000000000E+00  0.00000000000E+00  0.46206142965E+02  0.46206143240E+02  0.50400001928E-02 0. -1.
        1   -1    0    0  501    0  0.00000000000E+00  0.00000000000E+00 -0.13411596449E+04  0.13411596449E+04  0.50400001928E-02 0.  1.
    10030    2    1    2    0    0  0.00000000000E+00  0.00000000000E+00 -0.12949535019E+04  0.13873657882E+04  0.49787474123E+03 0.  0.
        5    1    3    3  502    0  0.91281512589E+02  0.22830421301E+03 -0.53981980311E+03  0.59319696395E+03  0.46999998093E+01 0.  1.
       -5    1    3    3    0  502 -0.91281512589E+02 -0.22830421301E+03 -0.75513369883E+03  0.79416882420E+03  0.46999998093E+01 0. -1.
</event>
<event>
 5   0  0.5191358E-02  0.4768090E+03  0.7818609E-02  0.1020016E+00
        1   -1    0    0  501    0  0.00000000000E+00  0.00000000000E+00  0.26414331325E+03  0.26414331330E+03  0.50400001928E-02 0.  1.
       -1   -1    0    0    0  501  0.00000000000E+00  0.00000000000E+00 -0.21517370020E+03  0.21517370026E+03  0.50400001928E-02 0. -1.
    10030    2    1    2    0    0  0.00000000000E+00  0.00000000000E+00  0.48969613049E+02  0.47931701355E+03  0.47680895176E+03 0.  0.
        4    1    3    3  502    0 -0.18750634979E+03  0.45029958972E+02  0.16539614456E+03  0.25405476959E+03  0.12699999809E+01 0.  1.
       -4    1    3    3    0  502  0.18750634979E+03 -0.45029958972E+02 -0.11642653151E+03  0.22526224396E+03  0.12699999809E+01 0. -1.
</event>
<event>
 5   0  0.4884478E-02  0.4976593E+03  0.7818609E-02  0.1014392E+00
        1   -1    0    0  501    0  0.00000000000E+00  0.00000000000E+00  0.13372629210E+03  0.13372629219E+03  0.50400001928E-02 0.  1.
       -1   -1    0    0    0  501  0.00000000000E+00  0.00000000000E+00 -0.46300691530E+03  0.46300691532E+03  0.50400001928E-02 0. -1.
    10030    2    1    2    0    0  0.00000000000E+00  0.00000000000E+00 -0.32928062320E+03  0.59673320751E+03  0.49765931332E+03 0.  0.
        3    1    3    3  502    0  0.18848779212E+03 -0.73978982139E+02 -0.33805415196E+03  0.39405730222E+03  0.10100000352E+00 0. -1.
       -3    1    3    3    0  502 -0.18848779212E+03  0.73978982139E+02  0.87735287591E+01  0.20267590529E+03  0.10100000352E+00 0.  1.
</event>
<event>
 5   0  0.7698747E-02  0.4994457E+03  0.7818609E-02  0.1013924E+00
        2   -1    0    0  501    0  0.00000000000E+00  0.00000000000E+00  0.11707434556E+04  0.11707434556E+04  0.25500000920E-02 0.  1.
       -2   -1    0    0    0  501  0.00000000000E+00  0.00000000000E+00 -0.53266578409E+02  0.53266578470E+02  0.25500000920E-02 0. -1.
    10030    2    1    2    0    0  0.00000000000E+00  0.00000000000E+00  0.11174768772E+04  0.12240100341E+04  0.49944568519E+03 0.  0.
        2    1    3    3  502    0 -0.24236174097E+03 -0.54384735611E+02  0.62191733424E+03  0.66968506299E+03  0.25500000920E-02 0. -1.
       -2    1    3    3    0  502  0.24236174097E+03  0.54384735611E+02  0.49555954296E+03  0.55432497109E+03  0.25500000920E-02 0.  1.
</event>
<event>
 5   0  0.7776070E-02  0.4996176E+03  0.7818609E-02  0.1013879E+00
        2   -1    0    0  501    0  0.00000000000E+00  0.00000000000E+00  0.63625677570E+02  0.63625677622E+02  0.25500000920E-02 0.  1.
       -2   -1    0    0    0  501  0.00000000000E+00  0.00000000000E+00 -0.98080603594E+03  0.98080603595E+03  0.25500000920E-02 0. -1.
    10030    2    1    2    0    0  0.00000000000E+00  0.00000000000E+00 -0.91718035837E+03  0.10444317136E+04  0.49961764833E+03 0.  0.
        4    1    3    3  502    0  0.36884203750E+02  0.17877272008E+01  0.57881699065E+02  0.68669821912E+02  0.12699999809E+01 0.  1.
       -4    1    3    3    0  502 -0.36884203750E+02 -0.17877272008E+01 -0.97506205744E+03  0.97576189166E+03  0.12699999809E+01 0. -1.
</event>
<event>
 5   0  0.7933103E-02  0.5012053E+03  0.7818609E-02  0.1013465E+00
        2   -1    0    0  501    0  0.00000000000E+00  0.00000000000E+00  0.11827940987E+04  0.11827940987E+04  0.25500000920E-02 0.  1.
       -2   -1    0    0    0  501  0.00000000000E+00  0.00000000000E+00 -0.53096038744E+02  0.53096038805E+02  0.25500000920E-02 0. -1.
    10030    2    1    2    0    0  0.00000000000E+00  0.00000000000E+00  0.11296980600E+04  0.12358901375E+04  0.50120527264E+03 0.  0.
        5    1    3    3  502    0  0.22185396393E+03  0.82702765645E+02  0.76699741737E+03  0.80272414752E+03  0.46999998093E+01 0. -1.
       -5    1    3    3    0  502 -0.22185396393E+03 -0.82702765645E+02  0.36270064259E+03  0.43316598999E+03  0.46999998093E+01 0.  1.
</event>
<event>
 5   0  0.7933103E-02  0.4996441E+03  0.7818609E-02  0.1013872E+00
       -2   -1    0    0    0  501  0.00000000000E+00  0.00000000000E+00  0.63074514967E+02  0.63074515019E+02  0.25500000920E-02 0. -1.
        2   -1    0    0  501    0  0.00000000000E+00  0.00000000000E+00 -0.98948117842E+03  0.98948117842E+03  0.25500000920E-02 0.  1.
    10030    2    1    2    0    0  0.00000000000E+00  0.00000000000E+00 -0.92640666345E+03  0.10525556934E+04  0.49964405501E+03 0.  0.
        5    1    3    3  502    0  0.16016693898E+03  0.17737658426E+03 -0.31023008364E+03  0.39163847586E+03  0.46999998093E+01 0. -1.
       -5    1    3    3    0  502 -0.16016693898E+03 -0.17737658426E+03 -0.61617657981E+03  0.66091721758E+03  0.46999998093E+01 0.  1.
</event>
<event>
 5   0  0.4865501E-02  0.5004770E+03  0.7818609E-02  0.1013654E+00
       -1   -1    0    0    0  501  0.00000000000E+00  0.00000000000E+00  0.10840091626E+03  0.10840091638E+03  0.50400001928E-02 0. -1.
        1   -1    0    0  501    0  0.00000000000E+00  0.00000000000E+00 -0.57766407012E+03  0.57766407014E+03  0.50400001928E-02 0.  1.
    10030    2    1    2    0    0  0.00000000000E+00  0.00000000000E+00 -0.46926315386E+03  0.68606498652E+03  0.50047703060E+03 0.  0.
        2    1    3    3  502    0  0.16273891196E+03  0.62724936309E+02 -0.48062041620E+03  0.51128696010E+03  0.25500000920E-02 0.  1.
       -2    1    3    3    0  502 -0.16273891196E+03 -0.62724936309E+02  0.11357262339E+02  0.17477802641E+03  0.25500000920E-02 0. -1.
</event>
<event>
 5   0  0.5191358E-02  0.4975239E+03  0.7818609E-02  0.1014427E+00
        1   -1    0    0  501    0  0.00000000000E+00  0.00000000000E+00  0.21366339939E+03  0.21366339945E+03  0.50400001928E-02 0.  1.
       -1   -1    0    0    0  501  0.00000000000E+00  0.00000000000E+00 -0.28962610889E+03  0.28962610893E+03  0.50400001928E-02 0. -1.
    10030    2    1    2    0    0  0.00000000000E+00  0.00000000000E+00 -0.75962709493E+02  0.50328950839E+03  0.49752386477E+03 0.  0.
        4    1    3    3  502    0 -0.14781663433E+03 -0.19995732525E+03 -0.30958510144E+02  0.25058477918E+03  0.12699999809E+01 0.  1.
       -4    1    3    3    0  502  0.14781663433E+03  0.19995732525E+03 -0.45004199349E+02  0.25270472921E+03  0.12699999809E+01 0. -1.
</event>
<event>
 5   0  0.8208720E-02  0.5031482E+03  0.7818609E-02  0.1012960E+00
       -2   -1    0    0    0  501  0.00000000000E+00  0.00000000000E+00  0.32914776149E+02  0.32914776248E+02  0.25500000920E-02 0.  1.
        2   -1    0    0  501    0  0.00000000000E+00  0.00000000000E+00 -0.19228303852E+04  0.19228303852E+04  0.25500000920E-02 0. -1.
    10030    2    1    2    0    0  0.00000000000E+00  0.00000000000E+00 -0.18899156090E+04  0.19557451614E+04  0.50314821593E+03 0.  0.
        3    1    3    3  502    0 -0.17766413600E+03 -0.51767328569E+02 -0.28250809279E+03  0.33772064524E+03  0.10100000352E+00 0.  1.
       -3    1    3    3    0  502  0.17766413600E+03  0.51767328569E+02 -0.16074075162E+04  0.16180245162E+04  0.10100000352E+00 0. -1.
</event>
<event>
 5   0  0.7881060E-02  0.5014326E+03  0.7818609E-02  0.1013406E+00
       -2   -1    0    0    0  501  0.00000000000E+00  0.00000000000E+00  0.66954698530E+02  0.66954698578E+02  0.25500000920E-02 0.  1.
        2   -1    0    0  501    0  0.00000000000E+00  0.00000000000E+00 -0.93882379243E+03  0.93882379243E+03  0.25500000920E-02 0. -1.
    10030    2    1    2    0    0  0.00000000000E+00  0.00000000000E+00 -0.87186909390E+03  0.10057784910E+04  0.50143260373E+03 0.  0.
        1    1    3    3  502    0  0.24601497409E+03 -0.47965821386E+02 -0.44772906677E+03  0.51311344238E+03  0.50400001928E-02 0.  1.
       -1    1    3    3    0  502 -0.24601497409E+03  0.47965821386E+02 -0.42414002713E+03  0.49266504863E+03  0.50400001928E-02 0. -1.
</event>
<event>
 5   0  0.3210875E-02  0.5023579E+03  0.7818609E-02  0.1013165E+00
        3   -1    0    0  501    0  0.00000000000E+00  0.00000000000E+00  0.37530993269E+02  0.37531129170E+02  0.10100000352E+00 0.  1.
       -3   -1    0    0    0  501  0.00000000000E+00  0.00000000000E+00 -0.16810307072E+04  0.16810307102E+04  0.10100000352E+00 0. -1.
    10030    2    1    2    0    0  0.00000000000E+00  0.00000000000E+00 -0.16434997139E+04  0.17185618394E+04  0.50235792634E+03 0.  0.
        2    1    3    3  502    0  0.19919779258E+03  0.12732728389E+03 -0.11120078469E+04  0.11368612269E+04  0.25500000920E-02 0. -1.
       -2    1    3    3    0  502 -0.19919779258E+03 -0.12732728389E+03 -0.53149186701E+03  0.58170061242E+03  0.25500000920E-02 0.  1.
</event>
<event>
 5   0  0.7933103E-02  0.5002257E+03  0.7818609E-02  0.1013720E+00
        2   -1    0    0  501    0  0.00000000000E+00  0.00000000000E+00  0.67862636308E+03  0.67862636308E+03  0.25500000920E-02 0.  1.
       -2   -1    0    0    0  501  0.00000000000E+00  0.00000000000E+00 -0.92180970986E+02  0.92180971021E+02  0.25500000920E-02 0. -1.
    10030    2    1    2    0    0  0.00000000000E+00  0.00000000000E+00  0.58644539209E+03  0.77080733411E+03  0.50022569746E+03 0.  0.
        5    1    3    3  502    0  0.11475173548E+03 -0.83248519218E+02 -0.24206902751E+02  0.14389698011E+03  0.46999998093E+01 0. -1.
       -5    1    3    3    0  502 -0.11475173548E+03  0.83248519218E+02  0.61065229484E+03  0.62691035399E+03  0.46999998093E+01 0.  1.
</event>
<event>
 5   0  0.4884478E-02  0.4996578E+03  0.7818609E-02  0.1013868E+00
        1   -1    0    0  501    0  0.00000000000E+00  0.00000000000E+00  0.87074052701E+03  0.87074052703E+03  0.50400001928E-02 0. -1.
       -1   -1    0    0    0  501  0.00000000000E+00  0.00000000000E+00 -0.71679770954E+02  0.71679771131E+02  0.50400001928E-02 0.  1.
    10030    2    1    2    0    0  0.00000000000E+00  0.00000000000E+00  0.79906075606E+03  0.94242029816E+03  0.49965780941E+03 0.  0.
        3    1    3    3  502    0  0.50018703328E+02  0.23530255720E+03  0.52669127360E+03  0.57902752266E+03  0.10100000352E+00 0. -1.
       -3    1    3    3    0  502 -0.50018703328E+02 -0.23530255720E+03  0.27236948246E+03  0.36339277550E+03  0.10100000352E+00 0.  1.
</event>
<event>
 5   0  0.3210875E-02  0.5021010E+03  0.7818609E-02  0.1013232E+00
        3   -1    0    0  501    0  0.00000000000E+00  0.00000000000E+00  0.93152066573E+02  0.93152121328E+02  0.10100000352E+00 0.  1.
       -3   -1    0    0    0  501  0.00000000000E+00  0.00000000000E+00 -0.67659611405E+03  0.67659612159E+03  0.10100000352E+00 0. -1.
    10030    2    1    2    0    0  0.00000000000E+00  0.00000000000E+00 -0.58344404747E+03  0.76974824291E+03  0.50210098679E+03 0.  0.
        4    1    3    3  502    0 -0.27410333962E+02 -0.23349616317E+03 -0.42670879166E+03  0.48718968627E+03  0.12699999809E+01 0. -1.
       -4    1    3    3    0  502  0.27410333962E+02  0.23349616317E+03 -0.15673525581E+03  0.28255855665E+03  0.12699999809E+01 0.  1.
</event>
<event>
 5   0  0.7698747E-02  0.5010582E+03  0.7818609E-02  0.1013503E+00
       -2   -1    0    0    0  501  0.00000000000E+00  0.00000000000E+00  0.30889900645E+03  0.30889900646E+03  0.25500000920E-02 0. -1.
        2   -1    0    0  501    0  0.00000000000E+00  0.00000000000E+00 -0.20318880317E+03  0.20318880319E+03  0.25500000920E-02 0.  1.
    10030    2    1    2    0    0  0.00000000000E+00  0.00000000000E+00  0.10571020328E+03  0.51208780965E+03  0.50105815802E+03 0.  0.
        2    1    3    3  502    0 -0.63866875946E+02 -0.82782312534E+02  0.28553516902E+03  0.30407601330E+03  0.25500000920E-02 0. -1.
       -2    1    3    3    0  502  0.63866875946E+02  0.82782312534E+02 -0.17982496574E+03  0.20801179635E+03  0.25500000920E-02 0.  1.
</event>
<event>
 5   0  0.5038436E-02  0.4967334E+03  0.7818609E-02  0.1014635E+00
       -1   -1    0    0    0  501  0.00000000000E+00  0.00000000000E+00  0.78838271544E+02  0.78838271706E+02  0.50400001928E-02 0.  1.
        1   -1    0    0  501    0  0.00000000000E+00  0.00000000000E+00 -0.78243751084E+03  0.78243751085E+03  0.50400001928E-02 0. -1.
    10030    2    1    2    0    0  0.00000000000E+00  0.00000000000E+00 -0.70359923929E+03  0.86127578256E+03  0.49673341350E+03 0.  0.
        1    1    3    3  502    0 -0.93526311280E+02 -0.18298826428E+03 -0.10996139931E+03  0.23307377616E+03  0.50400001928E-02 0.  1.
       -1    1    3    3    0  502  0.93526311280E+02  0.18298826428E+03 -0.59363783998E+03  0.62820200640E+03  0.50400001928E-02 0. -1.
</event>
<event>
 5   0  0.8208720E-02  0.4967636E+03  0.7818609E-02  0.1014627E+00
        2   -1    0    0  501    0  0.00000000000E+00  0.00000000000E+00  0.37566467205E+03  0.37566467205E+03  0.25500000920E-02 0. -1.
       -2   -1    0    0    0  501  0.00000000000E+00  0.00000000000E+00 -0.16422495902E+03  0.16422495904E+03  0.25500000920E-02 0.  1.
    10030    2    1    2    0    0  0.00000000000E+00  0.00000000000E+00  0.21143971303E+03  0.53988963109E+03  0.49676358714E+03 0.  0.
        3    1    3    3  502    0 -0.61609389499E+02  0.68266017717E+02  0.35648329618E+03  0.36815257259E+03  0.10100000352E+00 0. -1.
       -3    1    3    3    0  502  0.61609389499E+02 -0.68266017717E+02 -0.14504358315E+03  0.17173705850E+03  0.10100000352E+00 0.  1.
</event>
<event>
 5   0  0.7698747E-02  0.5012589E+03  0.7818609E-02  0.1013451E+00
        2   -1    0    0  501    0  0.00000000000E+00  0.00000000000E+00  0.33382087248E+03  0.33382087249E+03  0.25500000920E-02 0.  1.
       -2   -1    0    0    0  501  0.00000000000E+00  0.00000000000E+00 -0.18817012230E+03  0.18817012231E+03  0.25500000920E-02 0. -1.
    10030    2    1    2    0    0  0.00000000000E+00  0.00000000000E+00  0.14565075018E+03  0.52199099480E+03  0.50125887287E+03 0.  0.
        2    1    3    3  502    0  0.15920891287E+03  0.10921133530E+03 -0.93598569371E+02  0.21455835078E+03  0.25500000920E-02 0. -1.
       -2    1    3    3    0  502 -0.15920891287E+03 -0.10921133530E+03  0.23924931955E+03  0.30743264402E+03  0.25500000920E-02 0.  1.
</event>
<event>
 5   0  0.5038436E-02  0.4977403E+03  0.7818609E-02  0.1014370E+00
        1   -1    0    0  501    0  0.00000000000E+00  0.00000000000E+00  0.13293918405E+03  0.13293918415E+03  0.50400001928E-02 0. -1.
       -1   -1    0    0    0  501  0.00000000000E+00  0.00000000000E+00 -0.46589994233E+03  0.46589994236E+03  0.50400001928E-02 0.  1.
    10030    2    1    2    0    0  0.00000000000E+00  0.00000000000E+00 -0.33296075828E+03  0.59883912650E+03  0.49774032675E+03 0.  0.
        1    1    3    3  502    0  0.15976349985E+03 -0.49391705630E+02  0.55273242206E+02  0.17612225243E+03  0.50400001928E-02 0. -1.
       -1    1    3    3    0  502 -0.15976349985E+03  0.49391705630E+02 -0.38823400049E+03  0.42271687408E+03  0.50400001928E-02 0.  1.
</event>
<event>
 5   0  0.7933103E-02  0.5380931E+03  0.7818609E-02  0.1004288E+00
       -2   -1    0    0    0  501  0.00000000000E+00  0.00000000000E+00  0.57042315445E+03  0.57042315446E+03  0.25500000920E-02 0. -1.
        2   -1    0    0  501    0  0.00000000000E+00  0.00000000000E+00 -0.12689885366E+03  0.12689885368E+03  0.25500000920E-02 0.  1.
    10030    2    1    2    0    0  0.00000000000E+00  0.00000000000E+00  0.44352430080E+03  0.69732200814E+03  0.53809309384E+03 0.  0.
        5    1    3    3  502    0  0.24721889142E+03 -0.84590852092E+02  0.30465160577E+03  0.40138196700E+03  0.46999998093E+01 0. -1.
       -5    1    3    3    0  502 -0.24721889142E+03  0.84590852092E+02  0.13887269502E+03  0.29594004115E+03  0.46999998093E+01 0.  1.
</event>
<event>
 5   0  0.7698747E-02  0.4999749E+03  0.7818609E-02  0.1013785E+00
       -2   -1    0    0    0  501  0.00000000000E+00  0.00000000000E+00  0.10746713476E+03  0.10746713479E+03  0.25500000920E-02 0. -1.
        2   -1    0    0  501    0  0.00000000000E+00  0.00000000000E+00 -0.58151478715E+03  0.58151478716E+03  0.25500000920E-02 0.  1.
    10030    2    1    2    0    0  0.00000000000E+00  0.00000000000E+00 -0.47404765240E+03  0.68898192195E+03  0.49997491140E+03 0.  0.
        2    1    3    3  502    0  0.87745170793E+02  0.19982438473E+03 -0.69012677192E+02  0.22889244057E+03  0.25500000920E-02 0. -1.
       -2    1    3    3    0  502 -0.87745170793E+02 -0.19982438473E+03 -0.40503497520E+03  0.46008948138E+03  0.25500000920E-02 0.  1.
</event>
<event>
 5   0  0.7933103E-02  0.5002082E+03  0.7818609E-02  0.1013725E+00
        2   -1    0    0  501    0  0.00000000000E+00  0.00000000000E+00  0.13147322231E+03  0.13147322234E+03  0.25500000920E-02 0.  1.
       -2   -1    0    0    0  501  0.00000000000E+00  0.00000000000E+00 -0.47577796162E+03  0.47577796163E+03  0.25500000920E-02 0. -1.
    10030    2    1    2    0    0  0.00000000000E+00  0.00000000000E+00 -0.34430473931E+03  0.60725118397E+03  0.50020820357E+03 0.  0.
        5    1    3    3  502    0  0.52262059301E+02 -0.10463337804E+03 -0.44047177912E+03  0.45575974465E+03  0.46999998093E+01 0. -1.
       -5    1    3    3    0  502 -0.52262059301E+02  0.10463337804E+03  0.96167039812E+02  0.15149143932E+03  0.46999998093E+01 0.  1.
</event>
<event>
 5   0  0.5191358E-02  0.5053016E+03  0.7818609E-02  0.1012404E+00
       -1   -1    0    0    0  501  0.00000000000E+00  0.00000000000E+00  0.42428405466E+02  0.42428405766E+02  0.50400001928E-02 0.  1.
        1   -1    0    0  501    0  0.00000000000E+00  0.00000000000E+00 -0.15044737742E+04  0.15044737742E+04  0.50400001928E-02 0. -1.
    10030    2    1    2    0    0  0.00000000000E+00  0.00000000000E+00 -0.14620453687E+04  0.15469021800E+04  0.50530158734E+03 0.  0.
        4    1    3    3  502    0  0.28521564674E+02 -0.81996853992E+02 -0.14573671853E+04  0.14599512627E+04  0.12699999809E+01 0. -1.
       -4    1    3    3    0  502 -0.28521564674E+02  0.81996853992E+02 -0.46781834236E+01  0.86950917282E+02  0.12699999809E+01 0.  1.
</event>
<event>
 5   0  0.7776070E-02  0.4868696E+03  0.7818609E-02  0.1017264E+00
        2   -1    0    0  501    0  0.00000000000E+00  0.00000000000E+00  0.10020788955E+04  0.10020788955E+04  0.25500000920E-02 0. -1.
       -2   -1    0    0    0  501  0.00000000000E+00  0.00000000000E+00 -0.59137552976E+02  0.59137553031E+02  0.25500000920E-02 0.  1.
    10030    2    1    2    0    0  0.00000000000E+00  0.00000000000E+00  0.94294134255E+03  0.10612164486E+04  0.48686956693E+03 0.  0.
        4    1    3    3  502    0  0.14905929439E+03 -0.13731735257E+03  0.76539658346E+03  0.79177539203E+03  0.12699999809E+01 0. -1.
       -4    1    3    3    0  502 -0.14905929439E+03  0.13731735257E+03  0.17754475910E+03  0.26944105653E+03  0.12699999809E+01 0.  1.
</event>
<event>
 5   0  0.8208720E-02  0.4992583E+03  0.7818609E-02  0.1013973E+00
        2   -1    0    0  501    0  0.00000000000E+00  0.00000000000E+00  0.45493223038E+03  0.45493223039E+03  0.25500000920E-02 0.  1.
       -2   -1    0    0    0  501  0.00000000000E+00  0.00000000000E+00 -0.13697580526E+03  0.13697580528E+03  0.25500000920E-02 0. -1.
    10030    2    1    2    0    0  0.00000000000E+00  0.00000000000E+00  0.31795642512E+03  0.59190803567E+03  0.49925828427E+03 0.  0.
        3    1    3    3  502    0 -0.11622969683E+03  0.20970133283E+02  0.41971198513E+03  0.43601290070E+03  0.10100000352E+00 0.  1.
       -3    1    3    3    0  502  0.11622969683E+03 -0.20970133283E+02 -0.10175556000E+03  0.15589513497E+03  0.10100000352E+00 0. -1.
</event>
<event>
 5   0  0.7933103E-02  0.5005119E+03  0.7818609E-02  0.1013645E+00
        2   -1    0    0  501    0  0.00000000000E+00  0.00000000000E+00  0.95480052429E+03  0.95480052429E+03  0.25500000920E-02 0.  1.
       -2   -1    0    0    0  501  0.00000000000E+00  0.00000000000E+00 -0.65592793666E+02  0.65592793716E+02  0.25500000920E-02 0. -1.
    10030    2    1    2    0    0  0.00000000000E+00  0.00000000000E+00  0.88920773062E+03  0.10203933180E+04  0.50051187322E+03 0.  0.
        5    1    3    3  502    0 -0.57098174983E+02  0.16877556067E+03  0.80274571237E+03  0.82229444860E+03  0.46999998093E+01 0.  1.
       -5    1    3    3    0  502  0.57098174983E+02 -0.16877556067E+03  0.86462018255E+02  0.19809886941E+03  0.46999998093E+01 0. -1.
</event>
<event>
 5   0  0.8208720E-02  0.4993154E+03  0.7818609E-02  0.1013958E+00
        2   -1    0    0  501    0  0.00000000000E+00  0.00000000000E+00  0.14826902177E+04  0.14826902177E+04  0.25500000920E-02 0. -1.
       -2   -1    0    0    0  501  0.00000000000E+00  0.00000000000E+00 -0.42037755995E+02  0.42037756073E+02  0.25500000920E-02 0.  1.
    10030    2    1    2    0    0  0.00000000000E+00  0.00000000000E+00  0.14406524617E+04  0.15247279737E+04  0.49931540992E+03 0.  0.
        3    1    3    3  502    0 -0.11136880102E+03  0.18275084107E+03  0.32774584469E+03  0.39143100116E+03  0.10100000352E+00 0.  1.
       -3    1    3    3    0  502  0.11136880102E+03 -0.18275084107E+03  0.11129066170E+04  0.11332969726E+04  0.10100000352E+00 0. -1.
</event>
<event>
 5   0  0.4884478E-02  0.5018300E+03  0.7818609E-02  0.1013302E+00
        1   -1    0    0  501    0  0.00000000000E+00  0.00000000000E+00  0.15058572733E+03  0.15058572741E+03  0.50400001928E-02 0.  1.
       -1   -1    0    0    0  501  0.00000000000E+00  0.00000000000E+00 -0.41808973259E+03  0.41808973262E+03  0.50400001928E-02 0. -1.
    10030    2    1    2    0    0  0.00000000000E+00  0.00000000000E+00 -0.26750400527E+03  0.56867546003E+03  0.50183003698E+03 0.  0.
        3    1    3    3  502    0  0.23520044154E+03 -0.70797933572E+01 -0.23247063130E+03  0.33077481130E+03  0.10100000352E+00 0. -1.
       -3    1    3    3    0  502 -0.23520044154E+03  0.70797933572E+01 -0.35033373963E+02  0.23790064873E+03  0.10100000352E+00 0.  1.
</event>
<event>
 5   0  0.4884478E-02  0.4906754E+03  0.7818609E-02  0.1016242E+00
        1   -1    0    0  501    0  0.00000000000E+00  0.00000000000E+00  0.27923147824E+03  0.27923147828E+03  0.50400001928E-02 0.  1.
       -1   -1    0    0    0  501  0.00000000000E+00  0.00000000000E+00 -0.21555800887E+03  0.21555800893E+03  0.50400001928E-02 0. -1.
    10030    2    1    2    0    0  0.00000000000E+00  0.00000000000E+00  0.63673469369E+02  0.49478948721E+03  0.49067537737E+03 0.  0.
        3    1    3    3  502    0  0.10450947690E+02  0.18933609025E+03 -0.12513863958E+03  0.22719389669E+03  0.10100000352E+00 0.  1.
       -3    1    3    3    0  502 -0.10450947690E+02 -0.18933609025E+03  0.18881210895E+03  0.26759559052E+03  0.10100000352E+00 0. -1.
</event>
<event>
 5   0  0.7776070E-02  0.4888924E+03  0.7818609E-02  0.1016720E+00
        2   -1    0    0  501    0  0.00000000000E+00  0.00000000000E+00  0.40943199777E+03  0.40943199778E+03  0.25500000920E-02 0. -1.
       -2   -1    0    0    0  501  0.00000000000E+00  0.00000000000E+00 -0.14594353680E+03  0.14594353682E+03  0.25500000920E-02 0.  1.
    10030    2    1    2    0    0  0.00000000000E+00  0.00000000000E+00  0.26348846097E+03  0.55537553460E+03  0.48889243742E+03 0.  0.
        4    1    3    3  502    0  0.22532522971E+03 -0.90828930837E+02  0.16245765818E+03  0.29225922983E+03  0.12699999809E+01 0. -1.
       -4    1    3    3    0  502 -0.22532522971E+03  0.90828930837E+02  0.10103080279E+03  0.26311630477E+03  0.12699999809E+01 0.  1.
</event>
<event>
 5   0  0.4803890E-02  0.5021442E+03  0.7818609E-02  0.1013221E+00
        1   -1    0    0  501    0  0.00000000000E+00  0.00000000000E+00  0.53578853954E+03  0.53578853957E+03  0.50400001928E-02 0.  1.
       -1   -1    0    0    0  501  0.00000000000E+00  0.00000000000E+00 -0.11765310796E+03  0.11765310807E+03  0.50400001928E-02 0. -1.
    10030    2    1    2    0    0  0.00000000000E+00  0.00000000000E+00  0.41813543158E+03  0.65344164764E+03  0.50214415035E+03 0.  0.
        5    1    3    3  502    0 -0.19404157454E+02 -0.19260622018E+03  0.41703782452E+03  0.45980029845E+03  0.46999998093E+01 0.  1.
       -5    1    3    3    0  502  0.19404157454E+02  0.19260622018E+03  0.10976070613E+01  0.19364134919E+03  0.46999998093E+01 0. -1.
</event>
<event>
 5   0  0.4803890E-02  0.5159313E+03  0.7818609E-02  0.1009702E+00
        1   -1    0    0  501    0  0.00000000000E+00  0.00000000000E+00  0.53036002901E+03  0.53036002903E+03  0.50400001928E-02 0. -1.
       -1   -1    0    0    0  501  0.00000000000E+00  0.00000000000E+00 -0.12547380071E+03  0.12547380081E+03  0.50400001928E-02 0.  1.
    10030    2    1    2    0    0  0.00000000000E+00  0.00000000000E+00  0.40488622830E+03  0.65583382984E+03  0.51593134668E+03 0.  0.
        5    1    3    3  502    0 -0.79373117389E+02  0.17988804371E+02 -0.10866916972E+03  0.13584832458E+03  0.46999998093E+01 0.  1.
       -5    1    3    3    0  502  0.79373117389E+02 -0.17988804371E+02  0.51355539802E+03  0.51998550526E+03  0.46999998093E+01 0. -1.
</event>
<event>
 5   0  0.4884478E-02  0.5088519E+03  0.7818609E-02  0.1011494E+00
        1   -1    0    0  501    0  0.00000000000E+00  0.00000000000E+00  0.13198593588E+04  0.13198593588E+04  0.50400001928E-02 0.  1.
       -1   -1    0    0    0  501  0.00000000000E+00  0.00000000000E+00 -0.49045041264E+02  0.49045041523E+02  0.50400001928E-02 0. -1.
    10030    2    1    2    0    0  0.00000000000E+00  0.00000000000E+00  0.12708143175E+04  0.13689044003E+04  0.50885187196E+03 0.  0.
        3    1    3    3  502    0 -0.17080887771E+02  0.19154558263E+03  0.10835553890E+04  0.11004879637E+04  0.10100000352E+00 0.  1.
       -3    1    3    3    0  502  0.17080887771E+02 -0.19154558263E+03  0.18725892852E+03  0.26841643665E+03  0.10100000352E+00 0. -1.
</event>
<event>
 5   0  0.4803890E-02  0.4989826E+03  0.7818609E-02  0.1014045E+00
        1   -1    0    0  501    0  0.00000000000E+00  0.00000000000E+00  0.42930059544E+03  0.42930059547E+03  0.50400001928E-02 0.  1.
       -1   -1    0    0    0  501  0.00000000000E+00  0.00000000000E+00 -0.14499373961E+03  0.14499373969E+03  0.50400001928E-02 0. -1.
    10030    2    1    2    0    0  0.00000000000E+00  0.00000000000E+00  0.28430685583E+03  0.57429433516E+03  0.49898255994E+03 0.  0.
        5    1    3    3  502    0 -0.18075821477E+03 -0.15229726622E+02  0.33922264668E+03  0.38470712341E+03  0.46999998093E+01 0.  1.
       -5    1    3    3    0  502  0.18075821477E+03  0.15229726622E+02 -0.54915790851E+02  0.18958721176E+03  0.46999998093E+01 0. -1.
</event>
<event>
 5   0  0.4884478E-02  0.5008490E+03  0.7818609E-02  0.1013558E+00
       -1   -1    0    0    0  501  0.00000000000E+00  0.00000000000E+00  0.68461672989E+03  0.68461672991E+03  0.50400001928E-02 0. -1.
        1   -1    0    0  501    0  0.00000000000E+00  0.00000000000E+00 -0.91602254578E+02  0.91602254717E+02  0.50400001928E-02 0.  1.
    10030    2    1    2    0    0  0.00000000000E+00  0.00000000000E+00  0.59301447531E+03  0.77621898463E+03  0.50084902332E+03 0.  0.
        3    1    3    3  502    0 -0.48782961239E+02  0.13239601962E+03 -0.24133955041E+02  0.14314657281E+03  0.10100000352E+00 0.  1.
       -3    1    3    3    0  502  0.48782961239E+02 -0.13239601962E+03  0.61714843035E+03  0.63307241182E+03  0.10100000352E+00 0. -1.
</event>
<event>
 5   0  0.7881060E-02  0.4985829E+03  0.7818609E-02  0.1014149E+00
       -2   -1    0    0    0  501  0.00000000000E+00  0.00000000000E+00  0.79646418901E+02  0.79646418941E+02  0.25500000920E-02 0. -1.
        2   -1    0    0  501    0  0.00000000000E+00  0.00000000000E+00 -0.78027650798E+03  0.78027650798E+03  0.25500000920E-02 0.  1.
    10030    2    1    2    0    0  0.00000000000E+00  0.00000000000E+00 -0.70063008908E+03  0.85992292693E+03  0.49858291039E+03 0.  0.
        1    1    3    3  502    0  0.17819293945E+03  0.15456657827E+03 -0.48939620052E+03  0.54327911049E+03  0.50400001928E-02 0.  1.
       -1    1    3    3    0  502 -0.17819293945E+03 -0.15456657827E+03 -0.21123388856E+03  0.31664381644E+03  0.50400001928E-02 0. -1.
</event>
<event>
 5   0  0.4865501E-02  0.4581455E+03  0.7818609E-02  0.1025320E+00
       -1   -1    0    0    0  501  0.00000000000E+00  0.00000000000E+00  0.96145705865E+02  0.96145705997E+02  0.50400001928E-02 0.  1.
        1   -1    0    0  501    0  0.00000000000E+00  0.00000000000E+00 -0.54577917320E+03  0.54577917322E+03  0.50400001928E-02 0. -1.
    10030    2    1    2    0    0  0.00000000000E+00  0.00000000000E+00 -0.44963346733E+03  0.64192487922E+03  0.45814549612E+03 0.  0.
        2    1    3    3  502    0  0.21569512024E+03 -0.11704044955E+02 -0.11799017404E+03  0.24613624426E+03  0.25500000920E-02 0.  1.
       -2    1    3    3    0  502 -0.21569512024E+03  0.11704044955E+02 -0.33164329330E+03  0.39578863495E+03  0.25500000920E-02 0. -1.
</event>
<event>
 5   0  0.4884478E-02  0.5009029E+03  0.7818609E-02  0.1013544E+00
        1   -1    0    0  501    0  0.00000000000E+00  0.00000000000E+00  0.25199639216E+03  0.25199639221E+03  0.50400001928E-02 0.  1.
       -1   -1    0    0    0  501  0.00000000000E+00  0.00000000000E+00 -0.24891601484E+03  0.24891601489E+03  0.50400001928E-02 0. -1.
    10030    2    1    2    0    0  0.00000000000E+00  0.00000000000E+00  0.30803773183E+01  0.50091240711E+03  0.50090293557E+03 0.  0.
        3    1    3    3  502    0  0.53906574475E+02  0.17513344205E+03 -0.16919173149E+03  0.24940628200E+03  0.10100000352E+00 0. -1.
       -3    1    3    3    0  502 -0.53906574475E+02 -0.17513344205E+03  0.17227210881E+03  0.25150612511E+03  0.10100000352E+00 0.  1.
</event>
<event>
 5   0  0.3210875E-02  0.4989480E+03  0.7818609E-02  0.1014054E+00
       -3   -1    0    0    0  501  0.00000000000E+00  0.00000000000E+00  0.16718911656E+03  0.16718914707E+03  0.10100000352E+00 0. -1.
        3   -1    0    0  501    0  0.00000000000E+00  0.00000000000E+00 -0.37225670599E+03  0.37225671969E+03  0.10100000352E+00 0.  1.
    10030    2    1    2    0    0  0.00000000000E+00  0.00000000000E+00 -0.20506758942E+03  0.53944586676E+03  0.49894802027E+03 0.  0.
        5    1    3    3  502    0 -0.22019164106E+02 -0.20522041158E+02 -0.37023810844E+03  0.37148936015E+03  0.46999998093E+01 0.  1.
       -5    1    3    3    0  502  0.22019164106E+02  0.20522041158E+02  0.16517051902E+03  0.16795650661E+03  0.46999998093E+01 0. -1.
</event>
<event>
 5   0  0.4865501E-02  0.4972701E+03  0.7818609E-02  0.1014494E+00
       -1   -1    0    0    0  501  0.00000000000E+00  0.00000000000E+00  0.17625643956E+03  0.17625643963E+03  0.50400001928E-02 0.  1.
        1   -1    0    0  501    0  0.00000000000E+00  0.00000000000E+00 -0.35073549049E+03  0.35073549053E+03  0.50400001928E-02 0. -1.
    10030    2    1    2    0    0  0.00000000000E+00  0.00000000000E+00 -0.17447905094E+03  0.52699193016E+03  0.49727010290E+03 0.  0.
        2    1    3    3  502    0  0.22623254455E+02 -0.38195831343E+02 -0.34650149471E+03  0.34933367862E+03  0.25500000920E-02 0. -1.
       -2    1    3    3    0  502 -0.22623254455E+02  0.38195831343E+02  0.17202244377E+03  0.17765825154E+03  0.25500000920E-02 0.  1.
</event>
<event>
 5   0  0.4884478E-02  0.5013763E+03  0.7818609E-02  0.1013420E+00
        1   -1    0    0  501    0  0.00000000000E+00  0.00000000000E+00  0.43769979831E+03  0.43769979834E+03  0.50400001928E-02 0.  1.
       -1   -1    0    0    0  501  0.00000000000E+00  0.00000000000E+00 -0.14357908649E+03  0.14357908657E+03  0.50400001928E-02 0. -1.
    10030    2    1    2    0    0  0.00000000000E+00  0.00000000000E+00  0.29412071182E+03  0.58127888491E+03  0.50137625484E+03 0.  0.
        3    1    3    3  502    0  0.52837020636E+01 -0.33921212069E+02 -0.14084088517E+03  0.14496458627E+03  0.10100000352E+00 0. -1.
       -3    1    3    3    0  502 -0.52837020636E+01  0.33921212069E+02  0.43496159700E+03  0.43631429864E+03  0.10100000352E+00 0.  1.
</event>
<event>
 5   0  0.7933103E-02  0.4877562E+03  0.7818609E-02  0.1017025E+00
        2   -1    0    0  501    0  0.00000000000E+00  0.00000000000E+00  0.14271557222E+04  0.14271557222E+04  0.25500000920E-02 0. -1.
       -2   -1    0    0    0  501  0.00000000000E+00  0.00000000000E+00 -0.41674869080E+02  0.41674869158E+02  0.25500000920E-02 0.  1.
    10030    2    1    2    0    0  0.00000000000E+00  0.00000000000E+00  0.13854808531E+04  0.14688305914E+04  0.48775620114E+03 0.  0.
        5    1    3    3  502    0  0.13046878884E+03  0.18529147550E+02  0.13105480068E+04  0.13171649867E+04  0.46999998093E+01 0. -1.
       -5    1    3    3    0  502 -0.13046878884E+03 -0.18529147550E+02  0.74932846335E+02  0.15166560463E+03  0.46999998093E+01 0.  1.
</event>
<event>
 5   0  0.7881060E-02  0.5021443E+03  0.7818609E-02  0.1013221E+00
        2   -1    0    0  501    0  0.00000000000E+00  0.00000000000E+00  0.49677162977E+03  0.49677162977E+03  0.25500000920E-02 0. -1.
       -2   -1    0    0    0  501  0.00000000000E+00  0.00000000000E+00 -0.12689376712E+03  0.12689376715E+03  0.25500000920E-02 0.  1.
    10030    2    1    2    0    0  0.00000000000E+00  0.00000000000E+00  0.36987786265E+03  0.62366539692E+03  0.50214429604E+03 0.  0.
        1    1    3    3  502    0 -0.18786874331E+03 -0.16153081959E+03  0.23539478410E+03  0.34175660169E+03  0.50400001928E-02 0.  1.
       -1    1    3    3    0  502  0.18786874331E+03  0.16153081959E+03  0.13448307855E+03  0.28190879524E+03  0.50400001928E-02 0. -1.
</event>
<event>
 5   0  0.5038436E-02  0.4982810E+03  0.7818609E-02  0.1014229E+00
        1   -1    0    0  501    0  0.00000000000E+00  0.00000000000E+00  0.88051716013E+03  0.88051716015E+03  0.50400001928E-02 0. -1.
       -1   -1    0    0    0  501  0.00000000000E+00  0.00000000000E+00 -0.70493779975E+02  0.70493780155E+02  0.50400001928E-02 0.  1.
    10030    2    1    2    0    0  0.00000000000E+00  0.00000000000E+00  0.81002338016E+03  0.95101094030E+03  0.49828097713E+03 0.  0.
        1    1    3    3  502    0 -0.18526746627E+03 -0.98162205759E+02  0.14815907993E+03  0.25673131030E+03  0.50400001928E-02 0.  1.
       -1    1    3    3    0  502  0.18526746627E+03  0.98162205759E+02  0.66186430023E+03  0.69427963000E+03  0.50400001928E-02 0. -1.
</event>
<event>
 5   0  0.7698747E-02  0.5290771E+03  0.7818609E-02  0.1006456E+00
       -2   -1    0    0    0  501  0.00000000000E+00  0.00000000000E+00  0.37807083076E+03  0.37807083077E+03  0.25500000920E-02 0.  1.
        2   -1    0    0  501    0  0.00000000000E+00  0.00000000000E+00 -0.18509930938E+03  0.18509930940E+03  0.25500000920E-02 0. -1.
    10030    2    1    2    0    0  0.00000000000E+00  0.00000000000E+00  0.19297152138E+03  0.56317014017E+03  0.52907711981E+03 0.  0.
        2    1    3    3  502    0  0.12327998209E+03  0.99909627698E+02 -0.12881535361E+03  0.20438513405E+03  0.25500000920E-02 0. -1.
       -2    1    3    3    0  502 -0.12327998209E+03 -0.99909627698E+02  0.32178687499E+03  0.35878500611E+03  0.25500000920E-02 0.  1.
</event>
<event>
 5   0  0.7933103E-02  0.5016934E+03  0.7818609E-02  0.1013338E+00
       -2   -1    0    0    0  501  0.00000000000E+00  0.00000000000E+00  0.20988641842E+03  0.20988641844E+03  0.25500000920E-02 0. -1.
        2   -1    0    0  501    0  0.00000000000E+00  0.00000000000E+00 -0.29980053266E+03  0.29980053267E+03  0.25500000920E-02 0.  1.
    10030    2    1    2    0    0  0.00000000000E+00  0.00000000000E+00 -0.89914114239E+02  0.50968695111E+03  0.50169337268E+03 0.  0.
        5    1    3    3  502    0  0.19910206931E+03 -0.15044989924E+03 -0.19555397969E+02  0.25036235694E+03  0.46999998093E+01 0.  1.
       -5    1    3    3    0  502 -0.19910206931E+03  0.15044989924E+03 -0.70358716270E+02  0.25932459417E+03  0.46999998093E+01 0. -1.
</event>
<event>
 5   0  0.4865501E-02  0.4843428E+03  0.7818609E-02  0.1017948E+00
        1   -1    0    0  501    0  0.00000000000E+00  0.00000000000E+00  0.48171748001E+03  0.48171748004E+03  0.50400001928E-02 0.  1.
       -1   -1    0    0    0  501  0.00000000000E+00  0.00000000000E+00 -0.12174560293E+03  0.12174560304E+03  0.50400001928E-02 0. -1.
    10030    2    1    2    0    0  0.00000000000E+00  0.00000000000E+00  0.35997187708E+03  0.60346308308E+03  0.48434279219E+03 0.  0.
        2    1    3    3  502    0 -0.14043804563E+02  0.19872609799E+03  0.35153590109E+03  0.40406284194E+03  0.25500000920E-02 0.  1.
       -2    1    3    3    0  502  0.14043804563E+02 -0.19872609799E+03  0.84359759844E+01  0.19940024114E+03  0.25500000920E-02 0. -1.
</event>
<event>
 5   0  0.7698747E-02  0.5240121E+03  0.7818609E-02  0.1007695E+00
       -2   -1    0    0    0  501  0.00000000000E+00  0.00000000000E+00  0.69756161092E+02  0.69756161139E+02  0.25500000920E-02 0.  1.
        2   -1    0    0  501    0  0.00000000000E+00  0.00000000000E+00 -0.98410201681E+03  0.98410201681E+03  0.25500000920E-02 0. -1.
    10030    2    1    2    0    0  0.00000000000E+00  0.00000000000E+00 -0.91434585572E+03  0.10538581780E+04  0.52401213284E+03 0.  0.
        2    1    3    3  502    0  0.87479957695E+02  0.10437018335E+03 -0.90733129586E+03  0.91749439160E+03  0.25500000920E-02 0. -1.
       -2    1    3    3    0  502 -0.87479957695E+02 -0.10437018335E+03 -0.70145598577E+01  0.13636378635E+03  0.25500000920E-02 0.  1.
</event>
<event>
 5   0  0.8208720E-02  0.5019498E+03  0.7818609E-02  0.1013271E+00
       -2   -1    0    0    0  501  0.00000000000E+00  0.00000000000E+00  0.41804166286E+02  0.41804166364E+02  0.25500000920E-02 0. -1.
        2   -1    0    0  501    0  0.00000000000E+00  0.00000000000E+00 -0.15067495374E+04  0.15067495374E+04  0.25500000920E-02 0.  1.
    10030    2    1    2    0    0  0.00000000000E+00  0.00000000000E+00 -0.14649453711E+04  0.15485537037E+04  0.50194983125E+03 0.  0.
        3    1    3    3  502    0  0.16776437762E+03 -0.77882438855E+01 -0.13078444841E+04  0.13185836143E+04  0.10100000352E+00 0.  1.
       -3    1    3    3    0  502 -0.16776437762E+03  0.77882438855E+01 -0.15710088700E+03  0.22997008944E+03  0.10100000352E+00 0. -1.
</event>
<event>
 5   0  0.4803890E-02  0.5038515E+03  0.7818609E-02  0.1012778E+00
        1   -1    0    0  501    0  0.00000000000E+00  0.00000000000E+00  0.29577644886E+03  0.29577644890E+03  0.50400001928E-02 0. -1.
       -1   -1    0    0    0  501  0.00000000000E+00  0.00000000000E+00 -0.21457620994E+03  0.21457620999E+03  0.50400001928E-02 0.  1.
    10030    2    1    2    0    0  0.00000000000E+00  0.00000000000E+00  0.81200238921E+02  0.51035265889E+03  0.50385152341E+03 0.  0.
        5    1    3    3  502    0 -0.12640578309E+03 -0.94939905818E+02 -0.15802311474E+03  0.22357415438E+03  0.46999998093E+01 0.  1.
       -5    1    3    3    0  502  0.12640578309E+03  0.94939905818E+02  0.23922335367E+03  0.28677850451E+03  0.46999998093E+01 0. -1.
</event>
<event>
 5   0  0.4803890E-02  0.5023945E+03  0.7818609E-02  0.1013156E+00
        1   -1    0    0  501    0  0.00000000000E+00  0.00000000000E+00  0.13433434709E+04  0.13433434709E+04  0.50400001928E-02 0. -1.
       -1   -1    0    0    0  501  0.00000000000E+00  0.00000000000E+00 -0.46972389547E+02  0.46972389817E+02  0.50400001928E-02 0.  1.
    10030    2    1    2    0    0  0.00000000000E+00  0.00000000000E+00  0.12963710813E+04  0.13903158607E+04  0.50239447849E+03 0.  0.
        5    1    3    3  502    0 -0.11217726340E+03  0.22361212916E+03  0.70955900871E+03  0.75238434299E+03  0.46999998093E+01 0.  1.
       -5    1    3    3    0  502  0.11217726340E+03 -0.22361212916E+03  0.58681207262E+03  0.63793151772E+03  0.46999998093E+01 0. -1.
</event>
<event>
 5   0  0.7881060E-02  0.5007066E+03  0.7818609E-02  0.1013595E+00
       -2   -1    0    0    0  501  0.00000000000E+00  0.00000000000E+00  0.96749032990E+02  0.96749033024E+02  0.25500000920E-02 0. -1.
        2   -1    0    0  501    0  0.00000000000E+00  0.00000000000E+00 -0.64782854383E+03  0.64782854384E+03  0.25500000920E-02 0.  1.
    10030    2    1    2    0    0  0.00000000000E+00  0.00000000000E+00 -0.55107951084E+03  0.74457757686E+03  0.50070664135E+03 0.  0.
        1    1    3    3  502    0  0.71220758269E+02 -0.16025442357E+03 -0.54123135754E+03  0.56893343995E+03  0.50400001928E-02 0.  1.
       -1    1    3    3    0  502 -0.71220758269E+02  0.16025442357E+03 -0.98481532976E+01  0.17564413691E+03  0.50400001928E-02 0. -1.
</event>
<event>
 5   0  0.4865501E-02  0.4998198E+03  0.7818609E-02  0.1013826E+00
       -1   -1    0    0    0  501  0.00000000000E+00  0.00000000000E+00  0.39401582551E+02  0.39401582873E+02  0.50400001928E-02 0. -1.
        1   -1    0    0  501    0  0.00000000000E+00  0.00000000000E+00 -0.15850872834E+04  0.15850872834E+04  0.50400001928E-02 0.  1.
    10030    2    1    2    0    0  0.00000000000E+00  0.00000000000E+00 -0.15456857009E+04  0.16244888663E+04  0.49981975838E+03 0.  0.
        2    1    3    3  502    0 -0.23398019124E+03 -0.85806829252E+02 -0.83324719492E+03  0.86971859224E+03  0.25500000920E-02 0.  1.
       -2    1    3    3    0  502  0.23398019124E+03  0.85806829252E+02 -0.71243850595E+03  0.75477027406E+03  0.25500000920E-02 0. -1.
</event>
<event>
 5   0  0.4865501E-02  0.5053599E+03  0.7818609E-02  0.1012389E+00
       -1   -1    0    0    0  501  0.00000000000E+00  0.00000000000E+00  0.95860055835E+02  0.95860055968E+02  0.50400001928E-02 0.  1.
        1   -1    0    0  501    0  0.00000000000E+00  0.00000000000E+00 -0.66604555725E+03  0.66604555727E+03  0.50400001928E-02 0. -1.
    10030    2    1    2    0    0  0.00000000000E+00  0.00000000000E+00 -0.57018550142E+03  0.76190561324E+03  0.50535992862E+03 0.  0.
        2    1    3    3  502    0  0.16283371401E+03  0.13651409767E+03 -0.78945479658E+02  0.22667886104E+03  0.25500000920E-02 0.  1.
       -2    1    3    3    0  502 -0.16283371401E+03 -0.13651409767E+03 -0.49124002176E+03  0.53522675219E+03  0.25500000920E-02 0. -1.
</event>
<event>
 5   0  0.7776070E-02  0.4992652E+03  0.7818609E-02  0.1013971E+00
        2   -1    0    0  501    0  0.00000000000E+00  0.00000000000E+00  0.70261764962E+03  0.70261764963E+03  0.25500000920E-02 0.  1.
       -2   -1    0    0    0  501  0.00000000000E+00  0.00000000000E+00 -0.88691812110E+02  0.88691812147E+02  0.25500000920E-02 0. -1.
    10030    2    1    2    0    0  0.00000000000E+00  0.00000000000E+00  0.61392583751E+03  0.79130946178E+03  0.49926519038E+03 0.  0.
        4    1    3    3  502    0  0.16227937157E+03  0.16054768368E+03  0.46707145221E+03  0.51987258780E+03  0.12699999809E+01 0.  1.
       -4    1    3    3    0  502 -0.16227937157E+03 -0.16054768368E+03  0.14685438530E+03  0.27143687398E+03  0.12699999809E+01 0. -1.
</event>
<event>
 5   0  0.7698747E-02  0.4978010E+03  0.7818609E-02  0.1014354E+00
       -2   -1    0    0    0  501  0.00000000000E+00  0.00000000000E+00  0.42142108096E+03  0.42142108097E+03  0.25500000920E-02 0.  1.
        2   -1    0    0  501    0  0.00000000000E+00  0.00000000000E+00 -0.14700609115E+03  0.14700609117E+03  0.25500000920E-02 0. -1.
    10030    2    1    2    0    0  0.00000000000E+00  0.00000000000E+00  0.27441498981E+03  0.56842717214E+03  0.49780102791E+03 0.  0.
        2    1    3    3  502    0 -0.97124370094E+02  0.73078920175E+02  0.38522815319E+03  0.40394851387E+03  0.25500000920E-02 0.  1.
       -2    1    3    3    0  502  0.97124370094E+02 -0.73078920175E+02 -0.11081316338E+03  0.16447865827E+03  0.25500000920E-02 0. -1.
</event>
<event>
 5   0  0.8208720E-02  0.4991488E+03  0.7818609E-02  0.1014001E+00
       -2   -1    0    0    0  501  0.00000000000E+00  0.00000000000E+00  0.21251950203E+03  0.21251950205E+03  0.25500000920E-02 0.  1.
        2   -1    0    0  501    0  0.00000000000E+00  0.00000000000E+00 -0.29309022876E+03  0.29309022878E+03  0.25500000920E-02 0. -1.
    10030    2    1    2    0    0  0.00000000000E+00  0.00000000000E+00 -0.80570726731E+02  0.50560973082E+03  0.49914883341E+03 0.  0.
        3    1    3    3  502    0  0.20326822904E+03 -0.11392504988E+03  0.50261216686E+02  0.23837594264E+03  0.10100000352E+00 0.  1.
       -3    1    3    3    0  502 -0.20326822904E+03  0.11392504988E+03 -0.13083194342E+03  0.26723378818E+03  0.10100000352E+00 0. -1.
</event>
<event>
 5   0  0.3210875E-02  0.4984237E+03  0.7818609E-02  0.1014191E+00
       -4   -1    0    0    0  501  0.00000000000E+00  0.00000000000E+00  0.12807777206E+03  0.12808406847E+03  0.12699999809E+01 0.  1.
        4   -1    0    0  501    0  0.00000000000E+00  0.00000000000E+00 -0.48489372343E+03  0.48489538658E+03  0.12699999809E+01 0. -1.
    10030    2    1    2    0    0  0.00000000000E+00  0.00000000000E+00 -0.35681595138E+03  0.61297945505E+03  0.49842370444E+03 0.  0.
        2    1    3    3  502    0 -0.50159427421E+02 -0.18617455595E+02  0.12093516075E+03  0.13224178963E+03  0.25500000920E-02 0.  1.
       -2    1    3    3    0  502  0.50159427421E+02  0.18617455595E+02 -0.47775111212E+03  0.48073766542E+03  0.25500000920E-02 0. -1.
</event>
<event>
 5   0  0.7776070E-02  0.4981588E+03  0.7818609E-02  0.1014261E+00
        2   -1    0    0  501    0  0.00000000000E+00  0.00000000000E+00  0.10802604614E+04  0.10802604614E+04  0.25500000920E-02 0. -1.
       -2   -1    0    0    0  501  0.00000000000E+00  0.00000000000E+00 -0.57431105186E+02  0.57431105242E+02  0.25500000920E-02 0.  1.
    10030    2    1    2    0    0  0.00000000000E+00  0.00000000000E+00  0.10228293562E+04  0.11376915666E+04  0.49815881893E+03 0.  0.
        4    1    3    3  502    0  0.14669574046E+03  0.12430494654E+03  0.14982758937E+03  0.24376480353E+03  0.12699999809E+01 0.  1.
       -4    1    3    3    0  502 -0.14669574046E+03 -0.12430494654E+03  0.87300176682E+03  0.89392676309E+03  0.12699999809E+01 0. -1.
</event>
<event>
 5   0  0.8208720E-02  0.5021660E+03  0.7818609E-02  0.1013215E+00
       -2   -1    0    0    0  501  0.00000000000E+00  0.00000000000E+00  0.52576947908E+03  0.52576947909E+03  0.25500000920E-02 0.  1.
        2   -1    0    0  501    0  0.00000000000E+00  0.00000000000E+00 -0.11990552588E+03  0.11990552591E+03  0.25500000920E-02 0. -1.
    10030    2    1    2    0    0  0.00000000000E+00  0.00000000000E+00  0.40586395320E+03  0.64567500499E+03  0.50216597213E+03 0.  0.
        3    1    3    3  502    0 -0.15257341925E+03 -0.13679930182E+03  0.38948071462E+03  0.44009991423E+03  0.10100000352E+00 0.  1.
       -3    1    3    3    0  502  0.15257341925E+03  0.13679930182E+03  0.16383238576E+02  0.20557509077E+03  0.10100000352E+00 0. -1.
</event>
<event>
 5   0  0.4884478E-02  0.5037918E+03  0.7818609E-02  0.1012794E+00
        1   -1    0    0  501    0  0.00000000000E+00  0.00000000000E+00  0.44984539174E+02  0.44984539457E+02  0.50400001928E-02 0. -1.
       -1   -1    0    0    0  501  0.00000000000E+00  0.00000000000E+00 -0.14105188381E+04  0.14105188381E+04  0.50400001928E-02 0.  1.
    10030    2    1    2    0    0  0.00000000000E+00  0.00000000000E+00 -0.13655342990E+04  0.14555033776E+04  0.50379178295E+03 0.  0.
        3    1    3    3  502    0  0.75834915248E+02 -0.16870300127E+03 -0.11767934009E+04  0.11912406791E+04  0.10100000352E+00 0.  1.
       -3    1    3    3    0  502 -0.75834915248E+02  0.16870300127E+03 -0.18874089810E+03  0.26426269851E+03  0.10100000352E+00 0. -1.
</event>
<event>
 5   0  0.7881060E-02  0.4990988E+03  0.7818609E-02  0.1014014E+00
        2   -1    0    0  501    0  0.00000000000E+00  0.00000000000E+00  0.83762947036E+02  0.83762947075E+02  0.25500000920E-02 0.  1.
       -2   -1    0    0    0  501  0.00000000000E+00  0.00000000000E+00 -0.74346602373E+03  0.74346602373E+03  0.25500000920E-02 0. -1.
    10030    2    1    2    0    0  0.00000000000E+00  0.00000000000E+00 -0.65970307669E+03  0.82722897081E+03  0.49909880860E+03 0.  0.
        1    1    3    3  502    0 -0.25284257470E+02 -0.23575111784E+03 -0.20085775662E+03  0.31074381999E+03  0.50400001928E-02 0.  1.
       -1    1    3    3    0  502  0.25284257470E+02  0.23575111784E+03 -0.45884532007E+03  0.51648515082E+03  0.50400001928E-02 0. -1.
</event>
<event>
 5   0  0.4865501E-02  0.4996748E+03  0.7818609E-02  0.1013864E+00
        1   -1    0    0  501    0  0.00000000000E+00  0.00000000000E+00  0.10650617613E+03  0.10650617625E+03  0.50400001928E-02 0.  1.
       -1   -1    0    0    0  501  0.00000000000E+00  0.00000000000E+00 -0.58605735416E+03  0.58605735418E+03  0.50400001928E-02 0. -1.
    10030    2    1    2    0    0  0.00000000000E+00  0.00000000000E+00 -0.47955117803E+03  0.69256353043E+03  0.49967480558E+03 0.  0.
        2    1    3    3  502    0  0.15498378341E+03  0.27083950767E+01  0.31799074556E+02  0.15823555123E+03  0.25500000920E-02 0.  1.
       -2    1    3    3    0  502 -0.15498378341E+03 -0.27083950767E+01 -0.51135025259E+03  0.53432797920E+03  0.25500000920E-02 0. -1.
</event>
<event>
 5   0  0.5038436E-02  0.5005556E+03  0.7818609E-02  0.1013634E+00
       -1   -1    0    0    0  501  0.00000000000E+00  0.00000000000E+00  0.73890413027E+03  0.73890413029E+03  0.50400001928E-02 0.  1.
        1   -1    0    0  501    0  0.00000000000E+00  0.00000000000E+00 -0.84772793365E+02  0.84772793515E+02  0.50400001928E-02 0. -1.
    10030    2    1    2    0    0  0.00000000000E+00  0.00000000000E+00  0.65413133691E+03  0.82367692380E+03  0.50055556024E+03 0.  0.
        1    1    3    3  502    0 -0.24370812662E+03  0.32314382537E+02  0.24986444383E+03  0.35052833069E+03  0.50400001928E-02 0. -1.
       -1    1    3    3    0  502  0.24370812662E+03 -0.32314382537E+02  0.40426689308E+03  0.47314859311E+03  0.50400001928E-02 0.  1.
</event>
<event>
 5   0  0.7776070E-02  0.4972710E+03  0.7818609E-02  0.1014494E+00
        2   -1    0    0  501    0  0.00000000000E+00  0.00000000000E+00  0.40422394421E+03  0.40422394422E+03  0.25500000920E-02 0.  1.
       -2   -1    0    0    0  501  0.00000000000E+00  0.00000000000E+00 -0.15293406021E+03  0.15293406023E+03  0.25500000920E-02 0. -1.
    10030    2    1    2    0    0  0.00000000000E+00  0.00000000000E+00  0.25128988400E+03  0.55715800444E+03  0.49727098861E+03 0.  0.
        4    1    3    3  502    0 -0.14788144521E+03 -0.17925747992E+03  0.26590761594E+02  0.23390350029E+03  0.12699999809E+01 0. -1.
       -4    1    3    3    0  502  0.14788144521E+03  0.17925747992E+03  0.22469912241E+03  0.32325450416E+03  0.12699999809E+01 0.  1.
</event>
<event>
 5   0  0.7776070E-02  0.4888639E+03  0.7818609E-02  0.1016727E+00
       -2   -1    0    0    0  501  0.00000000000E+00  0.00000000000E+00  0.14006859513E+03  0.14006859515E+03  0.25500000920E-02 0.  1.
        2   -1    0    0  501    0  0.00000000000E+00  0.00000000000E+00 -0.42655506908E+03  0.42655506909E+03  0.25500000920E-02 0. -1.
    10030    2    1    2    0    0  0.00000000000E+00  0.00000000000E+00 -0.28648647395E+03  0.56662366424E+03  0.48886386358E+03 0.  0.
        4    1    3    3  502    0 -0.49446239917E+02 -0.23699076444E+03 -0.18230558426E+03  0.30306186172E+03  0.12699999809E+01 0. -1.
       -4    1    3    3    0  502  0.49446239917E+02  0.23699076444E+03 -0.10418088969E+03  0.26356180252E+03  0.12699999809E+01 0.  1.
</event>
<event>
 5   0  0.7776070E-02  0.5087008E+03  0.7818609E-02  0.1011533E+00
        2   -1    0    0  501    0  0.00000000000E+00  0.00000000000E+00  0.37225742705E+03  0.37225742706E+03  0.25500000920E-02 0. -1.
       -2   -1    0    0    0  501  0.00000000000E+00  0.00000000000E+00 -0.17378867424E+03  0.17378867426E+03  0.25500000920E-02 0.  1.
    10030    2    1    2    0    0  0.00000000000E+00  0.00000000000E+00  0.19846875281E+03  0.54604610132E+03  0.50870079509E+03 0.  0.
        4    1    3    3  502    0  0.24211534821E+03 -0.71404801199E+02  0.13273491604E+03  0.28519933084E+03  0.12699999809E+01 0. -1.
       -4    1    3    3    0  502 -0.24211534821E+03  0.71404801199E+02  0.65733836772E+02  0.26084677048E+03  0.12699999809E+01 0.  1.
</event>
<event>
 5   0  0.3210875E-02  0.4985169E+03  0.7818609E-02  0.1014167E+00
        3   -1    0    0  501    0  0.00000000000E+00  0.00000000000E+00  0.81740678074E+03  0.81740678698E+03  0.10100000352E+00 0. -1.
       -3   -1    0    0    0  501  0.00000000000E+00  0.00000000000E+00 -0.76008346805E+02  0.76008413910E+02  0.10100000352E+00 0.  1.
    10030    2    1    2    0    0  0.00000000000E+00  0.00000000000E+00  0.74139843393E+03  0.89341520089E+03  0.49851688370E+03 0.  0.
        2    1    3    3  502    0  0.22995469913E+03  0.78437173403E+02  0.47045300180E+03  0.52948803644E+03  0.25500000920E-02 0. -1.
       -2    1    3    3    0  502 -0.22995469913E+03 -0.78437173403E+02  0.27094543213E+03  0.36392716445E+03  0.25500000920E-02 0.  1.
</event>
<event>
 5   0  0.5038436E-02  0.5018498E+03  0.7818609E-02  0.1013297E+00
        1   -1    0    0  501    0  0.00000000000E+00  0.00000000000E+00  0.45402175288E+03  0.45402175291E+03  0.50400001928E-02 0. -1.
       -1   -1    0    0    0  501  0.00000000000E+00  0.00000000000E+00 -0.13867905362E+03  0.13867905371E+03  0.50400001928E-02 0.  1.
    10030    2    1    2    0    0  0.00000000000E+00  0.00000000000E+00  0.31534269926E+03  0.59270080662E+03  0.50184980641E+03 0.  0.
        1    1    3    3  502    0 -0.85745674707E+02 -0.14489965793E+03  0.37740390100E+03  0.41325771150E+03  0.50400001928E-02 0. -1.
       -1    1    3    3    0  502  0.85745674707E+02  0.14489965793E+03 -0.62061201743E+02  0.17944309512E+03  0.50400001928E-02 0.  1.
</event>
<event>
 5   0  0.3210875E-02  0.5028797E+03  0.7818609E-02  0.1013030E+00
       -3   -1    0    0    0  501  0.00000000000E+00  0.00000000000E+00  0.24910155478E+03  0.24910157526E+03  0.10100000352E+00 0. -1.
        3   -1    0    0  501    0  0.00000000000E+00  0.00000000000E+00 -0.25380003422E+03  0.25380005432E+03  0.10100000352E+00 0.  1.
    10030    2    1    2    0    0  0.00000000000E+00  0.00000000000E+00 -0.46984794386E+01  0.50290162958E+03  0.50287968076E+03 0.  0.
        2    1    3    3  502    0 -0.17485348593E+03 -0.76763734214E+02  0.16122923229E+03  0.24992254357E+03  0.25500000920E-02 0. -1.
       -2    1    3    3    0  502  0.17485348593E+03  0.76763734214E+02 -0.16592771173E+03  0.25297908601E+03  0.25500000920E-02 0.  1.
</event>
<event>
 5   0  0.8208720E-02  0.4986232E+03  0.7818609E-02  0.1014139E+00
       -2   -1    0    0    0  501  0.00000000000E+00  0.00000000000E+00  0.47222891934E+02  0.47222892003E+02  0.25500000920E-02 0.  1.
        2   -1    0    0  501    0  0.00000000000E+00  0.00000000000E+00 -0.13162319556E+04  0.13162319556E+04  0.25500000920E-02 0. -1.
    10030    2    1    2    0    0  0.00000000000E+00  0.00000000000E+00 -0.12690090637E+04  0.13634548476E+04  0.49862322228E+03 0.  0.
        3    1    3    3  502    0 -0.41707287128E+02 -0.22277946966E+03 -0.91849258131E+03  0.94604377384E+03  0.10100000352E+00 0. -1.
       -3    1    3    3    0  502  0.41707287128E+02  0.22277946966E+03 -0.35051648237E+03  0.41741107378E+03  0.10100000352E+00 0.  1.
</event>
<event>
 5   0  0.3210875E-02  0.4931348E+03  0.7818609E-02  0.1015587E+00
        3   -1    0    0  501    0  0.00000000000E+00  0.00000000000E+00  0.49957012382E+03  0.49957013403E+03  0.10100000352E+00 0. -1.
       -3   -1    0    0    0  501  0.00000000000E+00  0.00000000000E+00 -0.12169556220E+03  0.12169560411E+03  0.10100000352E+00 0.  1.
    10030    2    1    2    0    0  0.00000000000E+00  0.00000000000E+00  0.37787456162E+03  0.62126573814E+03  0.49313480212E+03 0.  0.
        4    1    3    3  502    0  0.13619981555E+03 -0.10448400788E+03 -0.34043890310E+02  0.17500827702E+03  0.12699999809E+01 0.  1.
       -4    1    3    3    0  502 -0.13619981555E+03  0.10448400788E+03  0.41191845193E+03  0.44625746111E+03  0.12699999809E+01 0. -1.
</event>
<event>
 5   0  0.7881060E-02  0.4989075E+03  0.7818609E-02  0.1014064E+00
        2   -1    0    0  501    0  0.00000000000E+00  0.00000000000E+00  0.47796301952E+03  0.47796301953E+03  0.25500000920E-02 0. -1.
       -2   -1    0    0    0  501  0.00000000000E+00  0.00000000000E+00 -0.13019246517E+03  0.13019246519E+03  0.25500000920E-02 0.  1.
    10030    2    1    2    0    0  0.00000000000E+00  0.00000000000E+00  0.34777055436E+03  0.60815548472E+03  0.49890754166E+03 0.  0.
        1    1    3    3  502    0  0.21174450353E+03 -0.93866867266E+02  0.28679981201E+03  0.36864733248E+03  0.50400001928E-02 0. -1.
       -1    1    3    3    0  502 -0.21174450353E+03  0.93866867266E+02  0.60970742344E+02  0.23950815225E+03  0.50400001928E-02 0.  1.
</event>
<event>
 5   0  0.3210875E-02  0.4950052E+03  0.7818609E-02  0.1015091E+00
       -4   -1    0    0    0  501  0.00000000000E+00  0.00000000000E+00  0.17009844996E+03  0.17010319097E+03  0.12699999809E+01 0. -1.
        4   -1    0    0  501    0  0.00000000000E+00  0.00000000000E+00 -0.36011906693E+03  0.36012130632E+03  0.12699999809E+01 0.  1.
    10030    2    1    2    0    0  0.00000000000E+00  0.00000000000E+00 -0.19002061696E+03  0.53022449729E+03  0.49500523498E+03 0.  0.
        4    1    3    3  502    0  0.11052747202E+03  0.13045364931E+03 -0.28668754317E+03  0.33380508834E+03  0.12699999809E+01 0.  1.
       -4    1    3    3    0  502 -0.11052747202E+03 -0.13045364931E+03  0.96666926211E+02  0.19641940895E+03  0.12699999809E+01 0. -1.
</event>
<event>
 5   0  0.5038436E-02  0.5000414E+03  0.7818609E-02  0.1013768E+00
       -1   -1    0    0    0  501  0.00000000000E+00  0.00000000000E+00  0.11643445909E+03  0.11643445920E+03  0.50400001928E-02 0. -1.
        1   -1    0    0  501    0  0.00000000000E+00  0.00000000000E+00 -0.53687166095E+03  0.53687166097E+03  0.50400001928E-02 0.  1.
    10030    2    1    2    0    0  0.00000000000E+00  0.00000000000E+00 -0.42043720186E+03  0.65330612018E+03  0.50004144423E+03 0.  0.
        1    1    3    3  502    0  0.10739089205E+02  0.67838222025E+02  0.10386725493E+03  0.12452212284E+03  0.50400001928E-02 0. -1.
       -1    1    3    3    0  502 -0.10739089205E+02 -0.67838222025E+02 -0.52430445679E+03  0.52878399734E+03  0.50400001928E-02 0.  1.
</event>
<event>
 5   0  0.3210875E-02  0.5008652E+03  0.7818609E-02  0.1013553E+00
        4   -1    0    0  501    0  0.00000000000E+00  0.00000000000E+00  0.88457373276E+02  0.88466489627E+02  0.12699999809E+01 0.  1.
       -4   -1    0    0    0  501  0.00000000000E+00  0.00000000000E+00 -0.70895613828E+03  0.70895727579E+03  0.12699999809E+01 0. -1.
    10030    2    1    2    0    0  0.00000000000E+00  0.00000000000E+00 -0.62049876500E+03  0.79742376542E+03  0.50086519573E+03 0.  0.
        3    1    3    3  502    0 -0.42185784212E+02 -0.72388900810E+02 -0.68598553533E+03  0.69108317750E+03  0.10100000352E+00 0. -1.
       -3    1    3    3    0  502  0.42185784212E+02  0.72388900810E+02  0.65486770325E+02  0.10634058792E+03  0.10100000352E+00 0.  1.
</event>
<event>
 5   0  0.8208720E-02  0.5036995E+03  0.7818609E-02  0.1012818E+00
        2   -1    0    0  501    0  0.00000000000E+00  0.00000000000E+00  0.49091254217E+03  0.49091254218E+03  0.25500000920E-02 0. -1.
       -2   -1    0    0    0  501  0.00000000000E+00  0.00000000000E+00 -0.12920488677E+03  0.12920488679E+03  0.25500000920E-02 0.  1.
    10030    2    1    2    0    0  0.00000000000E+00  0.00000000000E+00  0.36170765541E+03  0.62011742897E+03  0.50369951135E+03 0.  0.
        3    1    3    3  502    0  0.13216360379E+03  0.19555070869E+03  0.72675829039E+02  0.24695968125E+03  0.10100000352E+00 0.  1.
       -3    1    3    3    0  502 -0.13216360379E+03 -0.19555070869E+03  0.28903182637E+03  0.37315774773E+03  0.10100000352E+00 0. -1.
</event>
<event>
 5   0  0.3210875E-02  0.5007795E+03  0.7818609E-02  0.1013576E+00
        4   -1    0    0  501    0  0.00000000000E+00  0.00000000000E+00  0.30050799676E+03  0.30051068037E+03  0.12699999809E+01 0.  1.
       -4   -1    0    0    0  501  0.00000000000E+00  0.00000000000E+00 -0.20862457531E+03  0.20862844083E+03  0.12699999809E+01 0. -1.
    10030    2    1    2    0    0  0.00000000000E+00  0.00000000000E+00  0.91883421449E+02  0.50913912120E+03  0.50077947402E+03 0.  0.
        5    1    3    3  502    0  0.19394930234E+03 -0.10912524296E+03  0.16252180948E+03  0.27560856134E+03  0.46999998093E+01 0.  1.
       -5    1    3    3    0  502 -0.19394930234E+03  0.10912524296E+03 -0.70638388026E+02  0.23353055986E+03  0.46999998093E+01 0. -1.
</event>
<event>
 5   0  0.7698747E-02  0.5204642E+03  0.7818609E-02  0.1008571E+00
        2   -1    0    0  501    0  0.00000000000E+00  0.00000000000E+00  0.21409242526E+03  0.21409242527E+03  0.25500000920E-02 0. -1.
       -2   -1    0    0    0  501  0.00000000000E+00  0.00000000000E+00 -0.31631541428E+03  0.31631541429E+03  0.25500000920E-02 0.  1.
    10030    2    1    2    0    0  0.00000000000E+00  0.00000000000E+00 -0.10222298902E+03  0.53040783956E+03  0.52046415514E+03 0.  0.
        2    1    3    3  502    0 -0.81141138537E+02  0.12640521143E+03 -0.26767696418E+03  0.30694155632E+03  0.25500000920E-02 0.  1.
       -2    1    3    3    0  502  0.81141138537E+02 -0.12640521143E+03  0.16545397517E+03  0.22346628324E+03  0.25500000920E-02 0. -1.
</event>
<event>
 5   0  0.4884478E-02  0.5000187E+03  0.7818609E-02  0.1013774E+00
        1   -1    0    0  501    0  0.00000000000E+00  0.00000000000E+00  0.16251303488E+03  0.16251303495E+03  0.50400001928E-02 0.  1.
       -1   -1    0    0    0  501  0.00000000000E+00  0.00000000000E+00 -0.38461325187E+03  0.38461325190E+03  0.50400001928E-02 0. -1.
    10030    2    1    2    0    0  0.00000000000E+00  0.00000000000E+00 -0.22210021700E+03  0.54712628686E+03  0.50001866703E+03 0.  0.
        3    1    3    3  502    0  0.55596735833E+02  0.18382418172E+03 -0.28620032229E+03  0.34466354826E+03  0.10100000352E+00 0. -1.
       -3    1    3    3    0  502 -0.55596735833E+02 -0.18382418172E+03  0.64100105291E+02  0.20246273860E+03  0.10100000352E+00 0.  1.
</event>
<event>
 5   0  0.5038436E-02  0.4975012E+03  0.7818609E-02  0.1014433E+00
        1   -1    0    0  501    0  0.00000000000E+00  0.00000000000E+00  0.34926783828E+03  0.34926783831E+03  0.50400001928E-02 0.  1.
       -1   -1    0    0    0  501  0.00000000000E+00  0.00000000000E+00 -0.17716160812E+03  0.17716160819E+03  0.50400001928E-02 0. -1.
    10030    2    1    2    0    0  0.00000000000E+00  0.00000000000E+00  0.17210623016E+03  0.52642944650E+03  0.49750116350E+03 0.  0.
        1    1    3    3  502    0  0.21569107466E+03 -0.12436560276E+02  0.21650830317E+03  0.30586459927E+03  0.50400001928E-02 0.  1.
       -1    1    3    3    0  502 -0.21569107466E+03  0.12436560276E+02 -0.44402073015E+02  0.22056484723E+03  0.50400001928E-02 0. -1.
</event>
<event>
 5   0  0.7776070E-02  0.5001769E+03  0.7818609E-02  0.1013733E+00
       -2   -1    0    0    0  501  0.00000000000E+00  0.00000000000E+00  0.29621472013E+02  0.29621472123E+02  0.25500000920E-02 0.  1.
        2   -1    0    0  501    0  0.00000000000E+00  0.00000000000E+00 -0.21114489836E+04  0.21114489836E+04  0.25500000920E-02 0. -1.
    10030    2    1    2    0    0  0.00000000000E+00  0.00000000000E+00 -0.20818275116E+04  0.21410704557E+04  0.50017687709E+03 0.  0.
        4    1    3    3  502    0 -0.60962038224E+02 -0.20398478201E+02 -0.20754637787E+04  0.20764594813E+04  0.12699999809E+01 0. -1.
       -4    1    3    3    0  502  0.60962038224E+02  0.20398478201E+02 -0.63637329003E+01  0.64610974406E+02  0.12699999809E+01 0.  1.
</event>
<event>
 5   0  0.7933103E-02  0.4980184E+03  0.7818609E-02  0.1014297E+00
       -2   -1    0    0    0  501  0.00000000000E+00  0.00000000000E+00  0.38774112010E+02  0.38774112094E+02  0.25500000920E-02 0. -1.
        2   -1    0    0  501    0  0.00000000000E+00  0.00000000000E+00 -0.15991490050E+04  0.15991490050E+04  0.25500000920E-02 0.  1.
    10030    2    1    2    0    0  0.00000000000E+00  0.00000000000E+00 -0.15603748930E+04  0.16379231171E+04  0.49801840412E+03 0.  0.
        5    1    3    3  502    0 -0.14982383031E+03  0.16086256884E+03 -0.39580259748E+03  0.45277558719E+03  0.46999998093E+01 0. -1.
       -5    1    3    3    0  502  0.14982383031E+03 -0.16086256884E+03 -0.11645722955E+04  0.11851475299E+04  0.46999998093E+01 0.  1.
</event>
<event>
 5   0  0.3210875E-02  0.4869833E+03  0.7818609E-02  0.1017233E+00
        4   -1    0    0  501    0  0.00000000000E+00  0.00000000000E+00  0.16723196945E+03  0.16723679172E+03  0.12699999809E+01 0.  1.
       -4   -1    0    0    0  501  0.00000000000E+00  0.00000000000E+00 -0.35451556651E+03  0.35451784130E+03  0.12699999809E+01 0. -1.
    10030    2    1    2    0    0  0.00000000000E+00  0.00000000000E+00 -0.18728359707E+03  0.52175463302E+03  0.48698331732E+03 0.  0.
        3    1    3    3  502    0 -0.12171960093E+01 -0.20633194772E+03 -0.23215467082E+03  0.31059645137E+03  0.10100000352E+00 0. -1.
       -3    1    3    3    0  502  0.12171960093E+01  0.20633194772E+03  0.44871073757E+02  0.21115818165E+03  0.10100000352E+00 0.  1.
</event>
<event>
 5   0  0.4865501E-02  0.4982140E+03  0.7818609E-02  0.1014246E+00
        1   -1    0    0  501    0  0.00000000000E+00  0.00000000000E+00  0.47569199089E+03  0.47569199091E+03  0.50400001928E-02 0.  1.
       -1   -1    0    0    0  501  0.00000000000E+00  0.00000000000E+00 -0.13045058140E+03  0.13045058150E+03  0.50400001928E-02 0. -1.
    10030    2    1    2    0    0  0.00000000000E+00  0.00000000000E+00  0.34524140948E+03  0.60614257242E+03  0.49821399747E+03 0.  0.
        2    1    3    3  502    0 -0.23560281316E+03  0.61621417922E+02  0.10883846167E+03  0.26674275147E+03  0.25500000920E-02 0. -1.
       -2    1    3    3    0  502  0.23560281316E+03 -0.61621417922E+02  0.23640294781E+03  0.33939982094E+03  0.25500000920E-02 0.  1.
</event>
<event>
 5   0  0.5038436E-02  0.5003544E+03  0.7818609E-02  0.1013686E+00
       -1   -1    0    0    0  501  0.00000000000E+00  0.00000000000E+00  0.34381586221E+03  0.34381586225E+03  0.50400001928E-02 0. -1.
        1   -1    0    0  501    0  0.00000000000E+00  0.00000000000E+00 -0.18204112832E+03  0.18204112839E+03  0.50400001928E-02 0.  1.
    10030    2    1    2    0    0  0.00000000000E+00  0.00000000000E+00  0.16177473389E+03  0.52585699064E+03  0.50035438449E+03 0.  0.
        1    1    3    3  502    0  0.58657288096E+02  0.22721638440E+03  0.17202926225E+03  0.29096740347E+03  0.50400001928E-02 0. -1.
       -1    1    3    3    0  502 -0.58657288096E+02 -0.22721638440E+03 -0.10254528359E+02  0.23488958717E+03  0.50400001928E-02 0.  1.
</event>
<event>
 5   0  0.4803890E-02  0.5002943E+03  0.7818609E-02  0.1013702E+00
        1   -1    0    0  501    0  0.00000000000E+00  0.00000000000E+00  0.16647670931E+03  0.16647670939E+03  0.50400001928E-02 0. -1.
       -1   -1    0    0    0  501  0.00000000000E+00  0.00000000000E+00 -0.37587001092E+03  0.37587001095E+03  0.50400001928E-02 0.  1.
    10030    2    1    2    0    0  0.00000000000E+00  0.00000000000E+00 -0.20939330161E+03  0.54234672034E+03  0.50029432368E+03 0.  0.
        5    1    3    3  502    0 -0.16830168164E+03  0.39201325883E+02 -0.30069586800E+03  0.34684621236E+03  0.46999998093E+01 0.  1.
       -5    1    3    3    0  502  0.16830168164E+03 -0.39201325883E+02  0.91302566394E+02  0.19550050799E+03  0.46999998093E+01 0. -1.
</event>
<event>
 5   0  0.4884478E-02  0.4958020E+03  0.7818609E-02  0.1014880E+00
        1   -1    0    0  501    0  0.00000000000E+00  0.00000000000E+00  0.77047361269E+03  0.77047361271E+03  0.50400001928E-02 0.  1.
       -1   -1    0    0    0  501  0.00000000000E+00  0.00000000000E+00 -0.79762515652E+02  0.79762515811E+02  0.50400001928E-02 0. -1.
    10030    2    1    2    0    0  0.00000000000E+00  0.00000000000E+00  0.69071109704E+03  0.85023612852E+03  0.49580203173E+03 0.  0.
        3    1    3    3  502    0  0.19947346479E+03 -0.11608325746E+03  0.19016294444E+03  0.29904337721E+03  0.10100000352E+00 0. -1.
       -3    1    3    3    0  502 -0.19947346479E+03  0.11608325746E+03  0.50054815260E+03  0.55119275130E+03  0.10100000352E+00 0.  1.
</event>
<event>
 5   0  0.7881060E-02  0.5097897E+03  0.7818609E-02  0.1011255E+00
       -2   -1    0    0    0  501  0.00000000000E+00  0.00000000000E+00  0.29764153752E+03  0.29764153753E+03  0.25500000920E-02 0.  1.
        2   -1    0    0  501    0  0.00000000000E+00  0.00000000000E+00 -0.21828732566E+03  0.21828732568E+03  0.25500000920E-02 0. -1.
    10030    2    1    2    0    0  0.00000000000E+00  0.00000000000E+00  0.79354211858E+02  0.51592886321E+03  0.50978966345E+03 0.  0.
        1    1    3    3  502    0 -0.17525730532E+03 -0.12839475894E+03 -0.95236328305E+02  0.23721360721E+03  0.50400001928E-02 0.  1.
       -1    1    3    3    0  502  0.17525730532E+03  0.12839475894E+03  0.17459054016E+03  0.27871525600E+03  0.50400001928E-02 0. -1.
</event>
<event>
 5   0  0.4884478E-02  0.4994724E+03  0.7818609E-02  0.1013917E+00
        1   -1    0    0  501    0  0.00000000000E+00  0.00000000000E+00  0.85450661165E+03  0.85450661167E+03  0.50400001928E-02 0.  1.
       -1   -1    0    0    0  501  0.00000000000E+00  0.00000000000E+00 -0.72987348809E+02  0.72987348983E+02  0.50400001928E-02 0. -1.
    10030    2    1    2    0    0  0.00000000000E+00  0.00000000000E+00  0.78151926284E+03  0.92749396065E+03  0.49947241050E+03 0.  0.
        3    1    3    3  502    0 -0.94570027155E+02  0.10654920733E+03  0.77164636593E+03  0.78468742049E+03  0.10100000352E+00 0.  1.
       -3    1    3    3    0  502  0.94570027155E+02 -0.10654920733E+03  0.98728969140E+01  0.14280654016E+03  0.10100000352E+00 0. -1.
</event>
<event>
 5   0  0.5038436E-02  0.5121471E+03  0.7818609E-02  0.1010656E+00
       -1   -1    0    0    0  501  0.00000000000E+00  0.00000000000E+00  0.41011740808E+03  0.41011740811E+03  0.50400001928E-02 0. -1.
        1   -1    0    0  501    0  0.00000000000E+00  0.00000000000E+00 -0.15988994761E+03  0.15988994769E+03  0.50400001928E-02 0.  1.
    10030    2    1    2    0    0  0.00000000000E+00  0.00000000000E+00  0.25022746047E+03  0.57000735580E+03  0.51214705280E+03 0.  0.
        1    1    3    3  502    0  0.53011968856E+02 -0.20231415426E+03 -0.39337139392E+02  0.21281141045E+03  0.50400001928E-02 0.  1.
       -1    1    3    3    0  502 -0.53011968856E+02  0.20231415426E+03  0.28956459986E+03  0.35719594535E+03  0.50400001928E-02 0. -1.
</event>
<event>
 5   0  0.5038436E-02  0.4856893E+03  0.7818609E-02  0.1017583E+00
       -1   -1    0    0    0  501  0.00000000000E+00  0.00000000000E+00  0.65510651538E+02  0.65510651732E+02  0.50400001928E-02 0. -1.
        1   -1    0    0  501    0  0.00000000000E+00  0.00000000000E+00 -0.90021293289E+03  0.90021293290E+03  0.50400001928E-02 0.  1.
    10030    2    1    2    0    0  0.00000000000E+00  0.00000000000E+00 -0.83470228135E+03  0.96572358464E+03  0.48568934869E+03 0.  0.
        1    1    3    3  502    0 -0.21330692885E+03  0.17535924539E+02 -0.64550308474E+03  0.68005998778E+03  0.50400001928E-02 0.  1.
       -1    1    3    3    0  502  0.21330692885E+03 -0.17535924539E+02 -0.18919919661E+03  0.28566359685E+03  0.50400001928E-02 0. -1.
</event>
<event>
 5   0  0.4865501E-02  0.5004568E+03  0.7818609E-02  0.1013660E+00
       -1   -1    0    0    0  501  0.00000000000E+00  0.00000000000E+00  0.94112028870E+02  0.94112029005E+02  0.50400001928E-02 0.  1.
        1   -1    0    0  501    0  0.00000000000E+00  0.00000000000E+00 -0.66531603143E+03  0.66531603145E+03  0.50400001928E-02 0. -1.
    10030    2    1    2    0    0  0.00000000000E+00  0.00000000000E+00 -0.57120400256E+03  0.75942806046E+03  0.50045675784E+03 0.  0.
        2    1    3    3  502    0  0.19472456980E+03  0.15410975726E+03 -0.23891011012E+03  0.34459471280E+03  0.25500000920E-02 0. -1.
       -2    1    3    3    0  502 -0.19472456980E+03 -0.15410975726E+03 -0.33229389244E+03  0.41483334766E+03  0.25500000920E-02 0.  1.
</event>
<event>
 5   0  0.4884478E-02  0.5022227E+03  0.7818609E-02  0.1013200E+00
       -1   -1    0    0    0  501  0.00000000000E+00  0.00000000000E+00  0.17968015483E+03  0.17968015490E+03  0.50400001928E-02 0. -1.
        1   -1    0    0  501    0  0.00000000000E+00  0.00000000000E+00 -0.35093969065E+03  0.35093969068E+03  0.50400001928E-02 0.  1.
    10030    2    1    2    0    0  0.00000000000E+00  0.00000000000E+00 -0.17125953582E+03  0.53061984559E+03  0.50222265174E+03 0.  0.
        3    1    3    3  502    0 -0.21589225955E+03 -0.84354620303E+02 -0.18769268974E+03  0.29825111179E+03  0.10100000352E+00 0.  1.
       -3    1    3    3    0  502  0.21589225955E+03  0.84354620303E+02  0.16433153922E+02  0.23236873380E+03  0.10100000352E+00 0. -1.
</event>
<event>
 5   0  0.7881060E-02  0.5003693E+03  0.7818609E-02  0.1013683E+00
        2   -1    0    0  501    0  0.00000000000E+00  0.00000000000E+00  0.87723328288E+02  0.87723328325E+02  0.25500000920E-02 0. -1.
       -2   -1    0    0    0  501  0.00000000000E+00  0.00000000000E+00 -0.71352006648E+03  0.71352006648E+03  0.25500000920E-02 0.  1.
    10030    2    1    2    0    0  0.00000000000E+00  0.00000000000E+00 -0.62579673819E+03  0.80124339481E+03  0.50036928382E+03 0.  0.
        1    1    3    3  502    0  0.82456270876E+02  0.23614991978E+03 -0.30464989540E+03  0.39417937542E+03  0.50400001928E-02 0. -1.
       -1    1    3    3    0  502 -0.82456270876E+02 -0.23614991978E+03 -0.32114684279E+03  0.40706401939E+03  0.50400001928E-02 0.  1.
</event>
<event>
 5   0  0.8208720E-02  0.4994314E+03  0.7818609E-02  0.1013927E+00
       -2   -1    0    0    0  501  0.00000000000E+00  0.00000000000E+00  0.39148254888E+02  0.39148254971E+02  0.25500000920E-02 0. -1.
        2   -1    0    0  501    0  0.00000000000E+00  0.00000000000E+00 -0.15928664696E+04  0.15928664696E+04  0.25500000920E-02 0.  1.
    10030    2    1    2    0    0  0.00000000000E+00  0.00000000000E+00 -0.15537182147E+04  0.16320147246E+04  0.49943144725E+03 0.  0.
        3    1    3    3  502    0 -0.22454748034E+03 -0.98106167271E+02 -0.61975084330E+03  0.66643642530E+03  0.10100000352E+00 0.  1.
       -3    1    3    3    0  502  0.22454748034E+03  0.98106167271E+02 -0.93396737145E+03  0.96557829932E+03  0.10100000352E+00 0. -1.
</event>
<event>
 5   0  0.4884478E-02  0.4987822E+03  0.7818609E-02  0.1014097E+00
       -1   -1    0    0    0  501  0.00000000000E+00  0.00000000000E+00  0.92700026925E+03  0.92700026926E+03  0.50400001928E-02 0.  1.
        1   -1    0    0  501    0  0.00000000000E+00  0.00000000000E+00 -0.67093755119E+02  0.67093755308E+02  0.50400001928E-02 0. -1.
    10030    2    1    2    0    0  0.00000000000E+00  0.00000000000E+00  0.85990651413E+03  0.99409402457E+03  0.49878223369E+03 0.  0.
        3    1    3    3  502    0 -0.18370445287E+03  0.16156290755E+03  0.33341880634E+03  0.41354323803E+03  0.10100000352E+00 0. -1.
       -3    1    3    3    0  502  0.18370445287E+03 -0.16156290755E+03  0.52648770779E+03  0.58055078654E+03  0.10100000352E+00 0.  1.
</event>
<event>
 5   0  0.7933103E-02  0.5005476E+03  0.7818609E-02  0.1013636E+00
       -2   -1    0    0    0  501  0.00000000000E+00  0.00000000000E+00  0.59438821017E+02  0.59438821071E+02  0.25500000920E-02 0. -1.
        2   -1    0    0  501    0  0.00000000000E+00  0.00000000000E+00 -0.10538060110E+04  0.10538060110E+04  0.25500000920E-02 0.  1.
    10030    2    1    2    0    0  0.00000000000E+00  0.00000000000E+00 -0.99436719002E+03  0.11132448321E+04  0.50054764772E+03 0.  0.
        5    1    3    3  502    0 -0.21733963417E+03  0.41177540478E+02 -0.23702834081E+03  0.32424779223E+03  0.46999998093E+01 0. -1.
       -5    1    3    3    0  502  0.21733963417E+03 -0.41177540478E+02 -0.75733884921E+03  0.78899703988E+03  0.46999998093E+01 0.  1.
</event>
<event>
 5   0  0.4865501E-02  0.5000242E+03  0.7818609E-02  0.1013773E+00
        1   -1    0    0  501    0  0.00000000000E+00  0.00000000000E+00  0.38329084938E+03  0.38329084942E+03  0.50400001928E-02 0. -1.
       -1   -1    0    0    0  501  0.00000000000E+00  0.00000000000E+00 -0.16307735096E+03  0.16307735104E+03  0.50400001928E-02 0.  1.
    10030    2    1    2    0    0  0.00000000000E+00  0.00000000000E+00  0.22021349842E+03  0.54636820046E+03  0.50002422500E+03 0.  0.
        2    1    3    3  502    0 -0.24019645979E+03  0.56883992764E+02  0.66729438931E+02  0.25570089158E+03  0.25500000920E-02 0.  1.
       -2    1    3    3    0  502  0.24019645979E+03 -0.56883992764E+02  0.15348405949E+03  0.29066730888E+03  0.25500000920E-02 0. -1.
</event>
<event>
 5   0  0.4865501E-02  0.5020169E+03  0.7818609E-02  0.1013254E+00
        1   -1    0    0  501    0  0.00000000000E+00  0.00000000000E+00  0.55112592235E+03  0.55112592238E+03  0.50400001928E-02 0. -1.
       -1   -1    0    0    0  501  0.00000000000E+00  0.00000000000E+00 -0.11432096295E+03  0.11432096307E+03  0.50400001928E-02 0.  1.
    10030    2    1    2    0    0  0.00000000000E+00  0.00000000000E+00  0.43680495940E+03  0.66544688544E+03  0.50201691684E+03 0.  0.
        2    1    3    3  502    0  0.16641764618E+03 -0.52703835137E+02 -0.20684114516E+02  0.17578498172E+03  0.25500000920E-02 0.  1.
       -2    1    3    3    0  502 -0.16641764618E+03  0.52703835137E+02  0.45748907391E+03  0.48966190372E+03  0.25500000920E-02 0. -1.
</event>
<event>
 5   0  0.5038436E-02  0.4993835E+03  0.7818609E-02  0.1013940E+00
       -1   -1    0    0    0  501  0.00000000000E+00  0.00000000000E+00  0.71243337712E+02  0.71243337890E+02  0.50400001928E-02 0.  1.
        1   -1    0    0  501    0  0.00000000000E+00  0.00000000000E+00 -0.87511295943E+03  0.87511295945E+03  0.50400001928E-02 0. -1.
    10030    2    1    2    0    0  0.00000000000E+00  0.00000000000E+00 -0.80386962172E+03  0.94635629734E+03  0.49938349270E+03 0.  0.
        1    1    3    3  502    0  0.24222803959E+03 -0.65227654105E+01 -0.51609479255E+03  0.57014980887E+03  0.50400001928E-02 0. -1.
       -1    1    3    3    0  502 -0.24222803959E+03  0.65227654105E+01 -0.28777482917E+03  0.37620648847E+03  0.50400001928E-02 0.  1.
</event>
<event>
 5   0  0.4884478E-02  0.5117778E+03  0.7818609E-02  0.1010750E+00
        1   -1    0    0  501    0  0.00000000000E+00  0.00000000000E+00  0.70219708744E+03  0.70219708746E+03  0.50400001928E-02 0.  1.
       -1   -1    0    0    0  501  0.00000000000E+00  0.00000000000E+00 -0.93248932960E+02  0.93248933096E+02  0.50400001928E-02 0. -1.
    10030    2    1    2    0    0  0.00000000000E+00  0.00000000000E+00  0.60894815448E+03  0.79544602056E+03  0.51177780019E+03 0.  0.
        3    1    3    3  502    0 -0.10008452479E+03  0.22077582221E+03  0.17705872304E+03  0.30018107432E+03  0.10100000352E+00 0. -1.
       -3    1    3    3    0  502  0.10008452479E+03 -0.22077582221E+03  0.43188943144E+03  0.49526494623E+03  0.10100000352E+00 0.  1.
</event>
<event>
 5   0  0.7933103E-02  0.5126248E+03  0.7818609E-02  0.1010535E+00
        2   -1    0    0  501    0  0.00000000000E+00  0.00000000000E+00  0.21253040844E+03  0.21253040845E+03  0.25500000920E-02 0. -1.
       -2   -1    0    0    0  501  0.00000000000E+00  0.00000000000E+00 -0.30911365545E+03  0.30911365546E+03  0.25500000920E-02 0.  1.
    10030    2    1    2    0    0  0.00000000000E+00  0.00000000000E+00 -0.96583247012E+02  0.52164406391E+03  0.51262481974E+03 0.  0.
        5    1    3    3  502    0  0.19896975507E+03 -0.14909993948E+03  0.14882919011E+02  0.24912516264E+03  0.46999998093E+01 0.  1.
       -5    1    3    3    0  502 -0.19896975507E+03  0.14909993948E+03 -0.11146616602E+03  0.27251890127E+03  0.46999998093E+01 0. -1.
</event>
<event>
 5   0  0.7776070E-02  0.4980619E+03  0.7818609E-02  0.1014286E+00
       -2   -1    0    0    0  501  0.00000000000E+00  0.00000000000E+00  0.49548588134E+02  0.49548588199E+02  0.25500000920E-02 0. -1.
        2   -1    0    0  501    0  0.00000000000E+00  0.00000000000E+00 -0.12516282884E+04  0.12516282884E+04  0.25500000920E-02 0.  1.
    10030    2    1    2    0    0  0.00000000000E+00  0.00000000000E+00 -0.12020797003E+04  0.13011768766E+04  0.49806190219E+03 0.  0.
        4    1    3    3  502    0  0.11686742382E+03  0.26580781717E+02 -0.30763065592E+02  0.12374373444E+03  0.12699999809E+01 0. -1.
       -4    1    3    3    0  502 -0.11686742382E+03 -0.26580781717E+02 -0.11713166347E+04  0.11774331422E+04  0.12699999809E+01 0.  1.
</event>
<event>
 5   0  0.4803890E-02  0.5084863E+03  0.7818609E-02  0.1011587E+00
        1   -1    0    0  501    0  0.00000000000E+00  0.00000000000E+00  0.79441209132E+03  0.79441209134E+03  0.50400001928E-02 0. -1.
       -1   -1    0    0    0  501  0.00000000000E+00  0.00000000000E+00 -0.81367823630E+02  0.81367823786E+02  0.50400001928E-02 0.  1.
    10030    2    1    2    0    0  0.00000000000E+00  0.00000000000E+00  0.71304426769E+03  0.87577991513E+03  0.50848631451E+03 0.  0.
        5    1    3    3  502    0 -0.18665980813E+03  0.54618464483E+02  0.63843947053E+03  0.66742198657E+03  0.46999998093E+01 0. -1.
       -5    1    3    3    0  502  0.18665980813E+03 -0.54618464483E+02  0.74604797165E+02  0.20835792855E+03  0.46999998093E+01 0.  1.
</event>
<event>
 5   0  0.4803890E-02  0.4978751E+03  0.7818609E-02  0.1014335E+00
        1   -1    0    0  501    0  0.00000000000E+00  0.00000000000E+00  0.96469282325E+03  0.96469282327E+03  0.50400001928E-02 0. -1.
       -1   -1    0    0    0  501  0.00000000000E+00  0.00000000000E+00 -0.64237977372E+02  0.64237977570E+02  0.50400001928E-02 0.  1.
    10030    2    1    2    0    0  0.00000000000E+00  0.00000000000E+00  0.90045484588E+03  0.10289308008E+04  0.49787514845E+03 0.  0.
        5    1    3    3  502    0  0.15301165514E+03 -0.14153636502E+03  0.73134206572E+03  0.76047907027E+03  0.46999998093E+01 0. -1.
       -5    1    3    3    0  502 -0.15301165514E+03  0.14153636502E+03  0.16911278016E+03  0.26845173057E+03  0.46999998093E+01 0.  1.
</event>
<event>
 5   0  0.7881060E-02  0.4909364E+03  0.7818609E-02  0.1016172E+00
        2   -1    0    0  501    0  0.00000000000E+00  0.00000000000E+00  0.52081906249E+03  0.52081906249E+03  0.25500000920E-02 0.  1.
       -2   -1    0    0    0  501  0.00000000000E+00  0.00000000000E+00 -0.11569208492E+03  0.11569208495E+03  0.25500000920E-02 0. -1.
    10030    2    1    2    0    0  0.00000000000E+00  0.00000000000E+00  0.40512697757E+03  0.63651114744E+03  0.49093642446E+03 0.  0.
        1    1    3    3  502    0  0.20408790712E+03 -0.99153793632E+02  0.32398974545E+03  0.39554102671E+03  0.50400001928E-02 0.  1.
       -1    1    3    3    0  502 -0.20408790712E+03  0.99153793632E+02  0.81137232120E+02  0.24097012074E+03  0.50400001928E-02 0. -1.
</event>
<event>
 5   0  0.7776070E-02  0.4998783E+03  0.7818609E-02  0.1013811E+00
        2   -1    0    0  501    0  0.00000000000E+00  0.00000000000E+00  0.15891854492E+04  0.15891854492E+04  0.25500000920E-02 0. -1.
       -2   -1    0    0    0  501  0.00000000000E+00  0.00000000000E+00 -0.39309174522E+02  0.39309174604E+02  0.25500000920E-02 0.  1.
    10030    2    1    2    0    0  0.00000000000E+00  0.00000000000E+00  0.15498762746E+04  0.16284946238E+04  0.49987825813E+03 0.  0.
        4    1    3    3  502    0  0.11198632594E+03  0.15616136925E+03  0.25429756247E+03  0.31874154675E+03  0.12699999809E+01 0.  1.
       -4    1    3    3    0  502 -0.11198632594E+03 -0.15616136925E+03  0.12955787122E+04  0.13097530770E+04  0.12699999809E+01 0. -1.
</event>
<event>
 5   0  0.7776070E-02  0.4977037E+03  0.7818609E-02  0.1014380E+00
       -2   -1    0    0    0  501  0.00000000000E+00  0.00000000000E+00  0.62601292425E+02  0.62601292477E+02  0.25500000920E-02 0.  1.
        2   -1    0    0  501    0  0.00000000000E+00  0.00000000000E+00 -0.98923268811E+03  0.98923268812E+03  0.25500000920E-02 0. -1.
    10030    2    1    2    0    0  0.00000000000E+00  0.00000000000E+00 -0.92663139569E+03  0.10518339806E+04  0.49770370629E+03 0.  0.
        4    1    3    3  502    0 -0.73673096502E+02  0.12866929850E+03 -0.88568453646E+03  0.89801014724E+03  0.12699999809E+01 0. -1.
       -4    1    3    3    0  502  0.73673096502E+02 -0.12866929850E+03 -0.40946859226E+02  0.15382383335E+03  0.12699999809E+01 0.  1.
</event>
<event>
 5   0  0.5191358E-02  0.5003777E+03  0.7818609E-02  0.1013680E+00
       -1   -1    0    0    0  501  0.00000000000E+00  0.00000000000E+00  0.10024956384E+03  0.10024956397E+03  0.50400001928E-02 0. -1.
        1   -1    0    0  501    0  0.00000000000E+00  0.00000000000E+00 -0.62438624802E+03  0.62438624805E+03  0.50400001928E-02 0.  1.
    10030    2    1    2    0    0  0.00000000000E+00  0.00000000000E+00 -0.52413668419E+03  0.72463581201E+03  0.50037765372E+03 0.  0.
        4    1    3    3  502    0 -0.10929166980E+03 -0.20317563686E+03 -0.12190277652E+03  0.26093468211E+03  0.12699999809E+01 0. -1.
       -4    1    3    3    0  502  0.10929166980E+03  0.20317563686E+03 -0.40223390766E+03  0.46370112990E+03  0.12699999809E+01 0.  1.
</event>
<event>
 5   0  0.4884478E-02  0.5015263E+03  0.7818609E-02  0.1013381E+00
        1   -1    0    0  501    0  0.00000000000E+00  0.00000000000E+00  0.38475829002E+03  0.38475829005E+03  0.50400001928E-02 0. -1.
       -1   -1    0    0    0  501  0.00000000000E+00  0.00000000000E+00 -0.16343291300E+03  0.16343291308E+03  0.50400001928E-02 0.  1.
    10030    2    1    2    0    0  0.00000000000E+00  0.00000000000E+00  0.22132537702E+03  0.54819120313E+03  0.50152634296E+03 0.  0.
        3    1    3    3  502    0 -0.31477700009E+02 -0.19070378866E+03 -0.63962699198E+02  0.20359277418E+03  0.10100000352E+00 0.  1.
       -3    1    3    3    0  502  0.31477700009E+02  0.19070378866E+03  0.28528807621E+03  0.34459842896E+03  0.10100000352E+00 0. -1.
</event>
<event>
 5   0  0.5038436E-02  0.5016210E+03  0.7818609E-02  0.1013357E+00
       -1   -1    0    0    0  501  0.00000000000E+00  0.00000000000E+00  0.37553819380E+03  0.37553819384E+03  0.50400001928E-02 0. -1.
        1   -1    0    0  501    0  0.00000000000E+00  0.00000000000E+00 -0.16750865334E+03  0.16750865342E+03  0.50400001928E-02 0.  1.
    10030    2    1    2    0    0  0.00000000000E+00  0.00000000000E+00  0.20802954046E+03  0.54304684726E+03  0.50162096110E+03 0.  0.
        1    1    3    3  502    0  0.11711926874E+03 -0.22112238295E+03  0.85456558484E+02  0.26441417278E+03  0.50400001928E-02 0. -1.
       -1    1    3    3    0  502 -0.11711926874E+03  0.22112238295E+03  0.12257298197E+03  0.27863267448E+03  0.50400001928E-02 0.  1.
</event>
<event>
 5   0  0.7776070E-02  0.4979801E+03  0.7818609E-02  0.1014307E+00
        2   -1    0    0  501    0  0.00000000000E+00  0.00000000000E+00  0.23403664360E+04  0.23403664360E+04  0.25500000920E-02 0. -1.
       -2   -1    0    0    0  501  0.00000000000E+00  0.00000000000E+00 -0.26489887939E+02  0.26489888062E+02  0.25500000920E-02 0.  1.
    10030    2    1    2    0    0  0.00000000000E+00  0.00000000000E+00  0.23138765481E+04  0.23668563241E+04  0.49798009910E+03 0.  0.
        4    1    3    3  502    0 -0.11554578317E+03  0.33132316650E+02  0.21933116130E+04  0.21966032921E+04  0.12699999809E+01 0. -1.
       -4    1    3    3    0  502  0.11554578317E+03 -0.33132316650E+02  0.12056493507E+03  0.17025303193E+03  0.12699999809E+01 0.  1.
</event>
<event>
 5   0  0.5191358E-02  0.5069566E+03  0.7818609E-02  0.1011979E+00
        1   -1    0    0  501    0  0.00000000000E+00  0.00000000000E+00  0.35926222840E+03  0.35926222843E+03  0.50400001928E-02 0.  1.
       -1   -1    0    0    0  501  0.00000000000E+00  0.00000000000E+00 -0.17884220545E+03  0.17884220552E+03  0.50400001928E-02 0. -1.
    10030    2    1    2    0    0  0.00000000000E+00  0.00000000000E+00  0.18042002295E+03  0.53810443395E+03  0.50695660283E+03 0.  0.
        4    1    3    3  502    0 -0.86104360640E+02  0.14311210004E+03 -0.11217366720E+03  0.20119537423E+03  0.12699999809E+01 0. -1.
       -4    1    3    3    0  502  0.86104360640E+02 -0.14311210004E+03  0.29259369015E+03  0.33690905971E+03  0.12699999809E+01 0.  1.
</event>
<event>
 5   0  0.3210875E-02  0.4941948E+03  0.7818609E-02  0.1015305E+00
       -3   -1    0    0    0  501  0.00000000000E+00  0.00000000000E+00  0.66047590840E+03  0.66047591613E+03  0.10100000352E+00 0.  1.
        3   -1    0    0  501    0  0.00000000000E+00  0.00000000000E+00 -0.92444091579E+02  0.92444146753E+02  0.10100000352E+00 0. -1.
    10030    2    1    2    0    0  0.00000000000E+00  0.00000000000E+00  0.56803181683E+03  0.75292006288E+03  0.49419477553E+03 0.  0.
        3    1    3    3  502    0  0.17198850882E+03 -0.92105668512E+01  0.55395251496E+03  0.58011057631E+03  0.10100000352E+00 0.  1.
       -3    1    3    3    0  502 -0.17198850882E+03  0.92105668512E+01  0.14079301864E+02  0.17280948657E+03  0.10100000352E+00 0. -1.
</event>
<event>
 5   0  0.7881060E-02  0.4971290E+03  0.7818609E-02  0.1014531E+00
        2   -1    0    0  501    0  0.00000000000E+00  0.00000000000E+00  0.61341530711E+03  0.61341530712E+03  0.25500000920E-02 0. -1.
       -2   -1    0    0    0  501  0.00000000000E+00  0.00000000000E+00 -0.10072182654E+03  0.10072182657E+03  0.25500000920E-02 0.  1.
    10030    2    1    2    0    0  0.00000000000E+00  0.00000000000E+00  0.51269348057E+03  0.71413713369E+03  0.49712899803E+03 0.  0.
        1    1    3    3  502    0 -0.93417469339E+02  0.20907021214E+03  0.39523058473E+03  0.45677608553E+03  0.50400001928E-02 0. -1.
       -1    1    3    3    0  502  0.93417469339E+02 -0.20907021214E+03  0.11746289584E+03  0.25736104815E+03  0.50400001928E-02 0.  1.
</event>
<event>
 5   0  0.4884478E-02  0.4959097E+03  0.7818609E-02  0.1014852E+00
       -1   -1    0    0    0  501  0.00000000000E+00  0.00000000000E+00  0.16412362445E+03  0.16412362452E+03  0.50400001928E-02 0. -1.
        1   -1    0    0  501    0  0.00000000000E+00  0.00000000000E+00 -0.37460553905E+03  0.37460553909E+03  0.50400001928E-02 0.  1.
    10030    2    1    2    0    0  0.00000000000E+00  0.00000000000E+00 -0.21048191461E+03  0.53872916361E+03  0.49590974516E+03 0.  0.
        3    1    3    3  502    0 -0.64898259276E+02  0.11994135770E+03  0.11972404328E+03  0.18147057636E+03  0.10100000352E+00 0. -1.
       -3    1    3    3    0  502  0.64898259276E+02 -0.11994135770E+03 -0.33020595788E+03  0.35725858725E+03  0.10100000352E+00 0.  1.
</event>
<event>
 5   0  0.8208720E-02  0.5018081E+03  0.7818609E-02  0.1013308E+00
       -2   -1    0    0    0  501  0.00000000000E+00  0.00000000000E+00  0.15023886979E+03  0.15023886981E+03  0.25500000920E-02 0.  1.
        2   -1    0    0  501    0  0.00000000000E+00  0.00000000000E+00 -0.41901829272E+03  0.41901829273E+03  0.25500000920E-02 0. -1.
    10030    2    1    2    0    0  0.00000000000E+00  0.00000000000E+00 -0.26877942293E+03  0.56925716254E+03  0.50180806980E+03 0.  0.
        3    1    3    3  502    0  0.15224095551E+03  0.11232849594E+03 -0.32133664905E+03  0.37289710613E+03  0.10100000352E+00 0. -1.
       -3    1    3    3    0  502 -0.15224095551E+03 -0.11232849594E+03  0.52557226124E+02  0.19636005641E+03  0.10100000352E+00 0.  1.
</event>
<event>
 5   0  0.7881060E-02  0.4964333E+03  0.7818609E-02  0.1014714E+00
       -2   -1    0    0    0  501  0.00000000000E+00  0.00000000000E+00  0.16187435406E+03  0.16187435408E+03  0.25500000920E-02 0. -1.
        2   -1    0    0  501    0  0.00000000000E+00  0.00000000000E+00 -0.38061318622E+03  0.38061318623E+03  0.25500000920E-02 0.  1.
    10030    2    1    2    0    0  0.00000000000E+00  0.00000000000E+00 -0.21873883217E+03  0.54248754031E+03  0.49643333359E+03 0.  0.
        1    1    3    3  502    0 -0.16015736748E+03  0.16343543071E+03 -0.42701956993E+01  0.22886624253E+03  0.50400001928E-02 0.  1.
       -1    1    3    3    0  502  0.16015736748E+03 -0.16343543071E+03 -0.21446863647E+03  0.31362129779E+03  0.50400001928E-02 0. -1.
</event>
<event>
 5   0  0.4803890E-02  0.5005396E+03  0.7818609E-02  0.1013638E+00
       -1   -1    0    0    0  501  0.00000000000E+00  0.00000000000E+00  0.33239344258E+03  0.33239344262E+03  0.50400001928E-02 0. -1.
        1   -1    0    0  501    0  0.00000000000E+00  0.00000000000E+00 -0.18843621757E+03  0.18843621764E+03  0.50400001928E-02 0.  1.
    10030    2    1    2    0    0  0.00000000000E+00  0.00000000000E+00  0.14395722501E+03  0.52082966026E+03  0.50053956125E+03 0.  0.
        5    1    3    3  502    0 -0.98543836166E+01 -0.85053637423E+01 -0.18803773354E+03  0.18854635855E+03  0.46999998093E+01 0.  1.
       -5    1    3    3    0  502  0.98543836166E+01  0.85053637423E+01  0.33199495855E+03  0.33228330171E+03  0.46999998093E+01 0. -1.
</event>
<event>
 5   0  0.4865501E-02  0.4985713E+03  0.7818609E-02  0.1014152E+00
       -1   -1    0    0    0  501  0.00000000000E+00  0.00000000000E+00  0.50471218836E+02  0.50471219088E+02  0.50400001928E-02 0. -1.
        1   -1    0    0  501    0  0.00000000000E+00  0.00000000000E+00 -0.12312628236E+04  0.12312628236E+04  0.50400001928E-02 0.  1.
    10030    2    1    2    0    0  0.00000000000E+00  0.00000000000E+00 -0.11807916048E+04  0.12817340427E+04  0.49857130115E+03 0.  0.
        2    1    3    3  502    0 -0.59509806608E+01  0.13574537588E+03 -0.11276966155E+04  0.11358529297E+04  0.25500000920E-02 0.  1.
       -2    1    3    3    0  502  0.59509806608E+01 -0.13574537588E+03 -0.53094989256E+02  0.14588111301E+03  0.25500000920E-02 0. -1.
</event>
<event>
 5   0  0.7698747E-02  0.5005101E+03  0.7818609E-02  0.1013646E+00
        2   -1    0    0  501    0  0.00000000000E+00  0.00000000000E+00  0.19180116971E+03  0.19180116972E+03  0.25500000920E-02 0. -1.
       -2   -1    0    0    0  501  0.00000000000E+00  0.00000000000E+00 -0.32652344654E+03  0.32652344655E+03  0.25500000920E-02 0.  1.
    10030    2    1    2    0    0  0.00000000000E+00  0.00000000000E+00 -0.13472227683E+03  0.51832461627E+03  0.50051005580E+03 0.  0.
        2    1    3    3  502    0 -0.18655002957E+02 -0.12772575923E+02 -0.32546367656E+03  0.32624799248E+03  0.25500000920E-02 0.  1.
       -2    1    3    3    0  502  0.18655002957E+02  0.12772575923E+02  0.19074139973E+03  0.19207662379E+03  0.25500000920E-02 0. -1.
</event>
<event>
 5   0  0.7698747E-02  0.5038557E+03  0.7818609E-02  0.1012777E+00
       -2   -1    0    0    0  501  0.00000000000E+00  0.00000000000E+00  0.23153858428E+03  0.23153858429E+03  0.25500000920E-02 0. -1.
        2   -1    0    0  501    0  0.00000000000E+00  0.00000000000E+00 -0.27411263307E+03  0.27411263308E+03  0.25500000920E-02 0.  1.
    10030    2    1    2    0    0  0.00000000000E+00  0.00000000000E+00 -0.42574048792E+02  0.50565121737E+03  0.50385573729E+03 0.  0.
        2    1    3    3  502    0  0.78832257738E+02  0.55292673935E+02  0.21234256753E+03  0.23315482118E+03  0.25500000920E-02 0. -1.
       -2    1    3    3    0  502 -0.78832257738E+02 -0.55292673935E+02 -0.25491661632E+03  0.27249639618E+03  0.25500000920E-02 0.  1.
</event>
<event>
 5   0  0.5038436E-02  0.4936632E+03  0.7818609E-02  0.1015446E+00
        1   -1    0    0  501    0  0.00000000000E+00  0.00000000000E+00  0.80112339943E+03  0.80112339945E+03  0.50400001928E-02 0. -1.
       -1   -1    0    0    0  501  0.00000000000E+00  0.00000000000E+00 -0.76050491886E+02  0.76050492053E+02  0.50400001928E-02 0.  1.
    10030    2    1    2    0    0  0.00000000000E+00  0.00000000000E+00  0.72507290755E+03  0.87717389150E+03  0.49366315912E+03 0.  0.
        1    1    3    3  502    0 -0.11441919007E+03  0.11703640023E+03  0.69083189112E+03  0.70995631686E+03  0.50400001928E-02 0. -1.
       -1    1    3    3    0  502  0.11441919007E+03 -0.11703640023E+03  0.34241016425E+02  0.16721757464E+03  0.50400001928E-02 0.  1.
</event>
<event>
 5   0  0.3210875E-02  0.4994217E+03  0.7818609E-02  0.1013930E+00
        4   -1    0    0  501    0  0.00000000000E+00  0.00000000000E+00  0.21127241121E+03  0.21127622829E+03  0.12699999809E+01 0.  1.
       -4   -1    0    0    0  501  0.00000000000E+00  0.00000000000E+00 -0.29513482527E+03  0.29513755773E+03  0.12699999809E+01 0. -1.
    10030    2    1    2    0    0  0.00000000000E+00  0.00000000000E+00 -0.83862414057E+02  0.50641378602E+03  0.49942168373E+03 0.  0.
        5    1    3    3  502    0 -0.82274781608E+02  0.23790273335E+01 -0.28093997388E+03  0.29278688219E+03  0.46999998093E+01 0. -1.
       -5    1    3    3    0  502  0.82274781608E+02 -0.23790273335E+01  0.19707755982E+03  0.21362690384E+03  0.46999998093E+01 0.  1.
</event>
<event>
 5   0  0.7881060E-02  0.5010778E+03  0.7818609E-02  0.1013498E+00
        2   -1    0    0  501    0  0.00000000000E+00  0.00000000000E+00  0.17872220068E+04  0.17872220068E+04  0.25500000920E-02 0.  1.
       -2   -1    0    0    0  501  0.00000000000E+00  0.00000000000E+00 -0.35121403648E+02  0.35121403741E+02  0.25500000920E-02 0. -1.
    10030    2    1    2    0    0  0.00000000000E+00  0.00000000000E+00  0.17521006032E+04  0.18223434105E+04  0.50107782069E+03 0.  0.
        1    1    3    3  502    0  0.93897583343E+01  0.60871587383E+02  0.17592594046E+04  0.17603372320E+04  0.50400001928E-02 0.  1.
       -1    1    3    3    0  502 -0.93897583343E+01 -0.60871587383E+02 -0.71588014492E+01  0.62006178529E+02  0.50400001928E-02 0. -1.
</event>
<event>
 5   0  0.5191358E-02  0.5013004E+03  0.7818609E-02  0.1013440E+00
        1   -1    0    0  501    0  0.00000000000E+00  0.00000000000E+00  0.77390946736E+03  0.77390946737E+03  0.50400001928E-02 0.  1.
       -1   -1    0    0    0  501  0.00000000000E+00  0.00000000000E+00 -0.81179415670E+02  0.81179415827E+02  0.50400001928E-02 0. -1.
    10030    2    1    2    0    0  0.00000000000E+00  0.00000000000E+00  0.69273005169E+03  0.85508888320E+03  0.50130038267E+03 0.  0.
        4    1    3    3  502    0  0.18483965599E+03  0.16050278203E+03  0.25455454272E+03  0.35316634832E+03  0.12699999809E+01 0. -1.
       -4    1    3    3    0  502 -0.18483965599E+03 -0.16050278203E+03  0.43817550896E+03  0.50192253488E+03  0.12699999809E+01 0.  1.
</event>
<event>
 5   0  0.7881060E-02  0.5010001E+03  0.7818609E-02  0.1013518E+00
        2   -1    0    0  501    0  0.00000000000E+00  0.00000000000E+00  0.14023784084E+04  0.14023784084E+04  0.25500000920E-02 0. -1.
       -2   -1    0    0    0  501  0.00000000000E+00  0.00000000000E+00 -0.44745614751E+02  0.44745614824E+02  0.25500000920E-02 0.  1.
    10030    2    1    2    0    0  0.00000000000E+00  0.00000000000E+00  0.13576327936E+04  0.14471240232E+04  0.50100013593E+03 0.  0.
        1    1    3    3  502    0 -0.86617026486E+02  0.58454551527E+02  0.21216049723E+02  0.10662816074E+03  0.50400001928E-02 0.  1.
       -1    1    3    3    0  502  0.86617026486E+02 -0.58454551527E+02  0.13364167439E+04  0.13404958624E+04  0.50400001928E-02 0. -1.
</event>
<event>
 5   0  0.5038436E-02  0.4969752E+03  0.7818609E-02  0.1014571E+00
        1   -1    0    0  501    0  0.00000000000E+00  0.00000000000E+00  0.30645272194E+04  0.30645272194E+04  0.50400001928E-02 0. -1.
       -1   -1    0    0    0  501  0.00000000000E+00  0.00000000000E+00 -0.20148650240E+02  0.20148650871E+02  0.50400001928E-02 0.  1.
    10030    2    1    2    0    0  0.00000000000E+00  0.00000000000E+00  0.30443785692E+04  0.30846758703E+04  0.49697520290E+03 0.  0.
        1    1    3    3  502    0  0.23729570836E+03  0.23449784699E+02  0.19560930595E+04  0.19705733184E+04  0.50400001928E-02 0. -1.
       -1    1    3    3    0  502 -0.23729570836E+03 -0.23449784699E+02  0.10882855097E+04  0.11141025519E+04  0.50400001928E-02 0.  1.
</event>
<event>
 5   0  0.7776070E-02  0.5069564E+03  0.7818609E-02  0.1011979E+00
       -2   -1    0    0    0  501  0.00000000000E+00  0.00000000000E+00  0.20856368952E+03  0.20856368954E+03  0.25500000920E-02 0. -1.
        2   -1    0    0  501    0  0.00000000000E+00  0.00000000000E+00 -0.30806511095E+03  0.30806511096E+03  0.25500000920E-02 0.  1.
    10030    2    1    2    0    0  0.00000000000E+00  0.00000000000E+00 -0.99501421423E+02  0.51662880050E+03  0.50695639323E+03 0.  0.
        4    1    3    3  502    0  0.26742829088E+02  0.12401120436E+03  0.17388004076E+03  0.21524367399E+03  0.12699999809E+01 0. -1.
       -4    1    3    3    0  502 -0.26742829088E+02 -0.12401120436E+03 -0.27338146219E+03  0.30138512651E+03  0.12699999809E+01 0.  1.
</event>
<event>
 5   0  0.4803890E-02  0.4995948E+03  0.7818609E-02  0.1013885E+00
        1   -1    0    0  501    0  0.00000000000E+00  0.00000000000E+00  0.69561011072E+03  0.69561011073E+03  0.50400001928E-02 0. -1.
       -1   -1    0    0    0  501  0.00000000000E+00  0.00000000000E+00 -0.89703617480E+02  0.89703617621E+02  0.50400001928E-02 0.  1.
    10030    2    1    2    0    0  0.00000000000E+00  0.00000000000E+00  0.60590649324E+03  0.78531372836E+03  0.49959480922E+03 0.  0.
        5    1    3    3  502    0 -0.15646234208E+03 -0.18406982581E+03  0.40254889405E+03  0.46949959250E+03  0.46999998093E+01 0. -1.
       -5    1    3    3    0  502  0.15646234208E+03  0.18406982581E+03  0.20335759918E+03  0.31581413585E+03  0.46999998093E+01 0.  1.
</event>
<event>
 5   0  0.8208720E-02  0.4991523E+03  0.7818609E-02  0.1014000E+00
        2   -1    0    0  501    0  0.00000000000E+00  0.00000000000E+00  0.65644126543E+03  0.65644126544E+03  0.25500000920E-02 0.  1.
       -2   -1    0    0    0  501  0.00000000000E+00  0.00000000000E+00 -0.94887761639E+02  0.94887761674E+02  0.25500000920E-02 0. -1.
    10030    2    1    2    0    0  0.00000000000E+00  0.00000000000E+00  0.56155350379E+03  0.75132902711E+03  0.49915225068E+03 0.  0.
        3    1    3    3  502    0 -0.86379846917E+02 -0.14175456911E+03  0.25631400380E+00  0.16599973408E+03  0.10100000352E+00 0. -1.
       -3    1    3    3    0  502  0.86379846917E+02  0.14175456911E+03  0.56129718979E+03  0.58532929303E+03  0.10100000352E+00 0.  1.
</event>
<event>
 5   0  0.7698747E-02  0.4993158E+03  0.7818609E-02  0.1013958E+00
       -2   -1    0    0    0  501  0.00000000000E+00  0.00000000000E+00  0.17448526559E+03  0.17448526561E+03  0.25500000920E-02 0. -1.
        2   -1    0    0  501    0  0.00000000000E+00  0.00000000000E+00 -0.35721675218E+03  0.35721675219E+03  0.25500000920E-02 0.  1.
    10030    2    1    2    0    0  0.00000000000E+00  0.00000000000E+00 -0.18273148659E+03  0.53170201779E+03  0.49931577136E+03 0.  0.
        2    1    3    3  502    0  0.32106507995E+02 -0.34966106821E+02  0.16963521105E+03  0.17615209711E+03  0.25500000920E-02 0. -1.
       -2    1    3    3    0  502 -0.32106507995E+02  0.34966106821E+02 -0.35236669764E+03  0.35554992068E+03  0.25500000920E-02 0.  1.
</event>
<event>
 5   0  0.7881060E-02  0.4982612E+03  0.7818609E-02  0.1014234E+00
        2   -1    0    0  501    0  0.00000000000E+00  0.00000000000E+00  0.24508057781E+03  0.24508057782E+03  0.25500000920E-02 0.  1.
       -2   -1    0    0    0  501  0.00000000000E+00  0.00000000000E+00 -0.25324751919E+03  0.25324751920E+03  0.25500000920E-02 0. -1.
    10030    2    1    2    0    0  0.00000000000E+00  0.00000000000E+00 -0.81669413772E+01  0.49832809702E+03  0.49826116982E+03 0.  0.
        1    1    3    3  502    0 -0.12844010921E+03  0.21307048593E+03  0.89626167078E+01  0.24895024032E+03  0.50400001928E-02 0. -1.
       -1    1    3    3    0  502  0.12844010921E+03 -0.21307048593E+03 -0.17129558085E+02  0.24937785671E+03  0.50400001928E-02 0.  1.
</event>
<event>
 5   0  0.4865501E-02  0.5005101E+03  0.7818609E-02  0.1013646E+00
        1   -1    0    0  501    0  0.00000000000E+00  0.00000000000E+00  0.21500132100E+03  0.21500132106E+03  0.50400001928E-02 0. -1.
       -1   -1    0    0    0  501  0.00000000000E+00  0.00000000000E+00 -0.29128927777E+03  0.29128927781E+03  0.50400001928E-02 0.  1.
    10030    2    1    2    0    0  0.00000000000E+00  0.00000000000E+00 -0.76287956770E+02  0.50629059887E+03  0.50051005800E+03 0.  0.
        2    1    3    3  502    0  0.19434093730E+02 -0.21001732176E+03  0.98106193000E+02  0.23261509957E+03  0.25500000920E-02 0. -1.
       -2    1    3    3    0  502 -0.19434093730E+02  0.21001732176E+03 -0.17439414977E+03  0.27367549930E+03  0.25500000920E-02 0.  1.
</event>
<event>
 5   0  0.7698747E-02  0.4999701E+03  0.7818609E-02  0.1013787E+00
        2   -1    0    0  501    0  0.00000000000E+00  0.00000000000E+00  0.59125952058E+03  0.59125952059E+03  0.25500000920E-02 0.  1.
       -2   -1    0    0    0  501  0.00000000000E+00  0.00000000000E+00 -0.10569390977E+03  0.10569390980E+03  0.25500000920E-02 0. -1.
    10030    2    1    2    0    0  0.00000000000E+00  0.00000000000E+00  0.48556561081E+03  0.69695343039E+03  0.49997012083E+03 0.  0.
        2    1    3    3  502    0  0.16448689966E+03 -0.18568606663E+03  0.28591266561E+03  0.37852517467E+03  0.25500000920E-02 0.  1.
       -2    1    3    3    0  502 -0.16448689966E+03  0.18568606663E+03  0.19965294521E+03  0.31842825571E+03  0.25500000920E-02 0. -1.
</event>
<event>
 5   0  0.4884478E-02  0.4962067E+03  0.7818609E-02  0.1014774E+00
       -1   -1    0    0    0  501  0.00000000000E+00  0.00000000000E+00  0.52537019398E+03  0.52537019400E+03  0.50400001928E-02 0.  1.
        1   -1    0    0  501    0  0.00000000000E+00  0.00000000000E+00 -0.11716549718E+03  0.11716549728E+03  0.50400001928E-02 0. -1.
    10030    2    1    2    0    0  0.00000000000E+00  0.00000000000E+00  0.40820469680E+03  0.64253569128E+03  0.49620665058E+03 0.  0.
        3    1    3    3  502    0 -0.18451795652E+03 -0.15087579647E+03  0.29329862472E+03  0.37793448600E+03  0.10100000352E+00 0. -1.
       -3    1    3    3    0  502  0.18451795652E+03  0.15087579647E+03  0.11490607208E+03  0.26460120529E+03  0.10100000352E+00 0.  1.
</event>
<event>
 5   0  0.4865501E-02  0.4951564E+03  0.7818609E-02  0.1015051E+00
        1   -1    0    0  501    0  0.00000000000E+00  0.00000000000E+00  0.47134239662E+03  0.47134239665E+03  0.50400001928E-02 0.  1.
       -1   -1    0    0    0  501  0.00000000000E+00  0.00000000000E+00 -0.13004341041E+03  0.13004341050E+03  0.50400001928E-02 0. -1.
    10030    2    1    2    0    0  0.00000000000E+00  0.00000000000E+00  0.34129898621E+03  0.60138580715E+03  0.49515643089E+03 0.  0.
        2    1    3    3  502    0 -0.40725178935E+02  0.12950236308E+03 -0.80808273953E+02  0.15798537714E+03  0.25500000920E-02 0. -1.
       -2    1    3    3    0  502  0.40725178935E+02 -0.12950236308E+03  0.42210726017E+03  0.44340043001E+03  0.25500000920E-02 0.  1.
</event>
<event>
 5   0  0.4865501E-02  0.5287434E+03  0.7818609E-02  0.1006537E+00
        1   -1    0    0  501    0  0.00000000000E+00  0.00000000000E+00  0.19186195814E+03  0.19186195821E+03  0.50400001928E-02 0. -1.
       -1   -1    0    0    0  501  0.00000000000E+00  0.00000000000E+00 -0.36428484061E+03  0.36428484065E+03  0.50400001928E-02 0.  1.
    10030    2    1    2    0    0  0.00000000000E+00  0.00000000000E+00 -0.17242288247E+03  0.55614679886E+03  0.52874342689E+03 0.  0.
        2    1    3    3  502    0 -0.92127200829E+02  0.20623515238E+03  0.58283927153E+02  0.23327532099E+03  0.25500000920E-02 0. -1.
       -2    1    3    3    0  502  0.92127200829E+02 -0.20623515238E+03 -0.23070680962E+03  0.32287147787E+03  0.25500000920E-02 0.  1.
</event>
<event>
 5   0  0.4803890E-02  0.4905163E+03  0.7818609E-02  0.1016284E+00
        1   -1    0    0  501    0  0.00000000000E+00  0.00000000000E+00  0.19332556968E+03  0.19332556975E+03  0.50400001928E-02 0. -1.
       -1   -1    0    0    0  501  0.00000000000E+00  0.00000000000E+00 -0.31114121728E+03  0.31114121732E+03  0.50400001928E-02 0.  1.
    10030    2    1    2    0    0  0.00000000000E+00  0.00000000000E+00 -0.11781564760E+03  0.50446678708E+03  0.49051627133E+03 0.  0.
        5    1    3    3  502    0 -0.17263245311E+03 -0.17394045890E+02 -0.23711298614E+03  0.29385230115E+03  0.46999998093E+01 0.  1.
       -5    1    3    3    0  502  0.17263245311E+03  0.17394045890E+02  0.11929733854E+03  0.21061448592E+03  0.46999998093E+01 0. -1.
</event>
<event>
 5   0  0.7881060E-02  0.4832886E+03  0.7818609E-02  0.1018235E+00
       -2   -1    0    0    0  501  0.00000000000E+00  0.00000000000E+00  0.98354462278E+02  0.98354462311E+02  0.25500000920E-02 0. -1.
        2   -1    0    0  501    0  0.00000000000E+00  0.00000000000E+00 -0.59368909716E+03  0.59368909717E+03  0.25500000920E-02 0.  1.
    10030    2    1    2    0    0  0.00000000000E+00  0.00000000000E+00 -0.49533463489E+03  0.69204355948E+03  0.48328861739E+03 0.  0.
        1    1    3    3  502    0  0.17429788068E+02 -0.91160292683E+02  0.71814009173E+02  0.11735096256E+03  0.50400001928E-02 0. -1.
       -1    1    3    3    0  502 -0.17429788068E+02  0.91160292683E+02 -0.56714864406E+03  0.57469259692E+03  0.50400001928E-02 0.  1.
</event>
<event>
 5   0  0.7776070E-02  0.5288721E+03  0.7818609E-02  0.1006506E+00
        2   -1    0    0  501    0  0.00000000000E+00  0.00000000000E+00  0.69604289100E+03  0.69604289100E+03  0.25500000920E-02 0.  1.
       -2   -1    0    0    0  501  0.00000000000E+00  0.00000000000E+00 -0.10046281977E+03  0.10046281980E+03  0.25500000920E-02 0. -1.
    10030    2    1    2    0    0  0.00000000000E+00  0.00000000000E+00  0.59558007123E+03  0.79650571080E+03  0.52887212641E+03 0.  0.
        4    1    3    3  502    0 -0.14395692204E+03 -0.20488497876E+03  0.16979058465E+03  0.30254240275E+03  0.12699999809E+01 0. -1.
       -4    1    3    3    0  502  0.14395692204E+03  0.20488497876E+03  0.42578948657E+03  0.49396330805E+03  0.12699999809E+01 0.  1.
</event>
<event>
 5   0  0.8208720E-02  0.4863224E+03  0.7818609E-02  0.1017412E+00
       -2   -1    0    0    0  501  0.00000000000E+00  0.00000000000E+00  0.33679936445E+03  0.33679936446E+03  0.25500000920E-02 0. -1.
        2   -1    0    0  501    0  0.00000000000E+00  0.00000000000E+00 -0.17555663230E+03  0.17555663231E+03  0.25500000920E-02 0.  1.
    10030    2    1    2    0    0  0.00000000000E+00  0.00000000000E+00  0.16124273216E+03  0.51235599678E+03  0.48632237123E+03 0.  0.
        3    1    3    3  502    0  0.17101323837E+03  0.17285727865E+03  0.82178850635E+02  0.25666815185E+03  0.10100000352E+00 0.  1.
       -3    1    3    3    0  502 -0.17101323837E+03 -0.17285727865E+03  0.79063881524E+02  0.25568784493E+03  0.10100000352E+00 0. -1.
</event>
<event>
 5   0  0.3210875E-02  0.5000439E+03  0.7818609E-02  0.1013767E+00
       -4   -1    0    0    0  501  0.00000000000E+00  0.00000000000E+00  0.23099703763E+03  0.23100052877E+03  0.12699999809E+01 0. -1.
        4   -1    0    0  501    0  0.00000000000E+00  0.00000000000E+00 -0.27060674460E+03  0.27060972474E+03  0.12699999809E+01 0.  1.
    10030    2    1    2    0    0  0.00000000000E+00  0.00000000000E+00 -0.39609706971E+02  0.50161025352E+03  0.50004391562E+03 0.  0.
        5    1    3    3  502    0  0.23468251257E+03  0.42617387403E+02 -0.94850729549E+02  0.25673113234E+03  0.46999998093E+01 0.  1.
       -5    1    3    3    0  502 -0.23468251257E+03 -0.42617387403E+02  0.55241022578E+02  0.24487912118E+03  0.46999998093E+01 0. -1.
</event>
<event>
 5   0  0.3210875E-02  0.5180069E+03  0.7818609E-02  0.1009183E+00
       -4   -1    0    0    0  501  0.00000000000E+00  0.00000000000E+00  0.29844756043E+03  0.29845026257E+03  0.12699999809E+01 0. -1.
        4   -1    0    0  501    0  0.00000000000E+00  0.00000000000E+00 -0.22476693432E+03  0.22477052223E+03  0.12699999809E+01 0.  1.
    10030    2    1    2    0    0  0.00000000000E+00  0.00000000000E+00  0.73680626105E+02  0.52322078480E+03  0.51800690631E+03 0.  0.
        4    1    3    3  502    0 -0.17727680872E+03  0.65323531257E+02  0.21578712372E+03  0.28680991320E+03  0.12699999809E+01 0. -1.
       -4    1    3    3    0  502  0.17727680872E+03 -0.65323531257E+02 -0.14210649762E+03  0.23641087160E+03  0.12699999809E+01 0.  1.
</event>
<event>
 5   0  0.4803890E-02  0.5012280E+03  0.7818609E-02  0.1013459E+00
       -1   -1    0    0    0  501  0.00000000000E+00  0.00000000000E+00  0.54152199248E+02  0.54152199482E+02  0.50400001928E-02 0.  1.
        1   -1    0    0  501    0  0.00000000000E+00  0.00000000000E+00 -0.11598307144E+04  0.11598307144E+04  0.50400001928E-02 0. -1.
    10030    2    1    2    0    0  0.00000000000E+00  0.00000000000E+00 -0.11056785151E+04  0.12139829139E+04  0.50122802830E+03 0.  0.
        5    1    3    3  502    0  0.19903600333E+03  0.21450583877E+02 -0.18784651921E+03  0.27456121894E+03  0.46999998093E+01 0.  1.
       -5    1    3    3    0  502 -0.19903600333E+03 -0.21450583877E+02 -0.91783199591E+03  0.93942169492E+03  0.46999998093E+01 0. -1.
</event>
<event>
 5   0  0.4803890E-02  0.5047840E+03  0.7818609E-02  0.1012538E+00
        1   -1    0    0  501    0  0.00000000000E+00  0.00000000000E+00  0.68695000946E+02  0.68695001131E+02  0.50400001928E-02 0.  1.
       -1   -1    0    0    0  501  0.00000000000E+00  0.00000000000E+00 -0.92731223853E+03  0.92731223854E+03  0.50400001928E-02 0. -1.
    10030    2    1    2    0    0  0.00000000000E+00  0.00000000000E+00 -0.85861723758E+03  0.99600723967E+03  0.50478397440E+03 0.  0.
        5    1    3    3  502    0 -0.21694599361E+02  0.24268735129E+03 -0.29974376722E+03  0.38631104320E+03  0.46999998093E+01 0.  1.
       -5    1    3    3    0  502  0.21694599361E+02 -0.24268735129E+03 -0.55887347036E+03  0.60969619647E+03  0.46999998093E+01 0. -1.
</event>
<event>
 5   0  0.5191358E-02  0.4939110E+03  0.7818609E-02  0.1015381E+00
        1   -1    0    0  501    0  0.00000000000E+00  0.00000000000E+00  0.63911458786E+03  0.63911458788E+03  0.50400001928E-02 0.  1.
       -1   -1    0    0    0  501  0.00000000000E+00  0.00000000000E+00 -0.95424216898E+02  0.95424217031E+02  0.50400001928E-02 0. -1.
    10030    2    1    2    0    0  0.00000000000E+00  0.00000000000E+00  0.54369037096E+03  0.73453880491E+03  0.49391096004E+03 0.  0.
        4    1    3    3  502    0 -0.17234677182E+02  0.20963949102E+03  0.46426031365E+03  0.50969108490E+03  0.12699999809E+01 0.  1.
       -4    1    3    3    0  502  0.17234677182E+02 -0.20963949102E+03  0.79430057314E+02  0.22484772002E+03  0.12699999809E+01 0. -1.
</event>
<event>
 5   0  0.5038436E-02  0.4936216E+03  0.7818609E-02  0.1015457E+00
        1   -1    0    0  501    0  0.00000000000E+00  0.00000000000E+00  0.18201060162E+03  0.18201060169E+03  0.50400001928E-02 0. -1.
       -1   -1    0    0    0  501  0.00000000000E+00  0.00000000000E+00 -0.33468138135E+03  0.33468138139E+03  0.50400001928E-02 0.  1.
    10030    2    1    2    0    0  0.00000000000E+00  0.00000000000E+00 -0.15267077973E+03  0.51669198308E+03  0.49362155382E+03 0.  0.
        1    1    3    3  502    0 -0.33431489973E+02 -0.20296470856E+03  0.66432879243E+02  0.21616120122E+03  0.50400001928E-02 0.  1.
       -1    1    3    3    0  502  0.33431489973E+02  0.20296470856E+03 -0.21910365897E+03  0.30053078186E+03  0.50400001928E-02 0. -1.
</event>
<event>
 5   0  0.7776070E-02  0.4952460E+03  0.7818609E-02  0.1015027E+00
        2   -1    0    0  501    0  0.00000000000E+00  0.00000000000E+00  0.36098273724E+03  0.36098273725E+03  0.25500000920E-02 0. -1.
       -2   -1    0    0    0  501  0.00000000000E+00  0.00000000000E+00 -0.16986173187E+03  0.16986173189E+03  0.25500000920E-02 0.  1.
    10030    2    1    2    0    0  0.00000000000E+00  0.00000000000E+00  0.19112100537E+03  0.53084446913E+03  0.49524601131E+03 0.  0.
        4    1    3    3  502    0  0.12413654311E+03  0.14805926246E+03 -0.70439519345E+02  0.20565691168E+03  0.12699999809E+01 0.  1.
       -4    1    3    3    0  502 -0.12413654311E+03 -0.14805926246E+03  0.26156052472E+03  0.32518755746E+03  0.12699999809E+01 0. -1.
</event>
<event>
 5   0  0.7933103E-02  0.5039235E+03  0.7818609E-02  0.1012760E+00
        2   -1    0    0  501    0  0.00000000000E+00  0.00000000000E+00  0.88085592530E+03  0.88085592530E+03  0.25500000920E-02 0.  1.
       -2   -1    0    0    0  501  0.00000000000E+00  0.00000000000E+00 -0.72071617304E+02  0.72071617349E+02  0.25500000920E-02 0. -1.
    10030    2    1    2    0    0  0.00000000000E+00  0.00000000000E+00  0.80878430799E+03  0.95292754265E+03  0.50392345122E+03 0.  0.
        5    1    3    3  502    0  0.10201503972E+03  0.21251464345E+03  0.23638857284E+03  0.33387301385E+03  0.46999998093E+01 0.  1.
       -5    1    3    3    0  502 -0.10201503972E+03 -0.21251464345E+03  0.57239573515E+03  0.61905452880E+03  0.46999998093E+01 0. -1.
</event>
<event>
 5   0  0.4803890E-02  0.5006094E+03  0.7818609E-02  0.1013620E+00
       -1   -1    0    0    0  501  0.00000000000E+00  0.00000000000E+00  0.26990681876E+03  0.26990681881E+03  0.50400001928E-02 0.  1.
        1   -1    0    0  501    0  0.00000000000E+00  0.00000000000E+00 -0.23212614936E+03  0.23212614942E+03  0.50400001928E-02 0. -1.
    10030    2    1    2    0    0  0.00000000000E+00  0.00000000000E+00  0.37780669401E+02  0.50203296823E+03  0.50060935090E+03 0.  0.
        5    1    3    3  502    0  0.22125840993E+03  0.90998332397E+02  0.92545506543E+02  0.25655943024E+03  0.46999998093E+01 0.  1.
       -5    1    3    3    0  502 -0.22125840993E+03 -0.90998332397E+02 -0.54764837142E+02  0.24547353799E+03  0.46999998093E+01 0. -1.
</event>
<event>
 5   0  0.7881060E-02  0.4987270E+03  0.7818609E-02  0.1014112E+00
        2   -1    0    0  501    0  0.00000000000E+00  0.00000000000E+00  0.33199220909E+03  0.33199220910E+03  0.25500000920E-02 0. -1.
       -2   -1    0    0    0  501  0.00000000000E+00  0.00000000000E+00 -0.18730001313E+03  0.18730001314E+03  0.25500000920E-02 0.  1.
    10030    2    1    2    0    0  0.00000000000E+00  0.00000000000E+00  0.14469219596E+03  0.51929222224E+03  0.49872695988E+03 0.  0.
        1    1    3    3  502    0 -0.11333344686E+03  0.15619995156E+03  0.23677973664E+03  0.30546282712E+03  0.50400001928E-02 0. -1.
       -1    1    3    3    0  502  0.11333344686E+03 -0.15619995156E+03 -0.92087540675E+02  0.21382939512E+03  0.50400001928E-02 0.  1.
</event>
<event>
 5   0  0.7698747E-02  0.5023076E+03  0.7818609E-02  0.1013178E+00
       -2   -1    0    0    0  501  0.00000000000E+00  0.00000000000E+00  0.18107684883E+03  0.18107684884E+03  0.25500000920E-02 0.  1.
        2   -1    0    0  501    0  0.00000000000E+00  0.00000000000E+00 -0.34835065637E+03  0.34835065637E+03  0.25500000920E-02 0. -1.
    10030    2    1    2    0    0  0.00000000000E+00  0.00000000000E+00 -0.16727380754E+03  0.52942750522E+03  0.50230763143E+03 0.  0.
        2    1    3    3  502    0  0.20375627258E+03 -0.62077929868E+02  0.56618912998E+02  0.22039961277E+03  0.25500000920E-02 0.  1.
       -2    1    3    3    0  502 -0.20375627258E+03  0.62077929868E+02 -0.22389272054E+03  0.30902789245E+03  0.25500000920E-02 0. -1.
</event>
<event>
 5   0  0.7698747E-02  0.5022156E+03  0.7818609E-02  0.1013202E+00
       -2   -1    0    0    0  501  0.00000000000E+00  0.00000000000E+00  0.11732287800E+03  0.11732287803E+03  0.25500000920E-02 0.  1.
        2   -1    0    0  501    0  0.00000000000E+00  0.00000000000E+00 -0.53744951262E+03  0.53744951263E+03  0.25500000920E-02 0. -1.
    10030    2    1    2    0    0  0.00000000000E+00  0.00000000000E+00 -0.42012663463E+03  0.65477239066E+03  0.50221558563E+03 0.  0.
        2    1    3    3  502    0  0.13625660505E+03 -0.20787008890E+03 -0.16343129813E+03  0.29746533494E+03  0.25500000920E-02 0.  1.
       -2    1    3    3    0  502 -0.13625660505E+03  0.20787008890E+03 -0.25669533650E+03  0.35730705571E+03  0.25500000920E-02 0. -1.
</event>
<event>
 5   0  0.5191358E-02  0.4979074E+03  0.7818609E-02  0.1014327E+00
        1   -1    0    0  501    0  0.00000000000E+00  0.00000000000E+00  0.19990870262E+03  0.19990870269E+03  0.50400001928E-02 0. -1.
       -1   -1    0    0    0  501  0.00000000000E+00  0.00000000000E+00 -0.31003126586E+03  0.31003126590E+03  0.50400001928E-02 0.  1.
    10030    2    1    2    0    0  0.00000000000E+00  0.00000000000E+00 -0.11012256323E+03  0.50993996858E+03  0.49790741371E+03 0.  0.
        4    1    3    3  502    0 -0.72524222432E+02  0.13721708079E+03  0.14429116001E+03  0.21191942303E+03  0.12699999809E+01 0. -1.
       -4    1    3    3    0  502  0.72524222432E+02 -0.13721708079E+03 -0.25441372324E+03  0.29802054556E+03  0.12699999809E+01 0.  1.
</event>
<event>
 5   0  0.5038436E-02  0.5003255E+03  0.7818609E-02  0.1013694E+00
       -1   -1    0    0    0  501  0.00000000000E+00  0.00000000000E+00  0.63321954256E+02  0.63321954456E+02  0.50400001928E-02 0. -1.
        1   -1    0    0  501    0  0.00000000000E+00  0.00000000000E+00 -0.98830502298E+03  0.98830502299E+03  0.50400001928E-02 0.  1.
    10030    2    1    2    0    0  0.00000000000E+00  0.00000000000E+00 -0.92498306872E+03  0.10516269774E+04  0.50032551631E+03 0.  0.
        1    1    3    3  502    0 -0.21248802824E+03  0.51823777365E+02 -0.71771739265E+03  0.75030335317E+03  0.50400001928E-02 0.  1.
       -1    1    3    3    0  502  0.21248802824E+03 -0.51823777365E+02 -0.20726567608E+03  0.30132362428E+03  0.50400001928E-02 0. -1.
</event>
<event>
 5   0  0.7933103E-02  0.4930905E+03  0.7818609E-02  0.1015598E+00
       -2   -1    0    0    0  501  0.00000000000E+00  0.00000000000E+00  0.14429271271E+03  0.14429271274E+03  0.25500000920E-02 0. -1.
        2   -1    0    0  501    0  0.00000000000E+00  0.00000000000E+00 -0.42125877668E+03  0.42125877669E+03  0.25500000920E-02 0.  1.
    10030    2    1    2    0    0  0.00000000000E+00  0.00000000000E+00 -0.27696606397E+03  0.56555148943E+03  0.49309054605E+03 0.  0.
        5    1    3    3  502    0 -0.20145231733E+03 -0.11184446938E+03 -0.38032897629E+02  0.23358256097E+03  0.46999998093E+01 0. -1.
       -5    1    3    3    0  502  0.20145231733E+03  0.11184446938E+03 -0.23893316634E+03  0.33196892846E+03  0.46999998093E+01 0.  1.
</event>
<event>
 5   0  0.4803890E-02  0.5005327E+03  0.7818609E-02  0.1013640E+00
        1   -1    0    0  501    0  0.00000000000E+00  0.00000000000E+00  0.53350997791E+03  0.53350997793E+03  0.50400001928E-02 0.  1.
       -1   -1    0    0    0  501  0.00000000000E+00  0.00000000000E+00 -0.11739846357E+03  0.11739846367E+03  0.50400001928E-02 0. -1.
    10030    2    1    2    0    0  0.00000000000E+00  0.00000000000E+00  0.41611151434E+03  0.65090844160E+03  0.50053272319E+03 0.  0.
        5    1    3    3  502    0  0.25287155650E+02 -0.24824454601E+03  0.18385351466E+03  0.30998225710E+03  0.46999998093E+01 0. -1.
       -5    1    3    3    0  502 -0.25287155650E+02  0.24824454601E+03  0.23225799968E+03  0.34092618451E+03  0.46999998093E+01 0.  1.
</event>
<event>
 5   0  0.7698747E-02  0.5029397E+03  0.7818609E-02  0.1013014E+00
        2   -1    0    0  501    0  0.00000000000E+00  0.00000000000E+00  0.43206768419E+03  0.43206768419E+03  0.25500000920E-02 0.  1.
       -2   -1    0    0    0  501  0.00000000000E+00  0.00000000000E+00 -0.14635923584E+03  0.14635923587E+03  0.25500000920E-02 0. -1.
    10030    2    1    2    0    0  0.00000000000E+00  0.00000000000E+00  0.28570844834E+03  0.57842692006E+03  0.50293974231E+03 0.  0.
        2    1    3    3  502    0 -0.38398085879E+02 -0.79004886011E+02 -0.12814049879E+03  0.15535820689E+03  0.25500000920E-02 0. -1.
       -2    1    3    3    0  502  0.38398085879E+02  0.79004886011E+02  0.41384894713E+03  0.42306871317E+03  0.25500000920E-02 0.  1.
</event>
<event>
 5   0  0.7776070E-02  0.5131125E+03  0.7818609E-02  0.1010412E+00
        2   -1    0    0  501    0  0.00000000000E+00  0.00000000000E+00  0.10630733161E+03  0.10630733164E+03  0.25500000920E-02 0. -1.
       -2   -1    0    0    0  501  0.00000000000E+00  0.00000000000E+00 -0.61915881917E+03  0.61915881917E+03  0.25500000920E-02 0.  1.
    10030    2    1    2    0    0  0.00000000000E+00  0.00000000000E+00 -0.51285148756E+03  0.72546615081E+03  0.51311254874E+03 0.  0.
        4    1    3    3  502    0  0.11907087929E+03  0.11407101903E+03  0.21458363264E+02  0.16628934401E+03  0.12699999809E+01 0. -1.
       -4    1    3    3    0  502 -0.11907087929E+03 -0.11407101903E+03 -0.53430985082E+03  0.55917680680E+03  0.12699999809E+01 0.  1.
</event>
<event>
 5   0  0.5191358E-02  0.5013568E+03  0.7818609E-02  0.1013425E+00
        1   -1    0    0  501    0  0.00000000000E+00  0.00000000000E+00  0.21052215481E+03  0.21052215487E+03  0.50400001928E-02 0.  1.
       -1   -1    0    0    0  501  0.00000000000E+00  0.00000000000E+00 -0.29849431325E+03  0.29849431329E+03  0.50400001928E-02 0. -1.
    10030    2    1    2    0    0  0.00000000000E+00  0.00000000000E+00 -0.87972158435E+02  0.50901646816E+03  0.50135682323E+03 0.  0.
        4    1    3    3  502    0  0.13254814813E+03  0.98774281456E+02  0.14734108964E+03  0.22144159466E+03  0.12699999809E+01 0.  1.
       -4    1    3    3    0  502 -0.13254814813E+03 -0.98774281456E+02 -0.23531324807E+03  0.28757487350E+03  0.12699999809E+01 0. -1.
</event>
<event>
 5   0  0.7933103E-02  0.5095825E+03  0.7818609E-02  0.1011308E+00
       -2   -1    0    0    0  501  0.00000000000E+00  0.00000000000E+00  0.13245281745E+03  0.13245281747E+03  0.25500000920E-02 0.  1.
        2   -1    0    0  501    0  0.00000000000E+00  0.00000000000E+00 -0.49012613565E+03  0.49012613566E+03  0.25500000920E-02 0. -1.
    10030    2    1    2    0    0  0.00000000000E+00  0.00000000000E+00 -0.35767331821E+03  0.62257895313E+03  0.50958252553E+03 0.  0.
        5    1    3    3  502    0  0.12233953597E+03 -0.18755826475E+03 -0.32722405430E+03  0.39653844259E+03  0.46999998093E+01 0. -1.
       -5    1    3    3    0  502 -0.12233953597E+03  0.18755826475E+03 -0.30449263905E+02  0.22604051055E+03  0.46999998093E+01 0.  1.
</event>
<event>
 5   0  0.8208720E-02  0.4709421E+03  0.7818609E-02  0.1021655E+00
       -2   -1    0    0    0  501  0.00000000000E+00  0.00000000000E+00  0.49142805903E+02  0.49142805969E+02  0.25500000920E-02 0. -1.
        2   -1    0    0  501    0  0.00000000000E+00  0.00000000000E+00 -0.11282755238E+04  0.11282755238E+04  0.25500000920E-02 0.  1.
    10030    2    1    2    0    0  0.00000000000E+00  0.00000000000E+00 -0.10791327179E+04  0.11774183298E+04  0.47094214129E+03 0.  0.
        3    1    3    3  502    0  0.12233030430E+03 -0.19718365098E+03 -0.63958793697E+03  0.68038138928E+03  0.10100000352E+00 0.  1.
       -3    1    3    3    0  502 -0.12233030430E+03  0.19718365098E+03 -0.43954478091E+03  0.49703694047E+03  0.10100000352E+00 0. -1.
</event>
<event>
 5   0  0.7776070E-02  0.5004517E+03  0.7818609E-02  0.1013661E+00
       -2   -1    0    0    0  501  0.00000000000E+00  0.00000000000E+00  0.54677382151E+02  0.54677382211E+02  0.25500000920E-02 0. -1.
        2   -1    0    0  501    0  0.00000000000E+00  0.00000000000E+00 -0.11451347892E+04  0.11451347892E+04  0.25500000920E-02 0.  1.
    10030    2    1    2    0    0  0.00000000000E+00  0.00000000000E+00 -0.10904574071E+04  0.11998121715E+04  0.50045168607E+03 0.  0.
        4    1    3    3  502    0  0.15531891489E+03 -0.29510154416E+02 -0.80241973462E+02  0.17729975110E+03  0.12699999809E+01 0. -1.
       -4    1    3    3    0  502 -0.15531891489E+03  0.29510154416E+02 -0.10102154336E+04  0.10225124204E+04  0.12699999809E+01 0.  1.
</event>
<event>
 5   0  0.4865501E-02  0.4973060E+03  0.7818609E-02  0.1014484E+00
        1   -1    0    0  501    0  0.00000000000E+00  0.00000000000E+00  0.56027072312E+03  0.56027072314E+03  0.50400001928E-02 0. -1.
       -1   -1    0    0    0  501  0.00000000000E+00  0.00000000000E+00 -0.11035436781E+03  0.11035436793E+03  0.50400001928E-02 0.  1.
    10030    2    1    2    0    0  0.00000000000E+00  0.00000000000E+00  0.44991635530E+03  0.67062509107E+03  0.49730602852E+03 0.  0.
        2    1    3    3  502    0  0.69990050680E+02  0.23856840200E+03  0.21976475117E+03  0.33182832231E+03  0.25500000920E-02 0. -1.
       -2    1    3    3    0  502 -0.69990050680E+02 -0.23856840200E+03  0.23015160413E+03  0.33879676875E+03  0.25500000920E-02 0.  1.
</event>
<event>
 5   0  0.8208720E-02  0.5019806E+03  0.7818609E-02  0.1013263E+00
        2   -1    0    0  501    0  0.00000000000E+00  0.00000000000E+00  0.70369143087E+03  0.70369143087E+03  0.25500000920E-02 0. -1.
       -2   -1    0    0    0  501  0.00000000000E+00  0.00000000000E+00 -0.89522374254E+02  0.89522374290E+02  0.25500000920E-02 0.  1.
    10030    2    1    2    0    0  0.00000000000E+00  0.00000000000E+00  0.61416905661E+03  0.79321380516E+03  0.50198058787E+03 0.  0.
        3    1    3    3  502    0 -0.36297741705E+02 -0.61133672476E+02  0.68744670969E+03  0.69111347898E+03  0.10100000352E+00 0. -1.
       -3    1    3    3    0  502  0.36297741705E+02  0.61133672476E+02 -0.73277653082E+02  0.10210032618E+03  0.10100000352E+00 0.  1.
</event>
<event>
 5   0  0.4884478E-02  0.5011040E+03  0.7818609E-02  0.1013491E+00
       -1   -1    0    0    0  501  0.00000000000E+00  0.00000000000E+00  0.53570798486E+02  0.53570798723E+02  0.50400001928E-02 0. -1.
        1   -1    0    0  501    0  0.00000000000E+00  0.00000000000E+00 -0.11718383347E+04  0.11718383347E+04  0.50400001928E-02 0.  1.
    10030    2    1    2    0    0  0.00000000000E+00  0.00000000000E+00 -0.11182675362E+04  0.12254091334E+04  0.50110404284E+03 0.  0.
        3    1    3    3  502    0 -0.23611644248E+03  0.43778297579E+02 -0.38434549355E+03  0.45319861249E+03  0.10100000352E+00 0. -1.
       -3    1    3    3    0  502  0.23611644248E+03 -0.43778297579E+02 -0.73392204266E+03  0.77221052094E+03  0.10100000352E+00 0.  1.
</event>
<event>
 5   0  0.7776070E-02  0.5008548E+03  0.7818609E-02  0.1013556E+00
       -2   -1    0    0    0  501  0.00000000000E+00  0.00000000000E+00  0.86281850275E+02  0.86281850313E+02  0.25500000920E-02 0. -1.
        2   -1    0    0  501    0  0.00000000000E+00  0.00000000000E+00 -0.72684920267E+03  0.72684920267E+03  0.25500000920E-02 0.  1.
    10030    2    1    2    0    0  0.00000000000E+00  0.00000000000E+00 -0.64056735239E+03  0.81313105298E+03  0.50085484562E+03 0.  0.
        4    1    3    3  502    0  0.17011424893E+03  0.67103291329E+02 -0.59804020130E+03  0.62537621051E+03  0.12699999809E+01 0.  1.
       -4    1    3    3    0  502 -0.17011424893E+03 -0.67103291329E+02 -0.42527151092E+02  0.18775484248E+03  0.12699999809E+01 0. -1.
</event>
<event>
 5   0  0.5038436E-02  0.5003100E+03  0.7818609E-02  0.1013698E+00
        1   -1    0    0  501    0  0.00000000000E+00  0.00000000000E+00  0.33656629607E+03  0.33656629611E+03  0.50400001928E-02 0. -1.
       -1   -1    0    0    0  501  0.00000000000E+00  0.00000000000E+00 -0.18592929517E+03  0.18592929523E+03  0.50400001928E-02 0.  1.
    10030    2    1    2    0    0  0.00000000000E+00  0.00000000000E+00  0.15063700091E+03  0.52249559135E+03  0.50031004081E+03 0.  0.
        1    1    3    3  502    0  0.13418422045E+03  0.95515762689E+02 -0.12130915406E+03  0.20455947014E+03  0.50400001928E-02 0.  1.
       -1    1    3    3    0  502 -0.13418422045E+03 -0.95515762689E+02  0.27194615497E+03  0.31793612121E+03  0.50400001928E-02 0. -1.
</event>
<event>
 5   0  0.7933103E-02  0.4933568E+03  0.7818609E-02  0.1015528E+00
        2   -1    0    0  501    0  0.00000000000E+00  0.00000000000E+00  0.47510541648E+03  0.47510541649E+03  0.25500000920E-02 0. -1.
       -2   -1    0    0    0  501  0.00000000000E+00  0.00000000000E+00 -0.12807732434E+03  0.12807732437E+03  0.25500000920E-02 0.  1.
    10030    2    1    2    0    0  0.00000000000E+00  0.00000000000E+00  0.34702809214E+03  0.60318274086E+03  0.49335678989E+03 0.  0.
        5    1    3    3  502    0 -0.18844746401E+03 -0.44513844816E+02 -0.13246167285E+02  0.19414293708E+03  0.46999998093E+01 0.  1.
       -5    1    3    3    0  502  0.18844746401E+03  0.44513844816E+02  0.36027425943E+03  0.40903980378E+03  0.46999998093E+01 0. -1.
</event>
<event>
 5   0  0.4803890E-02  0.4980874E+03  0.7818609E-02  0.1014279E+00
        1   -1    0    0  501    0  0.00000000000E+00  0.00000000000E+00  0.14473218432E+03  0.14473218441E+03  0.50400001928E-02 0.  1.
       -1   -1    0    0    0  501  0.00000000000E+00  0.00000000000E+00 -0.42853472290E+03  0.42853472293E+03  0.50400001928E-02 0. -1.
    10030    2    1    2    0    0  0.00000000000E+00  0.00000000000E+00 -0.28380253858E+03  0.57326690734E+03  0.49808740814E+03 0.  0.
        5    1    3    3  502    0 -0.51164944003E+02  0.31897894915E+02 -0.41995508174E+03  0.42428727046E+03  0.46999998093E+01 0. -1.
       -5    1    3    3    0  502  0.51164944003E+02 -0.31897894915E+02  0.13615254317E+03  0.14897963688E+03  0.46999998093E+01 0.  1.
</event>
<event>
 5   0  0.4803890E-02  0.5000925E+03  0.7818609E-02  0.1013755E+00
       -1   -1    0    0    0  501  0.00000000000E+00  0.00000000000E+00  0.38346366274E+02  0.38346366605E+02  0.50400001928E-02 0.  1.
        1   -1    0    0  501    0  0.00000000000E+00  0.00000000000E+00 -0.16304835664E+04  0.16304835664E+04  0.50400001928E-02 0. -1.
    10030    2    1    2    0    0  0.00000000000E+00  0.00000000000E+00 -0.15921372001E+04  0.16688299330E+04  0.50009247274E+03 0.  0.
        5    1    3    3  502    0  0.12567347961E+03 -0.14386309500E+02 -0.76471565772E+02  0.14788772683E+03  0.46999998093E+01 0.  1.
       -5    1    3    3    0  502 -0.12567347961E+03  0.14386309500E+02 -0.15156656343E+04  0.15209422061E+04  0.46999998093E+01 0. -1.
</event>
<event>
 5   0  0.7933103E-02  0.5031899E+03  0.7818609E-02  0.1012950E+00
        2   -1    0    0  501    0  0.00000000000E+00  0.00000000000E+00  0.10977105754E+04  0.10977105754E+04  0.25500000920E-02 0. -1.
       -2   -1    0    0    0  501  0.00000000000E+00  0.00000000000E+00 -0.57665489111E+02  0.57665489168E+02  0.25500000920E-02 0.  1.
    10030    2    1    2    0    0  0.00000000000E+00  0.00000000000E+00  0.10400450863E+04  0.11553760646E+04  0.50318989366E+03 0.  0.
        5    1    3    3  502    0  0.49034783858E+02 -0.24296739349E+03  0.61852412306E+03  0.66635707030E+03  0.46999998093E+01 0. -1.
       -5    1    3    3    0  502 -0.49034783858E+02  0.24296739349E+03  0.42152096326E+03  0.48901899431E+03  0.46999998093E+01 0.  1.
</event>
<event>
 5   0  0.5191358E-02  0.4906003E+03  0.7818609E-02  0.1016262E+00
       -1   -1    0    0    0  501  0.00000000000E+00  0.00000000000E+00  0.44910756953E+03  0.44910756955E+03  0.50400001928E-02 0.  1.
        1   -1    0    0  501    0  0.00000000000E+00  0.00000000000E+00 -0.13398162032E+03  0.13398162042E+03  0.50400001928E-02 0. -1.
    10030    2    1    2    0    0  0.00000000000E+00  0.00000000000E+00  0.31512594920E+03  0.58308918997E+03  0.49060028496E+03 0.  0.
        4    1    3    3  502    0 -0.13869586846E+02  0.20766020560E+03  0.32590434592E+01  0.20815225364E+03  0.12699999809E+01 0. -1.
       -4    1    3    3    0  502  0.13869586846E+02 -0.20766020560E+03  0.31186690574E+03  0.37493693633E+03  0.12699999809E+01 0.  1.
</event>
<event>
 5   0  0.5191358E-02  0.5000822E+03  0.7818609E-02  0.1013757E+00
        1   -1    0    0  501    0  0.00000000000E+00  0.00000000000E+00  0.53617767356E+03  0.53617767359E+03  0.50400001928E-02 0.  1.
       -1   -1    0    0    0  501  0.00000000000E+00  0.00000000000E+00 -0.11660418506E+03  0.11660418517E+03  0.50400001928E-02 0. -1.
    10030    2    1    2    0    0  0.00000000000E+00  0.00000000000E+00  0.41957348850E+03  0.65278185876E+03  0.50008223610E+03 0.  0.
        4    1    3    3  502    0  0.70380312936E+02 -0.70275577478E+02 -0.89667555722E+02  0.13391761903E+03  0.12699999809E+01 0. -1.
       -4    1    3    3    0  502 -0.70380312936E+02  0.70275577478E+02  0.50924104423E+03  0.51886423972E+03  0.12699999809E+01 0.  1.
</event>
<event>
 5   0  0.4803890E-02  0.4986396E+03  0.7818609E-02  0.1014135E+00
        1   -1    0    0  501    0  0.00000000000E+00  0.00000000000E+00  0.47284323044E+03  0.47284323047E+03  0.50400001928E-02 0. -1.
       -1   -1    0    0    0  501  0.00000000000E+00  0.00000000000E+00 -0.13146083587E+03  0.13146083597E+03  0.50400001928E-02 0.  1.
    10030    2    1    2    0    0  0.00000000000E+00  0.00000000000E+00  0.34138239457E+03  0.60430406644E+03  0.49863961474E+03 0.  0.
        5    1    3    3  502    0 -0.17387466666E+02 -0.23303754302E+03  0.27585118705E+03  0.36155883041E+03  0.46999998093E+01 0.  1.
       -5    1    3    3    0  502  0.17387466666E+02  0.23303754302E+03  0.65531207520E+02  0.24274523602E+03  0.46999998093E+01 0. -1.
</event>
<event>
 5   0  0.4865501E-02  0.5005085E+03  0.7818609E-02  0.1013646E+00
        1   -1    0    0  501    0  0.00000000000E+00  0.00000000000E+00  0.22168087253E+03  0.22168087259E+03  0.50400001928E-02 0.  1.
       -1   -1    0    0    0  501  0.00000000000E+00  0.00000000000E+00 -0.28251052129E+03  0.28251052134E+03  0.50400001928E-02 0. -1.
    10030    2    1    2    0    0  0.00000000000E+00  0.00000000000E+00 -0.60829648759E+02  0.50419139393E+03  0.50050845701E+03 0.  0.
        2    1    3    3  502    0  0.18265583975E+03  0.14736799004E+03 -0.11792579704E+03  0.26265371480E+03  0.25500000920E-02 0. -1.
       -2    1    3    3    0  502 -0.18265583975E+03 -0.14736799004E+03  0.57096148282E+02  0.24153767913E+03  0.25500000920E-02 0.  1.
</event>
<event>
 5   0  0.5191358E-02  0.4997757E+03  0.7818609E-02  0.1013837E+00
       -1   -1    0    0    0  501  0.00000000000E+00  0.00000000000E+00  0.35141288832E+02  0.35141289193E+02  0.50400001928E-02 0. -1.
        1   -1    0    0  501    0  0.00000000000E+00  0.00000000000E+00 -0.17769394760E+04  0.17769394760E+04  0.50400001928E-02 0.  1.
    10030    2    1    2    0    0  0.00000000000E+00  0.00000000000E+00 -0.17417981872E+04  0.18120807652E+04  0.49977572449E+03 0.  0.
        4    1    3    3  502    0 -0.17149654782E+03 -0.45505678194E+02 -0.15088780632E+04  0.15192749768E+04  0.12699999809E+01 0.  1.
       -4    1    3    3    0  502  0.17149654782E+03  0.45505678194E+02 -0.23292012396E+03  0.29280578838E+03  0.12699999809E+01 0. -1.
</event>
<event>
 5   0  0.5191358E-02  0.5007915E+03  0.7818609E-02  0.1013573E+00
       -1   -1    0    0    0  501  0.00000000000E+00  0.00000000000E+00  0.58213083266E+02  0.58213083484E+02  0.50400001928E-02 0. -1.
        1   -1    0    0  501    0  0.00000000000E+00  0.00000000000E+00 -0.10770438442E+04  0.10770438442E+04  0.50400001928E-02 0.  1.
    10030    2    1    2    0    0  0.00000000000E+00  0.00000000000E+00 -0.10188307609E+04  0.11352569277E+04  0.50079154591E+03 0.  0.
        4    1    3    3  502    0 -0.15293734712E+03 -0.19278334065E+03 -0.61431258804E+03  0.66176794823E+03  0.12699999809E+01 0. -1.
       -4    1    3    3    0  502  0.15293734712E+03  0.19278334065E+03 -0.40451817289E+03  0.47348897946E+03  0.12699999809E+01 0.  1.
</event>
<event>
 5   0  0.5038436E-02  0.5005259E+03  0.7818609E-02  0.1013642E+00
       -1   -1    0    0    0  501  0.00000000000E+00  0.00000000000E+00  0.14925832641E+03  0.14925832649E+03  0.50400001928E-02 0. -1.
        1   -1    0    0  501    0  0.00000000000E+00  0.00000000000E+00 -0.41961842387E+03  0.41961842390E+03  0.50400001928E-02 0.  1.
    10030    2    1    2    0    0  0.00000000000E+00  0.00000000000E+00 -0.27036009746E+03  0.56887675039E+03  0.50052589826E+03 0.  0.
        1    1    3    3  502    0  0.15299101127E+02  0.24909469452E+03 -0.15642226589E+03  0.29453379199E+03  0.50400001928E-02 0. -1.
       -1    1    3    3    0  502 -0.15299101127E+02 -0.24909469452E+03 -0.11393783157E+03  0.27434295840E+03  0.50400001928E-02 0.  1.
</event>
<event>
 5   0  0.7698747E-02  0.4998323E+03  0.7818609E-02  0.1013823E+00
       -2   -1    0    0    0  501  0.00000000000E+00  0.00000000000E+00  0.69139515968E+02  0.69139516015E+02  0.25500000920E-02 0. -1.
        2   -1    0    0  501    0  0.00000000000E+00  0.00000000000E+00 -0.90336290665E+03  0.90336290666E+03  0.25500000920E-02 0.  1.
    10030    2    1    2    0    0  0.00000000000E+00  0.00000000000E+00 -0.83422339069E+03  0.97250242267E+03  0.49983226840E+03 0.  0.
        2    1    3    3  502    0 -0.17501801604E+03  0.96859196339E+02 -0.12561956883E+03  0.23620602434E+03  0.25500000920E-02 0. -1.
       -2    1    3    3    0  502  0.17501801604E+03 -0.96859196339E+02 -0.70860382185E+03  0.73629639834E+03  0.25500000920E-02 0.  1.
</event>
<event>
 5   0  0.5038436E-02  0.4952039E+03  0.7818609E-02  0.1015038E+00
       -1   -1    0    0    0  501  0.00000000000E+00  0.00000000000E+00  0.35268209575E+03  0.35268209578E+03  0.50400001928E-02 0. -1.
        1   -1    0    0  501    0  0.00000000000E+00  0.00000000000E+00 -0.17382996553E+03  0.17382996560E+03  0.50400001928E-02 0.  1.
    10030    2    1    2    0    0  0.00000000000E+00  0.00000000000E+00  0.17885213022E+03  0.52651206139E+03  0.49520386337E+03 0.  0.
        1    1    3    3  502    0 -0.15994412218E+03  0.13272854131E+03 -0.53646475503E+02  0.21465538022E+03  0.50400001928E-02 0.  1.
       -1    1    3    3    0  502  0.15994412218E+03 -0.13272854131E+03  0.23249860572E+03  0.31185668116E+03  0.50400001928E-02 0. -1.
</event>
<event>
 5   0  0.5191358E-02  0.4996446E+03  0.7818609E-02  0.1013872E+00
        1   -1    0    0  501    0  0.00000000000E+00  0.00000000000E+00  0.42450562762E+03  0.42450562765E+03  0.50400001928E-02 0.  1.
       -1   -1    0    0    0  501  0.00000000000E+00  0.00000000000E+00 -0.14702088498E+03  0.14702088507E+03  0.50400001928E-02 0. -1.
    10030    2    1    2    0    0  0.00000000000E+00  0.00000000000E+00  0.27748474263E+03  0.57152651271E+03  0.49964464606E+03 0.  0.
        4    1    3    3  502    0  0.28590721929E+02 -0.86500641174E+02 -0.12733814062E+03  0.15657715434E+03  0.12699999809E+01 0. -1.
       -4    1    3    3    0  502 -0.28590721929E+02  0.86500641174E+02  0.40482288326E+03  0.41494935837E+03  0.12699999809E+01 0.  1.
</event>
<event>
 5   0  0.3210875E-02  0.5005978E+03  0.7818609E-02  0.1013623E+00
        3   -1    0    0  501    0  0.00000000000E+00  0.00000000000E+00  0.26890801298E+03  0.26890803195E+03  0.10100000352E+00 0. -1.
       -3   -1    0    0    0  501  0.00000000000E+00  0.00000000000E+00 -0.23297756864E+03  0.23297759053E+03  0.10100000352E+00 0.  1.
    10030    2    1    2    0    0  0.00000000000E+00  0.00000000000E+00  0.35930444339E+02  0.50188562248E+03  0.50059782383E+03 0.  0.
        5    1    3    3  502    0  0.33257539617E+02  0.90088868045E+02 -0.21372533366E+03  0.23435587540E+03  0.46999998093E+01 0.  1.
       -5    1    3    3    0  502 -0.33257539617E+02 -0.90088868045E+02  0.24965577800E+03  0.26752974708E+03  0.46999998093E+01 0. -1.
</event>
<event>
 5   0  0.7933103E-02  0.4982360E+03  0.7818609E-02  0.1014240E+00
        2   -1    0    0  501    0  0.00000000000E+00  0.00000000000E+00  0.38200658786E+03  0.38200658787E+03  0.25500000920E-02 0. -1.
       -2   -1    0    0    0  501  0.00000000000E+00  0.00000000000E+00 -0.16245732255E+03  0.16245732257E+03  0.25500000920E-02 0.  1.
    10030    2    1    2    0    0  0.00000000000E+00  0.00000000000E+00  0.21954926531E+03  0.54446391045E+03  0.49823595803E+03 0.  0.
        5    1    3    3  502    0  0.11898632947E+03 -0.14325444165E+02  0.34837882595E+03  0.36844655151E+03  0.46999998093E+01 0. -1.
       -5    1    3    3    0  502 -0.11898632947E+03  0.14325444165E+02 -0.12882956064E+03  0.17601735893E+03  0.46999998093E+01 0.  1.
</event>
<event>
 5   0  0.3210875E-02  0.5079410E+03  0.7818609E-02  0.1011727E+00
        4   -1    0    0  501    0  0.00000000000E+00  0.00000000000E+00  0.64614983297E+02  0.64627462943E+02  0.12699999809E+01 0.  1.
       -4   -1    0    0    0  501  0.00000000000E+00  0.00000000000E+00 -0.99812687233E+03  0.99812768029E+03  0.12699999809E+01 0. -1.
    10030    2    1    2    0    0  0.00000000000E+00  0.00000000000E+00 -0.93351188903E+03  0.10627551432E+04  0.50794098821E+03 0.  0.
        2    1    3    3  502    0 -0.90974644979E+02  0.49087363415E+02 -0.95212474511E+03  0.95771994107E+03  0.25500000920E-02 0. -1.
       -2    1    3    3    0  502  0.90974644979E+02 -0.49087363415E+02  0.18612856073E+02  0.10503520216E+03  0.25500000920E-02 0.  1.
</event>
<event>
 5   0  0.4884478E-02  0.4936696E+03  0.7818609E-02  0.1015445E+00
        1   -1    0    0  501    0  0.00000000000E+00  0.00000000000E+00  0.21162304419E+03  0.21162304425E+03  0.50400001928E-02 0.  1.
       -1   -1    0    0    0  501  0.00000000000E+00  0.00000000000E+00 -0.28790543454E+03  0.28790543459E+03  0.50400001928E-02 0. -1.
    10030    2    1    2    0    0  0.00000000000E+00  0.00000000000E+00 -0.76282390350E+02  0.49952847884E+03  0.49366962444E+03 0.  0.
        3    1    3    3  502    0 -0.15287363382E+03  0.61127544980E+01  0.15785765766E+03  0.21983349146E+03  0.10100000352E+00 0.  1.
       -3    1    3    3    0  502  0.15287363382E+03 -0.61127544980E+01 -0.23414004801E+03  0.27969498738E+03  0.10100000352E+00 0. -1.
</event>
<event>
 5   0  0.5191358E-02  0.5005672E+03  0.7818609E-02  0.1013631E+00
        1   -1    0    0  501    0  0.00000000000E+00  0.00000000000E+00  0.22580324506E+03  0.22580324511E+03  0.50400001928E-02 0.  1.
       -1   -1    0    0    0  501  0.00000000000E+00  0.00000000000E+00 -0.27741796678E+03  0.27741796683E+03  0.50400001928E-02 0. -1.
    10030    2    1    2    0    0  0.00000000000E+00  0.00000000000E+00 -0.51614721723E+02  0.50322121194E+03  0.50056718695E+03 0.  0.
        4    1    3    3  502    0 -0.41106377774E+01 -0.23749272055E+03  0.53481433369E+02  0.24347806117E+03  0.12699999809E+01 0. -1.
       -4    1    3    3    0  502  0.41106377774E+01  0.23749272055E+03 -0.10509615509E+03  0.25974315077E+03  0.12699999809E+01 0.  1.
</event>
<event>
 5   0  0.4865501E-02  0.4987172E+03  0.7818609E-02  0.1014114E+00
       -1   -1    0    0    0  501  0.00000000000E+00  0.00000000000E+00  0.27674255776E+02  0.27674256235E+02  0.50400001928E-02 0. -1.
        1   -1    0    0  501    0  0.00000000000E+00  0.00000000000E+00 -0.22468434206E+04  0.22468434207E+04  0.50400001928E-02 0.  1.
    10030    2    1    2    0    0  0.00000000000E+00  0.00000000000E+00 -0.22191691649E+04  0.22745176769E+04  0.49871723467E+03 0.  0.
        2    1    3    3  502    0  0.23882292089E+03  0.69863396062E+02 -0.10357008858E+04  0.10651730407E+04  0.25500000920E-02 0. -1.
       -2    1    3    3    0  502 -0.23882292089E+03 -0.69863396062E+02 -0.11834682790E+04  0.12093446362E+04  0.25500000920E-02 0.  1.
</event>
<event>
 5   0  0.7776070E-02  0.5026200E+03  0.7818609E-02  0.1013097E+00
        2   -1    0    0  501    0  0.00000000000E+00  0.00000000000E+00  0.26866051855E+03  0.26866051856E+03  0.25500000920E-02 0.  1.
       -2   -1    0    0    0  501  0.00000000000E+00  0.00000000000E+00 -0.23507998291E+03  0.23507998292E+03  0.25500000920E-02 0. -1.
    10030    2    1    2    0    0  0.00000000000E+00  0.00000000000E+00  0.33580535639E+02  0.50374050149E+03  0.50261997619E+03 0.  0.
        4    1    3    3  502    0 -0.18773707838E+03  0.80699577253E+02  0.16339510021E+03  0.26164327631E+03  0.12699999809E+01 0.  1.
       -4    1    3    3    0  502  0.18773707838E+03 -0.80699577253E+02 -0.12981456457E+03  0.24209722518E+03  0.12699999809E+01 0. -1.
</event>
<event>
 5   0  0.4803890E-02  0.4995739E+03  0.7818609E-02  0.1013890E+00
        1   -1    0    0  501    0  0.00000000000E+00  0.00000000000E+00  0.12821832215E+04  0.12821832215E+04  0.50400001928E-02 0. -1.
       -1   -1    0    0    0  501  0.00000000000E+00  0.00000000000E+00 -0.48661935339E+02  0.48661935600E+02  0.50400001928E-02 0.  1.
    10030    2    1    2    0    0  0.00000000000E+00  0.00000000000E+00  0.12335212861E+04  0.13308451571E+04  0.49957388721E+03 0.  0.
        5    1    3    3  502    0 -0.20144657965E+03 -0.13693284924E+03  0.76364365115E+03  0.80156412444E+03  0.46999998093E+01 0. -1.
       -5    1    3    3    0  502  0.20144657965E+03  0.13693284924E+03  0.46987763498E+03  0.52928103264E+03  0.46999998093E+01 0.  1.
</event>
<event>
 5   0  0.4884478E-02  0.5308478E+03  0.7818609E-02  0.1006027E+00
       -1   -1    0    0    0  501  0.00000000000E+00  0.00000000000E+00  0.76543736854E+02  0.76543737020E+02  0.50400001928E-02 0.  1.
        1   -1    0    0  501    0  0.00000000000E+00  0.00000000000E+00 -0.92038695877E+03  0.92038695878E+03  0.50400001928E-02 0. -1.
    10030    2    1    2    0    0  0.00000000000E+00  0.00000000000E+00 -0.84384322191E+03  0.99693069580E+03  0.53084783984E+03 0.  0.
        3    1    3    3  502    0  0.21443975939E+03  0.26132602800E+02 -0.71153849933E+03  0.74360901659E+03  0.10100000352E+00 0. -1.
       -3    1    3    3    0  502 -0.21443975939E+03 -0.26132602800E+02 -0.13230472259E+03  0.25332167921E+03  0.10100000352E+00 0.  1.
</event>
<event>
 5   0  0.7698747E-02  0.4964324E+03  0.7818609E-02  0.1014714E+00
        2   -1    0    0  501    0  0.00000000000E+00  0.00000000000E+00  0.90664608896E+03  0.90664608897E+03  0.25500000920E-02 0. -1.
       -2   -1    0    0    0  501  0.00000000000E+00  0.00000000000E+00 -0.67955157696E+02  0.67955157744E+02  0.25500000920E-02 0.  1.
    10030    2    1    2    0    0  0.00000000000E+00  0.00000000000E+00  0.83869093127E+03  0.97460124671E+03  0.49643238402E+03 0.  0.
        2    1    3    3  502    0  0.10203234373E+03  0.42167800410E+02 -0.17099468346E+02  0.11171890790E+03  0.25500000920E-02 0.  1.
       -2    1    3    3    0  502 -0.10203234373E+03 -0.42167800410E+02  0.85579039961E+03  0.86288233881E+03  0.25500000920E-02 0. -1.
</event>
<event>
 5   0  0.7933103E-02  0.4984194E+03  0.7818609E-02  0.1014192E+00
       -2   -1    0    0    0  501  0.00000000000E+00  0.00000000000E+00  0.78256727757E+02  0.78256727799E+02  0.25500000920E-02 0. -1.
        2   -1    0    0  501    0  0.00000000000E+00  0.00000000000E+00 -0.79361199250E+03  0.79361199250E+03  0.25500000920E-02 0.  1.
    10030    2    1    2    0    0  0.00000000000E+00  0.00000000000E+00 -0.71535526474E+03  0.87186872030E+03  0.49841941239E+03 0.  0.
        5    1    3    3  502    0  0.84835365703E+02  0.15320375183E+03 -0.47632872648E+02  0.18154726493E+03  0.46999998093E+01 0. -1.
       -5    1    3    3    0  502 -0.84835365703E+02 -0.15320375183E+03 -0.66772239209E+03  0.69032145537E+03  0.46999998093E+01 0.  1.
</event>
<event>
 5   0  0.8208720E-02  0.5012708E+03  0.7818609E-02  0.1013448E+00
        2   -1    0    0  501    0  0.00000000000E+00  0.00000000000E+00  0.49593011438E+03  0.49593011439E+03  0.25500000920E-02 0. -1.
       -2   -1    0    0    0  501  0.00000000000E+00  0.00000000000E+00 -0.12666726722E+03  0.12666726724E+03  0.25500000920E-02 0.  1.
    10030    2    1    2    0    0  0.00000000000E+00  0.00000000000E+00  0.36926284717E+03  0.62259738163E+03  0.50127083430E+03 0.  0.
        3    1    3    3  502    0  0.20023711799E+03 -0.14959975847E+03  0.20763800851E+03  0.32494390890E+03  0.10100000352E+00 0. -1.
       -3    1    3    3    0  502 -0.20023711799E+03  0.14959975847E+03  0.16162483866E+03  0.29765347273E+03  0.10100000352E+00 0.  1.
</event>
<event>
 5   0  0.3210875E-02  0.4989997E+03  0.7818609E-02  0.1014040E+00
       -4   -1    0    0    0  501  0.00000000000E+00  0.00000000000E+00  0.25785163159E+03  0.25785475914E+03  0.12699999809E+01 0.  1.
        4   -1    0    0  501    0  0.00000000000E+00  0.00000000000E+00 -0.24141228070E+03  0.24141562123E+03  0.12699999809E+01 0. -1.
    10030    2    1    2    0    0  0.00000000000E+00  0.00000000000E+00  0.16439350886E+02  0.49927038038E+03  0.49899965978E+03 0.  0.
        1    1    3    3  502    0 -0.54579206957E+02 -0.93915013357E+01 -0.23518802609E+03  0.24162056571E+03  0.50400001928E-02 0. -1.
       -1    1    3    3    0  502  0.54579206957E+02  0.93915013357E+01  0.25162737698E+03  0.25764981467E+03  0.50400001928E-02 0.  1.
</event>
<event>
 5   0  0.8208720E-02  0.5224135E+03  0.7818609E-02  0.1008089E+00
        2   -1    0    0  501    0  0.00000000000E+00  0.00000000000E+00  0.23761504727E+04  0.23761504727E+04  0.25500000920E-02 0. -1.
       -2   -1    0    0    0  501  0.00000000000E+00  0.00000000000E+00 -0.28714081777E+02  0.28714081890E+02  0.25500000920E-02 0.  1.
    10030    2    1    2    0    0  0.00000000000E+00  0.00000000000E+00  0.23474363909E+04  0.24048645546E+04  0.52241354931E+03 0.  0.
        3    1    3    3  502    0  0.18061571416E+03 -0.91891404354E+01  0.20413348983E+04  0.20493302939E+04  0.10100000352E+00 0. -1.
       -3    1    3    3    0  502 -0.18061571416E+03  0.91891404354E+01  0.30610149266E+03  0.35553426068E+03  0.10100000352E+00 0.  1.
</event>
<event>
 5   0  0.4803890E-02  0.5064794E+03  0.7818609E-02  0.1012101E+00
        1   -1    0    0  501    0  0.00000000000E+00  0.00000000000E+00  0.16364328408E+03  0.16364328416E+03  0.50400001928E-02 0.  1.
       -1   -1    0    0    0  501  0.00000000000E+00  0.00000000000E+00 -0.39189114355E+03  0.39189114358E+03  0.50400001928E-02 0. -1.
    10030    2    1    2    0    0  0.00000000000E+00  0.00000000000E+00 -0.22824785947E+03  0.55553442774E+03  0.50647943201E+03 0.  0.
        5    1    3    3  502    0  0.70771336371E+01  0.10210516516E+03 -0.36814167030E+03  0.38213339291E+03  0.46999998093E+01 0. -1.
       -5    1    3    3    0  502 -0.70771336371E+01 -0.10210516516E+03  0.13989381083E+03  0.17340103482E+03  0.46999998093E+01 0.  1.
</event>
<event>
 5   0  0.4884478E-02  0.4976218E+03  0.7818609E-02  0.1014402E+00
       -1   -1    0    0    0  501  0.00000000000E+00  0.00000000000E+00  0.44937605717E+03  0.44937605720E+03  0.50400001928E-02 0.  1.
        1   -1    0    0  501    0  0.00000000000E+00  0.00000000000E+00 -0.13776182117E+03  0.13776182126E+03  0.50400001928E-02 0. -1.
    10030    2    1    2    0    0  0.00000000000E+00  0.00000000000E+00  0.31161423601E+03  0.58713787846E+03  0.49762180041E+03 0.  0.
        3    1    3    3  502    0  0.31197319893E+02  0.39143196453E+02 -0.13175985734E+03  0.14094726959E+03  0.10100000352E+00 0. -1.
       -3    1    3    3    0  502 -0.31197319893E+02 -0.39143196453E+02  0.44337409334E+03  0.44619060887E+03  0.10100000352E+00 0.  1.
</event>
<event>
 5   0  0.3210875E-02  0.4992635E+03  0.7818609E-02  0.1013971E+00
       -3   -1    0    0    0  501  0.00000000000E+00  0.00000000000E+00  0.17027113695E+03  0.17027116690E+03  0.10100000352E+00 0. -1.
        3   -1    0    0  501    0  0.00000000000E+00  0.00000000000E+00 -0.36598098240E+03  0.36598099634E+03  0.10100000352E+00 0.  1.
    10030    2    1    2    0    0  0.00000000000E+00  0.00000000000E+00 -0.19570984545E+03  0.53625216324E+03  0.49926349654E+03 0.  0.
        4    1    3    3  502    0  0.12572330141E+03  0.16320070830E+03 -0.24927283908E+03  0.32338735428E+03  0.12699999809E+01 0.  1.
       -4    1    3    3    0  502 -0.12572330141E+03 -0.16320070830E+03  0.53562993625E+02  0.21286480896E+03  0.12699999809E+01 0. -1.
</event>
<event>
 5   0  0.5191358E-02  0.4992659E+03  0.7818609E-02  0.1013971E+00
       -1   -1    0    0    0  501  0.00000000000E+00  0.00000000000E+00  0.51441564813E+03  0.51441564815E+03  0.50400001928E-02 0.  1.
        1   -1    0    0  501    0  0.00000000000E+00  0.00000000000E+00 -0.12114059185E+03  0.12114059195E+03  0.50400001928E-02 0. -1.
    10030    2    1    2    0    0  0.00000000000E+00  0.00000000000E+00  0.39327505628E+03  0.63555624010E+03  0.49926592558E+03 0.  0.
        4    1    3    3  502    0 -0.24415580218E+03  0.17659570251E+02  0.25888471857E+03  0.35629598169E+03  0.12699999809E+01 0. -1.
       -4    1    3    3    0  502  0.24415580218E+03 -0.17659570251E+02  0.13439033771E+03  0.27926025841E+03  0.12699999809E+01 0.  1.
</event>
<event>
 5   0  0.7776070E-02  0.4997859E+03  0.7818609E-02  0.1013835E+00
        2   -1    0    0  501    0  0.00000000000E+00  0.00000000000E+00  0.13600689558E+04  0.13600689558E+04  0.25500000920E-02 0. -1.
       -2   -1    0    0    0  501  0.00000000000E+00  0.00000000000E+00 -0.45914204991E+02  0.45914205061E+02  0.25500000920E-02 0.  1.
    10030    2    1    2    0    0  0.00000000000E+00  0.00000000000E+00  0.13141547508E+04  0.14059831609E+04  0.49978589372E+03 0.  0.
        4    1    3    3  502    0  0.22755696356E+03 -0.13121509442E+02  0.36894320589E+03  0.43367620150E+03  0.12699999809E+01 0.  1.
       -4    1    3    3    0  502 -0.22755696356E+03  0.13121509442E+02  0.94521154496E+03  0.97230695940E+03  0.12699999809E+01 0. -1.
</event>
<event>
 5   0  0.5191358E-02  0.5036223E+03  0.7818609E-02  0.1012838E+00
       -1   -1    0    0    0  501  0.00000000000E+00  0.00000000000E+00  0.35123594389E+03  0.35123594393E+03  0.50400001928E-02 0. -1.
        1   -1    0    0  501    0  0.00000000000E+00  0.00000000000E+00 -0.18053067317E+03  0.18053067324E+03  0.50400001928E-02 0.  1.
    10030    2    1    2    0    0  0.00000000000E+00  0.00000000000E+00  0.17070527072E+03  0.53176661717E+03  0.50362232445E+03 0.  0.
        4    1    3    3  502    0 -0.18233522399E+03  0.16183961942E+03  0.18831523080E+02  0.24452900745E+03  0.12699999809E+01 0.  1.
       -4    1    3    3    0  502  0.18233522399E+03 -0.16183961942E+03  0.15187374764E+03  0.28723760973E+03  0.12699999809E+01 0. -1.
</event>
<event>
 5   0  0.7933103E-02  0.4986356E+03  0.7818609E-02  0.1014136E+00
        2   -1    0    0  501    0  0.00000000000E+00  0.00000000000E+00  0.11210472729E+04  0.11210472729E+04  0.25500000920E-02 0.  1.
       -2   -1    0    0    0  501  0.00000000000E+00  0.00000000000E+00 -0.55447575976E+02  0.55447576034E+02  0.25500000920E-02 0. -1.
    10030    2    1    2    0    0  0.00000000000E+00  0.00000000000E+00  0.10655996969E+04  0.11764948489E+04  0.49863555378E+03 0.  0.
        5    1    3    3  502    0 -0.23266257026E+03 -0.82160990728E+02  0.61638370413E+03  0.66395275488E+03  0.46999998093E+01 0.  1.
       -5    1    3    3    0  502  0.23266257026E+03  0.82160990728E+02  0.44921599279E+03  0.51254209406E+03  0.46999998093E+01 0. -1.
</event>
<event>
 5   0  0.4884478E-02  0.4984042E+03  0.7818609E-02  0.1014196E+00
       -1   -1    0    0    0  501  0.00000000000E+00  0.00000000000E+00  0.14911465433E+03  0.14911465441E+03  0.50400001928E-02 0.  1.
        1   -1    0    0  501    0  0.00000000000E+00  0.00000000000E+00 -0.41646945223E+03  0.41646945226E+03  0.50400001928E-02 0. -1.
    10030    2    1    2    0    0  0.00000000000E+00  0.00000000000E+00 -0.26735479790E+03  0.56558410668E+03  0.49840424734E+03 0.  0.
        3    1    3    3  502    0 -0.75987861557E+02  0.22754801589E+03 -0.57136399678E+02  0.24661069119E+03  0.10100000352E+00 0.  1.
       -3    1    3    3    0  502  0.75987861557E+02 -0.22754801589E+03 -0.21021839823E+03  0.31897341549E+03  0.10100000352E+00 0. -1.
</event>
<event>
 5   0  0.7698747E-02  0.4932220E+03  0.7818609E-02  0.1015563E+00
       -2   -1    0    0    0  501  0.00000000000E+00  0.00000000000E+00  0.18302303447E+03  0.18302303449E+03  0.25500000920E-02 0.  1.
        2   -1    0    0  501    0  0.00000000000E+00  0.00000000000E+00 -0.33229144860E+03  0.33229144861E+03  0.25500000920E-02 0. -1.
    10030    2    1    2    0    0  0.00000000000E+00  0.00000000000E+00 -0.14926841412E+03  0.51531448310E+03  0.49322201597E+03 0.  0.
        2    1    3    3  502    0 -0.54686668128E+02 -0.74452973701E+02  0.16426274602E+03  0.18845722778E+03  0.25500000920E-02 0.  1.
       -2    1    3    3    0  502  0.54686668128E+02  0.74452973701E+02 -0.31353116015E+03  0.32685725532E+03  0.25500000920E-02 0. -1.
</event>
<event>
 5   0  0.7776070E-02  0.5039582E+03  0.7818609E-02  0.1012751E+00
        2   -1    0    0  501    0  0.00000000000E+00  0.00000000000E+00  0.57438437863E+03  0.57438437864E+03  0.25500000920E-02 0. -1.
       -2   -1    0    0    0  501  0.00000000000E+00  0.00000000000E+00 -0.11054176661E+03  0.11054176664E+03  0.25500000920E-02 0.  1.
    10030    2    1    2    0    0  0.00000000000E+00  0.00000000000E+00  0.46384261202E+03  0.68492614528E+03  0.50395818850E+03 0.  0.
        4    1    3    3  502    0 -0.24099837620E+03  0.62260753882E+02  0.17866926247E+03  0.30639996256E+03  0.12699999809E+01 0.  1.
       -4    1    3    3    0  502  0.24099837620E+03 -0.62260753882E+02  0.28517334955E+03  0.37852618272E+03  0.12699999809E+01 0. -1.
</event>
<event>
 5   0  0.7698747E-02  0.5021091E+03  0.7818609E-02  0.1013230E+00
       -2   -1    0    0    0  501  0.00000000000E+00  0.00000000000E+00  0.10570188926E+03  0.10570188929E+03  0.25500000920E-02 0. -1.
        2   -1    0    0  501    0  0.00000000000E+00  0.00000000000E+00 -0.59628440548E+03  0.59628440549E+03  0.25500000920E-02 0.  1.
    10030    2    1    2    0    0  0.00000000000E+00  0.00000000000E+00 -0.49058251622E+03  0.70198629477E+03  0.50210910450E+03 0.  0.
        2    1    3    3  502    0  0.20010761457E+03 -0.13870720979E+01 -0.33339150637E+02  0.20287060001E+03  0.25500000920E-02 0. -1.
       -2    1    3    3    0  502 -0.20010761457E+03  0.13870720979E+01 -0.45724336559E+03  0.49911569476E+03  0.25500000920E-02 0.  1.
</event>
<event>
 5   0  0.5191358E-02  0.4988149E+03  0.7818609E-02  0.1014089E+00
        1   -1    0    0  501    0  0.00000000000E+00  0.00000000000E+00  0.89446573875E+03  0.89446573876E+03  0.50400001928E-02 0.  1.
       -1   -1    0    0    0  501  0.00000000000E+00  0.00000000000E+00 -0.69543286775E+02  0.69543286957E+02  0.50400001928E-02 0. -1.
    10030    2    1    2    0    0  0.00000000000E+00  0.00000000000E+00  0.82492245197E+03  0.96400902572E+03  0.49881494555E+03 0.  0.
        4    1    3    3  502    0 -0.83371910716E+02  0.67750132314E+02 -0.22530248140E+02  0.10977331600E+03  0.12699999809E+01 0. -1.
       -4    1    3    3    0  502  0.83371910716E+02 -0.67750132314E+02  0.84745270012E+03  0.85423570972E+03  0.12699999809E+01 0.  1.
</event>
<event>
 5   0  0.7933103E-02  0.5034174E+03  0.7818609E-02  0.1012891E+00
       -2   -1    0    0    0  501  0.00000000000E+00  0.00000000000E+00  0.44940266620E+02  0.44940266692E+02  0.25500000920E-02 0.  1.
        2   -1    0    0  501    0  0.00000000000E+00  0.00000000000E+00 -0.14098105427E+04  0.14098105427E+04  0.25500000920E-02 0. -1.
    10030    2    1    2    0    0  0.00000000000E+00  0.00000000000E+00 -0.13648702761E+04  0.14547508094E+04  0.50341736850E+03 0.  0.
        5    1    3    3  502    0  0.16165219238E+03  0.70175311825E+02 -0.12016194551E+04  0.12144823632E+04  0.46999998093E+01 0. -1.
       -5    1    3    3    0  502 -0.16165219238E+03 -0.70175311825E+02 -0.16325082104E+03  0.24026844624E+03  0.46999998093E+01 0.  1.
</event>
<event>
 5   0  0.3210875E-02  0.4987929E+03  0.7818609E-02  0.1014094E+00
        4   -1    0    0  501    0  0.00000000000E+00  0.00000000000E+00  0.17414528702E+04  0.17414533333E+04  0.12699999809E+01 0. -1.
       -4   -1    0    0    0  501  0.00000000000E+00  0.00000000000E+00 -0.35704739004E+02  0.35727318501E+02  0.12699999809E+01 0.  1.
    10030    2    1    2    0    0  0.00000000000E+00  0.00000000000E+00  0.17057481312E+04  0.17771806518E+04  0.49879292499E+03 0.  0.
        5    1    3    3  502    0  0.98389231057E+02  0.89680784251E+01  0.37152900073E+02  0.10565649625E+03  0.46999998093E+01 0.  1.
       -5    1    3    3    0  502 -0.98389231057E+02 -0.89680784251E+01  0.16685952311E+04  0.16715241555E+04  0.46999998093E+01 0. -1.
</event>
<event>
 5   0  0.5191358E-02  0.5022494E+03  0.7818609E-02  0.1013193E+00
        1   -1    0    0  501    0  0.00000000000E+00  0.00000000000E+00  0.20474192528E+03  0.20474192534E+03  0.50400001928E-02 0. -1.
       -1   -1    0    0    0  501  0.00000000000E+00  0.00000000000E+00 -0.30801520178E+03  0.30801520182E+03  0.50400001928E-02 0.  1.
    10030    2    1    2    0    0  0.00000000000E+00  0.00000000000E+00 -0.10327327650E+03  0.51275712716E+03  0.50224944183E+03 0.  0.
        4    1    3    3  502    0  0.38359032831E+02 -0.16937315088E+03 -0.23682435993E+03  0.29367681215E+03  0.12699999809E+01 0.  1.
       -4    1    3    3    0  502 -0.38359032831E+02  0.16937315088E+03  0.13355108343E+03  0.21908031501E+03  0.12699999809E+01 0. -1.
</event>
<event>
 5   0  0.4803890E-02  0.5007362E+03  0.7818609E-02  0.1013587E+00
        1   -1    0    0  501    0  0.00000000000E+00  0.00000000000E+00  0.16811707735E+03  0.16811707743E+03  0.50400001928E-02 0. -1.
       -1   -1    0    0    0  501  0.00000000000E+00  0.00000000000E+00 -0.37286034667E+03  0.37286034671E+03  0.50400001928E-02 0.  1.
    10030    2    1    2    0    0  0.00000000000E+00  0.00000000000E+00 -0.20474326932E+03  0.54097742413E+03  0.50073622506E+03 0.  0.
        5    1    3    3  502    0 -0.13860219915E+02 -0.78622246936E+02 -0.35869023122E+03  0.36749739507E+03  0.46999998093E+01 0.  1.
       -5    1    3    3    0  502  0.13860219915E+02  0.78622246936E+02  0.15394696190E+03  0.17348002907E+03  0.46999998093E+01 0. -1.
</event>
<event>
 5   0  0.4865501E-02  0.5039696E+03  0.7818609E-02  0.1012748E+00
        1   -1    0    0  501    0  0.00000000000E+00  0.00000000000E+00  0.39259451015E+03  0.39259451018E+03  0.50400001928E-02 0.  1.
       -1   -1    0    0    0  501  0.00000000000E+00  0.00000000000E+00 -0.16173516070E+03  0.16173516078E+03  0.50400001928E-02 0. -1.
    10030    2    1    2    0    0  0.00000000000E+00  0.00000000000E+00  0.23085934944E+03  0.55432967096E+03  0.50396958726E+03 0.  0.
        2    1    3    3  502    0 -0.11614625837E+03 -0.73746988236E+02 -0.11677674475E+03  0.18045880341E+03  0.25500000920E-02 0. -1.
       -2    1    3    3    0  502  0.11614625837E+03  0.73746988236E+02  0.34763609419E+03  0.37387086755E+03  0.25500000920E-02 0.  1.
</event>
<event>
 5   0  0.7881060E-02  0.5207328E+03  0.7818609E-02  0.1008505E+00
       -2   -1    0    0    0  501  0.00000000000E+00  0.00000000000E+00  0.21165772990E+03  0.21165772992E+03  0.25500000920E-02 0.  1.
        2   -1    0    0  501    0  0.00000000000E+00  0.00000000000E+00 -0.32028433716E+03  0.32028433717E+03  0.25500000920E-02 0. -1.
    10030    2    1    2    0    0  0.00000000000E+00  0.00000000000E+00 -0.10862660726E+03  0.53194206709E+03  0.52073277498E+03 0.  0.
        1    1    3    3  502    0  0.47150549998E+02 -0.87904986462E+02 -0.29999018844E+03  0.31614011798E+03  0.50400001928E-02 0. -1.
       -1    1    3    3    0  502 -0.47150549998E+02  0.87904986462E+02  0.19136358119E+03  0.21580194911E+03  0.50400001928E-02 0.  1.
</event>
<event>
 5   0  0.5191358E-02  0.4972061E+03  0.7818609E-02  0.1014511E+00
       -1   -1    0    0    0  501  0.00000000000E+00  0.00000000000E+00  0.71995780900E+03  0.71995780902E+03  0.50400001928E-02 0. -1.
        1   -1    0    0  501    0  0.00000000000E+00  0.00000000000E+00 -0.85843184083E+02  0.85843184231E+02  0.50400001928E-02 0.  1.
    10030    2    1    2    0    0  0.00000000000E+00  0.00000000000E+00  0.63411462492E+03  0.80580099325E+03  0.49720607718E+03 0.  0.
        4    1    3    3  502    0  0.68643473098E+02  0.23180552813E+03  0.41094543805E+03  0.47678453753E+03  0.12699999809E+01 0. -1.
       -4    1    3    3    0  502 -0.68643473098E+02 -0.23180552813E+03  0.22316918687E+03  0.32901645572E+03  0.12699999809E+01 0.  1.
</event>
<event>
 5   0  0.8208720E-02  0.4915198E+03  0.7818609E-02  0.1016016E+00
       -2   -1    0    0    0  501  0.00000000000E+00  0.00000000000E+00  0.99571260590E+02  0.99571260623E+02  0.25500000920E-02 0. -1.
        2   -1    0    0  501    0  0.00000000000E+00  0.00000000000E+00 -0.60658002283E+03  0.60658002284E+03  0.25500000920E-02 0.  1.
    10030    2    1    2    0    0  0.00000000000E+00  0.00000000000E+00 -0.50700876224E+03  0.70615128346E+03  0.49151983698E+03 0.  0.
        3    1    3    3  502    0  0.47424874919E+02 -0.16666176432E+03 -0.50388352612E+03  0.53284508118E+03  0.10100000352E+00 0.  1.
       -3    1    3    3    0  502 -0.47424874919E+02  0.16666176432E+03 -0.31252361234E+01  0.17330620228E+03  0.10100000352E+00 0. -1.
</event>
<event>
 5   0  0.7881060E-02  0.4964611E+03  0.7818609E-02  0.1014707E+00
        2   -1    0    0  501    0  0.00000000000E+00  0.00000000000E+00  0.49424936765E+03  0.49424936766E+03  0.25500000920E-02 0.  1.
       -2   -1    0    0    0  501  0.00000000000E+00  0.00000000000E+00 -0.12467068459E+03  0.12467068461E+03  0.25500000920E-02 0. -1.
    10030    2    1    2    0    0  0.00000000000E+00  0.00000000000E+00  0.36957868307E+03  0.61892005227E+03  0.49646110435E+03 0.  0.
        1    1    3    3  502    0 -0.13686866544E+03  0.16276641914E+03  0.34440353210E+03  0.40477120911E+03  0.50400001928E-02 0.  1.
       -1    1    3    3    0  502  0.13686866544E+03 -0.16276641914E+03  0.25175150963E+02  0.21414884316E+03  0.50400001928E-02 0. -1.
</event>
<event>
 5   0  0.7881060E-02  0.4620188E+03  0.7818609E-02  0.1024197E+00
        2   -1    0    0  501    0  0.00000000000E+00  0.00000000000E+00  0.18061710205E+04  0.18061710205E+04  0.25500000920E-02 0.  1.
       -2   -1    0    0    0  501  0.00000000000E+00  0.00000000000E+00 -0.29546119223E+02  0.29546119333E+02  0.25500000920E-02 0. -1.
    10030    2    1    2    0    0  0.00000000000E+00  0.00000000000E+00  0.17766249012E+04  0.18357171398E+04  0.46201880659E+03 0.  0.
        1    1    3    3  502    0 -0.49086060955E+02  0.22562170751E+03  0.91661698525E+03  0.94525197379E+03  0.50400001928E-02 0. -1.
       -1    1    3    3    0  502  0.49086060955E+02 -0.22562170751E+03  0.86000791598E+03  0.89046516600E+03  0.50400001928E-02 0.  1.
</event>
<event>
 5   0  0.7933103E-02  0.4977550E+03  0.7818609E-02  0.1014367E+00
       -2   -1    0    0    0  501  0.00000000000E+00  0.00000000000E+00  0.33511610970E+02  0.33511611067E+02  0.25500000920E-02 0. -1.
        2   -1    0    0  501    0  0.00000000000E+00  0.00000000000E+00 -0.18483152518E+04  0.18483152518E+04  0.25500000920E-02 0.  1.
    10030    2    1    2    0    0  0.00000000000E+00  0.00000000000E+00 -0.18148036409E+04  0.18818268629E+04  0.49775504723E+03 0.  0.
        5    1    3    3  502    0 -0.13293029933E+03  0.70968555561E+00 -0.17026555746E+04  0.17078433956E+04  0.46999998093E+01 0.  1.
       -5    1    3    3    0  502  0.13293029933E+03 -0.70968555561E+00 -0.11214806626E+03  0.17398346731E+03  0.46999998093E+01 0. -1.
</event>
<event>
 5   0  0.4803890E-02  0.4994190E+03  0.7818609E-02  0.1013931E+00
        1   -1    0    0  501    0  0.00000000000E+00  0.00000000000E+00  0.33103847660E+03  0.33103847664E+03  0.50400001928E-02 0. -1.
       -1   -1    0    0    0  501  0.00000000000E+00  0.00000000000E+00 -0.18836129263E+03  0.18836129270E+03  0.50400001928E-02 0.  1.
    10030    2    1    2    0    0  0.00000000000E+00  0.00000000000E+00  0.14267718397E+03  0.51939976934E+03  0.49941900401E+03 0.  0.
        5    1    3    3  502    0 -0.21362553901E+03 -0.12821070752E+03  0.88072348525E+02  0.26429658533E+03  0.46999998093E+01 0. -1.
       -5    1    3    3    0  502  0.21362553901E+03  0.12821070752E+03  0.54604835441E+02  0.25510318401E+03  0.46999998093E+01 0.  1.
</event>
<event>
 5   0  0.8208720E-02  0.4991068E+03  0.7818609E-02  0.1014012E+00
       -2   -1    0    0    0  501  0.00000000000E+00  0.00000000000E+00  0.40230783060E+02  0.40230783141E+02  0.25500000920E-02 0.  1.
        2   -1    0    0  501    0  0.00000000000E+00  0.00000000000E+00 -0.15479911651E+04  0.15479911651E+04  0.25500000920E-02 0. -1.
    10030    2    1    2    0    0  0.00000000000E+00  0.00000000000E+00 -0.15077603820E+04  0.15882219482E+04  0.49910678940E+03 0.  0.
        3    1    3    3  502    0  0.38887083544E+02  0.58099953828E+02 -0.15161914508E+04  0.15178024692E+04  0.10100000352E+00 0. -1.
       -3    1    3    3    0  502 -0.38887083544E+02 -0.58099953828E+02  0.84310687761E+01  0.70419479003E+02  0.10100000352E+00 0.  1.
</event>
<event>
 5   0  0.4865501E-02  0.5354461E+03  0.7818609E-02  0.1004920E+00
       -1   -1    0    0    0  501  0.00000000000E+00  0.00000000000E+00  0.34190208108E+03  0.34190208112E+03  0.50400001928E-02 0.  1.
        1   -1    0    0  501    0  0.00000000000E+00  0.00000000000E+00 -0.20963785563E+03  0.20963785569E+03  0.50400001928E-02 0. -1.
    10030    2    1    2    0    0  0.00000000000E+00  0.00000000000E+00  0.13226422545E+03  0.55153993681E+03  0.53544605383E+03 0.  0.
        2    1    3    3  502    0  0.20636189554E+03 -0.82457004162E+02 -0.87657943606E+02  0.23888973304E+03  0.25500000920E-02 0. -1.
       -2    1    3    3    0  502 -0.20636189554E+03  0.82457004162E+02  0.21992216905E+03  0.31265020377E+03  0.25500000920E-02 0.  1.
</event>
<event>
 5   0  0.5038436E-02  0.4993781E+03  0.7818609E-02  0.1013941E+00
        1   -1    0    0  501    0  0.00000000000E+00  0.00000000000E+00  0.25343239038E+03  0.25343239043E+03  0.50400001928E-02 0.  1.
       -1   -1    0    0    0  501  0.00000000000E+00  0.00000000000E+00 -0.24600100486E+03  0.24600100491E+03  0.50400001928E-02 0. -1.
    10030    2    1    2    0    0  0.00000000000E+00  0.00000000000E+00  0.74313855214E+01  0.49943339535E+03  0.49937810414E+03 0.  0.
        1    1    3    3  502    0  0.14678096499E+03 -0.25018992736E+02 -0.19674107978E+03  0.24673397451E+03  0.50400001928E-02 0. -1.
       -1    1    3    3    0  502 -0.14678096499E+03  0.25018992736E+02  0.20417246530E+03  0.25269942084E+03  0.50400001928E-02 0.  1.
</event>
<event>
 5   0  0.4884478E-02  0.5017857E+03  0.7818609E-02  0.1013314E+00
        1   -1    0    0  501    0  0.00000000000E+00  0.00000000000E+00  0.55822658705E+03  0.55822658707E+03  0.50400001928E-02 0.  1.
       -1   -1    0    0    0  501  0.00000000000E+00  0.00000000000E+00 -0.11276287061E+03  0.11276287072E+03  0.50400001928E-02 0. -1.
    10030    2    1    2    0    0  0.00000000000E+00  0.00000000000E+00  0.44546371644E+03  0.67098945779E+03  0.50178574093E+03 0.  0.
        3    1    3    3  502    0  0.14213603067E+03 -0.54075039224E+02 -0.44107890827E+02  0.15834227899E+03  0.10100000352E+00 0. -1.
       -3    1    3    3    0  502 -0.14213603067E+03  0.54075039224E+02  0.48957160727E+03  0.51264717880E+03  0.10100000352E+00 0.  1.
</event>
<event>
 5   0  0.4884478E-02  0.4989532E+03  0.7818609E-02  0.1014053E+00
       -1   -1    0    0    0  501  0.00000000000E+00  0.00000000000E+00  0.36959379104E+03  0.36959379107E+03  0.50400001928E-02 0.  1.
        1   -1    0    0  501    0  0.00000000000E+00  0.00000000000E+00 -0.16839722354E+03  0.16839722361E+03  0.50400001928E-02 0. -1.
    10030    2    1    2    0    0  0.00000000000E+00  0.00000000000E+00  0.20119656750E+03  0.53799101469E+03  0.49895317727E+03 0.  0.
        3    1    3    3  502    0 -0.94346724420E+01  0.31529637562E+02  0.36724284585E+03  0.36871459033E+03  0.10100000352E+00 0.  1.
       -3    1    3    3    0  502  0.94346724420E+01 -0.31529637562E+02 -0.16604627835E+03  0.16927642436E+03  0.10100000352E+00 0. -1.
</event>
<event>
 5   0  0.7698747E-02  0.5134875E+03  0.7818609E-02  0.1010317E+00
       -2   -1    0    0    0  501  0.00000000000E+00  0.00000000000E+00  0.11367378791E+03  0.11367378794E+03  0.25500000920E-02 0. -1.
        2   -1    0    0  501    0  0.00000000000E+00  0.00000000000E+00 -0.57988164775E+03  0.57988164776E+03  0.25500000920E-02 0.  1.
    10030    2    1    2    0    0  0.00000000000E+00  0.00000000000E+00 -0.46620785984E+03  0.69355543569E+03  0.51348746216E+03 0.  0.
        2    1    3    3  502    0  0.59589028911E+02  0.10912098079E+02  0.10388218292E+03  0.12025570334E+03  0.25500000920E-02 0. -1.
       -2    1    3    3    0  502 -0.59589028911E+02 -0.10912098079E+02 -0.57009004276E+03  0.57329973235E+03  0.25500000920E-02 0.  1.
</event>
<event>
 5   0  0.4803890E-02  0.5000490E+03  0.7818609E-02  0.1013766E+00
        1   -1    0    0  501    0  0.00000000000E+00  0.00000000000E+00  0.10353560691E+03  0.10353560704E+03  0.50400001928E-02 0. -1.
       -1   -1    0    0    0  501  0.00000000000E+00  0.00000000000E+00 -0.60377528557E+03  0.60377528559E+03  0.50400001928E-02 0.  1.
    10030    2    1    2    0    0  0.00000000000E+00  0.00000000000E+00 -0.50023967865E+03  0.70731089262E+03  0.50004896033E+03 0.  0.
        5    1    3    3  502    0  0.16683456255E+03  0.10075810054E+02  0.12817564576E+02  0.16769517933E+03  0.46999998093E+01 0. -1.
       -5    1    3    3    0  502 -0.16683456255E+03 -0.10075810054E+02 -0.51305724323E+03  0.53961571330E+03  0.46999998093E+01 0.  1.
</event>
<event>
 5   0  0.7933103E-02  0.4942244E+03  0.7818609E-02  0.1015298E+00
       -2   -1    0    0    0  501  0.00000000000E+00  0.00000000000E+00  0.13540597446E+03  0.13540597449E+03  0.25500000920E-02 0.  1.
        2   -1    0    0  501    0  0.00000000000E+00  0.00000000000E+00 -0.45097301321E+03  0.45097301322E+03  0.25500000920E-02 0. -1.
    10030    2    1    2    0    0  0.00000000000E+00  0.00000000000E+00 -0.31556703875E+03  0.58637898770E+03  0.49422440376E+03 0.  0.
        5    1    3    3  502    0 -0.19536088653E+03 -0.64599164419E+02 -0.32004474538E+03  0.38051236126E+03  0.46999998093E+01 0. -1.
       -5    1    3    3    0  502  0.19536088653E+03  0.64599164419E+02  0.44777066266E+01  0.20586662645E+03  0.46999998093E+01 0.  1.
</event>
<event>
 5   0  0.3210875E-02  0.4998809E+03  0.7818609E-02  0.1013810E+00
       -4   -1    0    0    0  501  0.00000000000E+00  0.00000000000E+00  0.17849034289E+03  0.17849486100E+03  0.12699999809E+01 0.  1.
        4   -1    0    0  501    0  0.00000000000E+00  0.00000000000E+00 -0.34998215152E+03  0.34998445578E+03  0.12699999809E+01 0. -1.
    10030    2    1    2    0    0  0.00000000000E+00  0.00000000000E+00 -0.17149180863E+03  0.52847931678E+03  0.49988093366E+03 0.  0.
        1    1    3    3  502    0 -0.87024602853E+02  0.22456177542E+03 -0.15642075060E+03  0.28717368216E+03  0.50400001928E-02 0. -1.
       -1    1    3    3    0  502  0.87024602853E+02 -0.22456177542E+03 -0.15071058034E+02  0.24130563462E+03  0.50400001928E-02 0.  1.
</event>
<event>
 5   0  0.3210875E-02  0.5017413E+03  0.7818609E-02  0.1013325E+00
       -4   -1    0    0    0  501  0.00000000000E+00  0.00000000000E+00  0.56554719665E+03  0.56554862261E+03  0.12699999809E+01 0.  1.
        4   -1    0    0  501    0  0.00000000000E+00  0.00000000000E+00 -0.11127834574E+03  0.11128559264E+03  0.12699999809E+01 0. -1.
    10030    2    1    2    0    0  0.00000000000E+00  0.00000000000E+00  0.45426885091E+03  0.67683421526E+03  0.50174133379E+03 0.  0.
        2    1    3    3  502    0  0.17824524570E+03 -0.16901904689E+03  0.15838607451E+03  0.29227547696E+03  0.25500000920E-02 0. -1.
       -2    1    3    3    0  502 -0.17824524570E+03  0.16901904689E+03  0.29588277640E+03  0.38455873830E+03  0.25500000920E-02 0.  1.
</event>
<event>
 5   0  0.5038436E-02  0.5055168E+03  0.7818609E-02  0.1012349E+00
        1   -1    0    0  501    0  0.00000000000E+00  0.00000000000E+00  0.98692077411E+03  0.98692077413E+03  0.50400001928E-02 0.  1.
       -1   -1    0    0    0  501  0.00000000000E+00  0.00000000000E+00 -0.64733479284E+02  0.64733479480E+02  0.50400001928E-02 0. -1.
    10030    2    1    2    0    0  0.00000000000E+00  0.00000000000E+00  0.92218729483E+03  0.10516542536E+04  0.50551682700E+03 0.  0.
        1    1    3    3  502    0 -0.16456856055E+03  0.16291882300E+03  0.67183122215E+03  0.71062123884E+03  0.50400001928E-02 0. -1.
       -1    1    3    3    0  502  0.16456856055E+03 -0.16291882300E+03  0.25035607268E+03  0.34103301476E+03  0.50400001928E-02 0.  1.
</event>
<event>
 5   0  0.4865501E-02  0.5003165E+03  0.7818609E-02  0.1013696E+00
        1   -1    0    0  501    0  0.00000000000E+00  0.00000000000E+00  0.72104277208E+03  0.72104277209E+03  0.50400001928E-02 0.  1.
       -1   -1    0    0    0  501  0.00000000000E+00  0.00000000000E+00 -0.86789772886E+02  0.86789773032E+02  0.50400001928E-02 0. -1.
    10030    2    1    2    0    0  0.00000000000E+00  0.00000000000E+00  0.63425299919E+03  0.80783254513E+03  0.50031645384E+03 0.  0.
        2    1    3    3  502    0 -0.89703581566E+01  0.22924134065E+03  0.47816300641E+03  0.53035075214E+03  0.25500000920E-02 0.  1.
       -2    1    3    3    0  502  0.89703581566E+01 -0.22924134065E+03  0.15608999278E+03  0.27748179298E+03  0.25500000920E-02 0. -1.
</event>
<event>
 5   0  0.7881060E-02  0.5000008E+03  0.7818609E-02  0.1013779E+00
       -2   -1    0    0    0  501  0.00000000000E+00  0.00000000000E+00  0.72530038175E+02  0.72530038220E+02  0.25500000920E-02 0. -1.
        2   -1    0    0  501    0  0.00000000000E+00  0.00000000000E+00 -0.86171472263E+03  0.86171472263E+03  0.25500000920E-02 0.  1.
    10030    2    1    2    0    0  0.00000000000E+00  0.00000000000E+00 -0.78918468445E+03  0.93424476085E+03  0.50000080700E+03 0.  0.
        1    1    3    3  502    0  0.45825104402E+02  0.10768197825E+03 -0.80737502631E+03  0.81581234471E+03  0.50400001928E-02 0.  1.
       -1    1    3    3    0  502 -0.45825104402E+02 -0.10768197825E+03  0.18190341859E+02  0.11843241615E+03  0.50400001928E-02 0. -1.
</event>
<event>
 5   0  0.7881060E-02  0.4777648E+03  0.7818609E-02  0.1019751E+00
        2   -1    0    0  501    0  0.00000000000E+00  0.00000000000E+00  0.11540947128E+04  0.11540947128E+04  0.25500000920E-02 0. -1.
       -2   -1    0    0    0  501  0.00000000000E+00  0.00000000000E+00 -0.49445509423E+02  0.49445509489E+02  0.25500000920E-02 0.  1.
    10030    2    1    2    0    0  0.00000000000E+00  0.00000000000E+00  0.11046492034E+04  0.12035402223E+04  0.47776480003E+03 0.  0.
        1    1    3    3  502    0  0.18728750086E+03 -0.29960386183E+02  0.91816410661E+03  0.93754976370E+03  0.50400001928E-02 0. -1.
       -1    1    3    3    0  502 -0.18728750086E+03  0.29960386183E+02  0.18648509675E+03  0.26599045858E+03  0.50400001928E-02 0.  1.
</event>
<event>
 5   0  0.4803890E-02  0.4988753E+03  0.7818609E-02  0.1014073E+00
       -1   -1    0    0    0  501  0.00000000000E+00  0.00000000000E+00  0.45433031495E+03  0.45433031498E+03  0.50400001928E-02 0.  1.
        1   -1    0    0  501    0  0.00000000000E+00  0.00000000000E+00 -0.13694691396E+03  0.13694691406E+03  0.50400001928E-02 0. -1.
    10030    2    1    2    0    0  0.00000000000E+00  0.00000000000E+00  0.31738340098E+03  0.59127722903E+03  0.49887527334E+03 0.  0.
        5    1    3    3  502    0 -0.20241809563E+03 -0.12924813069E+03  0.23836532471E+03  0.33840550048E+03  0.46999998093E+01 0.  1.
       -5    1    3    3    0  502  0.20241809563E+03  0.12924813069E+03  0.79018076269E+02  0.25287172856E+03  0.46999998093E+01 0. -1.
</event>
<event>
 5   0  0.4865501E-02  0.4960452E+03  0.7818609E-02  0.1014816E+00
       -1   -1    0    0    0  501  0.00000000000E+00  0.00000000000E+00  0.55183336913E+03  0.55183336916E+03  0.50400001928E-02 0.  1.
        1   -1    0    0  501    0  0.00000000000E+00  0.00000000000E+00 -0.11147426942E+03  0.11147426954E+03  0.50400001928E-02 0. -1.
    10030    2    1    2    0    0  0.00000000000E+00  0.00000000000E+00  0.44035909971E+03  0.66330763869E+03  0.49604524678E+03 0.  0.
        2    1    3    3  502    0 -0.97411966912E+02 -0.22548407965E+03  0.17418597836E+03  0.30111943898E+03  0.25500000920E-02 0. -1.
       -2    1    3    3    0  502  0.97411966912E+02  0.22548407965E+03  0.26617312136E+03  0.36218819971E+03  0.25500000920E-02 0.  1.
</event>
<event>
 5   0  0.7933103E-02  0.5004589E+03  0.7818609E-02  0.1013659E+00
       -2   -1    0    0    0  501  0.00000000000E+00  0.00000000000E+00  0.14266300621E+03  0.14266300623E+03  0.25500000920E-02 0. -1.
        2   -1    0    0  501    0  0.00000000000E+00  0.00000000000E+00 -0.43889981382E+03  0.43889981383E+03  0.25500000920E-02 0.  1.
    10030    2    1    2    0    0  0.00000000000E+00  0.00000000000E+00 -0.29623680761E+03  0.58156282006E+03  0.50045885695E+03 0.  0.
        5    1    3    3  502    0  0.19798563453E+03  0.72834419888E+02 -0.30441218129E+03  0.37039442533E+03  0.46999998093E+01 0.  1.
       -5    1    3    3    0  502 -0.19798563453E+03 -0.72834419888E+02  0.81753736848E+01  0.21116839473E+03  0.46999998093E+01 0. -1.
</event>
<event>
 5   0  0.4803890E-02  0.4981124E+03  0.7818609E-02  0.1014273E+00
       -1   -1    0    0    0  501  0.00000000000E+00  0.00000000000E+00  0.61941073424E+02  0.61941073629E+02  0.50400001928E-02 0. -1.
        1   -1    0    0  501    0  0.00000000000E+00  0.00000000000E+00 -0.10014192732E+04  0.10014192732E+04  0.50400001928E-02 0.  1.
    10030    2    1    2    0    0  0.00000000000E+00  0.00000000000E+00 -0.93947819978E+03  0.10633603469E+04  0.49811237626E+03 0.  0.
        5    1    3    3  502    0 -0.78476736324E+02 -0.12305763954E+03 -0.90044182216E+03  0.91220575853E+03  0.46999998093E+01 0.  1.
       -5    1    3    3    0  502  0.78476736324E+02  0.12305763954E+03 -0.39036377621E+02  0.15115458832E+03  0.46999998093E+01 0. -1.
</event>
<event>
 5   0  0.4865501E-02  0.5010709E+03  0.7818609E-02  0.1013500E+00
       -1   -1    0    0    0  501  0.00000000000E+00  0.00000000000E+00  0.26107677567E+03  0.26107677572E+03  0.50400001928E-02 0. -1.
        1   -1    0    0  501    0  0.00000000000E+00  0.00000000000E+00 -0.24041976343E+03  0.24041976348E+03  0.50400001928E-02 0.  1.
    10030    2    1    2    0    0  0.00000000000E+00  0.00000000000E+00  0.20657012236E+02  0.50149653920E+03  0.50107091981E+03 0.  0.
        2    1    3    3  502    0 -0.42287659942E+00 -0.89012353950E+02  0.24471675339E+03  0.26040289433E+03  0.25500000920E-02 0. -1.
       -2    1    3    3    0  502  0.42287659942E+00  0.89012353950E+02 -0.22405974116E+03  0.24109364486E+03  0.25500000920E-02 0.  1.
</event>
<event>
 5   0  0.7933103E-02  0.5016177E+03  0.7818609E-02  0.1013358E+00
       -2   -1    0    0    0  501  0.00000000000E+00  0.00000000000E+00  0.29276788067E+03  0.29276788069E+03  0.25500000920E-02 0.  1.
        2   -1    0    0  501    0  0.00000000000E+00  0.00000000000E+00 -0.21486330585E+03  0.21486330586E+03  0.25500000920E-02 0. -1.
    10030    2    1    2    0    0  0.00000000000E+00  0.00000000000E+00  0.77904574825E+02  0.50763118655E+03  0.50161768189E+03 0.  0.
        5    1    3    3  502    0 -0.45854120405E+02  0.23739037470E+03 -0.28374934955E+02  0.24348309446E+03  0.46999998093E+01 0. -1.
       -5    1    3    3    0  502  0.45854120405E+02 -0.23739037470E+03  0.10627950978E+03  0.26414809209E+03  0.46999998093E+01 0.  1.
</event>
<event>
 5   0  0.7881060E-02  0.4971664E+03  0.7818609E-02  0.1014521E+00
       -2   -1    0    0    0  501  0.00000000000E+00  0.00000000000E+00  0.35813467430E+02  0.35813467521E+02  0.25500000920E-02 0. -1.
        2   -1    0    0  501    0  0.00000000000E+00  0.00000000000E+00 -0.17254291375E+04  0.17254291375E+04  0.25500000920E-02 0.  1.
    10030    2    1    2    0    0  0.00000000000E+00  0.00000000000E+00 -0.16896156701E+04  0.17612426051E+04  0.49716637176E+03 0.  0.
        1    1    3    3  502    0  0.83150496341E+02 -0.75279276320E+02 -0.16306868755E+04  0.16345398926E+04  0.50400001928E-02 0.  1.
       -1    1    3    3    0  502 -0.83150496341E+02  0.75279276320E+02 -0.58928794568E+02  0.12670271244E+03  0.50400001928E-02 0. -1.
</event>
<event>
 5   0  0.4865501E-02  0.5048933E+03  0.7818609E-02  0.1012510E+00
       -1   -1    0    0    0  501  0.00000000000E+00  0.00000000000E+00  0.29672095005E+03  0.29672095009E+03  0.50400001928E-02 0. -1.
        1   -1    0    0  501    0  0.00000000000E+00  0.00000000000E+00 -0.21477859716E+03  0.21477859722E+03  0.50400001928E-02 0.  1.
    10030    2    1    2    0    0  0.00000000000E+00  0.00000000000E+00  0.81942352890E+02  0.51149954731E+03  0.50489329338E+03 0.  0.
        2    1    3    3  502    0 -0.12169508322E+03 -0.99487031908E+02 -0.15915325774E+03  0.22368979023E+03  0.25500000920E-02 0.  1.
       -2    1    3    3    0  502  0.12169508322E+03  0.99487031908E+02  0.24109561063E+03  0.28780975708E+03  0.25500000920E-02 0. -1.
</event>
<event>
 5   0  0.4803890E-02  0.4968119E+03  0.7818609E-02  0.1014614E+00
       -1   -1    0    0    0  501  0.00000000000E+00  0.00000000000E+00  0.38300196915E+03  0.38300196918E+03  0.50400001928E-02 0.  1.
        1   -1    0    0  501    0  0.00000000000E+00  0.00000000000E+00 -0.16111016993E+03  0.16111017001E+03  0.50400001928E-02 0. -1.
    10030    2    1    2    0    0  0.00000000000E+00  0.00000000000E+00  0.22189179922E+03  0.54411213919E+03  0.49681188538E+03 0.  0.
        5    1    3    3  502    0  0.14248106608E+03 -0.19013032015E+03  0.31718932515E+02  0.23974689468E+03  0.46999998093E+01 0. -1.
       -5    1    3    3    0  502 -0.14248106608E+03  0.19013032015E+03  0.19017286670E+03  0.30436524450E+03  0.46999998093E+01 0.  1.
</event>
<event>
 5   0  0.4884478E-02  0.5053260E+03  0.7818609E-02  0.1012398E+00
        1   -1    0    0  501    0  0.00000000000E+00  0.00000000000E+00  0.60363717366E+03  0.60363717368E+03  0.50400001928E-02 0. -1.
       -1   -1    0    0    0  501  0.00000000000E+00  0.00000000000E+00 -0.10575657437E+03  0.10575657449E+03  0.50400001928E-02 0.  1.
    10030    2    1    2    0    0  0.00000000000E+00  0.00000000000E+00  0.49788059929E+03  0.70939374817E+03  0.50532603218E+03 0.  0.
        3    1    3    3  502    0 -0.18653052027E+02 -0.24697241557E+03  0.17881491618E+03  0.30548010549E+03  0.10100000352E+00 0. -1.
       -3    1    3    3    0  502  0.18653052027E+02  0.24697241557E+03  0.31906568311E+03  0.40391364268E+03  0.10100000352E+00 0.  1.
</event>
<event>
 5   0  0.4884478E-02  0.4996319E+03  0.7818609E-02  0.1013875E+00
        1   -1    0    0  501    0  0.00000000000E+00  0.00000000000E+00  0.48532442663E+03  0.48532442666E+03  0.50400001928E-02 0.  1.
       -1   -1    0    0    0  501  0.00000000000E+00  0.00000000000E+00 -0.12859029154E+03  0.12859029164E+03  0.50400001928E-02 0. -1.
    10030    2    1    2    0    0  0.00000000000E+00  0.00000000000E+00  0.35673413509E+03  0.61391471830E+03  0.49963190271E+03 0.  0.
        3    1    3    3  502    0 -0.39640939079E+02 -0.16104878948E+03  0.40791314078E+03  0.44034220473E+03  0.10100000352E+00 0.  1.
       -3    1    3    3    0  502  0.39640939079E+02  0.16104878948E+03 -0.51179005690E+02  0.17357251357E+03  0.10100000352E+00 0. -1.
</event>
<event>
 5   0  0.4803890E-02  0.5013300E+03  0.7818609E-02  0.1013432E+00
        1   -1    0    0  501    0  0.00000000000E+00  0.00000000000E+00  0.58835045368E+03  0.58835045370E+03  0.50400001928E-02 0.  1.
       -1   -1    0    0    0  501  0.00000000000E+00  0.00000000000E+00 -0.10679511059E+03  0.10679511071E+03  0.50400001928E-02 0. -1.
    10030    2    1    2    0    0  0.00000000000E+00  0.00000000000E+00  0.48155534309E+03  0.69514556440E+03  0.50133003825E+03 0.  0.
        5    1    3    3  502    0  0.24543164038E+03  0.11901686551E+02  0.17238959658E+03  0.30019760701E+03  0.46999998093E+01 0.  1.
       -5    1    3    3    0  502 -0.24543164038E+03 -0.11901686551E+02  0.30916574650E+03  0.39494795740E+03  0.46999998093E+01 0. -1.
</event>
<event>
 5   0  0.5191358E-02  0.4989814E+03  0.7818609E-02  0.1014045E+00
       -1   -1    0    0    0  501  0.00000000000E+00  0.00000000000E+00  0.75942995964E+03  0.75942995965E+03  0.50400001928E-02 0. -1.
        1   -1    0    0  501    0  0.00000000000E+00  0.00000000000E+00 -0.81963594808E+02  0.81963594962E+02  0.50400001928E-02 0.  1.
    10030    2    1    2    0    0  0.00000000000E+00  0.00000000000E+00  0.67746636483E+03  0.84139355462E+03  0.49898140073E+03 0.  0.
        4    1    3    3  502    0  0.88977372553E+02  0.15936036208E+02  0.73084083924E+03  0.73641080606E+03  0.12699999809E+01 0. -1.
       -4    1    3    3    0  502 -0.88977372553E+02 -0.15936036208E+02 -0.53374474411E+02  0.10498274856E+03  0.12699999809E+01 0.  1.
</event>
<event>
 5   0  0.4884478E-02  0.5007623E+03  0.7818609E-02  0.1013580E+00
        1   -1    0    0  501    0  0.00000000000E+00  0.00000000000E+00  0.28821792126E+03  0.28821792130E+03  0.50400001928E-02 0. -1.
       -1   -1    0    0    0  501  0.00000000000E+00  0.00000000000E+00 -0.21751154127E+03  0.21751154133E+03  0.50400001928E-02 0.  1.
    10030    2    1    2    0    0  0.00000000000E+00  0.00000000000E+00  0.70706379990E+02  0.50572946263E+03  0.50076231607E+03 0.  0.
        3    1    3    3  502    0  0.93314796929E+02  0.13101756999E+03  0.22913522959E+03  0.27995753001E+03  0.10100000352E+00 0. -1.
       -3    1    3    3    0  502 -0.93314796929E+02 -0.13101756999E+03 -0.15842884960E+03  0.22577193262E+03  0.10100000352E+00 0.  1.
</event>
<event>
 5   0  0.7776070E-02  0.4991435E+03  0.7818609E-02  0.1014003E+00
        2   -1    0    0  501    0  0.00000000000E+00  0.00000000000E+00  0.33196447853E+03  0.33196447854E+03  0.25500000920E-02 0. -1.
       -2   -1    0    0    0  501  0.00000000000E+00  0.00000000000E+00 -0.18762866724E+03  0.18762866726E+03  0.25500000920E-02 0.  1.
    10030    2    1    2    0    0  0.00000000000E+00  0.00000000000E+00  0.14433581128E+03  0.51959314580E+03  0.49914347711E+03 0.  0.
        4    1    3    3  502    0  0.20508370343E+03 -0.52170811095E+00  0.22020841961E+03  0.30092018636E+03  0.12699999809E+01 0. -1.
       -4    1    3    3    0  502 -0.20508370343E+03  0.52170811095E+00 -0.75872608328E+02  0.21867295943E+03  0.12699999809E+01 0.  1.
</event>
<event>
 5   0  0.4884478E-02  0.4997595E+03  0.7818609E-02  0.1013842E+00
       -1   -1    0    0    0  501  0.00000000000E+00  0.00000000000E+00  0.24634773758E+03  0.24634773763E+03  0.50400001928E-02 0. -1.
        1   -1    0    0  501    0  0.00000000000E+00  0.00000000000E+00 -0.25346237860E+03  0.25346237865E+03  0.50400001928E-02 0.  1.
    10030    2    1    2    0    0  0.00000000000E+00  0.00000000000E+00 -0.71146410230E+01  0.49981011628E+03  0.49975947637E+03 0.  0.
        3    1    3    3  502    0  0.23380860560E+03  0.59888916386E+02 -0.68268799466E+02  0.25082620585E+03  0.10100000352E+00 0. -1.
       -3    1    3    3    0  502 -0.23380860560E+03 -0.59888916386E+02  0.61154158443E+02  0.24898391043E+03  0.10100000352E+00 0.  1.
</event>
<event>
 5   0  0.8208720E-02  0.4969845E+03  0.7818609E-02  0.1014569E+00
       -2   -1    0    0    0  501  0.00000000000E+00  0.00000000000E+00  0.16662598184E+03  0.16662598186E+03  0.25500000920E-02 0.  1.
        2   -1    0    0  501    0  0.00000000000E+00  0.00000000000E+00 -0.37058080534E+03  0.37058080534E+03  0.25500000920E-02 0. -1.
    10030    2    1    2    0    0  0.00000000000E+00  0.00000000000E+00 -0.20395482349E+03  0.53720678721E+03  0.49698446877E+03 0.  0.
        3    1    3    3  502    0 -0.22689441009E+03  0.96618472099E+02 -0.13498000506E+03  0.28113309028E+03  0.10100000352E+00 0. -1.
       -3    1    3    3    0  502  0.22689441009E+03 -0.96618472099E+02 -0.68974818432E+02  0.25607369693E+03  0.10100000352E+00 0.  1.
</event>
<event>
 5   0  0.8208720E-02  0.5007792E+03  0.7818609E-02  0.1013576E+00
        2   -1    0    0  501    0  0.00000000000E+00  0.00000000000E+00  0.88708541351E+03  0.88708541352E+03  0.25500000920E-02 0. -1.
       -2   -1    0    0    0  501  0.00000000000E+00  0.00000000000E+00 -0.70675203814E+02  0.70675203860E+02  0.25500000920E-02 0.  1.
    10030    2    1    2    0    0  0.00000000000E+00  0.00000000000E+00  0.81641020970E+03  0.95776061738E+03  0.50077916260E+03 0.  0.
        3    1    3    3  502    0  0.10362862783E+03 -0.45087099988E+02  0.83553364897E+03  0.84314187884E+03  0.10100000352E+00 0. -1.
       -3    1    3    3    0  502 -0.10362862783E+03  0.45087099988E+02 -0.19123439276E+02  0.11461873853E+03  0.10100000352E+00 0.  1.
</event>
<event>
 5   0  0.3210875E-02  0.5011730E+03  0.7818609E-02  0.1013473E+00
        4   -1    0    0  501    0  0.00000000000E+00  0.00000000000E+00  0.82164732013E+02  0.82174546465E+02  0.12699999809E+01 0.  1.
       -4   -1    0    0    0  501  0.00000000000E+00  0.00000000000E+00 -0.76418417363E+03  0.76418522893E+03  0.12699999809E+01 0. -1.
    10030    2    1    2    0    0  0.00000000000E+00  0.00000000000E+00 -0.68201944161E+03  0.84635977540E+03  0.50117297480E+03 0.  0.
        2    1    3    3  502    0 -0.99551794387E+02  0.19543845262E+03 -0.54566904680E+03  0.58809987007E+03  0.25500000920E-02 0. -1.
       -2    1    3    3    0  502  0.99551794387E+02 -0.19543845262E+03 -0.13635039481E+03  0.25825990533E+03  0.25500000920E-02 0.  1.
</event>
<event>
 5   0  0.7933103E-02  0.5019331E+03  0.7818609E-02  0.1013276E+00
        2   -1    0    0  501    0  0.00000000000E+00  0.00000000000E+00  0.79486617765E+03  0.79486617766E+03  0.25500000920E-02 0. -1.
       -2   -1    0    0    0  501  0.00000000000E+00  0.00000000000E+00 -0.79238752607E+02  0.79238752648E+02  0.25500000920E-02 0.  1.
    10030    2    1    2    0    0  0.00000000000E+00  0.00000000000E+00  0.71562742504E+03  0.87410493030E+03  0.50193308090E+03 0.  0.
        5    1    3    3  502    0  0.19425785911E+01 -0.87383334510E+02 -0.51794470298E+02  0.10170731494E+03  0.46999998093E+01 0.  1.
       -5    1    3    3    0  502 -0.19425785911E+01  0.87383334510E+02  0.76742189534E+03  0.77239761536E+03  0.46999998093E+01 0. -1.
</event>
<event>
 5   0  0.4803890E-02  0.4992310E+03  0.7818609E-02  0.1013980E+00
        1   -1    0    0  501    0  0.00000000000E+00  0.00000000000E+00  0.61975307792E+03  0.61975307794E+03  0.50400001928E-02 0. -1.
       -1   -1    0    0    0  501  0.00000000000E+00  0.00000000000E+00 -0.10053666866E+03  0.10053666879E+03  0.50400001928E-02 0.  1.
    10030    2    1    2    0    0  0.00000000000E+00  0.00000000000E+00  0.51921640926E+03  0.72028974673E+03  0.49923104831E+03 0.  0.
        5    1    3    3  502    0 -0.23254244246E+03 -0.90407612163E+02  0.25091589575E+03  0.35387907626E+03  0.46999998093E+01 0.  1.
       -5    1    3    3    0  502  0.23254244246E+03  0.90407612163E+02  0.26830051351E+03  0.36641067046E+03  0.46999998093E+01 0. -1.
</event>
<event>
 5   0  0.4865501E-02  0.5091031E+03  0.7818609E-02  0.1011430E+00
       -1   -1    0    0    0  501  0.00000000000E+00  0.00000000000E+00  0.64926407016E+02  0.64926407212E+02  0.50400001928E-02 0.  1.
        1   -1    0    0  501    0  0.00000000000E+00  0.00000000000E+00 -0.99799918997E+03  0.99799918998E+03  0.50400001928E-02 0. -1.
    10030    2    1    2    0    0  0.00000000000E+00  0.00000000000E+00 -0.93307278296E+03  0.10629255972E+04  0.50910313973E+03 0.  0.
        2    1    3    3  502    0 -0.23327666216E+03 -0.45910456271E+02 -0.65641193418E+03  0.69814210476E+03  0.25500000920E-02 0. -1.
       -2    1    3    3    0  502  0.23327666216E+03  0.45910456271E+02 -0.27666084878E+03  0.36478349244E+03  0.25500000920E-02 0.  1.
</event>
<event>
 5   0  0.7933103E-02  0.5026776E+03  0.7818609E-02  0.1013082E+00
       -2   -1    0    0    0  501  0.00000000000E+00  0.00000000000E+00  0.10513533122E+03  0.10513533126E+03  0.25500000920E-02 0. -1.
        2   -1    0    0  501    0  0.00000000000E+00  0.00000000000E+00 -0.60085600468E+03  0.60085600468E+03  0.25500000920E-02 0.  1.
    10030    2    1    2    0    0  0.00000000000E+00  0.00000000000E+00 -0.49572067345E+03  0.70599133594E+03  0.50267761073E+03 0.  0.
        5    1    3    3  502    0  0.16241946315E+03  0.16150319339E+03 -0.39304213223E+03  0.45493688704E+03  0.46999998093E+01 0.  1.
       -5    1    3    3    0  502 -0.16241946315E+03 -0.16150319339E+03 -0.10267854122E+03  0.25105444890E+03  0.46999998093E+01 0. -1.
</event>
<event>
 5   0  0.7881060E-02  0.5001328E+03  0.7818609E-02  0.1013744E+00
        2   -1    0    0  501    0  0.00000000000E+00  0.00000000000E+00  0.12977891327E+04  0.12977891327E+04  0.25500000920E-02 0.  1.
       -2   -1    0    0    0  501  0.00000000000E+00  0.00000000000E+00 -0.48184411748E+02  0.48184411816E+02  0.25500000920E-02 0. -1.
    10030    2    1    2    0    0  0.00000000000E+00  0.00000000000E+00  0.12496047209E+04  0.13459735445E+04  0.50013280627E+03 0.  0.
        1    1    3    3  502    0  0.12964072944E+03  0.19737036615E+03  0.40334442737E+03  0.46738475294E+03  0.50400001928E-02 0. -1.
       -1    1    3    3    0  502 -0.12964072944E+03 -0.19737036615E+03  0.84626029354E+03  0.87858879153E+03  0.50400001928E-02 0.  1.
</event>
<event>
 5   0  0.4865501E-02  0.5039520E+03  0.7818609E-02  0.1012753E+00
       -1   -1    0    0    0  501  0.00000000000E+00  0.00000000000E+00  0.40536321396E+03  0.40536321399E+03  0.50400001928E-02 0. -1.
        1   -1    0    0  501    0  0.00000000000E+00  0.00000000000E+00 -0.15662963904E+03  0.15662963912E+03  0.50400001928E-02 0.  1.
    10030    2    1    2    0    0  0.00000000000E+00  0.00000000000E+00  0.24873357492E+03  0.56199285311E+03  0.50395195769E+03 0.  0.
        2    1    3    3  502    0  0.24301158225E+03  0.32293345315E+02  0.59395202302E+02  0.25224051880E+03  0.25500000920E-02 0.  1.
       -2    1    3    3    0  502 -0.24301158225E+03 -0.32293345315E+02  0.18933837262E+03  0.30975233432E+03  0.25500000920E-02 0. -1.
</event>
<event>
 5   0  0.7881060E-02  0.4991006E+03  0.7818609E-02  0.1014014E+00
        2   -1    0    0  501    0  0.00000000000E+00  0.00000000000E+00  0.49839106169E+03  0.49839106170E+03  0.25500000920E-02 0. -1.
       -2   -1    0    0    0  501  0.00000000000E+00  0.00000000000E+00 -0.12495278638E+03  0.12495278641E+03  0.25500000920E-02 0.  1.
    10030    2    1    2    0    0  0.00000000000E+00  0.00000000000E+00  0.37343827531E+03  0.62334384811E+03  0.49910059858E+03 0.  0.
        1    1    3    3  502    0 -0.86809556479E+02  0.21727585565E+03  0.29510084089E+03  0.37660218117E+03  0.50400001928E-02 0. -1.
       -1    1    3    3    0  502  0.86809556479E+02 -0.21727585565E+03  0.78337434422E+02  0.24674166693E+03  0.50400001928E-02 0.  1.
</event>
<event>
 5   0  0.5191358E-02  0.4962260E+03  0.7818609E-02  0.1014769E+00
        1   -1    0    0  501    0  0.00000000000E+00  0.00000000000E+00  0.25486030366E+03  0.25486030371E+03  0.50400001928E-02 0.  1.
       -1   -1    0    0    0  501  0.00000000000E+00  0.00000000000E+00 -0.24154433778E+03  0.24154433783E+03  0.50400001928E-02 0. -1.
    10030    2    1    2    0    0  0.00000000000E+00  0.00000000000E+00  0.13315965885E+02  0.49640464155E+03  0.49622601020E+03 0.  0.
        4    1    3    3  502    0  0.21197014662E+03  0.57585656816E+02 -0.10875685396E+03  0.24510633838E+03  0.12699999809E+01 0. -1.
       -4    1    3    3    0  502 -0.21197014662E+03 -0.57585656816E+02  0.12207281984E+03  0.25129830317E+03  0.12699999809E+01 0.  1.
</event>
<event>
 5   0  0.3210875E-02  0.5010710E+03  0.7818609E-02  0.1013500E+00
        3   -1    0    0  501    0  0.00000000000E+00  0.00000000000E+00  0.56322626991E+03  0.56322627897E+03  0.10100000352E+00 0.  1.
       -3   -1    0    0    0  501  0.00000000000E+00  0.00000000000E+00 -0.11144369030E+03  0.11144373607E+03  0.10100000352E+00 0. -1.
    10030    2    1    2    0    0  0.00000000000E+00  0.00000000000E+00  0.45178257961E+03  0.67467001504E+03  0.50107098295E+03 0.  0.
        4    1    3    3  502    0  0.21400113782E+03  0.12931555441E+03  0.24707048964E+03  0.35151733862E+03  0.12699999809E+01 0. -1.
       -4    1    3    3    0  502 -0.21400113782E+03 -0.12931555441E+03  0.20471208996E+03  0.32315267642E+03  0.12699999809E+01 0.  1.
</event>
<event>
 5   0  0.8208720E-02  0.4967341E+03  0.7818609E-02  0.1014635E+00
        2   -1    0    0  501    0  0.00000000000E+00  0.00000000000E+00  0.14209006972E+04  0.14209006972E+04  0.25500000920E-02 0.  1.
       -2   -1    0    0    0  501  0.00000000000E+00  0.00000000000E+00 -0.43413448047E+02  0.43413448122E+02  0.25500000920E-02 0. -1.
    10030    2    1    2    0    0  0.00000000000E+00  0.00000000000E+00  0.13774872491E+04  0.14643141453E+04  0.49673412870E+03 0.  0.
        3    1    3    3  502    0  0.22943544814E+03 -0.90138590434E+01  0.96784937644E+03  0.99471317484E+03  0.10100000352E+00 0.  1.
       -3    1    3    3    0  502 -0.22943544814E+03  0.90138590434E+01  0.40963787268E+03  0.46960097046E+03  0.10100000352E+00 0. -1.
</event>
<event>
 5   0  0.5191358E-02  0.4990948E+03  0.7818609E-02  0.1014015E+00
        1   -1    0    0  501    0  0.00000000000E+00  0.00000000000E+00  0.11293414905E+03  0.11293414917E+03  0.50400001928E-02 0. -1.
       -1   -1    0    0    0  501  0.00000000000E+00  0.00000000000E+00 -0.55141774749E+03  0.55141774752E+03  0.50400001928E-02 0.  1.
    10030    2    1    2    0    0  0.00000000000E+00  0.00000000000E+00 -0.43848359844E+03  0.66435189668E+03  0.49909475706E+03 0.  0.
        4    1    3    3  502    0 -0.20443361167E+03  0.14297724176E+03 -0.22730443638E+03  0.33749742657E+03  0.12699999809E+01 0. -1.
       -4    1    3    3    0  502  0.20443361167E+03 -0.14297724176E+03 -0.21117916206E+03  0.32685447011E+03  0.12699999809E+01 0.  1.
</event>
<event>
 5   0  0.8208720E-02  0.5203366E+03  0.7818609E-02  0.1008603E+00
       -2   -1    0    0    0  501  0.00000000000E+00  0.00000000000E+00  0.26466435949E+03  0.26466435950E+03  0.25500000920E-02 0. -1.
        2   -1    0    0  501    0  0.00000000000E+00  0.00000000000E+00 -0.25574862272E+03  0.25574862274E+03  0.25500000920E-02 0.  1.
    10030    2    1    2    0    0  0.00000000000E+00  0.00000000000E+00  0.89157367685E+01  0.52041298224E+03  0.52033660425E+03 0.  0.
        3    1    3    3  502    0  0.90791420302E+02  0.24310831652E+03 -0.14059699240E+02  0.25988924738E+03  0.10100000352E+00 0.  1.
       -3    1    3    3    0  502 -0.90791420302E+02 -0.24310831652E+03  0.22975436009E+02  0.26052373485E+03  0.10100000352E+00 0. -1.
</event>
<event>
 5   0  0.7776070E-02  0.4974645E+03  0.7818609E-02  0.1014443E+00
        2   -1    0    0  501    0  0.00000000000E+00  0.00000000000E+00  0.86613684210E+02  0.86613684248E+02  0.25500000920E-02 0. -1.
       -2   -1    0    0    0  501  0.00000000000E+00  0.00000000000E+00 -0.71429502885E+03  0.71429502886E+03  0.25500000920E-02 0.  1.
    10030    2    1    2    0    0  0.00000000000E+00  0.00000000000E+00 -0.62768134464E+03  0.80090871311E+03  0.49746446739E+03 0.  0.
        4    1    3    3  502    0 -0.43256426636E+02 -0.24027444827E+03 -0.23724914747E+03  0.34042870004E+03  0.12699999809E+01 0.  1.
       -4    1    3    3    0  502  0.43256426636E+02  0.24027444827E+03 -0.39043219717E+03  0.46048001306E+03  0.12699999809E+01 0. -1.
</event>
<event>
 5   0  0.7698747E-02  0.5029638E+03  0.7818609E-02  0.1013008E+00
        2   -1    0    0  501    0  0.00000000000E+00  0.00000000000E+00  0.56008523219E+03  0.56008523220E+03  0.25500000920E-02 0.  1.
       -2   -1    0    0    0  501  0.00000000000E+00  0.00000000000E+00 -0.11291701927E+03  0.11291701930E+03  0.25500000920E-02 0. -1.
    10030    2    1    2    0    0  0.00000000000E+00  0.00000000000E+00  0.44716821292E+03  0.67300225150E+03  0.50296383556E+03 0.  0.
        2    1    3    3  502    0 -0.69580108473E+01  0.79706323597E+02  0.54260055015E+03  0.54846774651E+03  0.25500000920E-02 0.  1.
       -2    1    3    3    0  502  0.69580108473E+01 -0.79706323597E+02 -0.95432337230E+02  0.12453450499E+03  0.25500000920E-02 0. -1.
</event>
<event>
 5   0  0.7698747E-02  0.5037440E+03  0.7818609E-02  0.1012806E+00
       -2   -1    0    0    0  501  0.00000000000E+00  0.00000000000E+00  0.92287815446E+02  0.92287815481E+02  0.25500000920E-02 0.  1.
        2   -1    0    0  501    0  0.00000000000E+00  0.00000000000E+00 -0.68740918932E+03  0.68740918932E+03  0.25500000920E-02 0. -1.
    10030    2    1    2    0    0  0.00000000000E+00  0.00000000000E+00 -0.59512137387E+03  0.77969700480E+03  0.50374395248E+03 0.  0.
        2    1    3    3  502    0 -0.22651972276E+03  0.10756833526E+03 -0.26101936500E+03  0.36195751196E+03  0.25500000920E-02 0. -1.
       -2    1    3    3    0  502  0.22651972276E+03 -0.10756833526E+03 -0.33410200887E+03  0.41773949285E+03  0.25500000920E-02 0.  1.
</event>
<event>
 5   0  0.4865501E-02  0.5010728E+03  0.7818609E-02  0.1013499E+00
       -1   -1    0    0    0  501  0.00000000000E+00  0.00000000000E+00  0.68640655204E+02  0.68640655389E+02  0.50400001928E-02 0.  1.
        1   -1    0    0  501    0  0.00000000000E+00  0.00000000000E+00 -0.91445061928E+03  0.91445061929E+03  0.50400001928E-02 0. -1.
    10030    2    1    2    0    0  0.00000000000E+00  0.00000000000E+00 -0.84580996408E+03  0.98309127468E+03  0.50107280811E+03 0.  0.
        2    1    3    3  502    0 -0.23442650090E+02 -0.96022816782E+01 -0.91193131694E+03  0.91228311860E+03  0.25500000920E-02 0. -1.
       -2    1    3    3    0  502  0.23442650090E+02  0.96022816782E+01  0.66121352865E+02  0.70808156083E+02  0.25500000920E-02 0.  1.
</event>
<event>
 5   0  0.7698747E-02  0.4997344E+03  0.7818609E-02  0.1013848E+00
        2   -1    0    0  501    0  0.00000000000E+00  0.00000000000E+00  0.55650957707E+03  0.55650957708E+03  0.25500000920E-02 0.  1.
       -2   -1    0    0    0  501  0.00000000000E+00  0.00000000000E+00 -0.11218786106E+03  0.11218786109E+03  0.25500000920E-02 0. -1.
    10030    2    1    2    0    0  0.00000000000E+00  0.00000000000E+00  0.44432171601E+03  0.66869743817E+03  0.49973440596E+03 0.  0.
        2    1    3    3  502    0  0.22062420155E+00 -0.17617801659E+03  0.45925444149E+03  0.49188757277E+03  0.25500000920E-02 0.  1.
       -2    1    3    3    0  502 -0.22062420155E+00  0.17617801659E+03 -0.14932725482E+02  0.17680986540E+03  0.25500000920E-02 0. -1.
</event>
<event>
 5   0  0.7933103E-02  0.4958478E+03  0.7818609E-02  0.1014868E+00
        2   -1    0    0  501    0  0.00000000000E+00  0.00000000000E+00  0.56703009158E+03  0.56703009159E+03  0.25500000920E-02 0.  1.
       -2   -1    0    0    0  501  0.00000000000E+00  0.00000000000E+00 -0.10840034033E+03  0.10840034036E+03  0.25500000920E-02 0. -1.
    10030    2    1    2    0    0  0.00000000000E+00  0.00000000000E+00  0.45862975125E+03  0.67543043195E+03  0.49584777872E+03 0.  0.
        5    1    3    3  502    0  0.22768384425E+03 -0.34152506420E+02  0.35444095911E+03  0.42267814010E+03  0.46999998093E+01 0.  1.
       -5    1    3    3    0  502 -0.22768384425E+03  0.34152506420E+02  0.10418879214E+03  0.25275229184E+03  0.46999998093E+01 0. -1.
</event>
<event>
 5   0  0.7933103E-02  0.5003146E+03  0.7818609E-02  0.1013697E+00
        2   -1    0    0  501    0  0.00000000000E+00  0.00000000000E+00  0.76679157521E+03  0.76679157522E+03  0.25500000920E-02 0.  1.
       -2   -1    0    0    0  501  0.00000000000E+00  0.00000000000E+00 -0.81611053970E+02  0.81611054010E+02  0.25500000920E-02 0. -1.
    10030    2    1    2    0    0  0.00000000000E+00  0.00000000000E+00  0.68518052124E+03  0.84840262923E+03  0.50031457563E+03 0.  0.
        5    1    3    3  502    0 -0.38353920200E+02 -0.17020646884E+03  0.64647922755E+03  0.66962582603E+03  0.46999998093E+01 0.  1.
       -5    1    3    3    0  502  0.38353920200E+02  0.17020646884E+03  0.38701293688E+02  0.17877680320E+03  0.46999998093E+01 0. -1.
</event>
<event>
 5   0  0.8208720E-02  0.4981523E+03  0.7818609E-02  0.1014262E+00
       -2   -1    0    0    0  501  0.00000000000E+00  0.00000000000E+00  0.21041921358E+03  0.21041921360E+03  0.25500000920E-02 0. -1.
        2   -1    0    0  501    0  0.00000000000E+00  0.00000000000E+00 -0.29483489356E+03  0.29483489357E+03  0.25500000920E-02 0.  1.
    10030    2    1    2    0    0  0.00000000000E+00  0.00000000000E+00 -0.84415679976E+02  0.50525410717E+03  0.49815229176E+03 0.  0.
        3    1    3    3  502    0  0.20962285542E+03 -0.11439621830E+03  0.29587466292E+02  0.24063180305E+03  0.10100000352E+00 0. -1.
       -3    1    3    3    0  502 -0.20962285542E+03  0.11439621830E+03 -0.11400314627E+03  0.26462230412E+03  0.10100000352E+00 0.  1.
</event>
<event>
 5   0  0.4803890E-02  0.5030856E+03  0.7818609E-02  0.1012977E+00
        1   -1    0    0  501    0  0.00000000000E+00  0.00000000000E+00  0.43900505149E+03  0.43900505152E+03  0.50400001928E-02 0. -1.
       -1   -1    0    0    0  501  0.00000000000E+00  0.00000000000E+00 -0.14412998499E+03  0.14412998508E+03  0.50400001928E-02 0.  1.
    10030    2    1    2    0    0  0.00000000000E+00  0.00000000000E+00  0.29487506651E+03  0.58313503660E+03  0.50308564486E+03 0.  0.
        5    1    3    3  502    0  0.21985375296E+03  0.24505915530E+02  0.87522737563E+01  0.22143826426E+03  0.46999998093E+01 0.  1.
       -5    1    3    3    0  502 -0.21985375296E+03 -0.24505915530E+02  0.28612279275E+03  0.36169677233E+03  0.46999998093E+01 0. -1.
</event>
<event>
 5   0  0.3210875E-02  0.4997873E+03  0.7818609E-02  0.1013834E+00
       -3   -1    0    0    0  501  0.00000000000E+00  0.00000000000E+00  0.13125789436E+03  0.13125793322E+03  0.10100000352E+00 0.  1.
        3   -1    0    0  501    0  0.00000000000E+00  0.00000000000E+00 -0.47575666026E+03  0.47575667098E+03  0.10100000352E+00 0. -1.
    10030    2    1    2    0    0  0.00000000000E+00  0.00000000000E+00 -0.34449876590E+03  0.60701460419E+03  0.49978728475E+03 0.  0.
        5    1    3    3  502    0 -0.18241701635E+03 -0.12051747548E+03 -0.31912566486E+03  0.38686394213E+03  0.46999998093E+01 0. -1.
       -5    1    3    3    0  502  0.18241701635E+03  0.12051747548E+03 -0.25373101042E+02  0.22015066206E+03  0.46999998093E+01 0.  1.
</event>
<event>
 5   0  0.5038436E-02  0.4842189E+03  0.7818609E-02  0.1017982E+00
       -1   -1    0    0    0  501  0.00000000000E+00  0.00000000000E+00  0.23359277301E+03  0.23359277307E+03  0.50400001928E-02 0. -1.
        1   -1    0    0  501    0  0.00000000000E+00  0.00000000000E+00 -0.25093669014E+03  0.25093669019E+03  0.50400001928E-02 0.  1.
    10030    2    1    2    0    0  0.00000000000E+00  0.00000000000E+00 -0.17343917128E+02  0.48452946326E+03  0.48421894769E+03 0.  0.
        1    1    3    3  502    0  0.98924598586E+02  0.76974701793E+02  0.19859806468E+03  0.23484542201E+03  0.50400001928E-02 0. -1.
       -1    1    3    3    0  502 -0.98924598586E+02 -0.76974701793E+02 -0.21594198180E+03  0.24968404124E+03  0.50400001928E-02 0.  1.
</event>
<event>
 5   0  0.8208720E-02  0.4995204E+03  0.7818609E-02  0.1013904E+00
       -2   -1    0    0    0  501  0.00000000000E+00  0.00000000000E+00  0.10632860315E+03  0.10632860318E+03  0.25500000920E-02 0.  1.
        2   -1    0    0  501    0  0.00000000000E+00  0.00000000000E+00 -0.58667327180E+03  0.58667327180E+03  0.25500000920E-02 0. -1.
    10030    2    1    2    0    0  0.00000000000E+00  0.00000000000E+00 -0.48034466865E+03  0.69300187498E+03  0.49952036798E+03 0.  0.
        3    1    3    3  502    0  0.10493948701E+03 -0.22425887572E+03 -0.19466860562E+03  0.31496065705E+03  0.10100000352E+00 0.  1.
       -3    1    3    3    0  502 -0.10493948701E+03  0.22425887572E+03 -0.28567606302E+03  0.37804121793E+03  0.10100000352E+00 0. -1.
</event>
<event>
 5   0  0.3210875E-02  0.4960902E+03  0.7818609E-02  0.1014804E+00
        4   -1    0    0  501    0  0.00000000000E+00  0.00000000000E+00  0.89363573638E+02  0.89372597552E+02  0.12699999809E+01 0. -1.
       -4   -1    0    0    0  501  0.00000000000E+00  0.00000000000E+00 -0.68845056413E+03  0.68845173552E+03  0.12699999809E+01 0.  1.
    10030    2    1    2    0    0  0.00000000000E+00  0.00000000000E+00 -0.59908699049E+03  0.77782433308E+03  0.49609018429E+03 0.  0.
        4    1    3    3  502    0  0.19478233112E+03 -0.38394244197E+01 -0.54025639590E+03  0.57431131271E+03  0.12699999809E+01 0.  1.
       -4    1    3    3    0  502 -0.19478233112E+03  0.38394244197E+01 -0.58830594588E+02  0.20351302036E+03  0.12699999809E+01 0. -1.
</event>
<event>
 5   0  0.7776070E-02  0.5012006E+03  0.7818609E-02  0.1013466E+00
        2   -1    0    0  501    0  0.00000000000E+00  0.00000000000E+00  0.21853184232E+04  0.21853184232E+04  0.25500000920E-02 0. -1.
       -2   -1    0    0    0  501  0.00000000000E+00  0.00000000000E+00 -0.28737462104E+02  0.28737462217E+02  0.25500000920E-02 0.  1.
    10030    2    1    2    0    0  0.00000000000E+00  0.00000000000E+00  0.21565809611E+04  0.22140558854E+04  0.50120058060E+03 0.  0.
        4    1    3    3  502    0  0.14906674398E+03 -0.16101486124E+03  0.54356777755E+03  0.58618616615E+03  0.12699999809E+01 0.  1.
       -4    1    3    3    0  502 -0.14906674398E+03  0.16101486124E+03  0.16130131835E+04  0.16278697192E+04  0.12699999809E+01 0. -1.
</event>
<event>
 5   0  0.3210875E-02  0.5019910E+03  0.7818609E-02  0.1013261E+00
        3   -1    0    0  501    0  0.00000000000E+00  0.00000000000E+00  0.16371000759E+03  0.16371003875E+03  0.10100000352E+00 0. -1.
       -3   -1    0    0    0  501  0.00000000000E+00  0.00000000000E+00 -0.38481904826E+03  0.38481906152E+03  0.10100000352E+00 0.  1.
    10030    2    1    2    0    0  0.00000000000E+00  0.00000000000E+00 -0.22110904067E+03  0.54852910027E+03  0.50199100189E+03 0.  0.
        2    1    3    3  502    0 -0.17929235421E+03 -0.44072084248E+02 -0.29634892356E+03  0.34915724450E+03  0.25500000920E-02 0.  1.
       -2    1    3    3    0  502  0.17929235421E+03  0.44072084248E+02  0.75239882886E+02  0.19937185577E+03  0.25500000920E-02 0. -1.
</event>
<event>
 5   0  0.5191358E-02  0.4991257E+03  0.7818609E-02  0.1014007E+00
       -1   -1    0    0    0  501  0.00000000000E+00  0.00000000000E+00  0.64608225899E+02  0.64608226096E+02  0.50400001928E-02 0.  1.
        1   -1    0    0  501    0  0.00000000000E+00  0.00000000000E+00 -0.96398914127E+03  0.96398914128E+03  0.50400001928E-02 0. -1.
    10030    2    1    2    0    0  0.00000000000E+00  0.00000000000E+00 -0.89938091537E+03  0.10285973674E+04  0.49912574893E+03 0.  0.
        4    1    3    3  502    0 -0.76844589780E+02  0.84915710677E+02 -0.90663145725E+03  0.91383695541E+03  0.12699999809E+01 0. -1.
       -4    1    3    3    0  502  0.76844589780E+02 -0.84915710677E+02  0.72505418781E+01  0.11476041197E+03  0.12699999809E+01 0.  1.
</event>
<event>
 5   0  0.7776070E-02  0.4999094E+03  0.7818609E-02  0.1013803E+00
        2   -1    0    0  501    0  0.00000000000E+00  0.00000000000E+00  0.33483216755E+03  0.33483216756E+03  0.25500000920E-02 0.  1.
       -2   -1    0    0    0  501  0.00000000000E+00  0.00000000000E+00 -0.18659301453E+03  0.18659301454E+03  0.25500000920E-02 0. -1.
    10030    2    1    2    0    0  0.00000000000E+00  0.00000000000E+00  0.14823915302E+03  0.52142518210E+03  0.49990936583E+03 0.  0.
        4    1    3    3  502    0 -0.15000603889E+03  0.17793311183E+03  0.16922353590E+03  0.28775027713E+03  0.12699999809E+01 0.  1.
       -4    1    3    3    0  502  0.15000603889E+03 -0.17793311183E+03 -0.20984382881E+02  0.23367490497E+03  0.12699999809E+01 0. -1.
</event>
<event>
 5   0  0.7881060E-02  0.4925315E+03  0.7818609E-02  0.1015747E+00
       -2   -1    0    0    0  501  0.00000000000E+00  0.00000000000E+00  0.50004163451E+02  0.50004163516E+02  0.25500000920E-02 0.  1.
        2   -1    0    0  501    0  0.00000000000E+00  0.00000000000E+00 -0.12128351539E+04  0.12128351539E+04  0.25500000920E-02 0. -1.
    10030    2    1    2    0    0  0.00000000000E+00  0.00000000000E+00 -0.11628309904E+04  0.12628393174E+04  0.49253145003E+03 0.  0.
        1    1    3    3  502    0 -0.67150083884E+02  0.22719646040E+03 -0.75378345132E+03  0.79013723928E+03  0.50400001928E-02 0. -1.
       -1    1    3    3    0  502  0.67150083884E+02 -0.22719646040E+03 -0.40904753910E+03  0.47270207811E+03  0.50400001928E-02 0.  1.
</event>
<event>
 5   0  0.7698747E-02  0.4922137E+03  0.7818609E-02  0.1015831E+00
       -2   -1    0    0    0  501  0.00000000000E+00  0.00000000000E+00  0.11496907451E+03  0.11496907454E+03  0.25500000920E-02 0. -1.
        2   -1    0    0  501    0  0.00000000000E+00  0.00000000000E+00 -0.52682496168E+03  0.52682496168E+03  0.25500000920E-02 0.  1.
    10030    2    1    2    0    0  0.00000000000E+00  0.00000000000E+00 -0.41185588717E+03  0.64179403622E+03  0.49221368646E+03 0.  0.
        2    1    3    3  502    0 -0.18489824440E+03  0.15705769196E+03 -0.25991130564E+03  0.35553954237E+03  0.25500000920E-02 0. -1.
       -2    1    3    3    0  502  0.18489824440E+03 -0.15705769196E+03 -0.15194458153E+03  0.28625449385E+03  0.25500000920E-02 0.  1.
</event>
<event>
 5   0  0.4884478E-02  0.4814688E+03  0.7818609E-02  0.1018732E+00
       -1   -1    0    0    0  501  0.00000000000E+00  0.00000000000E+00  0.13871525209E+03  0.13871525218E+03  0.50400001928E-02 0. -1.
        1   -1    0    0  501    0  0.00000000000E+00  0.00000000000E+00 -0.41778429538E+03  0.41778429541E+03  0.50400001928E-02 0.  1.
    10030    2    1    2    0    0  0.00000000000E+00  0.00000000000E+00 -0.27906904329E+03  0.55649954759E+03  0.48146881056E+03 0.  0.
        3    1    3    3  502    0 -0.36327270990E+02 -0.13578509757E+03 -0.36542834198E+03  0.39152924114E+03  0.10100000352E+00 0.  1.
       -3    1    3    3    0  502  0.36327270990E+02  0.13578509757E+03  0.86359298689E+02  0.16497030645E+03  0.10100000352E+00 0. -1.
</event>
<event>
 5   0  0.3210875E-02  0.4951536E+03  0.7818609E-02  0.1015052E+00
       -3   -1    0    0    0  501  0.00000000000E+00  0.00000000000E+00  0.44159130128E+03  0.44159131283E+03  0.10100000352E+00 0. -1.
        3   -1    0    0  501    0  0.00000000000E+00  0.00000000000E+00 -0.13880314994E+03  0.13880318669E+03  0.10100000352E+00 0.  1.
    10030    2    1    2    0    0  0.00000000000E+00  0.00000000000E+00  0.30278815134E+03  0.58039449952E+03  0.49515362311E+03 0.  0.
        2    1    3    3  502    0 -0.19908955584E+03 -0.18967806668E+02  0.32245515001E+03  0.37943873380E+03  0.25500000920E-02 0.  1.
       -2    1    3    3    0  502  0.19908955584E+03  0.18967806668E+02 -0.19666998669E+02  0.20095576572E+03  0.25500000920E-02 0. -1.
</event>
<event>
 5   0  0.5191358E-02  0.4993339E+03  0.7818609E-02  0.1013953E+00
        1   -1    0    0  501    0  0.00000000000E+00  0.00000000000E+00  0.11129689270E+04  0.11129689270E+04  0.50400001928E-02 0.  1.
       -1   -1    0    0    0  501  0.00000000000E+00  0.00000000000E+00 -0.56006587398E+02  0.56006587624E+02  0.50400001928E-02 0. -1.
    10030    2    1    2    0    0  0.00000000000E+00  0.00000000000E+00  0.10569623396E+04  0.11689755147E+04  0.49933392283E+03 0.  0.
        4    1    3    3  502    0  0.11282257988E+02  0.98937468824E+02  0.10644586679E+04  0.10691070015E+04  0.12699999809E+01 0.  1.
       -4    1    3    3    0  502 -0.11282257988E+02 -0.98937468824E+02 -0.74963282796E+01  0.99868513157E+02  0.12699999809E+01 0. -1.
</event>
<event>
 5   0  0.4865501E-02  0.5005179E+03  0.7818609E-02  0.1013644E+00
       -1   -1    0    0    0  501  0.00000000000E+00  0.00000000000E+00  0.40954020074E+03  0.40954020077E+03  0.50400001928E-02 0. -1.
        1   -1    0    0  501    0  0.00000000000E+00  0.00000000000E+00 -0.15292649910E+03  0.15292649919E+03  0.50400001928E-02 0.  1.
    10030    2    1    2    0    0  0.00000000000E+00  0.00000000000E+00  0.25661370163E+03  0.56246669996E+03  0.50051792844E+03 0.  0.
        2    1    3    3  502    0 -0.87706021670E+02  0.18099419540E+03  0.29566287308E+03  0.35758604493E+03  0.25500000920E-02 0. -1.
       -2    1    3    3    0  502  0.87706021670E+02 -0.18099419540E+03 -0.39049171444E+02  0.20488065502E+03  0.25500000920E-02 0.  1.
</event>
<event>
 5   0  0.7698747E-02  0.4950201E+03  0.7818609E-02  0.1015087E+00
        2   -1    0    0  501    0  0.00000000000E+00  0.00000000000E+00  0.79539817416E+03  0.79539817417E+03  0.25500000920E-02 0.  1.
       -2   -1    0    0    0  501  0.00000000000E+00  0.00000000000E+00 -0.77019564244E+02  0.77019564286E+02  0.25500000920E-02 0. -1.
    10030    2    1    2    0    0  0.00000000000E+00  0.00000000000E+00  0.71837860992E+03  0.87241773845E+03  0.49502008361E+03 0.  0.
        2    1    3    3  502    0  0.18426728804E+03  0.32324569428E+02  0.64479365559E+03  0.67138526163E+03  0.25500000920E-02 0.  1.
       -2    1    3    3    0  502 -0.18426728804E+03 -0.32324569428E+02  0.73584954324E+02  0.20103247682E+03  0.25500000920E-02 0. -1.
</event>
<event>
 5   0  0.7933103E-02  0.4932112E+03  0.7818609E-02  0.1015566E+00
        2   -1    0    0  501    0  0.00000000000E+00  0.00000000000E+00  0.45823915648E+03  0.45823915649E+03  0.25500000920E-02 0.  1.
       -2   -1    0    0    0  501  0.00000000000E+00  0.00000000000E+00 -0.13271306472E+03  0.13271306475E+03  0.25500000920E-02 0. -1.
    10030    2    1    2    0    0  0.00000000000E+00  0.00000000000E+00  0.32552609176E+03  0.59095222124E+03  0.49321120361E+03 0.  0.
        5    1    3    3  502    0  0.59922312415E+02 -0.95589056001E+02 -0.99919165796E+02  0.15077758734E+03  0.46999998093E+01 0. -1.
       -5    1    3    3    0  502 -0.59922312415E+02  0.95589056001E+02  0.42544525756E+03  0.44017463390E+03  0.46999998093E+01 0.  1.
</event>
<event>
 5   0  0.5038436E-02  0.4995231E+03  0.7818609E-02  0.1013903E+00
        1   -1    0    0  501    0  0.00000000000E+00  0.00000000000E+00  0.22855837226E+03  0.22855837232E+03  0.50400001928E-02 0.  1.
       -1   -1    0    0    0  501  0.00000000000E+00  0.00000000000E+00 -0.27293169153E+03  0.27293169157E+03  0.50400001928E-02 0. -1.
    10030    2    1    2    0    0  0.00000000000E+00  0.00000000000E+00 -0.44373319265E+02  0.50149006389E+03  0.49952306525E+03 0.  0.
        1    1    3    3  502    0 -0.57393918333E+02  0.60778563837E+02  0.21409671300E+03  0.22983798256E+03  0.50400001928E-02 0.  1.
       -1    1    3    3    0  502  0.57393918333E+02 -0.60778563837E+02 -0.25847003227E+03  0.27165208133E+03  0.50400001928E-02 0. -1.
</event>
<event>
 5   0  0.7881060E-02  0.5013818E+03  0.7818609E-02  0.1013419E+00
       -2   -1    0    0    0  501  0.00000000000E+00  0.00000000000E+00  0.34550288325E+03  0.34550288325E+03  0.25500000920E-02 0. -1.
        2   -1    0    0  501    0  0.00000000000E+00  0.00000000000E+00 -0.18189698325E+03  0.18189698327E+03  0.25500000920E-02 0.  1.
    10030    2    1    2    0    0  0.00000000000E+00  0.00000000000E+00  0.16360590000E+03  0.52739986652E+03  0.50138181927E+03 0.  0.
        1    1    3    3  502    0 -0.56136509741E+02  0.63163866286E+02  0.33006956890E+03  0.34071528006E+03  0.50400001928E-02 0. -1.
       -1    1    3    3    0  502  0.56136509741E+02 -0.63163866286E+02 -0.16646366890E+03  0.18668458646E+03  0.50400001928E-02 0.  1.
</event>
<event>
 5   0  0.5191358E-02  0.4811309E+03  0.7818609E-02  0.1018825E+00
        1   -1    0    0  501    0  0.00000000000E+00  0.00000000000E+00  0.21516447095E+03  0.21516447101E+03  0.50400001928E-02 0. -1.
       -1   -1    0    0    0  501  0.00000000000E+00  0.00000000000E+00 -0.26896506021E+03  0.26896506026E+03  0.50400001928E-02 0.  1.
    10030    2    1    2    0    0  0.00000000000E+00  0.00000000000E+00 -0.53800589267E+02  0.48412953127E+03  0.48113085501E+03 0.  0.
        4    1    3    3  502    0 -0.29322073426E+02 -0.20860245932E+03  0.89993192045E+02  0.22907456764E+03  0.12699999809E+01 0. -1.
       -4    1    3    3    0  502  0.29322073426E+02  0.20860245932E+03 -0.14379378131E+03  0.25505496362E+03  0.12699999809E+01 0.  1.
</event>
<event>
 5   0  0.7933103E-02  0.5037562E+03  0.7818609E-02  0.1012803E+00
       -2   -1    0    0    0  501  0.00000000000E+00  0.00000000000E+00  0.25314003314E+03  0.25314003315E+03  0.25500000920E-02 0.  1.
        2   -1    0    0  501    0  0.00000000000E+00  0.00000000000E+00 -0.25062250060E+03  0.25062250061E+03  0.25500000920E-02 0. -1.
    10030    2    1    2    0    0  0.00000000000E+00  0.00000000000E+00  0.25175325372E+01  0.50376253376E+03  0.50375624309E+03 0.  0.
        5    1    3    3  502    0  0.19751015430E+03 -0.14120994729E+03  0.68117568889E+02  0.25221539100E+03  0.46999998093E+01 0.  1.
       -5    1    3    3    0  502 -0.19751015430E+03  0.14120994729E+03 -0.65600036352E+02  0.25154714277E+03  0.46999998093E+01 0. -1.
</event>
<event>
 5   0  0.7776070E-02  0.4991934E+03  0.7818609E-02  0.1013990E+00
       -2   -1    0    0    0  501  0.00000000000E+00  0.00000000000E+00  0.41852240762E+02  0.41852240840E+02  0.25500000920E-02 0.  1.
        2   -1    0    0  501    0  0.00000000000E+00  0.00000000000E+00 -0.14885349384E+04  0.14885349384E+04  0.25500000920E-02 0. -1.
    10030    2    1    2    0    0  0.00000000000E+00  0.00000000000E+00 -0.14466826977E+04  0.15303871793E+04  0.49919344021E+03 0.  0.
        4    1    3    3  502    0 -0.11491023644E+03 -0.36837674389E+02 -0.13931539868E+04  0.13983708451E+04  0.12699999809E+01 0. -1.
       -4    1    3    3    0  502  0.11491023644E+03  0.36837674389E+02 -0.53528710874E+02  0.13201633414E+03  0.12699999809E+01 0.  1.
</event>
<event>
 5   0  0.7933103E-02  0.4998479E+03  0.7818609E-02  0.1013819E+00
       -2   -1    0    0    0  501  0.00000000000E+00  0.00000000000E+00  0.15048100754E+03  0.15048100756E+03  0.25500000920E-02 0.  1.
        2   -1    0    0  501    0  0.00000000000E+00  0.00000000000E+00 -0.41508220528E+03  0.41508220529E+03  0.25500000920E-02 0. -1.
    10030    2    1    2    0    0  0.00000000000E+00  0.00000000000E+00 -0.26460119773E+03  0.56556321285E+03  0.49984793076E+03 0.  0.
        5    1    3    3  502    0  0.19843657199E+03 -0.14904719720E+03 -0.99356373583E+02  0.26736850799E+03  0.46999998093E+01 0.  1.
       -5    1    3    3    0  502 -0.19843657199E+03  0.14904719720E+03 -0.16524482415E+03  0.29819470486E+03  0.46999998093E+01 0. -1.
</event>
<event>
 5   0  0.7933103E-02  0.4971719E+03  0.7818609E-02  0.1014520E+00
       -2   -1    0    0    0  501  0.00000000000E+00  0.00000000000E+00  0.13120113726E+03  0.13120113729E+03  0.25500000920E-02 0. -1.
        2   -1    0    0  501    0  0.00000000000E+00  0.00000000000E+00 -0.47099426123E+03  0.47099426124E+03  0.25500000920E-02 0.  1.
    10030    2    1    2    0    0  0.00000000000E+00  0.00000000000E+00 -0.33979312397E+03  0.60219539853E+03  0.49717193294E+03 0.  0.
        5    1    3    3  502    0  0.10048892824E+03 -0.22727331952E+03 -0.16425338911E+03  0.29791349802E+03  0.46999998093E+01 0.  1.
       -5    1    3    3    0  502 -0.10048892824E+03  0.22727331952E+03 -0.17553973486E+03  0.30428190051E+03  0.46999998093E+01 0. -1.
</event>
<event>
 5   0  0.3210875E-02  0.5015653E+03  0.7818609E-02  0.1013371E+00
        4   -1    0    0  501    0  0.00000000000E+00  0.00000000000E+00  0.10143242643E+03  0.10144037673E+03  0.12699999809E+01 0. -1.
       -4   -1    0    0    0  501  0.00000000000E+00  0.00000000000E+00 -0.62000493204E+03  0.62000623276E+03  0.12699999809E+01 0.  1.
    10030    2    1    2    0    0  0.00000000000E+00  0.00000000000E+00 -0.51857250561E+03  0.72144660948E+03  0.50156531654E+03 0.  0.
        2    1    3    3  502    0  0.21195442639E+03 -0.13033594139E+03 -0.30431051134E+03  0.39308653475E+03  0.25500000920E-02 0.  1.
       -2    1    3    3    0  502 -0.21195442639E+03  0.13033594139E+03 -0.21426199428E+03  0.32836007473E+03  0.25500000920E-02 0. -1.
</event>
<event>
 5   0  0.7881060E-02  0.5005266E+03  0.7818609E-02  0.1013642E+00
        2   -1    0    0  501    0  0.00000000000E+00  0.00000000000E+00  0.23377543862E+03  0.23377543864E+03  0.25500000920E-02 0. -1.
       -2   -1    0    0    0  501  0.00000000000E+00  0.00000000000E+00 -0.26791402281E+03  0.26791402282E+03  0.25500000920E-02 0.  1.
    10030    2    1    2    0    0  0.00000000000E+00  0.00000000000E+00 -0.34138584185E+02  0.50168946145E+03  0.50052659550E+03 0.  0.
        1    1    3    3  502    0  0.52556060365E+01  0.40125014478E+02  0.23047428485E+03  0.23400007305E+03  0.50400001928E-02 0. -1.
       -1    1    3    3    0  502 -0.52556060365E+01 -0.40125014478E+02 -0.26461286904E+03  0.26768938841E+03  0.50400001928E-02 0.  1.
</event>
<event>
 5   0  0.4865501E-02  0.4986994E+03  0.7818609E-02  0.1014119E+00
       -1   -1    0    0    0  501  0.00000000000E+00  0.00000000000E+00  0.52429436010E+02  0.52429436252E+02  0.50400001928E-02 0.  1.
        1   -1    0    0  501    0  0.00000000000E+00  0.00000000000E+00 -0.11858847271E+04  0.11858847271E+04  0.50400001928E-02 0. -1.
    10030    2    1    2    0    0  0.00000000000E+00  0.00000000000E+00 -0.11334552911E+04  0.12383141634E+04  0.49869937868E+03 0.  0.
        2    1    3    3  502    0 -0.19836508529E+03 -0.18040003287E+02 -0.93920002156E+03  0.96008896946E+03  0.25500000920E-02 0. -1.
       -2    1    3    3    0  502  0.19836508529E+03  0.18040003287E+02 -0.19425526956E+03  0.27822519393E+03  0.25500000920E-02 0.  1.
</event>
<event>
 5   0  0.7776070E-02  0.4988003E+03  0.7818609E-02  0.1014093E+00
        2   -1    0    0  501    0  0.00000000000E+00  0.00000000000E+00  0.21349957970E+03  0.21349957971E+03  0.25500000920E-02 0.  1.
       -2   -1    0    0    0  501  0.00000000000E+00  0.00000000000E+00 -0.29133745880E+03  0.29133745882E+03  0.25500000920E-02 0. -1.
    10030    2    1    2    0    0  0.00000000000E+00  0.00000000000E+00 -0.77837879107E+02  0.50483703853E+03  0.49880026067E+03 0.  0.
        4    1    3    3  502    0 -0.16246182217E+02  0.22902112253E+03 -0.13748442611E+03  0.26761575687E+03  0.12699999809E+01 0. -1.
       -4    1    3    3    0  502  0.16246182217E+02 -0.22902112253E+03  0.59646547003E+02  0.23722128166E+03  0.12699999809E+01 0.  1.
</event>
<event>
 5   0  0.4884478E-02  0.4978591E+03  0.7818609E-02  0.1014339E+00
       -1   -1    0    0    0  501  0.00000000000E+00  0.00000000000E+00  0.81362064912E+02  0.81362065068E+02  0.50400001928E-02 0. -1.
        1   -1    0    0  501    0  0.00000000000E+00  0.00000000000E+00 -0.76160710060E+03  0.76160710062E+03  0.50400001928E-02 0.  1.
    10030    2    1    2    0    0  0.00000000000E+00  0.00000000000E+00 -0.68024503569E+03  0.84296916569E+03  0.49785912236E+03 0.  0.
        3    1    3    3  502    0 -0.69190721243E+02 -0.38885106208E+02  0.59364078675E+02  0.99113628876E+02  0.10100000352E+00 0. -1.
       -3    1    3    3    0  502  0.69190721243E+02  0.38885106208E+02 -0.73960911436E+03  0.74385553681E+03  0.10100000352E+00 0.  1.
</event>
<event>
 5   0  0.8208720E-02  0.4863419E+03  0.7818609E-02  0.1017407E+00
       -2   -1    0    0    0  501  0.00000000000E+00  0.00000000000E+00  0.56452952482E+02  0.56452952540E+02  0.25500000920E-02 0.  1.
        2   -1    0    0  501    0  0.00000000000E+00  0.00000000000E+00 -0.10474581233E+04  0.10474581233E+04  0.25500000920E-02 0. -1.
    10030    2    1    2    0    0  0.00000000000E+00  0.00000000000E+00 -0.99100517078E+03  0.11039110758E+04  0.48634187026E+03 0.  0.
        3    1    3    3  502    0 -0.26978889878E+02 -0.49391005431E+02  0.41467088649E+02  0.69906090997E+02  0.10100000352E+00 0.  1.
       -3    1    3    3    0  502  0.26978889878E+02  0.49391005431E+02 -0.10324722594E+04  0.10340049848E+04  0.10100000352E+00 0. -1.
</event>
<event>
 5   0  0.5191358E-02  0.4999405E+03  0.7818609E-02  0.1013794E+00
       -1   -1    0    0    0  501  0.00000000000E+00  0.00000000000E+00  0.65917323372E+02  0.65917323565E+02  0.50400001928E-02 0.  1.
        1   -1    0    0  501    0  0.00000000000E+00  0.00000000000E+00 -0.94793185018E+03  0.94793185020E+03  0.50400001928E-02 0. -1.
    10030    2    1    2    0    0  0.00000000000E+00  0.00000000000E+00 -0.88201452681E+03  0.10138491738E+04  0.49994051809E+03 0.  0.
        4    1    3    3  502    0  0.65679793212E+00 -0.16268743676E+03 -0.82586662520E+03  0.84173922861E+03  0.12699999809E+01 0. -1.
       -4    1    3    3    0  502 -0.65679793212E+00  0.16268743676E+03 -0.56147901611E+02  0.17210994515E+03  0.12699999809E+01 0.  1.
</event>
<event>
 5   0  0.7881060E-02  0.4987851E+03  0.7818609E-02  0.1014097E+00
        2   -1    0    0  501    0  0.00000000000E+00  0.00000000000E+00  0.17418613766E+03  0.17418613767E+03  0.25500000920E-02 0. -1.
       -2   -1    0    0    0  501  0.00000000000E+00  0.00000000000E+00 -0.35706999935E+03  0.35706999936E+03  0.25500000920E-02 0.  1.
    10030    2    1    2    0    0  0.00000000000E+00  0.00000000000E+00 -0.18288386169E+03  0.53125613703E+03  0.49878510028E+03 0.  0.
        1    1    3    3  502    0 -0.21682618809E+03  0.12320812883E+03 -0.89658025377E+02  0.26501396263E+03  0.50400001928E-02 0. -1.
       -1    1    3    3    0  502  0.21682618809E+03 -0.12320812883E+03 -0.93225836315E+02  0.26624217440E+03  0.50400001928E-02 0.  1.
</event>
<event>
 5   0  0.4803890E-02  0.4993211E+03  0.7818609E-02  0.1013956E+00
       -1   -1    0    0    0  501  0.00000000000E+00  0.00000000000E+00  0.49969185480E+02  0.49969185734E+02  0.50400001928E-02 0.  1.
        1   -1    0    0  501    0  0.00000000000E+00  0.00000000000E+00 -0.12473767864E+04  0.12473767864E+04  0.50400001928E-02 0. -1.
    10030    2    1    2    0    0  0.00000000000E+00  0.00000000000E+00 -0.11974076009E+04  0.12973459721E+04  0.49932114785E+03 0.  0.
        5    1    3    3  502    0  0.10586498536E+03  0.50469333022E+02 -0.11712193633E+04  0.11770859934E+04  0.46999998093E+01 0. -1.
       -5    1    3    3    0  502 -0.10586498536E+03 -0.50469333022E+02 -0.26188237528E+02  0.12025997873E+03  0.46999998093E+01 0.  1.
</event>
<event>
 5   0  0.5191358E-02  0.5049232E+03  0.7818609E-02  0.1012502E+00
        1   -1    0    0  501    0  0.00000000000E+00  0.00000000000E+00  0.10115820698E+03  0.10115820711E+03  0.50400001928E-02 0.  1.
       -1   -1    0    0    0  501  0.00000000000E+00  0.00000000000E+00 -0.63007097092E+03  0.63007097094E+03  0.50400001928E-02 0. -1.
    10030    2    1    2    0    0  0.00000000000E+00  0.00000000000E+00 -0.52891276394E+03  0.73122917805E+03  0.50492316145E+03 0.  0.
        4    1    3    3  502    0 -0.15462620929E+03  0.27914506065E+02 -0.55062412625E+03  0.57260547112E+03  0.12699999809E+01 0. -1.
       -4    1    3    3    0  502  0.15462620929E+03 -0.27914506065E+02  0.21711362303E+02  0.15862370694E+03  0.12699999809E+01 0.  1.
</event>
<event>
 5   0  0.8208720E-02  0.5049165E+03  0.7818609E-02  0.1012504E+00
        2   -1    0    0  501    0  0.00000000000E+00  0.00000000000E+00  0.90025827490E+03  0.90025827490E+03  0.25500000920E-02 0.  1.
       -2   -1    0    0    0  501  0.00000000000E+00  0.00000000000E+00 -0.70796527791E+02  0.70796527837E+02  0.25500000920E-02 0. -1.
    10030    2    1    2    0    0  0.00000000000E+00  0.00000000000E+00  0.82946174710E+03  0.97105480274E+03  0.50491646835E+03 0.  0.
        3    1    3    3  502    0 -0.11158892403E+03  0.20351289733E+03  0.60575363977E+03  0.64869643875E+03  0.10100000352E+00 0.  1.
       -3    1    3    3    0  502  0.11158892403E+03 -0.20351289733E+03  0.22370810733E+03  0.32235836399E+03  0.10100000352E+00 0. -1.
</event>
<event>
 5   0  0.4803890E-02  0.4888273E+03  0.7818609E-02  0.1016737E+00
       -1   -1    0    0    0  501  0.00000000000E+00  0.00000000000E+00  0.46624810562E+03  0.46624810565E+03  0.50400001928E-02 0. -1.
        1   -1    0    0  501    0  0.00000000000E+00  0.00000000000E+00 -0.12812498129E+03  0.12812498139E+03  0.50400001928E-02 0.  1.
    10030    2    1    2    0    0  0.00000000000E+00  0.00000000000E+00  0.33812312433E+03  0.59437308704E+03  0.48882728994E+03 0.  0.
        5    1    3    3  502    0 -0.33819713309E+02 -0.14900283740E+03 -0.62825896962E+02  0.16527190290E+03  0.46999998093E+01 0.  1.
       -5    1    3    3    0  502  0.33819713309E+02  0.14900283740E+03  0.40094902129E+03  0.42910118414E+03  0.46999998093E+01 0. -1.
</event>
<event>
 5   0  0.4884478E-02  0.4991229E+03  0.7818609E-02  0.1014008E+00
       -1   -1    0    0    0  501  0.00000000000E+00  0.00000000000E+00  0.42581125667E+03  0.42581125670E+03  0.50400001928E-02 0. -1.
        1   -1    0    0  501    0  0.00000000000E+00  0.00000000000E+00 -0.14626412494E+03  0.14626412503E+03  0.50400001928E-02 0.  1.
    10030    2    1    2    0    0  0.00000000000E+00  0.00000000000E+00  0.27954713173E+03  0.57207538173E+03  0.49912287418E+03 0.  0.
        3    1    3    3  502    0 -0.10641850393E+03  0.13968492001E+03  0.34301654318E+03  0.38535325865E+03  0.10100000352E+00 0. -1.
       -3    1    3    3    0  502  0.10641850393E+03 -0.13968492001E+03 -0.63469411452E+02  0.18672212308E+03  0.10100000352E+00 0.  1.
</event>
<event>
 5   0  0.4865501E-02  0.4990895E+03  0.7818609E-02  0.1014017E+00
        1   -1    0    0  501    0  0.00000000000E+00  0.00000000000E+00  0.23690390044E+04  0.23690390044E+04  0.50400001928E-02 0. -1.
       -1   -1    0    0    0  501  0.00000000000E+00  0.00000000000E+00 -0.26286006261E+02  0.26286006745E+02  0.50400001928E-02 0.  1.
    10030    2    1    2    0    0  0.00000000000E+00  0.00000000000E+00  0.23427529981E+04  0.23953250111E+04  0.49908946969E+03 0.  0.
        2    1    3    3  502    0  0.21202672889E+03  0.31396719606E+01  0.53998061073E+03  0.58012434122E+03  0.25500000920E-02 0.  1.
       -2    1    3    3    0  502 -0.21202672889E+03 -0.31396719606E+01  0.18027723874E+04  0.18152006699E+04  0.25500000920E-02 0. -1.
</event>
<event>
 5   0  0.7698747E-02  0.4902298E+03  0.7818609E-02  0.1016361E+00
       -2   -1    0    0    0  501  0.00000000000E+00  0.00000000000E+00  0.89391856348E+02  0.89391856384E+02  0.25500000920E-02 0.  1.
        2   -1    0    0  501    0  0.00000000000E+00  0.00000000000E+00 -0.67211177679E+03  0.67211177679E+03  0.25500000920E-02 0. -1.
    10030    2    1    2    0    0  0.00000000000E+00  0.00000000000E+00 -0.58271992044E+03  0.76150363318E+03  0.49022982127E+03 0.  0.
        2    1    3    3  502    0 -0.77211134818E+02 -0.16916273053E+03 -0.53942988219E+03  0.57058056972E+03  0.25500000920E-02 0. -1.
       -2    1    3    3    0  502  0.77211134818E+02  0.16916273053E+03 -0.43290038248E+02  0.19092306345E+03  0.25500000920E-02 0.  1.
</event>
<event>
 5   0  0.4865501E-02  0.4991980E+03  0.7818609E-02  0.1013988E+00
        1   -1    0    0  501    0  0.00000000000E+00  0.00000000000E+00  0.12818340228E+03  0.12818340238E+03  0.50400001928E-02 0.  1.
       -1   -1    0    0    0  501  0.00000000000E+00  0.00000000000E+00 -0.48601967726E+03  0.48601967729E+03  0.50400001928E-02 0. -1.
    10030    2    1    2    0    0  0.00000000000E+00  0.00000000000E+00 -0.35783627498E+03  0.61420307967E+03  0.49919798015E+03 0.  0.
        2    1    3    3  502    0  0.15710542641E+02  0.15335242489E+03  0.62612232014E+02  0.16638533281E+03  0.25500000920E-02 0.  1.
       -2    1    3    3    0  502 -0.15710542641E+02 -0.15335242489E+03 -0.42044850699E+03  0.44781774687E+03  0.25500000920E-02 0. -1.
</event>
<event>
 5   0  0.4865501E-02  0.4980761E+03  0.7818609E-02  0.1014282E+00
        1   -1    0    0  501    0  0.00000000000E+00  0.00000000000E+00  0.36977775554E+03  0.36977775558E+03  0.50400001928E-02 0.  1.
       -1   -1    0    0    0  501  0.00000000000E+00  0.00000000000E+00 -0.16772221178E+03  0.16772221185E+03  0.50400001928E-02 0. -1.
    10030    2    1    2    0    0  0.00000000000E+00  0.00000000000E+00  0.20205554376E+03  0.53749996743E+03  0.49807607072E+03 0.  0.
        2    1    3    3  502    0 -0.59931116699E+02 -0.75266738687E+02  0.34891149412E+03  0.36193376664E+03  0.25500000920E-02 0.  1.
       -2    1    3    3    0  502  0.59931116699E+02  0.75266738687E+02 -0.14685595035E+03  0.17556620079E+03  0.25500000920E-02 0. -1.
</event>
<event>
 5   0  0.4884478E-02  0.4969752E+03  0.7818609E-02  0.1014571E+00
        1   -1    0    0  501    0  0.00000000000E+00  0.00000000000E+00  0.71595023922E+03  0.71595023924E+03  0.50400001928E-02 0.  1.
       -1   -1    0    0    0  501  0.00000000000E+00  0.00000000000E+00 -0.86243547796E+02  0.86243547944E+02  0.50400001928E-02 0. -1.
    10030    2    1    2    0    0  0.00000000000E+00  0.00000000000E+00  0.62970669143E+03  0.80219378718E+03  0.49697520559E+03 0.  0.
        3    1    3    3  502    0  0.68731543007E+02 -0.76933181673E+01 -0.70394740195E+02  0.98684557033E+02  0.10100000352E+00 0. -1.
       -3    1    3    3    0  502 -0.68731543007E+02  0.76933181673E+01  0.70010143162E+03  0.70350923015E+03  0.10100000352E+00 0.  1.
</event>
<event>
 5   0  0.7881060E-02  0.4993184E+03  0.7818609E-02  0.1013957E+00
       -2   -1    0    0    0  501  0.00000000000E+00  0.00000000000E+00  0.22027318491E+03  0.22027318492E+03  0.25500000920E-02 0.  1.
        2   -1    0    0  501    0  0.00000000000E+00  0.00000000000E+00 -0.28296547001E+03  0.28296547002E+03  0.25500000920E-02 0. -1.
    10030    2    1    2    0    0  0.00000000000E+00  0.00000000000E+00 -0.62692285105E+02  0.50323865494E+03  0.49931835658E+03 0.  0.
        1    1    3    3  502    0 -0.75754418190E+02 -0.94707640251E+02 -0.25128284299E+03  0.27901852305E+03  0.50400001928E-02 0. -1.
       -1    1    3    3    0  502  0.75754418190E+02  0.94707640251E+02  0.18859055789E+03  0.22422013189E+03  0.50400001928E-02 0.  1.
</event>
<event>
 5   0  0.3210875E-02  0.4998282E+03  0.7818609E-02  0.1013824E+00
       -3   -1    0    0    0  501  0.00000000000E+00  0.00000000000E+00  0.61763923804E+03  0.61763924629E+03  0.10100000352E+00 0. -1.
        3   -1    0    0  501    0  0.00000000000E+00  0.00000000000E+00 -0.10112220702E+03  0.10112225746E+03  0.10100000352E+00 0.  1.
    10030    2    1    2    0    0  0.00000000000E+00  0.00000000000E+00  0.51651703101E+03  0.71876150376E+03  0.49982822645E+03 0.  0.
        1    1    3    3  502    0  0.24127763139E+03 -0.63849248411E+02  0.27675490496E+03  0.37267264372E+03  0.50400001928E-02 0.  1.
       -1    1    3    3    0  502 -0.24127763139E+03  0.63849248411E+02  0.23976212605E+03  0.34608886004E+03  0.50400001928E-02 0. -1.
</event>
<event>
 5   0  0.7776070E-02  0.4993368E+03  0.7818609E-02  0.1013952E+00
        2   -1    0    0  501    0  0.00000000000E+00  0.00000000000E+00  0.28018364293E+03  0.28018364294E+03  0.25500000920E-02 0.  1.
       -2   -1    0    0    0  501  0.00000000000E+00  0.00000000000E+00 -0.22247666153E+03  0.22247666155E+03  0.25500000920E-02 0. -1.
    10030    2    1    2    0    0  0.00000000000E+00  0.00000000000E+00  0.57706981398E+02  0.50266030449E+03  0.49933684623E+03 0.  0.
        4    1    3    3  502    0 -0.13635204125E+03  0.10574831758E+03 -0.15278615842E+03  0.23047735014E+03  0.12699999809E+01 0. -1.
       -4    1    3    3    0  502  0.13635204125E+03 -0.10574831758E+03  0.21049313982E+03  0.27218295434E+03  0.12699999809E+01 0.  1.
</event>
<event>
 5   0  0.5038436E-02  0.4996175E+03  0.7818609E-02  0.1013879E+00
       -1   -1    0    0    0  501  0.00000000000E+00  0.00000000000E+00  0.41844539912E+03  0.41844539915E+03  0.50400001928E-02 0. -1.
        1   -1    0    0  501    0  0.00000000000E+00  0.00000000000E+00 -0.14913394505E+03  0.14913394513E+03  0.50400001928E-02 0.  1.
    10030    2    1    2    0    0  0.00000000000E+00  0.00000000000E+00  0.26931145408E+03  0.56757934428E+03  0.49961750646E+03 0.  0.
        1    1    3    3  502    0 -0.94815052260E+02 -0.23111054255E+03  0.13288259469E+03  0.28294833629E+03  0.50400001928E-02 0. -1.
       -1    1    3    3    0  502  0.94815052260E+02  0.23111054255E+03  0.13642885939E+03  0.28463100799E+03  0.50400001928E-02 0.  1.
</event>
<event>
 5   0  0.7881060E-02  0.5017246E+03  0.7818609E-02  0.1013330E+00
        2   -1    0    0  501    0  0.00000000000E+00  0.00000000000E+00  0.29672820965E+03  0.29672820966E+03  0.25500000920E-02 0. -1.
       -2   -1    0    0    0  501  0.00000000000E+00  0.00000000000E+00 -0.21208597468E+03  0.21208597469E+03  0.25500000920E-02 0.  1.
    10030    2    1    2    0    0  0.00000000000E+00  0.00000000000E+00  0.84642234970E+02  0.50881418435E+03  0.50172459204E+03 0.  0.
        1    1    3    3  502    0 -0.12053552731E+03 -0.12714390098E+02  0.26506401964E+03  0.29146080971E+03  0.50400001928E-02 0. -1.
       -1    1    3    3    0  502  0.12053552731E+03  0.12714390098E+02 -0.18042178467E+03  0.21735337465E+03  0.50400001928E-02 0.  1.
</event>
<event>
 5   0  0.3210875E-02  0.5065687E+03  0.7818609E-02  0.1012078E+00
        3   -1    0    0  501    0  0.00000000000E+00  0.00000000000E+00  0.25681974195E+03  0.25681976181E+03  0.10100000352E+00 0. -1.
       -3   -1    0    0    0  501  0.00000000000E+00  0.00000000000E+00 -0.24979757633E+03  0.24979759675E+03  0.10100000352E+00 0.  1.
    10030    2    1    2    0    0  0.00000000000E+00  0.00000000000E+00  0.70221656170E+01  0.50661735857E+03  0.50656868951E+03 0.  0.
        3    1    3    3  502    0  0.54357174850E+02 -0.11683036329E+03  0.22158916493E+03  0.25633143479E+03  0.10100000352E+00 0. -1.
       -3    1    3    3    0  502 -0.54357174850E+02  0.11683036329E+03 -0.21456699932E+03  0.25028592378E+03  0.10100000352E+00 0.  1.
</event>
<event>
 5   0  0.7776070E-02  0.4991230E+03  0.7818609E-02  0.1014008E+00
       -2   -1    0    0    0  501  0.00000000000E+00  0.00000000000E+00  0.38463846309E+02  0.38463846393E+02  0.25500000920E-02 0.  1.
        2   -1    0    0  501    0  0.00000000000E+00  0.00000000000E+00 -0.16192071326E+04  0.16192071326E+04  0.25500000920E-02 0. -1.
    10030    2    1    2    0    0  0.00000000000E+00  0.00000000000E+00 -0.15807432863E+04  0.16576709790E+04  0.49912296826E+03 0.  0.
        4    1    3    3  502    0 -0.82502998665E+02 -0.51376674449E+02 -0.26986906348E+02  0.10087721983E+03  0.12699999809E+01 0.  1.
       -4    1    3    3    0  502  0.82502998665E+02  0.51376674449E+02 -0.15537563799E+04  0.15567937592E+04  0.12699999809E+01 0. -1.
</event>
<event>
 5   0  0.7933103E-02  0.4981056E+03  0.7818609E-02  0.1014275E+00
        2   -1    0    0  501    0  0.00000000000E+00  0.00000000000E+00  0.69913266294E+03  0.69913266294E+03  0.25500000920E-02 0.  1.
       -2   -1    0    0    0  501  0.00000000000E+00  0.00000000000E+00 -0.88720370638E+02  0.88720370675E+02  0.25500000920E-02 0. -1.
    10030    2    1    2    0    0  0.00000000000E+00  0.00000000000E+00  0.61041229230E+03  0.78785303362E+03  0.49810564742E+03 0.  0.
        5    1    3    3  502    0  0.16311392801E+03 -0.19273654850E+02  0.60123148394E+03  0.62328084726E+03  0.46999998093E+01 0.  1.
       -5    1    3    3    0  502 -0.16311392801E+03  0.19273654850E+02  0.91808083559E+01  0.16457218635E+03  0.46999998093E+01 0. -1.
</event>
<event>
 5   0  0.7881060E-02  0.5031816E+03  0.7818609E-02  0.1012952E+00
        2   -1    0    0  501    0  0.00000000000E+00  0.00000000000E+00  0.20175639137E+04  0.20175639137E+04  0.25500000920E-02 0. -1.
       -2   -1    0    0    0  501  0.00000000000E+00  0.00000000000E+00 -0.31373439094E+02  0.31373439198E+02  0.25500000920E-02 0.  1.
    10030    2    1    2    0    0  0.00000000000E+00  0.00000000000E+00  0.19861904747E+04  0.20489373529E+04  0.50318155242E+03 0.  0.
        1    1    3    3  502    0  0.17550740309E+03  0.61052525507E+02  0.30244807451E+03  0.35497196679E+03  0.50400001928E-02 0.  1.
       -1    1    3    3    0  502 -0.17550740309E+03 -0.61052525507E+02  0.16837424001E+04  0.16939653861E+04  0.50400001928E-02 0. -1.
</event>
<event>
 5   0  0.7933103E-02  0.4989574E+03  0.7818609E-02  0.1014051E+00
        2   -1    0    0  501    0  0.00000000000E+00  0.00000000000E+00  0.13271964008E+04  0.13271964008E+04  0.25500000920E-02 0.  1.
       -2   -1    0    0    0  501  0.00000000000E+00  0.00000000000E+00 -0.46895568091E+02  0.46895568160E+02  0.25500000920E-02 0. -1.
    10030    2    1    2    0    0  0.00000000000E+00  0.00000000000E+00  0.12803008327E+04  0.13740919690E+04  0.49895742998E+03 0.  0.
        5    1    3    3  502    0  0.18854117533E+03  0.11268501542E+03  0.31462920611E+03  0.38374381406E+03  0.46999998093E+01 0.  1.
       -5    1    3    3    0  502 -0.18854117533E+03 -0.11268501542E+03  0.96567162663E+03  0.99034815493E+03  0.46999998093E+01 0. -1.
</event>
<event>
 5   0  0.7881060E-02  0.5012325E+03  0.7818609E-02  0.1013458E+00
       -2   -1    0    0    0  501  0.00000000000E+00  0.00000000000E+00  0.15964624768E+03  0.15964624770E+03  0.25500000920E-02 0. -1.
        2   -1    0    0  501    0  0.00000000000E+00  0.00000000000E+00 -0.39342296031E+03  0.39342296031E+03  0.25500000920E-02 0.  1.
    10030    2    1    2    0    0  0.00000000000E+00  0.00000000000E+00 -0.23377671263E+03  0.55306920801E+03  0.50123247848E+03 0.  0.
        1    1    3    3  502    0 -0.23873211143E+03 -0.69828673127E+02 -0.83068358083E+02  0.26223923574E+03  0.50400001928E-02 0. -1.
       -1    1    3    3    0  502  0.23873211143E+03  0.69828673127E+02 -0.15070835454E+03  0.29082997228E+03  0.50400001928E-02 0.  1.
</event>
<event>
 5   0  0.5191358E-02  0.4929561E+03  0.7818609E-02  0.1015634E+00
        1   -1    0    0  501    0  0.00000000000E+00  0.00000000000E+00  0.57686341198E+03  0.57686341201E+03  0.50400001928E-02 0. -1.
       -1   -1    0    0    0  501  0.00000000000E+00  0.00000000000E+00 -0.10531338522E+03  0.10531338534E+03  0.50400001928E-02 0.  1.
    10030    2    1    2    0    0  0.00000000000E+00  0.00000000000E+00  0.47155002677E+03  0.68217679734E+03  0.49295613911E+03 0.  0.
        4    1    3    3  502    0 -0.15325304492E+03 -0.18853298492E+03  0.29314458255E+03  0.38074471941E+03  0.12699999809E+01 0. -1.
       -4    1    3    3    0  502  0.15325304492E+03  0.18853298492E+03  0.17840544422E+03  0.30143207793E+03  0.12699999809E+01 0.  1.
</event>
<event>
 5   0  0.4884478E-02  0.4957675E+03  0.7818609E-02  0.1014890E+00
        1   -1    0    0  501    0  0.00000000000E+00  0.00000000000E+00  0.89800427272E+03  0.89800427273E+03  0.50400001928E-02 0.  1.
       -1   -1    0    0    0  501  0.00000000000E+00  0.00000000000E+00 -0.68425447318E+02  0.68425447504E+02  0.50400001928E-02 0. -1.
    10030    2    1    2    0    0  0.00000000000E+00  0.00000000000E+00  0.82957882540E+03  0.96642972024E+03  0.49576746223E+03 0.  0.
        3    1    3    3  502    0  0.17546153816E+03 -0.13552555468E+03  0.63091725397E+03  0.66873800468E+03  0.10100000352E+00 0.  1.
       -3    1    3    3    0  502 -0.17546153816E+03  0.13552555468E+03  0.19866157143E+03  0.29769171556E+03  0.10100000352E+00 0. -1.
</event>
<event>
 5   0  0.7881060E-02  0.4676187E+03  0.7818609E-02  0.1022594E+00
        2   -1    0    0  501    0  0.00000000000E+00  0.00000000000E+00  0.67730664228E+03  0.67730664228E+03  0.25500000920E-02 0. -1.
       -2   -1    0    0    0  501  0.00000000000E+00  0.00000000000E+00 -0.80712048211E+02  0.80712048251E+02  0.25500000920E-02 0.  1.
    10030    2    1    2    0    0  0.00000000000E+00  0.00000000000E+00  0.59659459407E+03  0.75801869054E+03  0.46761867534E+03 0.  0.
        1    1    3    3  502    0  0.48295030019E+02  0.22298634886E+03  0.21545887723E+03  0.31381180587E+03  0.50400001928E-02 0.  1.
       -1    1    3    3    0  502 -0.48295030019E+02 -0.22298634886E+03  0.38113571684E+03  0.44420688466E+03  0.50400001928E-02 0. -1.
</event>
<event>
 5   0  0.4865501E-02  0.4890755E+03  0.7818609E-02  0.1016670E+00
       -1   -1    0    0    0  501  0.00000000000E+00  0.00000000000E+00  0.29699311255E+03  0.29699311259E+03  0.50400001928E-02 0. -1.
        1   -1    0    0  501    0  0.00000000000E+00  0.00000000000E+00 -0.20134715460E+03  0.20134715466E+03  0.50400001928E-02 0.  1.
    10030    2    1    2    0    0  0.00000000000E+00  0.00000000000E+00  0.95645957944E+02  0.49834026725E+03  0.48907552862E+03 0.  0.
        2    1    3    3  502    0 -0.97423421494E+02 -0.20098319562E+03  0.14927387585E+03  0.26864150460E+03  0.25500000920E-02 0. -1.
       -2    1    3    3    0  502  0.97423421494E+02  0.20098319562E+03 -0.53627917901E+02  0.22969876265E+03  0.25500000920E-02 0.  1.
</event>
<event>
 5   0  0.7698747E-02  0.4977722E+03  0.7818609E-02  0.1014362E+00
       -2   -1    0    0    0  501  0.00000000000E+00  0.00000000000E+00  0.59964727252E+02  0.59964727306E+02  0.25500000920E-02 0. -1.
        2   -1    0    0  501    0  0.00000000000E+00  0.00000000000E+00 -0.10330123026E+04  0.10330123026E+04  0.25500000920E-02 0.  1.
    10030    2    1    2    0    0  0.00000000000E+00  0.00000000000E+00 -0.97304757539E+03  0.10929770300E+04  0.49777224112E+03 0.  0.
        2    1    3    3  502    0 -0.27587930011E+02 -0.16167811603E+03 -0.75484398885E+02  0.18055138207E+03  0.25500000920E-02 0. -1.
       -2    1    3    3    0  502  0.27587930011E+02  0.16167811603E+03 -0.89756317651E+03  0.91242564788E+03  0.25500000920E-02 0.  1.
</event>
<event>
 5   0  0.5191358E-02  0.5321448E+03  0.7818609E-02  0.1005713E+00
       -1   -1    0    0    0  501  0.00000000000E+00  0.00000000000E+00  0.16019466838E+03  0.16019466846E+03  0.50400001928E-02 0. -1.
        1   -1    0    0  501    0  0.00000000000E+00  0.00000000000E+00 -0.44192801424E+03  0.44192801427E+03  0.50400001928E-02 0.  1.
    10030    2    1    2    0    0  0.00000000000E+00  0.00000000000E+00 -0.28173334586E+03  0.60212268273E+03  0.53214476122E+03 0.  0.
        4    1    3    3  502    0 -0.22811386892E+03 -0.13543287340E+03 -0.16391429337E+03  0.31184532843E+03  0.12699999809E+01 0.  1.
       -4    1    3    3    0  502  0.22811386892E+03  0.13543287340E+03 -0.11781905249E+03  0.29027735430E+03  0.12699999809E+01 0. -1.
</event>
<event>
 5   0  0.7933103E-02  0.4972199E+03  0.7818609E-02  0.1014507E+00
        2   -1    0    0  501    0  0.00000000000E+00  0.00000000000E+00  0.69251068152E+03  0.69251068153E+03  0.25500000920E-02 0. -1.
       -2   -1    0    0    0  501  0.00000000000E+00  0.00000000000E+00 -0.89250490405E+02  0.89250490442E+02  0.25500000920E-02 0.  1.
    10030    2    1    2    0    0  0.00000000000E+00  0.00000000000E+00  0.60326019112E+03  0.78176117197E+03  0.49721994310E+03 0.  0.
        5    1    3    3  502    0  0.18298496308E+03  0.16765655438E+03  0.27980952431E+03  0.37404234631E+03  0.46999998093E+01 0.  1.
       -5    1    3    3    0  502 -0.18298496308E+03 -0.16765655438E+03  0.32345066681E+03  0.40771882566E+03  0.46999998093E+01 0. -1.
</event>
<event>
 5   0  0.5191358E-02  0.4928901E+03  0.7818609E-02  0.1015652E+00
       -1   -1    0    0    0  501  0.00000000000E+00  0.00000000000E+00  0.83243050127E+02  0.83243050280E+02  0.50400001928E-02 0. -1.
        1   -1    0    0  501    0  0.00000000000E+00  0.00000000000E+00 -0.72961251386E+03  0.72961251388E+03  0.50400001928E-02 0.  1.
    10030    2    1    2    0    0  0.00000000000E+00  0.00000000000E+00 -0.64636946374E+03  0.81285556416E+03  0.49289013435E+03 0.  0.
        4    1    3    3  502    0 -0.26154926021E+02  0.17797293680E+03 -0.45384855257E+02  0.18552585905E+03  0.12699999809E+01 0. -1.
       -4    1    3    3    0  502  0.26154926021E+02 -0.17797293680E+03 -0.60098460848E+03  0.62732970511E+03  0.12699999809E+01 0.  1.
</event>
<event>
 5   0  0.7881060E-02  0.4914662E+03  0.7818609E-02  0.1016031E+00
       -2   -1    0    0    0  501  0.00000000000E+00  0.00000000000E+00  0.66567926075E+02  0.66567926124E+02  0.25500000920E-02 0. -1.
        2   -1    0    0  501    0  0.00000000000E+00  0.00000000000E+00 -0.90711492450E+03  0.90711492450E+03  0.25500000920E-02 0.  1.
    10030    2    1    2    0    0  0.00000000000E+00  0.00000000000E+00 -0.84054699842E+03  0.97368285062E+03  0.49146621150E+03 0.  0.
        1    1    3    3  502    0  0.17140739459E+03  0.11786087495E+03 -0.16110159089E+03  0.26310720890E+03  0.50400001928E-02 0. -1.
       -1    1    3    3    0  502 -0.17140739459E+03 -0.11786087495E+03 -0.67944540753E+03  0.71057564172E+03  0.50400001928E-02 0.  1.
</event>
<event>
 5   0  0.4865501E-02  0.5010669E+03  0.7818609E-02  0.1013501E+00
       -1   -1    0    0    0  501  0.00000000000E+00  0.00000000000E+00  0.40615868941E+03  0.40615868944E+03  0.50400001928E-02 0. -1.
        1   -1    0    0  501    0  0.00000000000E+00  0.00000000000E+00 -0.15453814842E+03  0.15453814850E+03  0.50400001928E-02 0.  1.
    10030    2    1    2    0    0  0.00000000000E+00  0.00000000000E+00  0.25162054099E+03  0.56069683795E+03  0.50106690914E+03 0.  0.
        2    1    3    3  502    0 -0.64094280196E+02 -0.21566827573E+03  0.24913533346E+03  0.33569226428E+03  0.25500000920E-02 0.  1.
       -2    1    3    3    0  502  0.64094280196E+02  0.21566827573E+03  0.24852075286E+01  0.22500457367E+03  0.25500000920E-02 0. -1.
</event>
<event>
 5   0  0.3210875E-02  0.5002553E+03  0.7818609E-02  0.1013712E+00
        4   -1    0    0  501    0  0.00000000000E+00  0.00000000000E+00  0.42747260352E+03  0.42747449007E+03  0.12699999809E+01 0.  1.
       -4   -1    0    0    0  501  0.00000000000E+00  0.00000000000E+00 -0.14635256575E+03  0.14635807597E+03  0.12699999809E+01 0. -1.
    10030    2    1    2    0    0  0.00000000000E+00  0.00000000000E+00  0.28112003777E+03  0.57383256603E+03  0.50025527304E+03 0.  0.
        3    1    3    3  502    0 -0.90076840233E+02 -0.21532154633E+03  0.24371186489E+03  0.33745027596E+03  0.10100000352E+00 0.  1.
       -3    1    3    3    0  502  0.90076840233E+02  0.21532154633E+03  0.37408172880E+02  0.23638229007E+03  0.10100000352E+00 0. -1.
</event>
<event>
 5   0  0.4884478E-02  0.4943006E+03  0.7818609E-02  0.1015277E+00
        1   -1    0    0  501    0  0.00000000000E+00  0.00000000000E+00  0.48924201046E+03  0.48924201049E+03  0.50400001928E-02 0. -1.
       -1   -1    0    0    0  501  0.00000000000E+00  0.00000000000E+00 -0.12485288291E+03  0.12485288301E+03  0.50400001928E-02 0.  1.
    10030    2    1    2    0    0  0.00000000000E+00  0.00000000000E+00  0.36438912755E+03  0.61409489350E+03  0.49430061900E+03 0.  0.
        3    1    3    3  502    0  0.16185102732E+03 -0.10701747898E+02  0.41386216657E+03  0.44451342564E+03  0.10100000352E+00 0. -1.
       -3    1    3    3    0  502 -0.16185102732E+03  0.10701747898E+02 -0.49473039017E+02  0.16958146786E+03  0.10100000352E+00 0.  1.
</event>
<event>
 5   0  0.4803890E-02  0.4994451E+03  0.7818609E-02  0.1013924E+00
       -1   -1    0    0    0  501  0.00000000000E+00  0.00000000000E+00  0.36888722335E+02  0.36888722680E+02  0.50400001928E-02 0. -1.
        1   -1    0    0  501    0  0.00000000000E+00  0.00000000000E+00 -0.16905262638E+04  0.16905262638E+04  0.50400001928E-02 0.  1.
    10030    2    1    2    0    0  0.00000000000E+00  0.00000000000E+00 -0.16536375415E+04  0.17274149865E+04  0.49944510910E+03 0.  0.
        5    1    3    3  502    0  0.17516656345E+03 -0.17776750903E+03 -0.85238767334E+03  0.88818435467E+03  0.46999998093E+01 0. -1.
       -5    1    3    3    0  502 -0.17516656345E+03  0.17776750903E+03 -0.80124986812E+03  0.83923063182E+03  0.46999998093E+01 0.  1.
</event>
<event>
 5   0  0.5191358E-02  0.4923500E+03  0.7818609E-02  0.1015795E+00
       -1   -1    0    0    0  501  0.00000000000E+00  0.00000000000E+00  0.11662775666E+03  0.11662775677E+03  0.50400001928E-02 0. -1.
        1   -1    0    0  501    0  0.00000000000E+00  0.00000000000E+00 -0.51962015151E+03  0.51962015154E+03  0.50400001928E-02 0.  1.
    10030    2    1    2    0    0  0.00000000000E+00  0.00000000000E+00 -0.40299239485E+03  0.63624790831E+03  0.49235000815E+03 0.  0.
        4    1    3    3  502    0  0.97717642127E+02  0.72742375027E+02 -0.47793371693E+03  0.49321642449E+03  0.12699999809E+01 0.  1.
       -4    1    3    3    0  502 -0.97717642127E+02 -0.72742375027E+02  0.74941322084E+02  0.14303148382E+03  0.12699999809E+01 0. -1.
</event>
<event>
 5   0  0.7776070E-02  0.5014759E+03  0.7818609E-02  0.1013394E+00
       -2   -1    0    0    0  501  0.00000000000E+00  0.00000000000E+00  0.30397708441E+03  0.30397708442E+03  0.25500000920E-02 0.  1.
        2   -1    0    0  501    0  0.00000000000E+00  0.00000000000E+00 -0.20682323725E+03  0.20682323726E+03  0.25500000920E-02 0. -1.
    10030    2    1    2    0    0  0.00000000000E+00  0.00000000000E+00  0.97153847157E+02  0.51080032168E+03  0.50147592027E+03 0.  0.
        4    1    3    3  502    0 -0.54658939052E+02 -0.36322543779E+02  0.29507030602E+03  0.30228302169E+03  0.12699999809E+01 0.  1.
       -4    1    3    3    0  502  0.54658939052E+02  0.36322543779E+02 -0.19791645887E+03  0.20851729999E+03  0.12699999809E+01 0. -1.
</event>
<event>
 5   0  0.7881060E-02  0.4954444E+03  0.7818609E-02  0.1014975E+00
        2   -1    0    0  501    0  0.00000000000E+00  0.00000000000E+00  0.86227897903E+02  0.86227897941E+02  0.25500000920E-02 0. -1.
       -2   -1    0    0    0  501  0.00000000000E+00  0.00000000000E+00 -0.71167552242E+03  0.71167552243E+03  0.25500000920E-02 0.  1.
    10030    2    1    2    0    0  0.00000000000E+00  0.00000000000E+00 -0.62544762452E+03  0.79790342037E+03  0.49544438358E+03 0.  0.
        1    1    3    3  502    0 -0.20883956024E+03  0.55592413423E+02 -0.50773034052E+03  0.55181027270E+03  0.50400001928E-02 0.  1.
       -1    1    3    3    0  502  0.20883956024E+03 -0.55592413423E+02 -0.11771728400E+03  0.24609314767E+03  0.50400001928E-02 0. -1.
</event>
<event>
 5   0  0.7933103E-02  0.5019003E+03  0.7818609E-02  0.1013284E+00
        2   -1    0    0  501    0  0.00000000000E+00  0.00000000000E+00  0.84725699685E+02  0.84725699724E+02  0.25500000920E-02 0.  1.
       -2   -1    0    0    0  501  0.00000000000E+00  0.00000000000E+00 -0.74329263830E+03  0.74329263830E+03  0.25500000920E-02 0. -1.
    10030    2    1    2    0    0  0.00000000000E+00  0.00000000000E+00 -0.65856693861E+03  0.82801833802E+03  0.50190034417E+03 0.  0.
        5    1    3    3  502    0 -0.44033574883E+01 -0.15018716232E+03  0.22265162278E+01  0.15034167970E+03  0.46999998093E+01 0.  1.
       -5    1    3    3    0  502  0.44033574883E+01  0.15018716232E+03 -0.66079345484E+03  0.67767665832E+03  0.46999998093E+01 0. -1.
</event>
<event>
 5   0  0.7698747E-02  0.4990034E+03  0.7818609E-02  0.1014039E+00
        2   -1    0    0  501    0  0.00000000000E+00  0.00000000000E+00  0.39105341702E+03  0.39105341703E+03  0.25500000920E-02 0. -1.
       -2   -1    0    0    0  501  0.00000000000E+00  0.00000000000E+00 -0.15918821276E+03  0.15918821278E+03  0.25500000920E-02 0.  1.
    10030    2    1    2    0    0  0.00000000000E+00  0.00000000000E+00  0.23186520427E+03  0.55024162981E+03  0.49900338498E+03 0.  0.
        2    1    3    3  502    0 -0.11295878871E+03 -0.17642943203E+02 -0.12860452365E+03  0.17207581149E+03  0.25500000920E-02 0.  1.
       -2    1    3    3    0  502  0.11295878871E+03  0.17642943203E+02  0.36046972792E+03  0.37816581832E+03  0.25500000920E-02 0. -1.
</event>
<event>
 5   0  0.3210875E-02  0.5009565E+03  0.7818609E-02  0.1013530E+00
        4   -1    0    0  501    0  0.00000000000E+00  0.00000000000E+00  0.11655882078E+03  0.11656573940E+03  0.12699999809E+01 0. -1.
       -4   -1    0    0    0  501  0.00000000000E+00  0.00000000000E+00 -0.53823982945E+03  0.53824132776E+03  0.12699999809E+01 0.  1.
    10030    2    1    2    0    0  0.00000000000E+00  0.00000000000E+00 -0.42168100867E+03  0.65480706715E+03  0.50095650721E+03 0.  0.
        3    1    3    3  502    0 -0.81434792464E+01  0.16559452314E+03 -0.45625602871E+03  0.48544560589E+03  0.10100000352E+00 0.  1.
       -3    1    3    3    0  502  0.81434792464E+01 -0.16559452314E+03  0.34575020036E+02  0.16936146126E+03  0.10100000352E+00 0. -1.
</event>
<event>
 5   0  0.5038436E-02  0.4992027E+03  0.7818609E-02  0.1013987E+00
       -1   -1    0    0    0  501  0.00000000000E+00  0.00000000000E+00  0.75530465542E+02  0.75530465711E+02  0.50400001928E-02 0. -1.
        1   -1    0    0  501    0  0.00000000000E+00  0.00000000000E+00 -0.82484384665E+03  0.82484384666E+03  0.50400001928E-02 0.  1.
    10030    2    1    2    0    0  0.00000000000E+00  0.00000000000E+00 -0.74931338110E+03  0.90037431237E+03  0.49920272363E+03 0.  0.
        1    1    3    3  502    0  0.13635419113E+02  0.30111970764E+02  0.71565227289E+02  0.78830433337E+02  0.50400001928E-02 0. -1.
       -1    1    3    3    0  502 -0.13635419113E+02 -0.30111970764E+02 -0.82087860839E+03  0.82154387904E+03  0.50400001928E-02 0.  1.
</event>
<event>
 5   0  0.7933103E-02  0.5016675E+03  0.7818609E-02  0.1013345E+00
       -2   -1    0    0    0  501  0.00000000000E+00  0.00000000000E+00  0.68283430257E+03  0.68283430257E+03  0.25500000920E-02 0. -1.
        2   -1    0    0  501    0  0.00000000000E+00  0.00000000000E+00 -0.92141768052E+02  0.92141768087E+02  0.25500000920E-02 0.  1.
    10030    2    1    2    0    0  0.00000000000E+00  0.00000000000E+00  0.59069253452E+03  0.77497607066E+03  0.50166745934E+03 0.  0.
        5    1    3    3  502    0  0.29638209242E+02  0.15939911684E+03  0.59092018277E+03  0.61277667572E+03  0.46999998093E+01 0. -1.
       -5    1    3    3    0  502 -0.29638209242E+02 -0.15939911684E+03 -0.22764825510E+00  0.16219939494E+03  0.46999998093E+01 0.  1.
</event>
<event>
 5   0  0.7881060E-02  0.5003770E+03  0.7818609E-02  0.1013681E+00
        2   -1    0    0  501    0  0.00000000000E+00  0.00000000000E+00  0.22781939516E+03  0.22781939518E+03  0.25500000920E-02 0. -1.
       -2   -1    0    0    0  501  0.00000000000E+00  0.00000000000E+00 -0.27475397885E+03  0.27475397886E+03  0.25500000920E-02 0.  1.
    10030    2    1    2    0    0  0.00000000000E+00  0.00000000000E+00 -0.46934583681E+02  0.50257337404E+03  0.50037699902E+03 0.  0.
        1    1    3    3  502    0 -0.23303749270E+03 -0.34481278037E+02  0.61157234662E+02  0.24338372772E+03  0.50400001928E-02 0.  1.
       -1    1    3    3    0  502  0.23303749270E+03  0.34481278037E+02 -0.10809181834E+03  0.25918964632E+03  0.50400001928E-02 0. -1.
</event>
<event>
 5   0  0.4803890E-02  0.4958801E+03  0.7818609E-02  0.1014860E+00
        1   -1    0    0  501    0  0.00000000000E+00  0.00000000000E+00  0.11612513781E+03  0.11612513792E+03  0.50400001928E-02 0.  1.
       -1   -1    0    0    0  501  0.00000000000E+00  0.00000000000E+00 -0.52937953521E+03  0.52937953524E+03  0.50400001928E-02 0. -1.
    10030    2    1    2    0    0  0.00000000000E+00  0.00000000000E+00 -0.41325439741E+03  0.64550467315E+03  0.49588011262E+03 0.  0.
        5    1    3    3  502    0 -0.59394487156E+02 -0.86995390481E+02 -0.49873927573E+03  0.50976353168E+03  0.46999998093E+01 0. -1.
       -5    1    3    3    0  502  0.59394487156E+02  0.86995390481E+02  0.85484878325E+02  0.13574114148E+03  0.46999998093E+01 0.  1.
</event>
<event>
 5   0  0.4884478E-02  0.4947519E+03  0.7818609E-02  0.1015158E+00
        1   -1    0    0  501    0  0.00000000000E+00  0.00000000000E+00  0.83056013828E+03  0.83056013830E+03  0.50400001928E-02 0. -1.
       -1   -1    0    0    0  501  0.00000000000E+00  0.00000000000E+00 -0.73679016629E+02  0.73679016801E+02  0.50400001928E-02 0.  1.
    10030    2    1    2    0    0  0.00000000000E+00  0.00000000000E+00  0.75688112165E+03  0.90423915510E+03  0.49475187448E+03 0.  0.
        3    1    3    3  502    0  0.28554089446E+02 -0.17499602326E+03  0.69371038557E+03  0.71601190872E+03  0.10100000352E+00 0. -1.
       -3    1    3    3    0  502 -0.28554089446E+02  0.17499602326E+03  0.63170736080E+02  0.18822724638E+03  0.10100000352E+00 0.  1.
</event>
<event>
 5   0  0.7933103E-02  0.5013806E+03  0.7818609E-02  0.1013419E+00
       -2   -1    0    0    0  501  0.00000000000E+00  0.00000000000E+00  0.91243279716E+02  0.91243279752E+02  0.25500000920E-02 0. -1.
        2   -1    0    0  501    0  0.00000000000E+00  0.00000000000E+00 -0.68876985274E+03  0.68876985275E+03  0.25500000920E-02 0.  1.
    10030    2    1    2    0    0  0.00000000000E+00  0.00000000000E+00 -0.59752657302E+03  0.78001313250E+03  0.50138057541E+03 0.  0.
        5    1    3    3  502    0 -0.14855516834E+03  0.14168631383E+03 -0.52248514870E+03  0.56138798543E+03  0.46999998093E+01 0.  1.
       -5    1    3    3    0  502  0.14855516834E+03 -0.14168631383E+03 -0.75041424321E+02  0.21862514707E+03  0.46999998093E+01 0. -1.
</event>
<event>
 5   0  0.4884478E-02  0.4983622E+03  0.7818609E-02  0.1014207E+00
       -1   -1    0    0    0  501  0.00000000000E+00  0.00000000000E+00  0.19782705683E+03  0.19782705689E+03  0.50400001928E-02 0. -1.
        1   -1    0    0  501    0  0.00000000000E+00  0.00000000000E+00 -0.31386617772E+03  0.31386617776E+03  0.50400001928E-02 0.  1.
    10030    2    1    2    0    0  0.00000000000E+00  0.00000000000E+00 -0.11603912089E+03  0.51169323465E+03  0.49836220645E+03 0.  0.
        3    1    3    3  502    0  0.42574953442E+01  0.61021076912E+02 -0.30603755770E+03  0.31209084417E+03  0.10100000352E+00 0.  1.
       -3    1    3    3    0  502 -0.42574953442E+01 -0.61021076912E+02  0.18999843681E+03  0.19960239048E+03  0.10100000352E+00 0. -1.
</event>
<event>
 5   0  0.7933103E-02  0.4964939E+03  0.7818609E-02  0.1014698E+00
        2   -1    0    0  501    0  0.00000000000E+00  0.00000000000E+00  0.33038865242E+03  0.33038865243E+03  0.25500000920E-02 0.  1.
       -2   -1    0    0    0  501  0.00000000000E+00  0.00000000000E+00 -0.18652743748E+03  0.18652743750E+03  0.25500000920E-02 0. -1.
    10030    2    1    2    0    0  0.00000000000E+00  0.00000000000E+00  0.14386121495E+03  0.51691608993E+03  0.49649390214E+03 0.  0.
        5    1    3    3  502    0 -0.86527106678E+01  0.14662051016E+03  0.28024048267E+03  0.31643208043E+03  0.46999998093E+01 0.  1.
       -5    1    3    3    0  502  0.86527106678E+01 -0.14662051016E+03 -0.13637926772E+03  0.20048400950E+03  0.46999998093E+01 0. -1.
</event>
<event>
 5   0  0.4865501E-02  0.4987477E+03  0.7818609E-02  0.1014106E+00
        1   -1    0    0  501    0  0.00000000000E+00  0.00000000000E+00  0.14848303792E+04  0.14848303792E+04  0.50400001928E-02 0.  1.
       -1   -1    0    0    0  501  0.00000000000E+00  0.00000000000E+00 -0.41881761260E+02  0.41881761563E+02  0.50400001928E-02 0. -1.
    10030    2    1    2    0    0  0.00000000000E+00  0.00000000000E+00  0.14429486180E+04  0.15267121408E+04  0.49874767846E+03 0.  0.
        2    1    3    3  502    0 -0.17046483410E+03  0.17062835674E+02  0.12761818081E+04  0.12876293750E+04  0.25500000920E-02 0.  1.
       -2    1    3    3    0  502  0.17046483410E+03 -0.17062835674E+02  0.16676680988E+03  0.23908276581E+03  0.25500000920E-02 0. -1.
</event>
<event>
 5   0  0.7881060E-02  0.5081210E+03  0.7818609E-02  0.1011681E+00
        2   -1    0    0  501    0  0.00000000000E+00  0.00000000000E+00  0.30193571651E+03  0.30193571652E+03  0.25500000920E-02 0.  1.
       -2   -1    0    0    0  501  0.00000000000E+00  0.00000000000E+00 -0.21377642633E+03  0.21377642634E+03  0.25500000920E-02 0. -1.
    10030    2    1    2    0    0  0.00000000000E+00  0.00000000000E+00  0.88159290183E+02  0.51571214287E+03  0.50812100316E+03 0.  0.
        1    1    3    3  502    0 -0.18287288689E+02  0.15604820455E+03  0.24671526236E+03  0.29249596198E+03  0.50400001928E-02 0.  1.
       -1    1    3    3    0  502  0.18287288689E+02 -0.15604820455E+03 -0.15855597217E+03  0.22321618088E+03  0.50400001928E-02 0. -1.
</event>
<event>
 5   0  0.3210875E-02  0.4983793E+03  0.7818609E-02  0.1014203E+00
       -4   -1    0    0    0  501  0.00000000000E+00  0.00000000000E+00  0.24387239611E+03  0.24387570294E+03  0.12699999809E+01 0.  1.
        4   -1    0    0  501    0  0.00000000000E+00  0.00000000000E+00 -0.25461626382E+03  0.25461943111E+03  0.12699999809E+01 0. -1.
    10030    2    1    2    0    0  0.00000000000E+00  0.00000000000E+00 -0.10743867709E+02  0.49849513405E+03  0.49837934145E+03 0.  0.
        5    1    3    3  502    0  0.23764385281E+03 -0.11114764877E+02  0.68640279616E+02  0.24765241118E+03  0.46999998093E+01 0. -1.
       -5    1    3    3    0  502 -0.23764385281E+03  0.11114764877E+02 -0.79384147325E+02  0.25084272288E+03  0.46999998093E+01 0.  1.
</event>
<event>
 5   0  0.3210875E-02  0.4998323E+03  0.7818609E-02  0.1013823E+00
        3   -1    0    0  501    0  0.00000000000E+00  0.00000000000E+00  0.60371487433E+03  0.60371488278E+03  0.10100000352E+00 0.  1.
       -3   -1    0    0    0  501  0.00000000000E+00  0.00000000000E+00 -0.10345623656E+03  0.10345628586E+03  0.10100000352E+00 0. -1.
    10030    2    1    2    0    0  0.00000000000E+00  0.00000000000E+00  0.50025863777E+03  0.70717116864E+03  0.49983232898E+03 0.  0.
        3    1    3    3  502    0  0.60644980289E+02  0.13120400821E+03  0.53857772115E+03  0.55763633071E+03  0.10100000352E+00 0.  1.
       -3    1    3    3    0  502 -0.60644980289E+02 -0.13120400821E+03 -0.38319083376E+02  0.14953483794E+03  0.10100000352E+00 0. -1.
</event>
<event>
 5   0  0.7776070E-02  0.5002929E+03  0.7818609E-02  0.1013702E+00
       -2   -1    0    0    0  501  0.00000000000E+00  0.00000000000E+00  0.17225047655E+03  0.17225047657E+03  0.25500000920E-02 0. -1.
        2   -1    0    0  501    0  0.00000000000E+00  0.00000000000E+00 -0.36326894851E+03  0.36326894852E+03  0.25500000920E-02 0.  1.
    10030    2    1    2    0    0  0.00000000000E+00  0.00000000000E+00 -0.19101847196E+03  0.53551942509E+03  0.50029291222E+03 0.  0.
        4    1    3    3  502    0  0.62986465218E+02 -0.23947553225E+03 -0.57576596431E+02  0.25422923259E+03  0.12699999809E+01 0.  1.
       -4    1    3    3    0  502 -0.62986465218E+02  0.23947553225E+03 -0.13344187553E+03  0.28129019249E+03  0.12699999809E+01 0. -1.
</event>
<event>
 5   0  0.4865501E-02  0.4943559E+03  0.7818609E-02  0.1015263E+00
       -1   -1    0    0    0  501  0.00000000000E+00  0.00000000000E+00  0.16269503410E+03  0.16269503418E+03  0.50400001928E-02 0. -1.
        1   -1    0    0  501    0  0.00000000000E+00  0.00000000000E+00 -0.37553051210E+03  0.37553051214E+03  0.50400001928E-02 0.  1.
    10030    2    1    2    0    0  0.00000000000E+00  0.00000000000E+00 -0.21283547800E+03  0.53822554632E+03  0.49435594263E+03 0.  0.
        2    1    3    3  502    0  0.15765245599E+03 -0.11042328589E+03 -0.27525808151E+03  0.33587886267E+03  0.25500000920E-02 0.  1.
       -2    1    3    3    0  502 -0.15765245599E+03  0.11042328589E+03  0.62422603513E+02  0.20234668364E+03  0.25500000920E-02 0. -1.
</event>
<event>
 5   0  0.3210875E-02  0.5022221E+03  0.7818609E-02  0.1013201E+00
       -4   -1    0    0    0  501  0.00000000000E+00  0.00000000000E+00  0.67395040383E+02  0.67407005334E+02  0.12699999809E+01 0.  1.
        4   -1    0    0  501    0  0.00000000000E+00  0.00000000000E+00 -0.93553367103E+03  0.93553453305E+03  0.12699999809E+01 0. -1.
    10030    2    1    2    0    0  0.00000000000E+00  0.00000000000E+00 -0.86813863064E+03  0.10029415384E+04  0.50222210962E+03 0.  0.
        4    1    3    3  502    0  0.17284440379E+03 -0.75302074353E+01 -0.79752068330E+03  0.81607153187E+03  0.12699999809E+01 0. -1.
       -4    1    3    3    0  502 -0.17284440379E+03  0.75302074353E+01 -0.70617947346E+02  0.18687000651E+03  0.12699999809E+01 0.  1.
</event>
<event>
 5   0  0.4884478E-02  0.5013744E+03  0.7818609E-02  0.1013421E+00
       -1   -1    0    0    0  501  0.00000000000E+00  0.00000000000E+00  0.76227934604E+02  0.76227934771E+02  0.50400001928E-02 0.  1.
        1   -1    0    0  501    0  0.00000000000E+00  0.00000000000E+00 -0.82442322804E+03  0.82442322805E+03  0.50400001928E-02 0. -1.
    10030    2    1    2    0    0  0.00000000000E+00  0.00000000000E+00 -0.74819529343E+03  0.90065116282E+03  0.50137443092E+03 0.  0.
        3    1    3    3  502    0 -0.13514206501E+03  0.99856967470E+02 -0.39909761247E+02  0.17270666151E+03  0.10100000352E+00 0.  1.
       -3    1    3    3    0  502  0.13514206501E+03 -0.99856967470E+02 -0.70828553219E+03  0.72794450131E+03  0.10100000352E+00 0. -1.
</event>
<event>
 5   0  0.4865501E-02  0.4997551E+03  0.7818609E-02  0.1013843E+00
       -1   -1    0    0    0  501  0.00000000000E+00  0.00000000000E+00  0.10156798718E+03  0.10156798731E+03  0.50400001928E-02 0. -1.
        1   -1    0    0  501    0  0.00000000000E+00  0.00000000000E+00 -0.61474877406E+03  0.61474877408E+03  0.50400001928E-02 0.  1.
    10030    2    1    2    0    0  0.00000000000E+00  0.00000000000E+00 -0.51318078688E+03  0.71631676139E+03  0.49975512267E+03 0.  0.
        2    1    3    3  502    0  0.17295690788E+03 -0.12729878785E+03 -0.73483691227E+02  0.22697781005E+03  0.25500000920E-02 0. -1.
       -2    1    3    3    0  502 -0.17295690788E+03  0.12729878785E+03 -0.43969709565E+03  0.48933895135E+03  0.25500000920E-02 0.  1.
</event>
<event>
 5   0  0.4884478E-02  0.4819689E+03  0.7818609E-02  0.1018595E+00
       -1   -1    0    0    0  501  0.00000000000E+00  0.00000000000E+00  0.46500458181E+03  0.46500458184E+03  0.50400001928E-02 0.  1.
        1   -1    0    0  501    0  0.00000000000E+00  0.00000000000E+00 -0.12488803303E+03  0.12488803313E+03  0.50400001928E-02 0. -1.
    10030    2    1    2    0    0  0.00000000000E+00  0.00000000000E+00  0.34011654878E+03  0.58989261497E+03  0.48196891024E+03 0.  0.
        3    1    3    3  502    0  0.20906631275E+02 -0.37332471937E+02  0.46031814845E+03  0.46230250777E+03  0.10100000352E+00 0.  1.
       -3    1    3    3    0  502 -0.20906631275E+02  0.37332471937E+02 -0.12020159967E+03  0.12759010720E+03  0.10100000352E+00 0. -1.
</event>
<event>
 5   0  0.4803890E-02  0.5025771E+03  0.7818609E-02  0.1013108E+00
        1   -1    0    0  501    0  0.00000000000E+00  0.00000000000E+00  0.13927500628E+04  0.13927500628E+04  0.50400001928E-02 0. -1.
       -1   -1    0    0    0  501  0.00000000000E+00  0.00000000000E+00 -0.45339037765E+02  0.45339038045E+02  0.50400001928E-02 0.  1.
    10030    2    1    2    0    0  0.00000000000E+00  0.00000000000E+00  0.13474110250E+04  0.14380891008E+04  0.50257714990E+03 0.  0.
        5    1    3    3  502    0  0.92371849668E+02 -0.11664729168E+02  0.13414385548E+04  0.13446739794E+04  0.46999998093E+01 0. -1.
       -5    1    3    3    0  502 -0.92371849668E+02  0.11664729168E+02  0.59724702151E+01  0.93415121454E+02  0.46999998093E+01 0.  1.
</event>
<event>
 5   0  0.4803890E-02  0.5091871E+03  0.7818609E-02  0.1011408E+00
        1   -1    0    0  501    0  0.00000000000E+00  0.00000000000E+00  0.56889168705E+03  0.56889168708E+03  0.50400001928E-02 0. -1.
       -1   -1    0    0    0  501  0.00000000000E+00  0.00000000000E+00 -0.11393712550E+03  0.11393712561E+03  0.50400001928E-02 0.  1.
    10030    2    1    2    0    0  0.00000000000E+00  0.00000000000E+00  0.45495456156E+03  0.68282881268E+03  0.50918713097E+03 0.  0.
        5    1    3    3  502    0  0.11622429202E+03 -0.92210294165E+01 -0.75968264737E+02  0.13923498369E+03  0.46999998093E+01 0.  1.
       -5    1    3    3    0  502 -0.11622429202E+03  0.92210294165E+01  0.53092282629E+03  0.54359382899E+03  0.46999998093E+01 0. -1.
</event>
<event>
 5   0  0.4803890E-02  0.5031438E+03  0.7818609E-02  0.1012962E+00
        1   -1    0    0  501    0  0.00000000000E+00  0.00000000000E+00  0.52447401906E+03  0.52447401908E+03  0.50400001928E-02 0.  1.
       -1   -1    0    0    0  501  0.00000000000E+00  0.00000000000E+00 -0.12067028701E+03  0.12067028711E+03  0.50400001928E-02 0. -1.
    10030    2    1    2    0    0  0.00000000000E+00  0.00000000000E+00  0.40380373205E+03  0.64514430619E+03  0.50314383808E+03 0.  0.
        5    1    3    3  502    0 -0.13775197020E+03  0.15582720155E+03  0.38327512695E+03  0.43609590112E+03  0.46999998093E+01 0.  1.
       -5    1    3    3    0  502  0.13775197020E+03 -0.15582720155E+03  0.20528605100E+02  0.20904840507E+03  0.46999998093E+01 0. -1.
</event>
<event>
 5   0  0.7776070E-02  0.5015354E+03  0.7818609E-02  0.1013379E+00
       -2   -1    0    0    0  501  0.00000000000E+00  0.00000000000E+00  0.17921864968E+03  0.17921864970E+03  0.25500000920E-02 0.  1.
        2   -1    0    0  501    0  0.00000000000E+00  0.00000000000E+00 -0.35088117097E+03  0.35088117098E+03  0.25500000920E-02 0. -1.
    10030    2    1    2    0    0  0.00000000000E+00  0.00000000000E+00 -0.17166252129E+03  0.53009982068E+03  0.50153544109E+03 0.  0.
        4    1    3    3  502    0  0.49221931385E+02 -0.84544119763E+01  0.17390547043E+03  0.18093921951E+03  0.12699999809E+01 0.  1.
       -4    1    3    3    0  502 -0.49221931385E+02  0.84544119763E+01 -0.34556799172E+03  0.34916060117E+03  0.12699999809E+01 0. -1.
</event>
<event>
 5   0  0.5191358E-02  0.4929448E+03  0.7818609E-02  0.1015637E+00
        1   -1    0    0  501    0  0.00000000000E+00  0.00000000000E+00  0.69402192609E+03  0.69402192611E+03  0.50400001928E-02 0. -1.
       -1   -1    0    0    0  501  0.00000000000E+00  0.00000000000E+00 -0.87531298070E+02  0.87531298215E+02  0.50400001928E-02 0.  1.
    10030    2    1    2    0    0  0.00000000000E+00  0.00000000000E+00  0.60649062802E+03  0.78155322433E+03  0.49294478451E+03 0.  0.
        4    1    3    3  502    0 -0.14941789282E+03 -0.13360695191E+03  0.75849357310E+02  0.21431580016E+03  0.12699999809E+01 0.  1.
       -4    1    3    3    0  502  0.14941789282E+03  0.13360695191E+03  0.53064127072E+03  0.56723742417E+03  0.12699999809E+01 0. -1.
</event>
<event>
 5   0  0.8208720E-02  0.4966635E+03  0.7818609E-02  0.1014653E+00
       -2   -1    0    0    0  501  0.00000000000E+00  0.00000000000E+00  0.11292183854E+03  0.11292183857E+03  0.25500000920E-02 0.  1.
        2   -1    0    0  501    0  0.00000000000E+00  0.00000000000E+00 -0.54611815148E+03  0.54611815149E+03  0.25500000920E-02 0. -1.
    10030    2    1    2    0    0  0.00000000000E+00  0.00000000000E+00 -0.43319631294E+03  0.65903999006E+03  0.49666353092E+03 0.  0.
        3    1    3    3  502    0  0.20626900212E+03  0.12916231558E+03 -0.28212844637E+03  0.37259398204E+03  0.10100000352E+00 0. -1.
       -3    1    3    3    0  502 -0.20626900212E+03 -0.12916231558E+03 -0.15106786657E+03  0.28644600802E+03  0.10100000352E+00 0.  1.
</event>
<event>
 5   0  0.3210875E-02  0.5019779E+03  0.7818609E-02  0.1013264E+00
       -3   -1    0    0    0  501  0.00000000000E+00  0.00000000000E+00  0.94725464509E+03  0.94725465048E+03  0.10100000352E+00 0. -1.
        3   -1    0    0  501    0  0.00000000000E+00  0.00000000000E+00 -0.66503147303E+02  0.66503223998E+02  0.10100000352E+00 0.  1.
    10030    2    1    2    0    0  0.00000000000E+00  0.00000000000E+00  0.88075149779E+03  0.10137578745E+04  0.50197791505E+03 0.  0.
        5    1    3    3  502    0 -0.79111845478E+02 -0.23840748628E+02  0.91890689140E+03  0.92262615964E+03  0.46999998093E+01 0. -1.
       -5    1    3    3    0  502  0.79111845478E+02  0.23840748628E+02 -0.38155393607E+02  0.91131714839E+02  0.46999998093E+01 0.  1.
</event>
<event>
 5   0  0.7881060E-02  0.4987611E+03  0.7818609E-02  0.1014103E+00
        2   -1    0    0  501    0  0.00000000000E+00  0.00000000000E+00  0.34765912444E+04  0.34765912444E+04  0.25500000920E-02 0. -1.
       -2   -1    0    0    0  501  0.00000000000E+00  0.00000000000E+00 -0.17888403409E+02  0.17888403591E+02  0.25500000920E-02 0.  1.
    10030    2    1    2    0    0  0.00000000000E+00  0.00000000000E+00  0.34587028410E+04  0.34944796480E+04  0.49876113316E+03 0.  0.
        1    1    3    3  502    0 -0.10537887390E+03  0.20905973454E+03  0.11274606005E+04  0.11515112181E+04  0.50400001928E-02 0.  1.
       -1    1    3    3    0  502  0.10537887390E+03 -0.20905973454E+03  0.23312422404E+04  0.23429684299E+04  0.50400001928E-02 0. -1.
</event>
<event>
 5   0  0.4865501E-02  0.5032445E+03  0.7818609E-02  0.1012935E+00
        1   -1    0    0  501    0  0.00000000000E+00  0.00000000000E+00  0.84317426295E+02  0.84317426445E+02  0.50400001928E-02 0.  1.
       -1   -1    0    0    0  501  0.00000000000E+00  0.00000000000E+00 -0.75089775035E+03  0.75089775036E+03  0.50400001928E-02 0. -1.
    10030    2    1    2    0    0  0.00000000000E+00  0.00000000000E+00 -0.66658032405E+03  0.83521517681E+03  0.50324453614E+03 0.  0.
        2    1    3    3  502    0 -0.12000621736E+03  0.22077029212E+03 -0.31147640524E+03  0.40019815731E+03  0.25500000920E-02 0. -1.
       -2    1    3    3    0  502  0.12000621736E+03 -0.22077029212E+03 -0.35510391881E+03  0.43501701950E+03  0.25500000920E-02 0.  1.
</event>
<event>
 5   0  0.7881060E-02  0.4955373E+03  0.7818609E-02  0.1014950E+00
       -2   -1    0    0    0  501  0.00000000000E+00  0.00000000000E+00  0.63035043505E+02  0.63035043556E+02  0.25500000920E-02 0. -1.
        2   -1    0    0  501    0  0.00000000000E+00  0.00000000000E+00 -0.97389180836E+03  0.97389180837E+03  0.25500000920E-02 0.  1.
    10030    2    1    2    0    0  0.00000000000E+00  0.00000000000E+00 -0.91085676486E+03  0.10369268519E+04  0.49553733477E+03 0.  0.
        1    1    3    3  502    0  0.15289219686E+03 -0.16130676867E+03 -0.68459068204E+03  0.71976405817E+03  0.50400001928E-02 0.  1.
       -1    1    3    3    0  502 -0.15289219686E+03  0.16130676867E+03 -0.22626608282E+03  0.31716279375E+03  0.50400001928E-02 0. -1.
</event>
<event>
 5   0  0.7881060E-02  0.4998385E+03  0.7818609E-02  0.1013821E+00
        2   -1    0    0  501    0  0.00000000000E+00  0.00000000000E+00  0.11139251363E+04  0.11139251363E+04  0.25500000920E-02 0. -1.
       -2   -1    0    0    0  501  0.00000000000E+00  0.00000000000E+00 -0.56071667055E+02  0.56071667113E+02  0.25500000920E-02 0.  1.
    10030    2    1    2    0    0  0.00000000000E+00  0.00000000000E+00  0.10578534693E+04  0.11699968034E+04  0.49983853154E+03 0.  0.
        1    1    3    3  502    0  0.19004619721E+03 -0.14561562955E+03  0.36113938693E+03  0.43329334804E+03  0.50400001928E-02 0.  1.
       -1    1    3    3    0  502 -0.19004619721E+03  0.14561562955E+03  0.69671408234E+03  0.73670345540E+03  0.50400001928E-02 0. -1.
</event>
<event>
 5   0  0.4865501E-02  0.5007692E+03  0.7818609E-02  0.1013578E+00
       -1   -1    0    0    0  501  0.00000000000E+00  0.00000000000E+00  0.20589479941E+03  0.20589479947E+03  0.50400001928E-02 0. -1.
        1   -1    0    0  501    0  0.00000000000E+00  0.00000000000E+00 -0.30448776378E+03  0.30448776382E+03  0.50400001928E-02 0.  1.
    10030    2    1    2    0    0  0.00000000000E+00  0.00000000000E+00 -0.98592964371E+02  0.51038256329E+03  0.50076919662E+03 0.  0.
        2    1    3    3  502    0  0.18092031030E+03  0.15280123026E+03 -0.13217214652E+03  0.27120075769E+03  0.25500000920E-02 0.  1.
       -2    1    3    3    0  502 -0.18092031030E+03 -0.15280123026E+03  0.33579182151E+02  0.23918180560E+03  0.25500000920E-02 0. -1.
</event>
<event>
 5   0  0.7881060E-02  0.4994781E+03  0.7818609E-02  0.1013915E+00
        2   -1    0    0  501    0  0.00000000000E+00  0.00000000000E+00  0.13945263118E+04  0.13945263118E+04  0.25500000920E-02 0. -1.
       -2   -1    0    0    0  501  0.00000000000E+00  0.00000000000E+00 -0.44724573089E+02  0.44724573162E+02  0.25500000920E-02 0.  1.
    10030    2    1    2    0    0  0.00000000000E+00  0.00000000000E+00  0.13498017388E+04  0.14392508850E+04  0.49947810368E+03 0.  0.
        1    1    3    3  502    0  0.20123878863E+03  0.13213859606E+03  0.48350409166E+03  0.54012393512E+03  0.50400001928E-02 0. -1.
       -1    1    3    3    0  502 -0.20123878863E+03 -0.13213859606E+03  0.86629764710E+03  0.89912694988E+03  0.50400001928E-02 0.  1.
</event>
<event>
 5   0  0.5191358E-02  0.5021745E+03  0.7818609E-02  0.1013213E+00
       -1   -1    0    0    0  501  0.00000000000E+00  0.00000000000E+00  0.39306078066E+03  0.39306078069E+03  0.50400001928E-02 0. -1.
        1   -1    0    0  501    0  0.00000000000E+00  0.00000000000E+00 -0.16039455130E+03  0.16039455137E+03  0.50400001928E-02 0.  1.
    10030    2    1    2    0    0  0.00000000000E+00  0.00000000000E+00  0.23266622936E+03  0.55345533207E+03  0.50217450185E+03 0.  0.
        4    1    3    3  502    0 -0.81029050121E+02 -0.23655290919E+03  0.91195920913E+02  0.26616028010E+03  0.12699999809E+01 0. -1.
       -4    1    3    3    0  502  0.81029050121E+02  0.23655290919E+03  0.14147030845E+03  0.28729505197E+03  0.12699999809E+01 0.  1.
</event>
<event>
 5   0  0.3210875E-02  0.5004949E+03  0.7818609E-02  0.1013650E+00
       -4   -1    0    0    0  501  0.00000000000E+00  0.00000000000E+00  0.27897355990E+03  0.27897645066E+03  0.12699999809E+01 0.  1.
        4   -1    0    0  501    0  0.00000000000E+00  0.00000000000E+00 -0.22447341013E+03  0.22447700273E+03  0.12699999809E+01 0. -1.
    10030    2    1    2    0    0  0.00000000000E+00  0.00000000000E+00  0.54500149769E+02  0.50345345338E+03  0.50049486850E+03 0.  0.
        1    1    3    3  502    0  0.11752217469E+03  0.14662330628E+03  0.19349627759E+03  0.26972331185E+03  0.50400001928E-02 0.  1.
       -1    1    3    3    0  502 -0.11752217469E+03 -0.14662330628E+03 -0.13899612782E+03  0.23373014154E+03  0.50400001928E-02 0. -1.
</event>
<event>
 5   0  0.5191358E-02  0.5035238E+03  0.7818609E-02  0.1012863E+00
       -1   -1    0    0    0  501  0.00000000000E+00  0.00000000000E+00  0.53988147785E+03  0.53988147788E+03  0.50400001928E-02 0.  1.
        1   -1    0    0  501    0  0.00000000000E+00  0.00000000000E+00 -0.11740365297E+03  0.11740365308E+03  0.50400001928E-02 0. -1.
    10030    2    1    2    0    0  0.00000000000E+00  0.00000000000E+00  0.42247782488E+03  0.65728513095E+03  0.50352381360E+03 0.  0.
        4    1    3    3  502    0  0.20795977541E+03  0.29393945693E+02  0.39245129204E+03  0.44511897483E+03  0.12699999809E+01 0.  1.
       -4    1    3    3    0  502 -0.20795977541E+03 -0.29393945693E+02  0.30026532843E+02  0.21216615613E+03  0.12699999809E+01 0. -1.
</event>
<event>
 5   0  0.7881060E-02  0.4996157E+03  0.7818609E-02  0.1013879E+00
        2   -1    0    0  501    0  0.00000000000E+00  0.00000000000E+00  0.58063832329E+03  0.58063832329E+03  0.25500000920E-02 0.  1.
       -2   -1    0    0    0  501  0.00000000000E+00  0.00000000000E+00 -0.10747476502E+03  0.10747476505E+03  0.25500000920E-02 0. -1.
    10030    2    1    2    0    0  0.00000000000E+00  0.00000000000E+00  0.47316355827E+03  0.68811308834E+03  0.49961572180E+03 0.  0.
        1    1    3    3  502    0 -0.44099700929E+02  0.98750911342E+02 -0.73559497512E+02  0.13079574080E+03  0.50400001928E-02 0. -1.
       -1    1    3    3    0  502  0.44099700929E+02 -0.98750911342E+02  0.54672305579E+03  0.55731734754E+03  0.50400001928E-02 0.  1.
</event>
<event>
 5   0  0.5038436E-02  0.4995931E+03  0.7818609E-02  0.1013885E+00
       -1   -1    0    0    0  501  0.00000000000E+00  0.00000000000E+00  0.43449923750E+02  0.43449924042E+02  0.50400001928E-02 0. -1.
        1   -1    0    0  501    0  0.00000000000E+00  0.00000000000E+00 -0.14360971952E+04  0.14360971952E+04  0.50400001928E-02 0.  1.
    10030    2    1    2    0    0  0.00000000000E+00  0.00000000000E+00 -0.13926472715E+04  0.14795471193E+04  0.49959308983E+03 0.  0.
        1    1    3    3  502    0 -0.16739091696E+03  0.98251561677E+02 -0.23064908158E+03  0.30144997481E+03  0.50400001928E-02 0. -1.
       -1    1    3    3    0  502  0.16739091696E+03 -0.98251561677E+02 -0.11619981899E+04  0.11780971445E+04  0.50400001928E-02 0.  1.
</event>
<event>
 5   0  0.4865501E-02  0.4963181E+03  0.7818609E-02  0.1014744E+00
        1   -1    0    0  501    0  0.00000000000E+00  0.00000000000E+00  0.57488177088E+03  0.57488177090E+03  0.50400001928E-02 0.  1.
       -1   -1    0    0    0  501  0.00000000000E+00  0.00000000000E+00 -0.10712273151E+03  0.10712273163E+03  0.50400001928E-02 0. -1.
    10030    2    1    2    0    0  0.00000000000E+00  0.00000000000E+00  0.46775903937E+03  0.68200450253E+03  0.49631806592E+03 0.  0.
        2    1    3    3  502    0  0.11422878369E+03  0.21568976384E+03  0.17223312821E+03  0.29872150861E+03  0.25500000920E-02 0. -1.
       -2    1    3    3    0  502 -0.11422878369E+03 -0.21568976384E+03  0.29552591116E+03  0.38328299392E+03  0.25500000920E-02 0.  1.
</event>
<event>
 5   0  0.7698747E-02  0.5029354E+03  0.7818609E-02  0.1013016E+00
       -2   -1    0    0    0  501  0.00000000000E+00  0.00000000000E+00  0.43166719290E+02  0.43166719365E+02  0.25500000920E-02 0.  1.
        2   -1    0    0  501    0  0.00000000000E+00  0.00000000000E+00 -0.14649249465E+04  0.14649249465E+04  0.25500000920E-02 0. -1.
    10030    2    1    2    0    0  0.00000000000E+00  0.00000000000E+00 -0.14217582272E+04  0.15080916658E+04  0.50293539944E+03 0.  0.
        2    1    3    3  502    0  0.19750596605E+02 -0.90641710531E+02 -0.10019349095E+02  0.93308054942E+02  0.25500000920E-02 0.  1.
       -2    1    3    3    0  502 -0.19750596605E+02  0.90641710531E+02 -0.14117388781E+04  0.14147836109E+04  0.25500000920E-02 0. -1.
</event>
<event>
 5   0  0.7698747E-02  0.4808218E+03  0.7818609E-02  0.1018910E+00
       -2   -1    0    0    0  501  0.00000000000E+00  0.00000000000E+00  0.19599733532E+03  0.19599733534E+03  0.25500000920E-02 0. -1.
        2   -1    0    0  501    0  0.00000000000E+00  0.00000000000E+00 -0.29488876043E+03  0.29488876044E+03  0.25500000920E-02 0.  1.
    10030    2    1    2    0    0  0.00000000000E+00  0.00000000000E+00 -0.98891425104E+02  0.49088609578E+03  0.48082184338E+03 0.  0.
        2    1    3    3  502    0 -0.12085862635E+03 -0.17090722765E+03 -0.17016333686E+03  0.26976220870E+03  0.25500000920E-02 0.  1.
       -2    1    3    3    0  502  0.12085862635E+03  0.17090722765E+03  0.71271911756E+02  0.22112388708E+03  0.25500000920E-02 0. -1.
</event>
<event>
 5   0  0.7933103E-02  0.5032454E+03  0.7818609E-02  0.1012935E+00
       -2   -1    0    0    0  501  0.00000000000E+00  0.00000000000E+00  0.45149259469E+03  0.45149259470E+03  0.25500000920E-02 0.  1.
        2   -1    0    0  501    0  0.00000000000E+00  0.00000000000E+00 -0.14023261444E+03  0.14023261447E+03  0.25500000920E-02 0. -1.
    10030    2    1    2    0    0  0.00000000000E+00  0.00000000000E+00  0.31125998025E+03  0.59172520916E+03  0.50324541514E+03 0.  0.
        5    1    3    3  502    0 -0.18344766805E+03 -0.85875917613E+02 -0.19816048284E+02  0.20357427614E+03  0.46999998093E+01 0. -1.
       -5    1    3    3    0  502  0.18344766805E+03  0.85875917613E+02  0.33107602853E+03  0.38815093302E+03  0.46999998093E+01 0.  1.
</event>
<event>
 5   0  0.7881060E-02  0.5008526E+03  0.7818609E-02  0.1013557E+00
        2   -1    0    0  501    0  0.00000000000E+00  0.00000000000E+00  0.34375772266E+03  0.34375772267E+03  0.25500000920E-02 0.  1.
       -2   -1    0    0    0  501  0.00000000000E+00  0.00000000000E+00 -0.18243469065E+03  0.18243469067E+03  0.25500000920E-02 0. -1.
    10030    2    1    2    0    0  0.00000000000E+00  0.00000000000E+00  0.16132303201E+03  0.52619241334E+03  0.50085260826E+03 0.  0.
        1    1    3    3  502    0 -0.35683824039E+02 -0.44248948330E+02  0.33689007238E+03  0.34165219979E+03  0.50400001928E-02 0.  1.
       -1    1    3    3    0  502  0.35683824039E+02  0.44248948330E+02 -0.17556704037E+03  0.18454021355E+03  0.50400001928E-02 0. -1.
</event>
<event>
 5   0  0.4884478E-02  0.4952518E+03  0.7818609E-02  0.1015026E+00
       -1   -1    0    0    0  501  0.00000000000E+00  0.00000000000E+00  0.20809502123E+03  0.20809502130E+03  0.50400001928E-02 0. -1.
        1   -1    0    0  501    0  0.00000000000E+00  0.00000000000E+00 -0.29466631424E+03  0.29466631429E+03  0.50400001928E-02 0.  1.
    10030    2    1    2    0    0  0.00000000000E+00  0.00000000000E+00 -0.86571293009E+02  0.50276133558E+03  0.49525182663E+03 0.  0.
        3    1    3    3  502    0  0.25748330847E+02  0.72117063104E+02 -0.28234464954E+03  0.29254462678E+03  0.10100000352E+00 0.  1.
       -3    1    3    3    0  502 -0.25748330847E+02 -0.72117063104E+02  0.19577335653E+03  0.21021670880E+03  0.10100000352E+00 0. -1.
</event>
<event>
 5   0  0.7776070E-02  0.4963345E+03  0.7818609E-02  0.1014740E+00
       -2   -1    0    0    0  501  0.00000000000E+00  0.00000000000E+00  0.60799478711E+02  0.60799478765E+02  0.25500000920E-02 0.  1.
        2   -1    0    0  501    0  0.00000000000E+00  0.00000000000E+00 -0.10129525643E+04  0.10129525643E+04  0.25500000920E-02 0. -1.
    10030    2    1    2    0    0  0.00000000000E+00  0.00000000000E+00 -0.95215308561E+03  0.10737520431E+04  0.49633451583E+03 0.  0.
        4    1    3    3  502    0  0.24176653427E+02 -0.23697120349E+03 -0.62666768022E+03  0.67041319810E+03  0.12699999809E+01 0. -1.
       -4    1    3    3    0  502 -0.24176653427E+02  0.23697120349E+03 -0.32548540539E+03  0.40333884499E+03  0.12699999809E+01 0.  1.
</event>
<event>
 5   0  0.7933103E-02  0.5000722E+03  0.7818609E-02  0.1013760E+00
       -2   -1    0    0    0  501  0.00000000000E+00  0.00000000000E+00  0.12410172468E+03  0.12410172470E+03  0.25500000920E-02 0.  1.
        2   -1    0    0  501    0  0.00000000000E+00  0.00000000000E+00 -0.50376452643E+03  0.50376452644E+03  0.25500000920E-02 0. -1.
    10030    2    1    2    0    0  0.00000000000E+00  0.00000000000E+00 -0.37966280175E+03  0.62786625114E+03  0.50007218107E+03 0.  0.
        5    1    3    3  502    0 -0.71359425062E+02  0.20042260135E+03 -0.25002004210E+02  0.21426286867E+03  0.46999998093E+01 0.  1.
       -5    1    3    3    0  502  0.71359425062E+02 -0.20042260135E+03 -0.35466079754E+03  0.41360338247E+03  0.46999998093E+01 0. -1.
</event>
<event>
 5   0  0.7881060E-02  0.4851309E+03  0.7818609E-02  0.1017735E+00
        2   -1    0    0  501    0  0.00000000000E+00  0.00000000000E+00  0.22518006457E+03  0.22518006458E+03  0.25500000920E-02 0.  1.
       -2   -1    0    0    0  501  0.00000000000E+00  0.00000000000E+00 -0.26129312323E+03  0.26129312324E+03  0.25500000920E-02 0. -1.
    10030    2    1    2    0    0  0.00000000000E+00  0.00000000000E+00 -0.36113058657E+02  0.48647318782E+03  0.48513091992E+03 0.  0.
        1    1    3    3  502    0  0.36344997137E+02 -0.72976883547E+02 -0.24714303180E+03  0.26024269930E+03  0.50400001928E-02 0. -1.
       -1    1    3    3    0  502 -0.36344997137E+02  0.72976883547E+02  0.21102997314E+03  0.22623048852E+03  0.50400001928E-02 0.  1.
</event>
<event>
 5   0  0.5038436E-02  0.4994512E+03  0.7818609E-02  0.1013922E+00
        1   -1    0    0  501    0  0.00000000000E+00  0.00000000000E+00  0.21504429468E+04  0.21504429468E+04  0.50400001928E-02 0. -1.
       -1   -1    0    0    0  501  0.00000000000E+00  0.00000000000E+00 -0.29000013727E+02  0.29000014165E+02  0.50400001928E-02 0.  1.
    10030    2    1    2    0    0  0.00000000000E+00  0.00000000000E+00  0.21214429331E+04  0.21794429610E+04  0.49945120066E+03 0.  0.
        1    1    3    3  502    0 -0.23750688171E+03 -0.88973295988E+01  0.72627501516E+03  0.76417542423E+03  0.50400001928E-02 0. -1.
       -1    1    3    3    0  502  0.23750688171E+03  0.88973295988E+01  0.13951679179E+04  0.14152675367E+04  0.50400001928E-02 0.  1.
</event>
<event>
 5   0  0.3210875E-02  0.4974392E+03  0.7818609E-02  0.1014449E+00
        4   -1    0    0  501    0  0.00000000000E+00  0.00000000000E+00  0.51285402725E+02  0.51301125062E+02  0.12699999809E+01 0. -1.
       -4   -1    0    0    0  501  0.00000000000E+00  0.00000000000E+00 -0.12060185033E+04  0.12060191720E+04  0.12699999809E+01 0.  1.
    10030    2    1    2    0    0  0.00000000000E+00  0.00000000000E+00 -0.11547331006E+04  0.12573202970E+04  0.49743923831E+03 0.  0.
        4    1    3    3  502    0 -0.39574829239E+02 -0.20991413456E+03 -0.25536240094E+03  0.33292894094E+03  0.12699999809E+01 0. -1.
       -4    1    3    3    0  502  0.39574829239E+02  0.20991413456E+03 -0.89937069962E+03  0.92439135610E+03  0.12699999809E+01 0.  1.
</event>
<event>
 5   0  0.4865501E-02  0.4894448E+03  0.7818609E-02  0.1016571E+00
        1   -1    0    0  501    0  0.00000000000E+00  0.00000000000E+00  0.96979205293E+03  0.96979205294E+03  0.50400001928E-02 0.  1.
       -1   -1    0    0    0  501  0.00000000000E+00  0.00000000000E+00 -0.61754522003E+02  0.61754522209E+02  0.50400001928E-02 0. -1.
    10030    2    1    2    0    0  0.00000000000E+00  0.00000000000E+00  0.90803753092E+03  0.10315465751E+04  0.48944476617E+03 0.  0.
        2    1    3    3  502    0  0.11575106523E+02 -0.89629915964E+02  0.93333360598E+03  0.93769884557E+03  0.25500000920E-02 0.  1.
       -2    1    3    3    0  502 -0.11575106523E+02  0.89629915964E+02 -0.25296075058E+02  0.93847729576E+02  0.25500000920E-02 0. -1.
</event>
<event>
 5   0  0.7698747E-02  0.4992771E+03  0.7818609E-02  0.1013968E+00
       -2   -1    0    0    0  501  0.00000000000E+00  0.00000000000E+00  0.84180802143E+02  0.84180802182E+02  0.25500000920E-02 0. -1.
        2   -1    0    0  501    0  0.00000000000E+00  0.00000000000E+00 -0.74030420249E+03  0.74030420250E+03  0.25500000920E-02 0.  1.
    10030    2    1    2    0    0  0.00000000000E+00  0.00000000000E+00 -0.65612340035E+03  0.82448500468E+03  0.49927708385E+03 0.  0.
        2    1    3    3  502    0 -0.36730054138E+01  0.21530048203E+03 -0.11949573876E+03  0.24626615708E+03  0.25500000920E-02 0. -1.
       -2    1    3    3    0  502  0.36730054138E+01 -0.21530048203E+03 -0.53662766159E+03  0.57821884760E+03  0.25500000920E-02 0.  1.
</event>
<event>
 5   0  0.7776070E-02  0.4985414E+03  0.7818609E-02  0.1014160E+00
       -2   -1    0    0    0  501  0.00000000000E+00  0.00000000000E+00  0.46739020835E+02  0.46739020904E+02  0.25500000920E-02 0. -1.
        2   -1    0    0  501    0  0.00000000000E+00  0.00000000000E+00 -0.13294217185E+04  0.13294217185E+04  0.25500000920E-02 0.  1.
    10030    2    1    2    0    0  0.00000000000E+00  0.00000000000E+00 -0.12826826977E+04  0.13761607394E+04  0.49854135014E+03 0.  0.
        4    1    3    3  502    0 -0.18401130965E+03  0.16472163787E+03 -0.54810456310E+03  0.60117685006E+03  0.12699999809E+01 0. -1.
       -4    1    3    3    0  502  0.18401130965E+03 -0.16472163787E+03 -0.73457813458E+03  0.77498388936E+03  0.12699999809E+01 0.  1.
</event>
<event>
 5   0  0.7933103E-02  0.5095121E+03  0.7818609E-02  0.1011326E+00
       -2   -1    0    0    0  501  0.00000000000E+00  0.00000000000E+00  0.30615349993E+03  0.30615349994E+03  0.25500000920E-02 0. -1.
        2   -1    0    0  501    0  0.00000000000E+00  0.00000000000E+00 -0.21198726759E+03  0.21198726761E+03  0.25500000920E-02 0.  1.
    10030    2    1    2    0    0  0.00000000000E+00  0.00000000000E+00  0.94166232340E+02  0.51814076755E+03  0.50951209572E+03 0.  0.
        5    1    3    3  502    0  0.74248924934E+02 -0.23667163824E+03  0.10596170144E+03  0.26977090164E+03  0.46999998093E+01 0. -1.
       -5    1    3    3    0  502 -0.74248924934E+02  0.23667163824E+03 -0.11795469100E+02  0.24836986591E+03  0.46999998093E+01 0.  1.
</event>
<event>
 5   0  0.5191358E-02  0.4933143E+03  0.7818609E-02  0.1015539E+00
       -1   -1    0    0    0  501  0.00000000000E+00  0.00000000000E+00  0.40432842508E+02  0.40432842822E+02  0.50400001928E-02 0.  1.
        1   -1    0    0  501    0  0.00000000000E+00  0.00000000000E+00 -0.15047111768E+04  0.15047111768E+04  0.50400001928E-02 0. -1.
    10030    2    1    2    0    0  0.00000000000E+00  0.00000000000E+00 -0.14642783343E+04  0.15451440196E+04  0.49331430257E+03 0.  0.
        4    1    3    3  502    0  0.14920651258E+03 -0.13956423964E+03 -0.29929445230E+03  0.36238038366E+03  0.12699999809E+01 0.  1.
       -4    1    3    3    0  502 -0.14920651258E+03  0.13956423964E+03 -0.11649838820E+04  0.11827636359E+04  0.12699999809E+01 0. -1.
</event>
<event>
 5   0  0.5191358E-02  0.4980788E+03  0.7818609E-02  0.1014282E+00
        1   -1    0    0  501    0  0.00000000000E+00  0.00000000000E+00  0.25622761594E+03  0.25622761598E+03  0.50400001928E-02 0.  1.
       -1   -1    0    0    0  501  0.00000000000E+00  0.00000000000E+00 -0.24205285141E+03  0.24205285146E+03  0.50400001928E-02 0. -1.
    10030    2    1    2    0    0  0.00000000000E+00  0.00000000000E+00  0.14174764525E+02  0.49828046745E+03  0.49807880932E+03 0.  0.
        4    1    3    3  502    0  0.68442174168E+02  0.96349132338E+02  0.22638271502E+03  0.25537860730E+03  0.12699999809E+01 0.  1.
       -4    1    3    3    0  502 -0.68442174168E+02 -0.96349132338E+02 -0.21220795050E+03  0.24290186014E+03  0.12699999809E+01 0. -1.
</event>
<event>
 5   0  0.7698747E-02  0.4985074E+03  0.7818609E-02  0.1014169E+00
       -2   -1    0    0    0  501  0.00000000000E+00  0.00000000000E+00  0.78694084161E+02  0.78694084202E+02  0.25500000920E-02 0. -1.
        2   -1    0    0  501    0  0.00000000000E+00  0.00000000000E+00 -0.78947996810E+03  0.78947996810E+03  0.25500000920E-02 0.  1.
    10030    2    1    2    0    0  0.00000000000E+00  0.00000000000E+00 -0.71078588394E+03  0.86817405230E+03  0.49850738439E+03 0.  0.
        2    1    3    3  502    0 -0.38216854345E+01  0.62815769393E+02  0.64630425218E+02  0.90208192723E+02  0.25500000920E-02 0. -1.
       -2    1    3    3    0  502  0.38216854345E+01 -0.62815769393E+02 -0.77541630915E+03  0.77796585958E+03  0.25500000920E-02 0.  1.
</event>
<event>
 5   0  0.7881060E-02  0.5000747E+03  0.7818609E-02  0.1013759E+00
        2   -1    0    0  501    0  0.00000000000E+00  0.00000000000E+00  0.15778202175E+04  0.15778202175E+04  0.25500000920E-02 0. -1.
       -2   -1    0    0    0  501  0.00000000000E+00  0.00000000000E+00 -0.39623447815E+02  0.39623447897E+02  0.25500000920E-02 0.  1.
    10030    2    1    2    0    0  0.00000000000E+00  0.00000000000E+00  0.15381967697E+04  0.16174436654E+04  0.50007470290E+03 0.  0.
        1    1    3    3  502    0  0.20718537612E+03 -0.16320401830E+02  0.12187450219E+04  0.12363379651E+04  0.50400001928E-02 0. -1.
       -1    1    3    3    0  502 -0.20718537612E+03  0.16320401830E+02  0.31945174781E+03  0.38110570030E+03  0.50400001928E-02 0.  1.
</event>
<event>
 5   0  0.7881060E-02  0.5000782E+03  0.7818609E-02  0.1013759E+00
       -2   -1    0    0    0  501  0.00000000000E+00  0.00000000000E+00  0.12637504081E+03  0.12637504084E+03  0.25500000920E-02 0. -1.
        2   -1    0    0  501    0  0.00000000000E+00  0.00000000000E+00 -0.49471439094E+03  0.49471439095E+03  0.25500000920E-02 0.  1.
    10030    2    1    2    0    0  0.00000000000E+00  0.00000000000E+00 -0.36833935013E+03  0.62108943179E+03  0.50007819931E+03 0.  0.
        1    1    3    3  502    0 -0.17775964105E+03  0.17079313092E+03 -0.23613701533E+03  0.34136413636E+03  0.50400001928E-02 0. -1.
       -1    1    3    3    0  502  0.17775964105E+03 -0.17079313092E+03 -0.13220233480E+03  0.27972529543E+03  0.50400001928E-02 0.  1.
</event>
<event>
 5   0  0.3210875E-02  0.5002135E+03  0.7818609E-02  0.1013723E+00
        4   -1    0    0  501    0  0.00000000000E+00  0.00000000000E+00  0.31533864640E+03  0.31534120380E+03  0.12699999809E+01 0. -1.
       -4   -1    0    0    0  501  0.00000000000E+00  0.00000000000E+00 -0.19836356231E+03  0.19836762778E+03  0.12699999809E+01 0.  1.
    10030    2    1    2    0    0  0.00000000000E+00  0.00000000000E+00  0.11697508409E+03  0.51370883159E+03  0.50021354775E+03 0.  0.
        3    1    3    3  502    0 -0.20872013715E+01 -0.24960650209E+03  0.74582824740E+02  0.26051942393E+03  0.10100000352E+00 0. -1.
       -3    1    3    3    0  502  0.20872013715E+01  0.24960650209E+03  0.42392259352E+02  0.25318940766E+03  0.10100000352E+00 0.  1.
</event>
<event>
 5   0  0.7933103E-02  0.5002523E+03  0.7818609E-02  0.1013713E+00
       -2   -1    0    0    0  501  0.00000000000E+00  0.00000000000E+00  0.44090205288E+03  0.44090205289E+03  0.25500000920E-02 0.  1.
        2   -1    0    0  501    0  0.00000000000E+00  0.00000000000E+00 -0.14189794044E+03  0.14189794046E+03  0.25500000920E-02 0. -1.
    10030    2    1    2    0    0  0.00000000000E+00  0.00000000000E+00  0.29900411245E+03  0.58279999335E+03  0.50025230933E+03 0.  0.
        5    1    3    3  502    0 -0.22568361757E+03 -0.36476177707E+02  0.31396048032E+02  0.23080599778E+03  0.46999998093E+01 0. -1.
       -5    1    3    3    0  502  0.22568361757E+03  0.36476177707E+02  0.26760806442E+03  0.35199399557E+03  0.46999998093E+01 0.  1.
</event>
<event>
 5   0  0.5191358E-02  0.4986873E+03  0.7818609E-02  0.1014122E+00
       -1   -1    0    0    0  501  0.00000000000E+00  0.00000000000E+00  0.10295584901E+03  0.10295584913E+03  0.50400001928E-02 0. -1.
        1   -1    0    0  501    0  0.00000000000E+00  0.00000000000E+00 -0.60387291769E+03  0.60387291771E+03  0.50400001928E-02 0.  1.
    10030    2    1    2    0    0  0.00000000000E+00  0.00000000000E+00 -0.50091706868E+03  0.70682876685E+03  0.49868727269E+03 0.  0.
        4    1    3    3  502    0  0.29879694800E+02  0.22110933059E+03 -0.40821797649E+03  0.46521571499E+03  0.12699999809E+01 0.  1.
       -4    1    3    3    0  502 -0.29879694800E+02 -0.22110933059E+03 -0.92699092188E+02  0.24161305186E+03  0.12699999809E+01 0. -1.
</event>
<event>
 5   0  0.5038436E-02  0.5030029E+03  0.7818609E-02  0.1012998E+00
        1   -1    0    0  501    0  0.00000000000E+00  0.00000000000E+00  0.95916724507E+03  0.95916724508E+03  0.50400001928E-02 0.  1.
       -1   -1    0    0    0  501  0.00000000000E+00  0.00000000000E+00 -0.65945730216E+02  0.65945730409E+02  0.50400001928E-02 0. -1.
    10030    2    1    2    0    0  0.00000000000E+00  0.00000000000E+00  0.89322151485E+03  0.10251129755E+04  0.50300292039E+03 0.  0.
        1    1    3    3  502    0 -0.24285264705E+03 -0.57584154479E+02  0.50974365442E+03  0.56756668002E+03  0.50400001928E-02 0.  1.
       -1    1    3    3    0  502  0.24285264705E+03  0.57584154479E+02  0.38347786043E+03  0.45754629547E+03  0.50400001928E-02 0. -1.
</event>
<event>
 5   0  0.5038436E-02  0.4978690E+03  0.7818609E-02  0.1014337E+00
        1   -1    0    0  501    0  0.00000000000E+00  0.00000000000E+00  0.18985195616E+04  0.18985195616E+04  0.50400001928E-02 0. -1.
       -1   -1    0    0    0  501  0.00000000000E+00  0.00000000000E+00 -0.32640369943E+02  0.32640370332E+02  0.50400001928E-02 0.  1.
    10030    2    1    2    0    0  0.00000000000E+00  0.00000000000E+00  0.18658791916E+04  0.19311599319E+04  0.49786898363E+03 0.  0.
        1    1    3    3  502    0  0.20405097492E+02 -0.12933443000E+03  0.11171590174E+03  0.17211683681E+03  0.50400001928E-02 0.  1.
       -1    1    3    3    0  502 -0.20405097492E+02  0.12933443000E+03  0.17541632899E+04  0.17590430951E+04  0.50400001928E-02 0. -1.
</event>
<event>
 5   0  0.3210875E-02  0.4975258E+03  0.7818609E-02  0.1014427E+00
       -4   -1    0    0    0  501  0.00000000000E+00  0.00000000000E+00  0.38782197927E+03  0.38782405870E+03  0.12699999809E+01 0. -1.
        4   -1    0    0  501    0  0.00000000000E+00  0.00000000000E+00 -0.15956041000E+03  0.15956546412E+03  0.12699999809E+01 0.  1.
    10030    2    1    2    0    0  0.00000000000E+00  0.00000000000E+00  0.22826156927E+03  0.54738952282E+03  0.49752582413E+03 0.  0.
        1    1    3    3  502    0  0.10793247602E+03  0.16848684361E+03  0.27674718296E+03  0.34150584058E+03  0.50400001928E-02 0.  1.
       -1    1    3    3    0  502 -0.10793247602E+03 -0.16848684361E+03 -0.48485613689E+02  0.20588368223E+03  0.50400001928E-02 0. -1.
</event>
<event>
 5   0  0.3210875E-02  0.4917000E+03  0.7818609E-02  0.1015968E+00
       -3   -1    0    0    0  501  0.00000000000E+00  0.00000000000E+00  0.18638946678E+03  0.18638949415E+03  0.10100000352E+00 0. -1.
        3   -1    0    0  501    0  0.00000000000E+00  0.00000000000E+00 -0.32427909313E+03  0.32427910886E+03  0.10100000352E+00 0.  1.
    10030    2    1    2    0    0  0.00000000000E+00  0.00000000000E+00 -0.13788962635E+03  0.51066860301E+03  0.49169998276E+03 0.  0.
        4    1    3    3  502    0 -0.38556143968E+01 -0.13310816074E+03 -0.28357626506E+03  0.31328861968E+03  0.12699999809E+01 0.  1.
       -4    1    3    3    0  502  0.38556143968E+01  0.13310816074E+03  0.14568663871E+03  0.19737998332E+03  0.12699999809E+01 0. -1.
</event>
<event>
 5   0  0.5038436E-02  0.5041239E+03  0.7818609E-02  0.1012708E+00
        1   -1    0    0  501    0  0.00000000000E+00  0.00000000000E+00  0.52700798366E+03  0.52700798369E+03  0.50400001928E-02 0.  1.
       -1   -1    0    0    0  501  0.00000000000E+00  0.00000000000E+00 -0.12055836733E+03  0.12055836744E+03  0.50400001928E-02 0. -1.
    10030    2    1    2    0    0  0.00000000000E+00  0.00000000000E+00  0.40644961633E+03  0.64756635112E+03  0.50412388209E+03 0.  0.
        1    1    3    3  502    0 -0.11895415728E+03 -0.17497684324E+03  0.37920294568E+03  0.43423710256E+03  0.50400001928E-02 0.  1.
       -1    1    3    3    0  502  0.11895415728E+03  0.17497684324E+03  0.27246670653E+02  0.21332924856E+03  0.50400001928E-02 0. -1.
</event>
<event>
 5   0  0.7881060E-02  0.5009263E+03  0.7818609E-02  0.1013537E+00
        2   -1    0    0  501    0  0.00000000000E+00  0.00000000000E+00  0.24717687779E+03  0.24717687780E+03  0.25500000920E-02 0. -1.
       -2   -1    0    0    0  501  0.00000000000E+00  0.00000000000E+00 -0.25379308859E+03  0.25379308860E+03  0.25500000920E-02 0.  1.
    10030    2    1    2    0    0  0.00000000000E+00  0.00000000000E+00 -0.66162108057E+01  0.50096996640E+03  0.50092627501E+03 0.  0.
        1    1    3    3  502    0  0.40002168709E+02  0.18861873236E+03 -0.16318005893E+03  0.25259638033E+03  0.50400001928E-02 0.  1.
       -1    1    3    3    0  502 -0.40002168709E+02 -0.18861873236E+03  0.15656384812E+03  0.24837358608E+03  0.50400001928E-02 0. -1.
</event>
<event>
 5   0  0.5038436E-02  0.5056088E+03  0.7818609E-02  0.1012325E+00
       -1   -1    0    0    0  501  0.00000000000E+00  0.00000000000E+00  0.59675910933E+02  0.59675911146E+02  0.50400001928E-02 0.  1.
        1   -1    0    0  501    0  0.00000000000E+00  0.00000000000E+00 -0.10709524819E+04  0.10709524819E+04  0.50400001928E-02 0. -1.
    10030    2    1    2    0    0  0.00000000000E+00  0.00000000000E+00 -0.10112765710E+04  0.11306283931E+04  0.50560880155E+03 0.  0.
        1    1    3    3  502    0 -0.16032653188E+03  0.12098032789E+03 -0.84894155949E+03  0.87237756047E+03  0.50400001928E-02 0. -1.
       -1    1    3    3    0  502  0.16032653188E+03 -0.12098032789E+03 -0.16233501150E+03  0.25825083261E+03  0.50400001928E-02 0.  1.
</event>
<event>
 5   0  0.7776070E-02  0.4988882E+03  0.7818609E-02  0.1014070E+00
        2   -1    0    0  501    0  0.00000000000E+00  0.00000000000E+00  0.46166443521E+03  0.46166443522E+03  0.25500000920E-02 0.  1.
       -2   -1    0    0    0  501  0.00000000000E+00  0.00000000000E+00 -0.13477832521E+03  0.13477832523E+03  0.25500000920E-02 0. -1.
    10030    2    1    2    0    0  0.00000000000E+00  0.00000000000E+00  0.32688611000E+03  0.59644276045E+03  0.49888820148E+03 0.  0.
        4    1    3    3  502    0  0.19043127363E+03 -0.86368102646E+01  0.35578107592E+03  0.40363405623E+03  0.12699999809E+01 0.  1.
       -4    1    3    3    0  502 -0.19043127363E+03  0.86368102646E+01 -0.28894965919E+02  0.19280870422E+03  0.12699999809E+01 0. -1.
</event>
<event>
 5   0  0.8208720E-02  0.5004527E+03  0.7818609E-02  0.1013661E+00
       -2   -1    0    0    0  501  0.00000000000E+00  0.00000000000E+00  0.17879329876E+03  0.17879329877E+03  0.25500000920E-02 0. -1.
        2   -1    0    0  501    0  0.00000000000E+00  0.00000000000E+00 -0.35019892346E+03  0.35019892347E+03  0.25500000920E-02 0.  1.
    10030    2    1    2    0    0  0.00000000000E+00  0.00000000000E+00 -0.17140562470E+03  0.52899222224E+03  0.50045267809E+03 0.  0.
        3    1    3    3  502    0  0.44289770726E+02 -0.82763228179E+02  0.15947714991E+03  0.18505217446E+03  0.10100000352E+00 0. -1.
       -3    1    3    3    0  502 -0.44289770726E+02  0.82763228179E+02 -0.33088277461E+03  0.34394004778E+03  0.10100000352E+00 0.  1.
</event>
<event>
 5   0  0.7698747E-02  0.4985180E+03  0.7818609E-02  0.1014166E+00
       -2   -1    0    0    0  501  0.00000000000E+00  0.00000000000E+00  0.45369241071E+02  0.45369241143E+02  0.25500000920E-02 0.  1.
        2   -1    0    0  501    0  0.00000000000E+00  0.00000000000E+00 -0.13694310120E+04  0.13694310120E+04  0.25500000920E-02 0. -1.
    10030    2    1    2    0    0  0.00000000000E+00  0.00000000000E+00 -0.13240617709E+04  0.14148002531E+04  0.49851798669E+03 0.  0.
        2    1    3    3  502    0 -0.60216328055E+02 -0.16994815028E+03 -0.17358209849E+03  0.25027809506E+03  0.25500000920E-02 0.  1.
       -2    1    3    3    0  502  0.60216328055E+02  0.16994815028E+03 -0.11504796724E+04  0.11645221580E+04  0.25500000920E-02 0. -1.
</event>
<event>
 5   0  0.4803890E-02  0.4987078E+03  0.7818609E-02  0.1014117E+00
        1   -1    0    0  501    0  0.00000000000E+00  0.00000000000E+00  0.76492628753E+03  0.76492628755E+03  0.50400001928E-02 0. -1.
       -1   -1    0    0    0  501  0.00000000000E+00  0.00000000000E+00 -0.81285451738E+02  0.81285451894E+02  0.50400001928E-02 0.  1.
    10030    2    1    2    0    0  0.00000000000E+00  0.00000000000E+00  0.68364083579E+03  0.84621173944E+03  0.49870784594E+03 0.  0.
        5    1    3    3  502    0  0.86669387888E+02 -0.18207809442E+03  0.59057089483E+03  0.62406737383E+03  0.46999998093E+01 0. -1.
       -5    1    3    3    0  502 -0.86669387888E+02  0.18207809442E+03  0.93069940963E+02  0.22214436561E+03  0.46999998093E+01 0.  1.
</event>
<event>
 5   0  0.5038436E-02  0.4955671E+03  0.7818609E-02  0.1014942E+00
        1   -1    0    0  501    0  0.00000000000E+00  0.00000000000E+00  0.11926595340E+04  0.11926595341E+04  0.50400001928E-02 0.  1.
       -1   -1    0    0    0  501  0.00000000000E+00  0.00000000000E+00 -0.51478804145E+02  0.51478804392E+02  0.50400001928E-02 0. -1.
    10030    2    1    2    0    0  0.00000000000E+00  0.00000000000E+00  0.11411807299E+04  0.12441383384E+04  0.49556709626E+03 0.  0.
        1    1    3    3  502    0 -0.13488815254E+02 -0.12479482861E+03  0.11069347456E+04  0.11140288274E+04  0.50400001928E-02 0.  1.
       -1    1    3    3    0  502  0.13488815254E+02  0.12479482861E+03  0.34245984317E+02  0.13010951100E+03  0.50400001928E-02 0. -1.
</event>
<event>
 5   0  0.7776070E-02  0.5036367E+03  0.7818609E-02  0.1012834E+00
        2   -1    0    0  501    0  0.00000000000E+00  0.00000000000E+00  0.69246967284E+03  0.69246967285E+03  0.25500000920E-02 0.  1.
       -2   -1    0    0    0  501  0.00000000000E+00  0.00000000000E+00 -0.91574376214E+02  0.91574376249E+02  0.25500000920E-02 0. -1.
    10030    2    1    2    0    0  0.00000000000E+00  0.00000000000E+00  0.60089529663E+03  0.78404404909E+03  0.50363668791E+03 0.  0.
        4    1    3    3  502    0  0.21039393507E+03  0.13686013616E+03  0.33214457474E+03  0.41631470814E+03  0.12699999809E+01 0. -1.
       -4    1    3    3    0  502 -0.21039393507E+03 -0.13686013616E+03  0.26875072188E+03  0.36772934095E+03  0.12699999809E+01 0.  1.
</event>
<event>
 5   0  0.7776070E-02  0.4963473E+03  0.7818609E-02  0.1014737E+00
       -2   -1    0    0    0  501  0.00000000000E+00  0.00000000000E+00  0.24262217492E+03  0.24262217493E+03  0.25500000920E-02 0.  1.
        2   -1    0    0  501    0  0.00000000000E+00  0.00000000000E+00 -0.25385217808E+03  0.25385217809E+03  0.25500000920E-02 0. -1.
    10030    2    1    2    0    0  0.00000000000E+00  0.00000000000E+00 -0.11230003159E+02  0.49647435302E+03  0.49634732823E+03 0.  0.
        4    1    3    3  502    0  0.12981613864E+01 -0.13361779575E+03  0.20356325079E+03  0.24350566839E+03  0.12699999809E+01 0.  1.
       -4    1    3    3    0  502 -0.12981613864E+01  0.13361779575E+03 -0.21479325395E+03  0.25296868464E+03  0.12699999809E+01 0. -1.
</event>
<event>
 5   0  0.7933103E-02  0.5019722E+03  0.7818609E-02  0.1013265E+00
       -2   -1    0    0    0  501  0.00000000000E+00  0.00000000000E+00  0.13154407613E+04  0.13154407613E+04  0.25500000920E-02 0. -1.
        2   -1    0    0  501    0  0.00000000000E+00  0.00000000000E+00 -0.47888146395E+02  0.47888146463E+02  0.25500000920E-02 0.  1.
    10030    2    1    2    0    0  0.00000000000E+00  0.00000000000E+00  0.12675526149E+04  0.13633289078E+04  0.50197218967E+03 0.  0.
        5    1    3    3  502    0 -0.22507944970E+03  0.34380505814E+02  0.34725823393E+03  0.41527478721E+03  0.46999998093E+01 0.  1.
       -5    1    3    3    0  502  0.22507944970E+03 -0.34380505814E+02  0.92029438101E+03  0.94805412060E+03  0.46999998093E+01 0. -1.
</event>
<event>
 5   0  0.8208720E-02  0.4934187E+03  0.7818609E-02  0.1015511E+00
        2   -1    0    0  501    0  0.00000000000E+00  0.00000000000E+00  0.55084895906E+03  0.55084895907E+03  0.25500000920E-02 0.  1.
       -2   -1    0    0    0  501  0.00000000000E+00  0.00000000000E+00 -0.11049398451E+03  0.11049398454E+03  0.25500000920E-02 0. -1.
    10030    2    1    2    0    0  0.00000000000E+00  0.00000000000E+00  0.44035497455E+03  0.66134294360E+03  0.49341867155E+03 0.  0.
        3    1    3    3  502    0 -0.16167369546E+03 -0.18526014284E+03  0.19317788028E+03  0.31269379264E+03  0.10100000352E+00 0. -1.
       -3    1    3    3    0  502  0.16167369546E+03  0.18526014284E+03  0.24717709428E+03  0.34864915096E+03  0.10100000352E+00 0.  1.
</event>
<event>
 5   0  0.3210875E-02  0.5050565E+03  0.7818609E-02  0.1012467E+00
       -3   -1    0    0    0  501  0.00000000000E+00  0.00000000000E+00  0.19188249084E+03  0.19188251742E+03  0.10100000352E+00 0.  1.
        3   -1    0    0  501    0  0.00000000000E+00  0.00000000000E+00 -0.33234148150E+03  0.33234149685E+03  0.10100000352E+00 0. -1.
    10030    2    1    2    0    0  0.00000000000E+00  0.00000000000E+00 -0.14045899066E+03  0.52422401426E+03  0.50505652067E+03 0.  0.
        1    1    3    3  502    0 -0.13952355325E+03  0.10604619384E+03 -0.25894804640E+03  0.31267668269E+03  0.50400001928E-02 0. -1.
       -1    1    3    3    0  502  0.13952355325E+03 -0.10604619384E+03  0.11848905574E+03  0.21154733157E+03  0.50400001928E-02 0.  1.
</event>
<event>
 5   0  0.7776070E-02  0.5077965E+03  0.7818609E-02  0.1011764E+00
        2   -1    0    0  501    0  0.00000000000E+00  0.00000000000E+00  0.15255579193E+04  0.15255579193E+04  0.25500000920E-02 0.  1.
       -2   -1    0    0    0  501  0.00000000000E+00  0.00000000000E+00 -0.42256228516E+02  0.42256228593E+02  0.25500000920E-02 0. -1.
    10030    2    1    2    0    0  0.00000000000E+00  0.00000000000E+00  0.14833016908E+04  0.15678141479E+04  0.50779651088E+03 0.  0.
        4    1    3    3  502    0  0.79391689936E+02  0.73458893608E+02  0.32446304987E+02  0.11293194893E+03  0.12699999809E+01 0. -1.
       -4    1    3    3    0  502 -0.79391689936E+02 -0.73458893608E+02  0.14508553858E+04  0.14548821990E+04  0.12699999809E+01 0.  1.
</event>
<event>
 5   0  0.3210875E-02  0.4957970E+03  0.7818609E-02  0.1014882E+00
       -3   -1    0    0    0  501  0.00000000000E+00  0.00000000000E+00  0.25475893974E+03  0.25475895977E+03  0.10100000352E+00 0.  1.
        3   -1    0    0  501    0  0.00000000000E+00  0.00000000000E+00 -0.24122278177E+03  0.24122280292E+03  0.10100000352E+00 0. -1.
    10030    2    1    2    0    0  0.00000000000E+00  0.00000000000E+00  0.13536157971E+02  0.49598176268E+03  0.49579701627E+03 0.  0.
        1    1    3    3  502    0  0.18574752205E+03  0.53193573064E+02  0.16213845069E+03  0.25223119430E+03  0.50400001928E-02 0.  1.
       -1    1    3    3    0  502 -0.18574752205E+03 -0.53193573064E+02 -0.14860229271E+03  0.24375056838E+03  0.50400001928E-02 0. -1.
</event>
<event>
 5   0  0.4803890E-02  0.5008182E+03  0.7818609E-02  0.1013566E+00
        1   -1    0    0  501    0  0.00000000000E+00  0.00000000000E+00  0.17678958847E+03  0.17678958854E+03  0.50400001928E-02 0. -1.
       -1   -1    0    0    0  501  0.00000000000E+00  0.00000000000E+00 -0.35468551399E+03  0.35468551403E+03  0.50400001928E-02 0.  1.
    10030    2    1    2    0    0  0.00000000000E+00  0.00000000000E+00 -0.17789592552E+03  0.53147510257E+03  0.50081815496E+03 0.  0.
        5    1    3    3  502    0  0.22170764087E+03 -0.26876786873E+02 -0.20903861649E+03  0.30593442577E+03  0.46999998093E+01 0.  1.
       -5    1    3    3    0  502 -0.22170764087E+03  0.26876786873E+02  0.31142690967E+02  0.22554067680E+03  0.46999998093E+01 0. -1.
</event>
<event>
 5   0  0.4865501E-02  0.4986059E+03  0.7818609E-02  0.1014143E+00
        1   -1    0    0  501    0  0.00000000000E+00  0.00000000000E+00  0.19364694070E+03  0.19364694076E+03  0.50400001928E-02 0.  1.
       -1   -1    0    0    0  501  0.00000000000E+00  0.00000000000E+00 -0.32095509614E+03  0.32095509618E+03  0.50400001928E-02 0. -1.
    10030    2    1    2    0    0  0.00000000000E+00  0.00000000000E+00 -0.12730815544E+03  0.51460203694E+03  0.49860594660E+03 0.  0.
        2    1    3    3  502    0  0.36102412626E+00 -0.19431950027E+03 -0.22484320376E+03  0.29717783364E+03  0.25500000920E-02 0.  1.
       -2    1    3    3    0  502 -0.36102412626E+00  0.19431950027E+03  0.97535048318E+02  0.21742420330E+03  0.25500000920E-02 0. -1.
</event>
<event>
 5   0  0.3210875E-02  0.5002905E+03  0.7818609E-02  0.1013703E+00
       -3   -1    0    0    0  501  0.00000000000E+00  0.00000000000E+00  0.48097134898E+03  0.48097135959E+03  0.10100000352E+00 0. -1.
        3   -1    0    0  501    0  0.00000000000E+00  0.00000000000E+00 -0.13009638270E+03  0.13009642190E+03  0.10100000352E+00 0.  1.
    10030    2    1    2    0    0  0.00000000000E+00  0.00000000000E+00  0.35087496629E+03  0.61106778149E+03  0.50029050721E+03 0.  0.
        4    1    3    3  502    0  0.18684246029E+03 -0.14408204115E+03  0.27690626204E+03  0.36379723804E+03  0.12699999809E+01 0. -1.
       -4    1    3    3    0  502 -0.18684246029E+03  0.14408204115E+03  0.73968704251E+02  0.24727054345E+03  0.12699999809E+01 0.  1.
</event>
<event>
 5   0  0.7776070E-02  0.4983784E+03  0.7818609E-02  0.1014203E+00
        2   -1    0    0  501    0  0.00000000000E+00  0.00000000000E+00  0.63210992548E+03  0.63210992549E+03  0.25500000920E-02 0. -1.
       -2   -1    0    0    0  501  0.00000000000E+00  0.00000000000E+00 -0.98234921156E+02  0.98234921189E+02  0.25500000920E-02 0.  1.
    10030    2    1    2    0    0  0.00000000000E+00  0.00000000000E+00  0.53387500433E+03  0.73034484668E+03  0.49837844538E+03 0.  0.
        4    1    3    3  502    0  0.94995453200E+02 -0.23027949885E+03  0.25756874206E+03  0.35832395051E+03  0.12699999809E+01 0.  1.
       -4    1    3    3    0  502 -0.94995453200E+02  0.23027949885E+03  0.27630626227E+03  0.37202089617E+03  0.12699999809E+01 0. -1.
</event>
<event>
 5   0  0.8208720E-02  0.5171668E+03  0.7818609E-02  0.1009393E+00
        2   -1    0    0  501    0  0.00000000000E+00  0.00000000000E+00  0.13872277756E+04  0.13872277756E+04  0.25500000920E-02 0.  1.
       -2   -1    0    0    0  501  0.00000000000E+00  0.00000000000E+00 -0.48200713293E+02  0.48200713361E+02  0.25500000920E-02 0. -1.
    10030    2    1    2    0    0  0.00000000000E+00  0.00000000000E+00  0.13390270623E+04  0.14354284890E+04  0.51716677517E+03 0.  0.
        3    1    3    3  502    0 -0.25293449240E+03 -0.51897768706E+02  0.70838352090E+03  0.75397377854E+03  0.10100000352E+00 0. -1.
       -3    1    3    3    0  502  0.25293449240E+03  0.51897768706E+02  0.63064354144E+03  0.68145471046E+03  0.10100000352E+00 0.  1.
</event>
<event>
 5   0  0.4803890E-02  0.4930757E+03  0.7818609E-02  0.1015602E+00
        1   -1    0    0  501    0  0.00000000000E+00  0.00000000000E+00  0.17952680211E+03  0.17952680218E+03  0.50400001928E-02 0.  1.
       -1   -1    0    0    0  501  0.00000000000E+00  0.00000000000E+00 -0.33856174259E+03  0.33856174263E+03  0.50400001928E-02 0. -1.
    10030    2    1    2    0    0  0.00000000000E+00  0.00000000000E+00 -0.15903494049E+03  0.51808854481E+03  0.49307568178E+03 0.  0.
        5    1    3    3  502    0  0.52246290224E+02  0.50170877716E+01  0.17354006243E+03  0.18136452045E+03  0.46999998093E+01 0.  1.
       -5    1    3    3    0  502 -0.52246290224E+02 -0.50170877716E+01 -0.33257500292E+03  0.33672402435E+03  0.46999998093E+01 0. -1.
</event>
<event>
 5   0  0.7698747E-02  0.4971429E+03  0.7818609E-02  0.1014527E+00
        2   -1    0    0  501    0  0.00000000000E+00  0.00000000000E+00  0.29726352059E+03  0.29726352061E+03  0.25500000920E-02 0.  1.
       -2   -1    0    0    0  501  0.00000000000E+00  0.00000000000E+00 -0.20785518450E+03  0.20785518452E+03  0.25500000920E-02 0. -1.
    10030    2    1    2    0    0  0.00000000000E+00  0.00000000000E+00  0.89408336094E+02  0.50511870512E+03  0.49714289264E+03 0.  0.
        2    1    3    3  502    0 -0.21727714042E+03  0.11425563640E+02 -0.77423495547E+02  0.23094219390E+03  0.25500000920E-02 0. -1.
       -2    1    3    3    0  502  0.21727714042E+03 -0.11425563640E+02  0.16683183164E+03  0.27417651123E+03  0.25500000920E-02 0.  1.
</event>
<event>
 5   0  0.3210875E-02  0.5030441E+03  0.7818609E-02  0.1012987E+00
        3   -1    0    0  501    0  0.00000000000E+00  0.00000000000E+00  0.23465686290E+03  0.23465688464E+03  0.10100000352E+00 0.  1.
       -3   -1    0    0    0  501  0.00000000000E+00  0.00000000000E+00 -0.26959928203E+03  0.26959930095E+03  0.10100000352E+00 0. -1.
    10030    2    1    2    0    0  0.00000000000E+00  0.00000000000E+00 -0.34942419133E+02  0.50425618559E+03  0.50304406174E+03 0.  0.
        1    1    3    3  502    0  0.23882003503E+03 -0.43094847866E+01 -0.96463063639E+02  0.25760183125E+03  0.50400001928E-02 0. -1.
       -1    1    3    3    0  502 -0.23882003503E+03  0.43094847866E+01  0.61520644506E+02  0.24665435434E+03  0.50400001928E-02 0.  1.
</event>
<event>
 5   0  0.7776070E-02  0.5075515E+03  0.7818609E-02  0.1011826E+00
       -2   -1    0    0    0  501  0.00000000000E+00  0.00000000000E+00  0.52871738202E+02  0.52871738264E+02  0.25500000920E-02 0.  1.
        2   -1    0    0  501    0  0.00000000000E+00  0.00000000000E+00 -0.12180823488E+04  0.12180823488E+04  0.25500000920E-02 0. -1.
    10030    2    1    2    0    0  0.00000000000E+00  0.00000000000E+00 -0.11652106106E+04  0.12709540871E+04  0.50755149924E+03 0.  0.
        4    1    3    3  502    0  0.14628250956E+03 -0.97707873353E+02 -0.12458891034E+03  0.21556764739E+03  0.12699999809E+01 0.  1.
       -4    1    3    3    0  502 -0.14628250956E+03  0.97707873353E+02 -0.10406217003E+04  0.10553864397E+04  0.12699999809E+01 0. -1.
</event>
<event>
 5   0  0.5038436E-02  0.4998070E+03  0.7818609E-02  0.1013829E+00
        1   -1    0    0  501    0  0.00000000000E+00  0.00000000000E+00  0.44690502299E+03  0.44690502302E+03  0.50400001928E-02 0.  1.
       -1   -1    0    0    0  501  0.00000000000E+00  0.00000000000E+00 -0.13974281920E+03  0.13974281929E+03  0.50400001928E-02 0. -1.
    10030    2    1    2    0    0  0.00000000000E+00  0.00000000000E+00  0.30716220379E+03  0.58664784231E+03  0.49980703422E+03 0.  0.
        1    1    3    3  502    0  0.37913815536E+02  0.91191577212E+02 -0.11586621042E+03  0.15224434277E+03  0.50400001928E-02 0. -1.
       -1    1    3    3    0  502 -0.37913815536E+02 -0.91191577212E+02  0.42302841420E+03  0.43440349954E+03  0.50400001928E-02 0.  1.
</event>
<event>
 5   0  0.7698747E-02  0.5017574E+03  0.7818609E-02  0.1013321E+00
       -2   -1    0    0    0  501  0.00000000000E+00  0.00000000000E+00  0.45658374707E+02  0.45658374778E+02  0.25500000920E-02 0.  1.
        2   -1    0    0  501    0  0.00000000000E+00  0.00000000000E+00 -0.13785011958E+04  0.13785011958E+04  0.25500000920E-02 0. -1.
    10030    2    1    2    0    0  0.00000000000E+00  0.00000000000E+00 -0.13328428211E+04  0.14241595705E+04  0.50175740825E+03 0.  0.
        2    1    3    3  502    0 -0.49506781314E+02 -0.88295797532E+02 -0.13179621078E+04  0.13218438587E+04  0.25500000920E-02 0. -1.
       -2    1    3    3    0  502  0.49506781314E+02  0.88295797532E+02 -0.14880713298E+02  0.10231571186E+03  0.25500000920E-02 0.  1.
</event>
<event>
 5   0  0.4803890E-02  0.5078708E+03  0.7818609E-02  0.1011745E+00
        1   -1    0    0  501    0  0.00000000000E+00  0.00000000000E+00  0.15813331652E+04  0.15813331653E+04  0.50400001928E-02 0. -1.
       -1   -1    0    0    0  501  0.00000000000E+00  0.00000000000E+00 -0.40777743134E+02  0.40777743446E+02  0.50400001928E-02 0.  1.
    10030    2    1    2    0    0  0.00000000000E+00  0.00000000000E+00  0.15405554221E+04  0.16221109087E+04  0.50787084138E+03 0.  0.
        5    1    3    3  502    0 -0.14069718426E+03 -0.92281933793E+02  0.16301286314E+03  0.23432229197E+03  0.46999998093E+01 0.  1.
       -5    1    3    3    0  502  0.14069718426E+03  0.92281933793E+02  0.13775425590E+04  0.13877886167E+04  0.46999998093E+01 0. -1.
</event>
<event>
 5   0  0.3210875E-02  0.4965459E+03  0.7818609E-02  0.1014684E+00
       -3   -1    0    0    0  501  0.00000000000E+00  0.00000000000E+00  0.16347839454E+03  0.16347842574E+03  0.10100000352E+00 0.  1.
        3   -1    0    0  501    0  0.00000000000E+00  0.00000000000E+00 -0.37704953465E+03  0.37704954818E+03  0.10100000352E+00 0. -1.
    10030    2    1    2    0    0  0.00000000000E+00  0.00000000000E+00 -0.21357114011E+03  0.54052797392E+03  0.49654592809E+03 0.  0.
        2    1    3    3  502    0 -0.34021391454E+02  0.19505393644E+03  0.56268329467E+02  0.20583881583E+03  0.25500000920E-02 0.  1.
       -2    1    3    3    0  502  0.34021391454E+02 -0.19505393644E+03 -0.26983946958E+03  0.33468915809E+03  0.25500000920E-02 0. -1.
</event>
<event>
 5   0  0.5038436E-02  0.5015160E+03  0.7818609E-02  0.1013384E+00
       -1   -1    0    0    0  501  0.00000000000E+00  0.00000000000E+00  0.71815943262E+02  0.71815943439E+02  0.50400001928E-02 0. -1.
        1   -1    0    0  501    0  0.00000000000E+00  0.00000000000E+00 -0.87556572498E+03  0.87556572499E+03  0.50400001928E-02 0.  1.
    10030    2    1    2    0    0  0.00000000000E+00  0.00000000000E+00 -0.80374978172E+03  0.94738166843E+03  0.50151601577E+03 0.  0.
        1    1    3    3  502    0 -0.43767723144E+00  0.19119512549E+03 -0.95386131126E+02  0.21366862570E+03  0.50400001928E-02 0. -1.
       -1    1    3    3    0  502  0.43767723144E+00 -0.19119512549E+03 -0.70836365059E+03  0.73371304273E+03  0.50400001928E-02 0.  1.
</event>
<event>
 5   0  0.7933103E-02  0.5004908E+03  0.7818609E-02  0.1013651E+00
        2   -1    0    0  501    0  0.00000000000E+00  0.00000000000E+00  0.16136116052E+04  0.16136116052E+04  0.25500000920E-02 0. -1.
       -2   -1    0    0    0  501  0.00000000000E+00  0.00000000000E+00 -0.38809063149E+02  0.38809063233E+02  0.25500000920E-02 0.  1.
    10030    2    1    2    0    0  0.00000000000E+00  0.00000000000E+00  0.15748025420E+04  0.16524206684E+04  0.50049077815E+03 0.  0.
        5    1    3    3  502    0 -0.12768984895E+03 -0.64092163933E+01  0.14974748627E+04  0.15029300815E+04  0.46999998093E+01 0. -1.
       -5    1    3    3    0  502  0.12768984895E+03  0.64092163933E+01  0.77327679353E+02  0.14949058690E+03  0.46999998093E+01 0.  1.
</event>
<event>
 5   0  0.4803890E-02  0.4934730E+03  0.7818609E-02  0.1015497E+00
        1   -1    0    0  501    0  0.00000000000E+00  0.00000000000E+00  0.84350814668E+03  0.84350814670E+03  0.50400001928E-02 0.  1.
       -1   -1    0    0    0  501  0.00000000000E+00  0.00000000000E+00 -0.72173456740E+02  0.72173456916E+02  0.50400001928E-02 0. -1.
    10030    2    1    2    0    0  0.00000000000E+00  0.00000000000E+00  0.77133468994E+03  0.91568160362E+03  0.49347299348E+03 0.  0.
        5    1    3    3  502    0  0.95027596928E+02  0.17944163280E+03  0.64563001755E+03  0.67682328072E+03  0.46999998093E+01 0.  1.
       -5    1    3    3    0  502 -0.95027596928E+02 -0.17944163280E+03  0.12570467239E+03  0.23885832290E+03  0.46999998093E+01 0. -1.
</event>
<event>
 5   0  0.8208720E-02  0.4928830E+03  0.7818609E-02  0.1015653E+00
       -2   -1    0    0    0  501  0.00000000000E+00  0.00000000000E+00  0.23878157916E+03  0.23878157918E+03  0.25500000920E-02 0. -1.
        2   -1    0    0  501    0  0.00000000000E+00  0.00000000000E+00 -0.25434712599E+03  0.25434712600E+03  0.25500000920E-02 0.  1.
    10030    2    1    2    0    0  0.00000000000E+00  0.00000000000E+00 -0.15565546831E+02  0.49312870518E+03  0.49288298167E+03 0.  0.
        3    1    3    3  502    0 -0.14532565600E+03 -0.11627817136E+02 -0.20657416966E+03  0.25283917852E+03  0.10100000352E+00 0.  1.
       -3    1    3    3    0  502  0.14532565600E+03  0.11627817136E+02  0.19100862283E+03  0.24028952666E+03  0.10100000352E+00 0. -1.
</event>
<event>
 5   0  0.5038436E-02  0.5180641E+03  0.7818609E-02  0.1009169E+00
       -1   -1    0    0    0  501  0.00000000000E+00  0.00000000000E+00  0.75810178887E+02  0.75810179054E+02  0.50400001928E-02 0. -1.
        1   -1    0    0  501    0  0.00000000000E+00  0.00000000000E+00 -0.88507391800E+03  0.88507391801E+03  0.50400001928E-02 0.  1.
    10030    2    1    2    0    0  0.00000000000E+00  0.00000000000E+00 -0.80926373911E+03  0.96088409707E+03  0.51806413556E+03 0.  0.
        1    1    3    3  502    0 -0.48248941565E+02  0.14349327730E+03 -0.14782311864E+02  0.15210784911E+03  0.50400001928E-02 0. -1.
       -1    1    3    3    0  502  0.48248941565E+02 -0.14349327730E+03 -0.79448142725E+03  0.80877624796E+03  0.50400001928E-02 0.  1.
</event>
<event>
 5   0  0.4884478E-02  0.5114090E+03  0.7818609E-02  0.1010843E+00
       -1   -1    0    0    0  501  0.00000000000E+00  0.00000000000E+00  0.11631301399E+03  0.11631301410E+03  0.50400001928E-02 0.  1.
        1   -1    0    0  501    0  0.00000000000E+00  0.00000000000E+00 -0.56214518935E+03  0.56214518937E+03  0.50400001928E-02 0. -1.
    10030    2    1    2    0    0  0.00000000000E+00  0.00000000000E+00 -0.44583217536E+03  0.67845820347E+03  0.51140903910E+03 0.  0.
        3    1    3    3  502    0  0.14996717723E+03 -0.73791395503E+02 -0.47964661782E+03  0.50793327562E+03  0.10100000352E+00 0. -1.
       -3    1    3    3    0  502 -0.14996717723E+03  0.73791395503E+02  0.33814442461E+02  0.17052492785E+03  0.10100000352E+00 0.  1.
</event>
<event>
 5   0  0.8208720E-02  0.4992429E+03  0.7818609E-02  0.1013977E+00
       -2   -1    0    0    0  501  0.00000000000E+00  0.00000000000E+00  0.31944356556E+02  0.31944356658E+02  0.25500000920E-02 0. -1.
        2   -1    0    0  501    0  0.00000000000E+00  0.00000000000E+00 -0.19506061222E+04  0.19506061222E+04  0.25500000920E-02 0.  1.
    10030    2    1    2    0    0  0.00000000000E+00  0.00000000000E+00 -0.19186617657E+04  0.19825504789E+04  0.49924285702E+03 0.  0.
        3    1    3    3  502    0 -0.35602608126E+02  0.11497436391E+02 -0.19394089113E+04  0.19397697472E+04  0.10100000352E+00 0.  1.
       -3    1    3    3    0  502  0.35602608126E+02 -0.11497436391E+02  0.20747145640E+02  0.42780731669E+02  0.10100000352E+00 0. -1.
</event>
<event>
 5   0  0.7933103E-02  0.5230727E+03  0.7818609E-02  0.1007926E+00
        2   -1    0    0  501    0  0.00000000000E+00  0.00000000000E+00  0.87898349151E+03  0.87898349152E+03  0.25500000920E-02 0. -1.
       -2   -1    0    0    0  501  0.00000000000E+00  0.00000000000E+00 -0.77818590140E+02  0.77818590182E+02  0.25500000920E-02 0.  1.
    10030    2    1    2    0    0  0.00000000000E+00  0.00000000000E+00  0.80116490137E+03  0.95680208170E+03  0.52307267597E+03 0.  0.
        5    1    3    3  502    0 -0.23271066047E+03 -0.11742717227E+03  0.36239764033E+03  0.44642752155E+03  0.46999998093E+01 0.  1.
       -5    1    3    3    0  502  0.23271066047E+03  0.11742717227E+03  0.43876726104E+03  0.51037456014E+03  0.46999998093E+01 0. -1.
</event>
<event>
 5   0  0.7933103E-02  0.5070756E+03  0.7818609E-02  0.1011948E+00
       -2   -1    0    0    0  501  0.00000000000E+00  0.00000000000E+00  0.29179951973E+02  0.29179952085E+02  0.25500000920E-02 0. -1.
        2   -1    0    0  501    0  0.00000000000E+00  0.00000000000E+00 -0.22029305901E+04  0.22029305901E+04  0.25500000920E-02 0.  1.
    10030    2    1    2    0    0  0.00000000000E+00  0.00000000000E+00 -0.21737506382E+04  0.22321105422E+04  0.50707557207E+03 0.  0.
        5    1    3    3  502    0  0.11791007674E+03  0.18822107170E+03 -0.54902229103E+03  0.59226474154E+03  0.46999998093E+01 0. -1.
       -5    1    3    3    0  502 -0.11791007674E+03 -0.18822107170E+03 -0.16247283471E+04  0.16398458007E+04  0.46999998093E+01 0.  1.
</event>
<event>
 5   0  0.5191358E-02  0.4969193E+03  0.7818609E-02  0.1014586E+00
        1   -1    0    0  501    0  0.00000000000E+00  0.00000000000E+00  0.43476389616E+03  0.43476389619E+03  0.50400001928E-02 0.  1.
       -1   -1    0    0    0  501  0.00000000000E+00  0.00000000000E+00 -0.14199017078E+03  0.14199017087E+03  0.50400001928E-02 0. -1.
    10030    2    1    2    0    0  0.00000000000E+00  0.00000000000E+00  0.29277372538E+03  0.57675406706E+03  0.49691930894E+03 0.  0.
        4    1    3    3  502    0  0.17057559648E+03 -0.12503672618E+03  0.29771998055E+03  0.36519722990E+03  0.12699999809E+01 0.  1.
       -4    1    3    3    0  502 -0.17057559648E+03  0.12503672618E+03 -0.49462551652E+01  0.21155683716E+03  0.12699999809E+01 0. -1.
</event>
<event>
 5   0  0.4803890E-02  0.5070540E+03  0.7818609E-02  0.1011954E+00
       -1   -1    0    0    0  501  0.00000000000E+00  0.00000000000E+00  0.15580642007E+03  0.15580642015E+03  0.50400001928E-02 0.  1.
        1   -1    0    0  501    0  0.00000000000E+00  0.00000000000E+00 -0.41253709773E+03  0.41253709776E+03  0.50400001928E-02 0. -1.
    10030    2    1    2    0    0  0.00000000000E+00  0.00000000000E+00 -0.25673067766E+03  0.56834351791E+03  0.50705395522E+03 0.  0.
        5    1    3    3  502    0 -0.11043767599E+03  0.10565144906E+03 -0.35503454821E+03  0.38656219343E+03  0.46999998093E+01 0. -1.
       -5    1    3    3    0  502  0.11043767599E+03 -0.10565144906E+03  0.98303870554E+02  0.18178132448E+03  0.46999998093E+01 0.  1.
</event>
<event>
 5   0  0.4865501E-02  0.4949805E+03  0.7818609E-02  0.1015097E+00
        1   -1    0    0  501    0  0.00000000000E+00  0.00000000000E+00  0.42417514430E+03  0.42417514433E+03  0.50400001928E-02 0. -1.
       -1   -1    0    0    0  501  0.00000000000E+00  0.00000000000E+00 -0.14440126517E+03  0.14440126526E+03  0.50400001928E-02 0.  1.
    10030    2    1    2    0    0  0.00000000000E+00  0.00000000000E+00  0.27977387913E+03  0.56857640958E+03  0.49498051486E+03 0.  0.
        2    1    3    3  502    0  0.10098354338E+03 -0.18475470884E+03 -0.95279375913E+01  0.21076707540E+03  0.25500000920E-02 0.  1.
       -2    1    3    3    0  502 -0.10098354338E+03  0.18475470884E+03  0.28930181672E+03  0.35780933419E+03  0.25500000920E-02 0. -1.
</event>
<event>
 5   0  0.5038436E-02  0.5205026E+03  0.7818609E-02  0.1008562E+00
        1   -1    0    0  501    0  0.00000000000E+00  0.00000000000E+00  0.49660720703E+03  0.49660720706E+03  0.50400001928E-02 0. -1.
       -1   -1    0    0    0  501  0.00000000000E+00  0.00000000000E+00 -0.13638692884E+03  0.13638692894E+03  0.50400001928E-02 0.  1.
    10030    2    1    2    0    0  0.00000000000E+00  0.00000000000E+00  0.36022027819E+03  0.63299413599E+03  0.52050257193E+03 0.  0.
        1    1    3    3  502    0 -0.23614743741E+03 -0.99232049777E+02  0.12414055505E+03  0.28464625298E+03  0.50400001928E-02 0. -1.
       -1    1    3    3    0  502  0.23614743741E+03  0.99232049777E+02  0.23607972314E+03  0.34834788302E+03  0.50400001928E-02 0.  1.
</event>
<event>
 5   0  0.3210875E-02  0.4982804E+03  0.7818609E-02  0.1014229E+00
        3   -1    0    0  501    0  0.00000000000E+00  0.00000000000E+00  0.14905763426E+03  0.14905766848E+03  0.10100000352E+00 0.  1.
       -3   -1    0    0    0  501  0.00000000000E+00  0.00000000000E+00 -0.41642167350E+03  0.41642168574E+03  0.10100000352E+00 0. -1.
    10030    2    1    2    0    0  0.00000000000E+00  0.00000000000E+00 -0.26736403924E+03  0.56547935422E+03  0.49828041359E+03 0.  0.
        4    1    3    3  502    0  0.10849532460E+03  0.14085328272E+03  0.64377673758E+02  0.18909516253E+03  0.12699999809E+01 0.  1.
       -4    1    3    3    0  502 -0.10849532460E+03 -0.14085328272E+03 -0.33174171300E+03  0.37638419169E+03  0.12699999809E+01 0. -1.
</event>
<event>
 5   0  0.5191358E-02  0.4788746E+03  0.7818609E-02  0.1019445E+00
        1   -1    0    0  501    0  0.00000000000E+00  0.00000000000E+00  0.69339821182E+03  0.69339821184E+03  0.50400001928E-02 0. -1.
       -1   -1    0    0    0  501  0.00000000000E+00  0.00000000000E+00 -0.82680093738E+02  0.82680093891E+02  0.50400001928E-02 0.  1.
    10030    2    1    2    0    0  0.00000000000E+00  0.00000000000E+00  0.61071811808E+03  0.77607830573E+03  0.47887463586E+03 0.  0.
        4    1    3    3  502    0 -0.21209533783E+03  0.11109003557E+03  0.30246543633E+03  0.38576207876E+03  0.12699999809E+01 0. -1.
       -4    1    3    3    0  502  0.21209533783E+03 -0.11109003557E+03  0.30825268175E+03  0.39031622697E+03  0.12699999809E+01 0.  1.
</event>
<event>
 5   0  0.8208720E-02  0.5011585E+03  0.7818609E-02  0.1013477E+00
        2   -1    0    0  501    0  0.00000000000E+00  0.00000000000E+00  0.70917975294E+03  0.70917975294E+03  0.25500000920E-02 0. -1.
       -2   -1    0    0    0  501  0.00000000000E+00  0.00000000000E+00 -0.88538854755E+02  0.88538854792E+02  0.25500000920E-02 0.  1.
    10030    2    1    2    0    0  0.00000000000E+00  0.00000000000E+00  0.62064089818E+03  0.79771860773E+03  0.50115851048E+03 0.  0.
        3    1    3    3  502    0 -0.15311799444E+03  0.18717595774E+03  0.20582125902E+03  0.31755686143E+03  0.10100000352E+00 0.  1.
       -3    1    3    3    0  502  0.15311799444E+03 -0.18717595774E+03  0.41481963916E+03  0.48016174630E+03  0.10100000352E+00 0. -1.
</event>
<event>
 5   0  0.3210875E-02  0.4986926E+03  0.7818609E-02  0.1014121E+00
        3   -1    0    0  501    0  0.00000000000E+00  0.00000000000E+00  0.55068085376E+03  0.55068086302E+03  0.10100000352E+00 0. -1.
       -3   -1    0    0    0  501  0.00000000000E+00  0.00000000000E+00 -0.11290306538E+03  0.11290311055E+03  0.10100000352E+00 0.  1.
    10030    2    1    2    0    0  0.00000000000E+00  0.00000000000E+00  0.43777778839E+03  0.66358397358E+03  0.49869258866E+03 0.  0.
        5    1    3    3  502    0 -0.18173802492E+03  0.83139263122E+02  0.41719838021E+03  0.46262017382E+03  0.46999998093E+01 0. -1.
       -5    1    3    3    0  502  0.18173802492E+03 -0.83139263122E+02  0.20579408173E+02  0.20096379976E+03  0.46999998093E+01 0.  1.
</event>
<event>
 5   0  0.7933103E-02  0.4972401E+03  0.7818609E-02  0.1014502E+00
       -2   -1    0    0    0  501  0.00000000000E+00  0.00000000000E+00  0.45694629295E+02  0.45694629367E+02  0.25500000920E-02 0.  1.
        2   -1    0    0  501    0  0.00000000000E+00  0.00000000000E+00 -0.13527176777E+04  0.13527176777E+04  0.25500000920E-02 0. -1.
    10030    2    1    2    0    0  0.00000000000E+00  0.00000000000E+00 -0.13070230484E+04  0.13984123070E+04  0.49724011453E+03 0.  0.
        5    1    3    3  502    0 -0.16299180538E+03  0.86728086952E+02 -0.18542869790E+03  0.26171354892E+03  0.46999998093E+01 0.  1.
       -5    1    3    3    0  502  0.16299180538E+03 -0.86728086952E+02 -0.11215943505E+04  0.11366987581E+04  0.46999998093E+01 0. -1.
</event>
<event>
 5   0  0.7933103E-02  0.5023545E+03  0.7818609E-02  0.1013166E+00
        2   -1    0    0  501    0  0.00000000000E+00  0.00000000000E+00  0.42635727037E+03  0.42635727037E+03  0.25500000920E-02 0. -1.
       -2   -1    0    0    0  501  0.00000000000E+00  0.00000000000E+00 -0.14797448867E+03  0.14797448869E+03  0.25500000920E-02 0.  1.
    10030    2    1    2    0    0  0.00000000000E+00  0.00000000000E+00  0.27838278170E+03  0.57433175906E+03  0.50235445287E+03 0.  0.
        5    1    3    3  502    0 -0.92012630343E+02  0.31167917366E+02 -0.12557147004E+03  0.15883339479E+03  0.46999998093E+01 0.  1.
       -5    1    3    3    0  502  0.92012630343E+02 -0.31167917366E+02  0.40395425174E+03  0.41549836427E+03  0.46999998093E+01 0. -1.
</event>
<event>
 5   0  0.5038436E-02  0.4998689E+03  0.7818609E-02  0.1013813E+00
        1   -1    0    0  501    0  0.00000000000E+00  0.00000000000E+00  0.94448039833E+03  0.94448039835E+03  0.50400001928E-02 0. -1.
       -1   -1    0    0    0  501  0.00000000000E+00  0.00000000000E+00 -0.66139241520E+02  0.66139241712E+02  0.50400001928E-02 0.  1.
    10030    2    1    2    0    0  0.00000000000E+00  0.00000000000E+00  0.87834115681E+03  0.10106196401E+04  0.49986885192E+03 0.  0.
        1    1    3    3  502    0  0.11010588741E+03 -0.97492769570E+01  0.89237566481E+03  0.89919557496E+03  0.50400001928E-02 0. -1.
       -1    1    3    3    0  502 -0.11010588741E+03  0.97492769570E+01 -0.14034507999E+02  0.11142406510E+03  0.50400001928E-02 0.  1.
</event>
<event>
 5   0  0.7881060E-02  0.4960107E+03  0.7818609E-02  0.1014825E+00
        2   -1    0    0  501    0  0.00000000000E+00  0.00000000000E+00  0.15251308710E+04  0.15251308710E+04  0.25500000920E-02 0. -1.
       -2   -1    0    0    0  501  0.00000000000E+00  0.00000000000E+00 -0.40328777180E+02  0.40328777261E+02  0.25500000920E-02 0.  1.
    10030    2    1    2    0    0  0.00000000000E+00  0.00000000000E+00  0.14848020938E+04  0.15654596483E+04  0.49601073832E+03 0.  0.
        1    1    3    3  502    0 -0.15691735807E+03  0.17823005392E+03  0.51662064214E+03  0.56858235753E+03  0.50400001928E-02 0.  1.
       -1    1    3    3    0  502  0.15691735807E+03 -0.17823005392E+03  0.96818145168E+03  0.99687729074E+03  0.50400001928E-02 0. -1.
</event>
<event>
 5   0  0.7881060E-02  0.5000971E+03  0.7818609E-02  0.1013754E+00
        2   -1    0    0  501    0  0.00000000000E+00  0.00000000000E+00  0.10915406955E+03  0.10915406958E+03  0.25500000920E-02 0. -1.
       -2   -1    0    0    0  501  0.00000000000E+00  0.00000000000E+00 -0.57280753852E+03  0.57280753852E+03  0.25500000920E-02 0.  1.
    10030    2    1    2    0    0  0.00000000000E+00  0.00000000000E+00 -0.46365346897E+03  0.68196160811E+03  0.50009708622E+03 0.  0.
        1    1    3    3  502    0  0.31872278353E+02  0.24613932836E+03 -0.27327528434E+03  0.36916092988E+03  0.50400001928E-02 0.  1.
       -1    1    3    3    0  502 -0.31872278353E+02 -0.24613932836E+03 -0.19037818463E+03  0.31280067823E+03  0.50400001928E-02 0. -1.
</event>
<event>
 5   0  0.5038436E-02  0.5027427E+03  0.7818609E-02  0.1013066E+00
        1   -1    0    0  501    0  0.00000000000E+00  0.00000000000E+00  0.78454877388E+03  0.78454877390E+03  0.50400001928E-02 0.  1.
       -1   -1    0    0    0  501  0.00000000000E+00  0.00000000000E+00 -0.80539981661E+02  0.80539981819E+02  0.50400001928E-02 0. -1.
    10030    2    1    2    0    0  0.00000000000E+00  0.00000000000E+00  0.70400879222E+03  0.86508875572E+03  0.50274265360E+03 0.  0.
        1    1    3    3  502    0  0.11497101028E+03 -0.10805265225E+03  0.68873250024E+03  0.70657353883E+03  0.50400001928E-02 0.  1.
       -1    1    3    3    0  502 -0.11497101028E+03  0.10805265225E+03  0.15276291980E+02  0.15851521689E+03  0.50400001928E-02 0. -1.
</event>
<event>
 5   0  0.7776070E-02  0.4999790E+03  0.7818609E-02  0.1013784E+00
       -2   -1    0    0    0  501  0.00000000000E+00  0.00000000000E+00  0.58432881034E+02  0.58432881090E+02  0.25500000920E-02 0.  1.
        2   -1    0    0  501    0  0.00000000000E+00  0.00000000000E+00 -0.10695133460E+04  0.10695133460E+04  0.25500000920E-02 0. -1.
    10030    2    1    2    0    0  0.00000000000E+00  0.00000000000E+00 -0.10110804649E+04  0.11279462271E+04  0.49997898413E+03 0.  0.
        4    1    3    3  502    0  0.19881056842E+03  0.13584576889E+03 -0.35397854430E+03  0.42811463157E+03  0.12699999809E+01 0.  1.
       -4    1    3    3    0  502 -0.19881056842E+03 -0.13584576889E+03 -0.65710192063E+03  0.69983159548E+03  0.12699999809E+01 0. -1.
</event>
<event>
 5   0  0.4865501E-02  0.4967589E+03  0.7818609E-02  0.1014628E+00
        1   -1    0    0  501    0  0.00000000000E+00  0.00000000000E+00  0.41589576705E+03  0.41589576708E+03  0.50400001928E-02 0. -1.
       -1   -1    0    0    0  501  0.00000000000E+00  0.00000000000E+00 -0.14833609700E+03  0.14833609709E+03  0.50400001928E-02 0.  1.
    10030    2    1    2    0    0  0.00000000000E+00  0.00000000000E+00  0.26755967005E+03  0.56423186417E+03  0.49675891488E+03 0.  0.
        2    1    3    3  502    0 -0.89868019484E+01  0.31364347765E+02  0.41345125928E+03  0.41473657751E+03  0.25500000920E-02 0. -1.
       -2    1    3    3    0  502  0.89868019484E+01 -0.31364347765E+02 -0.14589158923E+03  0.14949528666E+03  0.25500000920E-02 0.  1.
</event>
<event>
 5   0  0.7698747E-02  0.4959145E+03  0.7818609E-02  0.1014851E+00
        2   -1    0    0  501    0  0.00000000000E+00  0.00000000000E+00  0.45136503493E+03  0.45136503493E+03  0.25500000920E-02 0.  1.
       -2   -1    0    0    0  501  0.00000000000E+00  0.00000000000E+00 -0.13621525029E+03  0.13621525032E+03  0.25500000920E-02 0. -1.
    10030    2    1    2    0    0  0.00000000000E+00  0.00000000000E+00  0.31514978463E+03  0.58758028525E+03  0.49591451366E+03 0.  0.
        2    1    3    3  502    0 -0.16759235860E+02 -0.23401432383E+03  0.25265227393E+03  0.34478507402E+03  0.25500000920E-02 0. -1.
       -2    1    3    3    0  502  0.16759235860E+02  0.23401432383E+03  0.62497510705E+02  0.24279521123E+03  0.25500000920E-02 0.  1.
</event>
<event>
 5   0  0.5038436E-02  0.4973880E+03  0.7818609E-02  0.1014463E+00
        1   -1    0    0  501    0  0.00000000000E+00  0.00000000000E+00  0.13091256017E+03  0.13091256027E+03  0.50400001928E-02 0.  1.
       -1   -1    0    0    0  501  0.00000000000E+00  0.00000000000E+00 -0.47244294374E+03  0.47244294376E+03  0.50400001928E-02 0. -1.
    10030    2    1    2    0    0  0.00000000000E+00  0.00000000000E+00 -0.34153038357E+03  0.60335550403E+03  0.49738803901E+03 0.  0.
        1    1    3    3  502    0 -0.19981751085E+03  0.75065924563E+02 -0.15956400981E+02  0.21404797927E+03  0.50400001928E-02 0.  1.
       -1    1    3    3    0  502  0.19981751085E+03 -0.75065924563E+02 -0.32557398259E+03  0.38930752476E+03  0.50400001928E-02 0. -1.
</event>
<event>
 5   0  0.7698747E-02  0.5045023E+03  0.7818609E-02  0.1012610E+00
       -2   -1    0    0    0  501  0.00000000000E+00  0.00000000000E+00  0.82149441132E+02  0.82149441171E+02  0.25500000920E-02 0.  1.
        2   -1    0    0  501    0  0.00000000000E+00  0.00000000000E+00 -0.77457184487E+03  0.77457184487E+03  0.25500000920E-02 0. -1.
    10030    2    1    2    0    0  0.00000000000E+00  0.00000000000E+00 -0.69242240373E+03  0.85672128604E+03  0.50450230600E+03 0.  0.
        2    1    3    3  502    0 -0.79508492183E+02  0.11766032653E+03 -0.70024661100E+03  0.71450043316E+03  0.25500000920E-02 0. -1.
       -2    1    3    3    0  502  0.79508492183E+02 -0.11766032653E+03  0.78242072635E+01  0.14222085288E+03  0.25500000920E-02 0.  1.
</event>
<event>
 5   0  0.7933103E-02  0.4983031E+03  0.7818609E-02  0.1014223E+00
        2   -1    0    0  501    0  0.00000000000E+00  0.00000000000E+00  0.68010127156E+03  0.68010127156E+03  0.25500000920E-02 0. -1.
       -2   -1    0    0    0  501  0.00000000000E+00  0.00000000000E+00 -0.91275369659E+02  0.91275369694E+02  0.25500000920E-02 0.  1.
    10030    2    1    2    0    0  0.00000000000E+00  0.00000000000E+00  0.58882590190E+03  0.77137664126E+03  0.49830310046E+03 0.  0.
        5    1    3    3  502    0 -0.34227888018E+02  0.18828037750E+03  0.54128659648E+03  0.57413789145E+03  0.46999998093E+01 0. -1.
       -5    1    3    3    0  502  0.34227888018E+02 -0.18828037750E+03  0.47539305423E+02  0.19723874981E+03  0.46999998093E+01 0.  1.
</event>
<event>
 5   0  0.7933103E-02  0.5042129E+03  0.7818609E-02  0.1012685E+00
        2   -1    0    0  501    0  0.00000000000E+00  0.00000000000E+00  0.27502495064E+03  0.27502495065E+03  0.25500000920E-02 0.  1.
       -2   -1    0    0    0  501  0.00000000000E+00  0.00000000000E+00 -0.23109780093E+03  0.23109780095E+03  0.25500000920E-02 0. -1.
    10030    2    1    2    0    0  0.00000000000E+00  0.00000000000E+00  0.43927149704E+02  0.50612275160E+03  0.50421289671E+03 0.  0.
        5    1    3    3  502    0 -0.16340917442E+03 -0.17394085696E+03  0.10337312464E+03  0.26012703224E+03  0.46999998093E+01 0.  1.
       -5    1    3    3    0  502  0.16340917442E+03  0.17394085696E+03 -0.59445974937E+02  0.24599571936E+03  0.46999998093E+01 0. -1.
</event>
<event>
 5   0  0.7933103E-02  0.4983985E+03  0.7818609E-02  0.1014198E+00
       -2   -1    0    0    0  501  0.00000000000E+00  0.00000000000E+00  0.46046839378E+02  0.46046839449E+02  0.25500000920E-02 0.  1.
        2   -1    0    0  501    0  0.00000000000E+00  0.00000000000E+00 -0.13486325125E+04  0.13486325125E+04  0.25500000920E-02 0. -1.
    10030    2    1    2    0    0  0.00000000000E+00  0.00000000000E+00 -0.13025856731E+04  0.13946793519E+04  0.49839849411E+03 0.  0.
        5    1    3    3  502    0  0.13051169717E+03 -0.50954452546E+02 -0.12278321183E+04  0.12358088283E+04  0.46999998093E+01 0. -1.
       -5    1    3    3    0  502 -0.13051169717E+03  0.50954452546E+02 -0.74753554816E+02  0.15887052366E+03  0.46999998093E+01 0.  1.
</event>
<event>
 5   0  0.5038436E-02  0.4940191E+03  0.7818609E-02  0.1015352E+00
       -1   -1    0    0    0  501  0.00000000000E+00  0.00000000000E+00  0.50617091982E+02  0.50617092233E+02  0.50400001928E-02 0. -1.
        1   -1    0    0  501    0  0.00000000000E+00  0.00000000000E+00 -0.12053973222E+04  0.12053973222E+04  0.50400001928E-02 0.  1.
    10030    2    1    2    0    0  0.00000000000E+00  0.00000000000E+00 -0.11547802302E+04  0.12560144145E+04  0.49401905752E+03 0.  0.
        1    1    3    3  502    0 -0.17123198270E+03  0.16463717173E+03 -0.40517998314E+03  0.46967713270E+03  0.50400001928E-02 0. -1.
       -1    1    3    3    0  502  0.17123198270E+03 -0.16463717173E+03 -0.74960024709E+03  0.78633728176E+03  0.50400001928E-02 0.  1.
</event>
<event>
 5   0  0.3210875E-02  0.5022092E+03  0.7818609E-02  0.1013204E+00
        3   -1    0    0  501    0  0.00000000000E+00  0.00000000000E+00  0.31892527717E+03  0.31892529317E+03  0.10100000352E+00 0. -1.
       -3   -1    0    0    0  501  0.00000000000E+00  0.00000000000E+00 -0.19770623079E+03  0.19770625659E+03  0.10100000352E+00 0.  1.
    10030    2    1    2    0    0  0.00000000000E+00  0.00000000000E+00  0.12121904638E+03  0.51663154976E+03  0.50220922034E+03 0.  0.
        3    1    3    3  502    0 -0.14834286969E+03 -0.13398481992E+03 -0.95728423231E+02  0.22163366209E+03  0.10100000352E+00 0.  1.
       -3    1    3    3    0  502  0.14834286969E+03  0.13398481992E+03  0.21694746961E+03  0.29499788767E+03  0.10100000352E+00 0. -1.
</event>
<event>
 5   0  0.5038436E-02  0.5035993E+03  0.7818609E-02  0.1012844E+00
        1   -1    0    0  501    0  0.00000000000E+00  0.00000000000E+00  0.16683438464E+04  0.16683438465E+04  0.50400001928E-02 0.  1.
       -1   -1    0    0    0  501  0.00000000000E+00  0.00000000000E+00 -0.38003588258E+02  0.38003588592E+02  0.50400001928E-02 0. -1.
    10030    2    1    2    0    0  0.00000000000E+00  0.00000000000E+00  0.16303402582E+04  0.17063474350E+04  0.50359925697E+03 0.  0.
        1    1    3    3  502    0  0.97795546117E+01 -0.24703028578E+03  0.97708183220E+03  0.10078732602E+04  0.50400001928E-02 0. -1.
       -1    1    3    3    0  502 -0.97795546117E+01  0.24703028578E+03  0.65325842599E+03  0.69847417485E+03  0.50400001928E-02 0.  1.
</event>
<event>
 5   0  0.4884478E-02  0.5019214E+03  0.7818609E-02  0.1013279E+00
       -1   -1    0    0    0  501  0.00000000000E+00  0.00000000000E+00  0.16860458393E+03  0.16860458401E+03  0.50400001928E-02 0.  1.
        1   -1    0    0  501    0  0.00000000000E+00  0.00000000000E+00 -0.37354424406E+03  0.37354424409E+03  0.50400001928E-02 0. -1.
    10030    2    1    2    0    0  0.00000000000E+00  0.00000000000E+00 -0.20493966012E+03  0.54214882810E+03  0.50192139576E+03 0.  0.
        3    1    3    3  502    0  0.76888226123E+02  0.76693696588E+02 -0.34684942489E+03  0.36345323792E+03  0.10100000352E+00 0. -1.
       -3    1    3    3    0  502 -0.76888226123E+02 -0.76693696588E+02  0.14190976476E+03  0.17869559018E+03  0.10100000352E+00 0.  1.
</event>
<event>
 5   0  0.7881060E-02  0.4998449E+03  0.7818609E-02  0.1013819E+00
        2   -1    0    0  501    0  0.00000000000E+00  0.00000000000E+00  0.15977094601E+04  0.15977094601E+04  0.25500000920E-02 0.  1.
       -2   -1    0    0    0  501  0.00000000000E+00  0.00000000000E+00 -0.39094238168E+02  0.39094238251E+02  0.25500000920E-02 0. -1.
    10030    2    1    2    0    0  0.00000000000E+00  0.00000000000E+00  0.15586152220E+04  0.16368036984E+04  0.49984491286E+03 0.  0.
        1    1    3    3  502    0 -0.17842780346E+03 -0.12188304574E+03  0.36809426362E+03  0.42683175236E+03  0.50400001928E-02 0. -1.
       -1    1    3    3    0  502  0.17842780346E+03  0.12188304574E+03  0.11905209584E+04  0.12099719460E+04  0.50400001928E-02 0.  1.
</event>
<event>
 5   0  0.4803890E-02  0.5011599E+03  0.7818609E-02  0.1013477E+00
        1   -1    0    0  501    0  0.00000000000E+00  0.00000000000E+00  0.24054318187E+03  0.24054318192E+03  0.50400001928E-02 0. -1.
       -1   -1    0    0    0  501  0.00000000000E+00  0.00000000000E+00 -0.26103551354E+03  0.26103551359E+03  0.50400001928E-02 0.  1.
    10030    2    1    2    0    0  0.00000000000E+00  0.00000000000E+00 -0.20492331669E+02  0.50157869551E+03  0.50115990675E+03 0.  0.
        5    1    3    3  502    0 -0.14992006000E+03 -0.12545425818E+03 -0.16707244073E+03  0.25719658967E+03  0.46999998093E+01 0. -1.
       -5    1    3    3    0  502  0.14992006000E+03  0.12545425818E+03  0.14658010906E+03  0.24438210584E+03  0.46999998093E+01 0.  1.
</event>
<event>
 5   0  0.7881060E-02  0.5018296E+03  0.7818609E-02  0.1013302E+00
       -2   -1    0    0    0  501  0.00000000000E+00  0.00000000000E+00  0.15841316772E+03  0.15841316774E+03  0.25500000920E-02 0. -1.
        2   -1    0    0  501    0  0.00000000000E+00  0.00000000000E+00 -0.39743050518E+03  0.39743050519E+03  0.25500000920E-02 0.  1.
    10030    2    1    2    0    0  0.00000000000E+00  0.00000000000E+00 -0.23901733746E+03  0.55584367293E+03  0.50182955387E+03 0.  0.
        1    1    3    3  502    0 -0.12334565350E+03  0.33766126259E+02 -0.35862413829E+03  0.38074344920E+03  0.50400001928E-02 0.  1.
       -1    1    3    3    0  502  0.12334565350E+03 -0.33766126259E+02  0.11960680083E+03  0.17510022373E+03  0.50400001928E-02 0. -1.
</event>
<event>
 5   0  0.8208720E-02  0.5001028E+03  0.7818609E-02  0.1013752E+00
        2   -1    0    0  501    0  0.00000000000E+00  0.00000000000E+00  0.28541997511E+03  0.28541997512E+03  0.25500000920E-02 0. -1.
       -2   -1    0    0    0  501  0.00000000000E+00  0.00000000000E+00 -0.21906565468E+03  0.21906565469E+03  0.25500000920E-02 0.  1.
    10030    2    1    2    0    0  0.00000000000E+00  0.00000000000E+00  0.66354320432E+02  0.50448562982E+03  0.50010284428E+03 0.  0.
        3    1    3    3  502    0 -0.98936115889E+02 -0.18179095807E+02  0.26410887595E+03  0.28261695474E+03  0.10100000352E+00 0. -1.
       -3    1    3    3    0  502  0.98936115889E+02  0.18179095807E+02 -0.19775455552E+03  0.22186867508E+03  0.10100000352E+00 0.  1.
</event>
<event>
 5   0  0.7698747E-02  0.4988677E+03  0.7818609E-02  0.1014075E+00
       -2   -1    0    0    0  501  0.00000000000E+00  0.00000000000E+00  0.84668087826E+02  0.84668087864E+02  0.25500000920E-02 0.  1.
        2   -1    0    0  501    0  0.00000000000E+00  0.00000000000E+00 -0.73483692477E+03  0.73483692477E+03  0.25500000920E-02 0. -1.
    10030    2    1    2    0    0  0.00000000000E+00  0.00000000000E+00 -0.65016883694E+03  0.81950501264E+03  0.49886766703E+03 0.  0.
        2    1    3    3  502    0 -0.14890690008E+03  0.89026141696E+02 -0.30681129473E+02  0.17618243530E+03  0.25500000920E-02 0.  1.
       -2    1    3    3    0  502  0.14890690008E+03 -0.89026141696E+02 -0.61948770747E+03  0.64332257733E+03  0.25500000920E-02 0. -1.
</event>
<event>
 5   0  0.4865501E-02  0.5008392E+03  0.7818609E-02  0.1013560E+00
       -1   -1    0    0    0  501  0.00000000000E+00  0.00000000000E+00  0.11090549705E+03  0.11090549717E+03  0.50400001928E-02 0.  1.
        1   -1    0    0  501    0  0.00000000000E+00  0.00000000000E+00 -0.56543615786E+03  0.56543615788E+03  0.50400001928E-02 0. -1.
    10030    2    1    2    0    0  0.00000000000E+00  0.00000000000E+00 -0.45453066080E+03  0.67634165505E+03  0.50083920847E+03 0.  0.
        2    1    3    3  502    0  0.22760797722E+03  0.79358873036E+02 -0.13560837483E+03  0.27657341404E+03  0.25500000920E-02 0. -1.
       -2    1    3    3    0  502 -0.22760797722E+03 -0.79358873036E+02 -0.31892228597E+03  0.39976824101E+03  0.25500000920E-02 0.  1.
</event>
<event>
 5   0  0.7933103E-02  0.4995957E+03  0.7818609E-02  0.1013884E+00
       -2   -1    0    0    0  501  0.00000000000E+00  0.00000000000E+00  0.23448833401E+03  0.23448833402E+03  0.25500000920E-02 0.  1.
        2   -1    0    0  501    0  0.00000000000E+00  0.00000000000E+00 -0.26610695468E+03  0.26610695470E+03  0.25500000920E-02 0. -1.
    10030    2    1    2    0    0  0.00000000000E+00  0.00000000000E+00 -0.31618620672E+02  0.50059528872E+03  0.49959574249E+03 0.  0.
        5    1    3    3  502    0 -0.18746171743E+03  0.16202654005E+03 -0.47215140887E+02  0.25228130075E+03  0.46999998093E+01 0.  1.
       -5    1    3    3    0  502  0.18746171743E+03 -0.16202654005E+03  0.15596520215E+02  0.24831398797E+03  0.46999998093E+01 0. -1.
</event>
<event>
 5   0  0.4803890E-02  0.4963489E+03  0.7818609E-02  0.1014736E+00
        1   -1    0    0  501    0  0.00000000000E+00  0.00000000000E+00  0.22797056840E+03  0.22797056845E+03  0.50400001928E-02 0. -1.
       -1   -1    0    0    0  501  0.00000000000E+00  0.00000000000E+00 -0.27016886114E+03  0.27016886119E+03  0.50400001928E-02 0.  1.
    10030    2    1    2    0    0  0.00000000000E+00  0.00000000000E+00 -0.42198292741E+02  0.49813942964E+03  0.49634886466E+03 0.  0.
        5    1    3    3  502    0  0.18455431580E+03 -0.84506230075E+02  0.12212819494E+03  0.23693666749E+03  0.46999998093E+01 0. -1.
       -5    1    3    3    0  502 -0.18455431580E+03  0.84506230075E+02 -0.16432648768E+03  0.26120276215E+03  0.46999998093E+01 0.  1.
</event>
<event>
 5   0  0.7933103E-02  0.4948775E+03  0.7818609E-02  0.1015125E+00
       -2   -1    0    0    0  501  0.00000000000E+00  0.00000000000E+00  0.61007868274E+02  0.61007868327E+02  0.25500000920E-02 0.  1.
        2   -1    0    0  501    0  0.00000000000E+00  0.00000000000E+00 -0.10035742981E+04  0.10035742981E+04  0.25500000920E-02 0. -1.
    10030    2    1    2    0    0  0.00000000000E+00  0.00000000000E+00 -0.94256642987E+03  0.10645821665E+04  0.49487747419E+03 0.  0.
        5    1    3    3  502    0 -0.20623586973E+03 -0.10864889558E+03 -0.64953508731E+03  0.69011284303E+03  0.46999998093E+01 0.  1.
       -5    1    3    3    0  502  0.20623586973E+03  0.10864889558E+03 -0.29303134256E+03  0.37446932344E+03  0.46999998093E+01 0. -1.
</event>
<event>
 5   0  0.7881060E-02  0.5014363E+03  0.7818609E-02  0.1013405E+00
       -2   -1    0    0    0  501  0.00000000000E+00  0.00000000000E+00  0.66514632570E+02  0.66514632619E+02  0.25500000920E-02 0. -1.
        2   -1    0    0  501    0  0.00000000000E+00  0.00000000000E+00 -0.94504916305E+03  0.94504916305E+03  0.25500000920E-02 0.  1.
    10030    2    1    2    0    0  0.00000000000E+00  0.00000000000E+00 -0.87853453048E+03  0.10115637957E+04  0.50143632843E+03 0.  0.
        1    1    3    3  502    0 -0.12772987250E+03  0.50723080510E+02 -0.86229109691E+03  0.87317448833E+03  0.50400001928E-02 0.  1.
       -1    1    3    3    0  502  0.12772987250E+03 -0.50723080510E+02 -0.16243433562E+02  0.13838930734E+03  0.50400001928E-02 0. -1.
</event>
<event>
 5   0  0.7776070E-02  0.5016380E+03  0.7818609E-02  0.1013352E+00
       -2   -1    0    0    0  501  0.00000000000E+00  0.00000000000E+00  0.74324325168E+02  0.74324325212E+02  0.25500000920E-02 0. -1.
        2   -1    0    0  501    0  0.00000000000E+00  0.00000000000E+00 -0.84642777471E+03  0.84642777472E+03  0.25500000920E-02 0.  1.
    10030    2    1    2    0    0  0.00000000000E+00  0.00000000000E+00 -0.77210344955E+03  0.92075209993E+03  0.50163800965E+03 0.  0.
        4    1    3    3  502    0 -0.43995958326E+02 -0.24637484597E+03 -0.41634295654E+03  0.48577698529E+03  0.12699999809E+01 0.  1.
       -4    1    3    3    0  502  0.43995958326E+02  0.24637484597E+03 -0.35576049300E+03  0.43497511464E+03  0.12699999809E+01 0. -1.
</event>
<event>
 5   0  0.3210875E-02  0.4970325E+03  0.7818609E-02  0.1014556E+00
       -3   -1    0    0    0  501  0.00000000000E+00  0.00000000000E+00  0.13320091947E+03  0.13320095776E+03  0.10100000352E+00 0.  1.
        3   -1    0    0  501    0  0.00000000000E+00  0.00000000000E+00 -0.46366289241E+03  0.46366290341E+03  0.10100000352E+00 0. -1.
    10030    2    1    2    0    0  0.00000000000E+00  0.00000000000E+00 -0.33046197294E+03  0.59686386117E+03  0.49703254743E+03 0.  0.
        5    1    3    3  502    0  0.16546829831E+03  0.56417058376E+02  0.46799303832E+02  0.18103841321E+03  0.46999998093E+01 0.  1.
       -5    1    3    3    0  502 -0.16546829831E+03 -0.56417058376E+02 -0.37726127677E+03  0.41582544796E+03  0.46999998093E+01 0. -1.
</event>
<event>
 5   0  0.4865501E-02  0.5015600E+03  0.7818609E-02  0.1013373E+00
       -1   -1    0    0    0  501  0.00000000000E+00  0.00000000000E+00  0.18591266479E+03  0.18591266485E+03  0.50400001928E-02 0. -1.
        1   -1    0    0  501    0  0.00000000000E+00  0.00000000000E+00 -0.33828033665E+03  0.33828033669E+03  0.50400001928E-02 0.  1.
    10030    2    1    2    0    0  0.00000000000E+00  0.00000000000E+00 -0.15236767186E+03  0.52419300154E+03  0.50155996196E+03 0.  0.
        2    1    3    3  502    0 -0.72626122909E+02 -0.17277528136E+03  0.97962852365E+02  0.21147711940E+03  0.25500000920E-02 0. -1.
       -2    1    3    3    0  502  0.72626122909E+02  0.17277528136E+03 -0.25033052423E+03  0.31271588215E+03  0.25500000920E-02 0.  1.
</event>
<event>
 5   0  0.4865501E-02  0.5000418E+03  0.7818609E-02  0.1013768E+00
        1   -1    0    0  501    0  0.00000000000E+00  0.00000000000E+00  0.72489769381E+03  0.72489769383E+03  0.50400001928E-02 0. -1.
       -1   -1    0    0    0  501  0.00000000000E+00  0.00000000000E+00 -0.86233470535E+02  0.86233470682E+02  0.50400001928E-02 0.  1.
    10030    2    1    2    0    0  0.00000000000E+00  0.00000000000E+00  0.63866422327E+03  0.81113116451E+03  0.50004177420E+03 0.  0.
        2    1    3    3  502    0 -0.28922048377E+02  0.15326217024E+03  0.63631024237E+03  0.65514616862E+03  0.25500000920E-02 0. -1.
       -2    1    3    3    0  502  0.28922048377E+02 -0.15326217024E+03  0.23539809077E+01  0.15598499589E+03  0.25500000920E-02 0.  1.
</event>
<event>
 5   0  0.7933103E-02  0.5137536E+03  0.7818609E-02  0.1010250E+00
        2   -1    0    0  501    0  0.00000000000E+00  0.00000000000E+00  0.94796716213E+03  0.94796716214E+03  0.25500000920E-02 0. -1.
       -2   -1    0    0    0  501  0.00000000000E+00  0.00000000000E+00 -0.69607562864E+02  0.69607562911E+02  0.25500000920E-02 0.  1.
    10030    2    1    2    0    0  0.00000000000E+00  0.00000000000E+00  0.87835959927E+03  0.10175747250E+04  0.51375357461E+03 0.  0.
        5    1    3    3  502    0  0.20382703344E+03 -0.78181894126E+02  0.70716137150E+03  0.74010618391E+03  0.46999998093E+01 0. -1.
       -5    1    3    3    0  502 -0.20382703344E+03  0.78181894126E+02  0.17119822777E+03  0.27746854113E+03  0.46999998093E+01 0.  1.
</event>
<event>
 5   0  0.8208720E-02  0.5022411E+03  0.7818609E-02  0.1013196E+00
        2   -1    0    0  501    0  0.00000000000E+00  0.00000000000E+00  0.86139323959E+03  0.86139323960E+03  0.25500000920E-02 0. -1.
       -2   -1    0    0    0  501  0.00000000000E+00  0.00000000000E+00 -0.73208771751E+02  0.73208771795E+02  0.25500000920E-02 0.  1.
    10030    2    1    2    0    0  0.00000000000E+00  0.00000000000E+00  0.78818446784E+03  0.93460201139E+03  0.50224114163E+03 0.  0.
        3    1    3    3  502    0 -0.22541712891E+03 -0.33104220102E+02  0.59061170845E+03  0.63303315218E+03  0.10100000352E+00 0. -1.
       -3    1    3    3    0  502  0.22541712891E+03  0.33104220102E+02  0.19757275939E+03  0.30156885921E+03  0.10100000352E+00 0.  1.
</event>
<event>
 5   0  0.3210875E-02  0.5020334E+03  0.7818609E-02  0.1013250E+00
        4   -1    0    0  501    0  0.00000000000E+00  0.00000000000E+00  0.45634175089E+03  0.45634351810E+03  0.12699999809E+01 0. -1.
       -4   -1    0    0    0  501  0.00000000000E+00  0.00000000000E+00 -0.13807002185E+03  0.13807586260E+03  0.12699999809E+01 0.  1.
    10030    2    1    2    0    0  0.00000000000E+00  0.00000000000E+00  0.31827172905E+03  0.59441938070E+03  0.50203337204E+03 0.  0.
        5    1    3    3  502    0 -0.17234162054E+03  0.18115680745E+03  0.18474647945E+03  0.31092245773E+03  0.46999998093E+01 0. -1.
       -5    1    3    3    0  502  0.17234162054E+03 -0.18115680745E+03  0.13352524959E+03  0.28349692297E+03  0.46999998093E+01 0.  1.
</event>
<event>
 5   0  0.7698747E-02  0.5019302E+03  0.7818609E-02  0.1013276E+00
        2   -1    0    0  501    0  0.00000000000E+00  0.00000000000E+00  0.64514428453E+03  0.64514428454E+03  0.25500000920E-02 0. -1.
       -2   -1    0    0    0  501  0.00000000000E+00  0.00000000000E+00 -0.97626978646E+02  0.97626978679E+02  0.25500000920E-02 0.  1.
    10030    2    1    2    0    0  0.00000000000E+00  0.00000000000E+00  0.54751730588E+03  0.74277126321E+03  0.50193022345E+03 0.  0.
        2    1    3    3  502    0 -0.80546391697E+01 -0.16688846511E+03  0.55087371109E+03  0.57565482937E+03  0.25500000920E-02 0. -1.
       -2    1    3    3    0  502  0.80546391697E+01  0.16688846511E+03 -0.33564052028E+01  0.16711643385E+03  0.25500000920E-02 0.  1.
</event>
<event>
 5   0  0.4865501E-02  0.4990999E+03  0.7818609E-02  0.1014014E+00
        1   -1    0    0  501    0  0.00000000000E+00  0.00000000000E+00  0.60464247515E+03  0.60464247517E+03  0.50400001928E-02 0.  1.
       -1   -1    0    0    0  501  0.00000000000E+00  0.00000000000E+00 -0.10299503752E+03  0.10299503764E+03  0.50400001928E-02 0. -1.
    10030    2    1    2    0    0  0.00000000000E+00  0.00000000000E+00  0.50164743763E+03  0.70763751281E+03  0.49909988766E+03 0.  0.
        2    1    3    3  502    0 -0.15461816049E+03 -0.97925589553E+02  0.10298256841E+02  0.18330916710E+03  0.25500000920E-02 0. -1.
       -2    1    3    3    0  502  0.15461816049E+03  0.97925589553E+02  0.49134918079E+03  0.52432834571E+03  0.25500000920E-02 0.  1.
</event>
<event>
 5   0  0.3210875E-02  0.5000682E+03  0.7818609E-02  0.1013761E+00
       -3   -1    0    0    0  501  0.00000000000E+00  0.00000000000E+00  0.80146858421E+03  0.80146859058E+03  0.10100000352E+00 0. -1.
        3   -1    0    0  501    0  0.00000000000E+00  0.00000000000E+00 -0.78003085034E+02  0.78003150422E+02  0.10100000352E+00 0.  1.
    10030    2    1    2    0    0  0.00000000000E+00  0.00000000000E+00  0.72346549918E+03  0.87947174100E+03  0.50006821006E+03 0.  0.
        1    1    3    3  502    0  0.12144013608E+03 -0.50096030623E+02 -0.12419744527E+02  0.13195290454E+03  0.50400001928E-02 0.  1.
       -1    1    3    3    0  502 -0.12144013608E+03  0.50096030623E+02  0.73588524370E+03  0.74751883646E+03  0.50400001928E-02 0. -1.
</event>
<event>
 5   0  0.4884478E-02  0.5011294E+03  0.7818609E-02  0.1013485E+00
        1   -1    0    0  501    0  0.00000000000E+00  0.00000000000E+00  0.60338023053E+02  0.60338023264E+02  0.50400001928E-02 0.  1.
       -1   -1    0    0    0  501  0.00000000000E+00  0.00000000000E+00 -0.10405157077E+04  0.10405157078E+04  0.50400001928E-02 0. -1.
    10030    2    1    2    0    0  0.00000000000E+00  0.00000000000E+00 -0.98017768468E+03  0.11008537310E+04  0.50112936806E+03 0.  0.
        3    1    3    3  502    0 -0.58867234474E+02  0.12601885651E+03 -0.32255506260E+02  0.14278141117E+03  0.10100000352E+00 0.  1.
       -3    1    3    3    0  502  0.58867234474E+02 -0.12601885651E+03 -0.94792217842E+03  0.95807231984E+03  0.10100000352E+00 0. -1.
</event>
<event>
 5   0  0.7881060E-02  0.5192854E+03  0.7818609E-02  0.1008864E+00
       -2   -1    0    0    0  501  0.00000000000E+00  0.00000000000E+00  0.40454807267E+02  0.40454807347E+02  0.25500000920E-02 0. -1.
        2   -1    0    0  501    0  0.00000000000E+00  0.00000000000E+00 -0.16664106531E+04  0.16664106531E+04  0.25500000920E-02 0.  1.
    10030    2    1    2    0    0  0.00000000000E+00  0.00000000000E+00 -0.16259558459E+04  0.17068654605E+04  0.51928536228E+03 0.  0.
        1    1    3    3  502    0 -0.18609764084E+03  0.88580556869E+02 -0.13320193605E+04  0.13478703290E+04  0.50400001928E-02 0.  1.
       -1    1    3    3    0  502  0.18609764084E+03 -0.88580556869E+02 -0.29393648535E+03  0.35899513148E+03  0.50400001928E-02 0. -1.
</event>
<event>
 5   0  0.4865501E-02  0.5006728E+03  0.7818609E-02  0.1013603E+00
        1   -1    0    0  501    0  0.00000000000E+00  0.00000000000E+00  0.31286868350E+03  0.31286868354E+03  0.50400001928E-02 0. -1.
       -1   -1    0    0    0  501  0.00000000000E+00  0.00000000000E+00 -0.20030231069E+03  0.20030231075E+03  0.50400001928E-02 0.  1.
    10030    2    1    2    0    0  0.00000000000E+00  0.00000000000E+00  0.11256637282E+03  0.51317099430E+03  0.50067282840E+03 0.  0.
        2    1    3    3  502    0  0.13648965669E+02 -0.39387289903E+02  0.30928640480E+03  0.31208289455E+03  0.25500000920E-02 0. -1.
       -2    1    3    3    0  502 -0.13648965669E+02  0.39387289903E+02 -0.19672003198E+03  0.20108809975E+03  0.25500000920E-02 0.  1.
</event>
<event>
 5   0  0.7881060E-02  0.4497754E+03  0.7818609E-02  0.1027789E+00
       -2   -1    0    0    0  501  0.00000000000E+00  0.00000000000E+00  0.43652175143E+02  0.43652175217E+02  0.25500000920E-02 0.  1.
        2   -1    0    0  501    0  0.00000000000E+00  0.00000000000E+00 -0.11585788552E+04  0.11585788552E+04  0.25500000920E-02 0. -1.
    10030    2    1    2    0    0  0.00000000000E+00  0.00000000000E+00 -0.11149266801E+04  0.12022310305E+04  0.44977544243E+03 0.  0.
        1    1    3    3  502    0 -0.55133947847E+01 -0.20721368896E+03 -0.32433943003E+03  0.38492074029E+03  0.50400001928E-02 0. -1.
       -1    1    3    3    0  502  0.55133947847E+01  0.20721368896E+03 -0.79058725007E+03  0.81731029017E+03  0.50400001928E-02 0.  1.
</event>
<event>
 5   0  0.3210875E-02  0.4989544E+03  0.7818609E-02  0.1014052E+00
        3   -1    0    0  501    0  0.00000000000E+00  0.00000000000E+00  0.21823121678E+03  0.21823124015E+03  0.10100000352E+00 0. -1.
       -3   -1    0    0    0  501  0.00000000000E+00  0.00000000000E+00 -0.28519686028E+03  0.28519687817E+03  0.10100000352E+00 0.  1.
    10030    2    1    2    0    0  0.00000000000E+00  0.00000000000E+00 -0.66965643504E+02  0.50342811832E+03  0.49895437958E+03 0.  0.
        3    1    3    3  502    0 -0.12298304047E+03 -0.15762717440E+03  0.11707882165E+03  0.23168645846E+03  0.10100000352E+00 0. -1.
       -3    1    3    3    0  502  0.12298304047E+03  0.15762717440E+03 -0.18404446516E+03  0.27174165987E+03  0.10100000352E+00 0.  1.
</event>
<event>
 5   0  0.8208720E-02  0.5100712E+03  0.7818609E-02  0.1011183E+00
       -2   -1    0    0    0  501  0.00000000000E+00  0.00000000000E+00  0.11777120492E+03  0.11777120495E+03  0.25500000920E-02 0. -1.
        2   -1    0    0  501    0  0.00000000000E+00  0.00000000000E+00 -0.55228397982E+03  0.55228397982E+03  0.25500000920E-02 0.  1.
    10030    2    1    2    0    0  0.00000000000E+00  0.00000000000E+00 -0.43451277489E+03  0.67005518477E+03  0.51007117061E+03 0.  0.
        3    1    3    3  502    0 -0.11433848290E+02  0.63295615967E+02  0.10694143160E+03  0.12479402182E+03  0.10100000352E+00 0. -1.
       -3    1    3    3    0  502  0.11433848290E+02 -0.63295615967E+02 -0.54145420650E+03  0.54526116295E+03  0.10100000352E+00 0.  1.
</event>
<event>
 5   0  0.5038436E-02  0.5014112E+03  0.7818609E-02  0.1013411E+00
       -1   -1    0    0    0  501  0.00000000000E+00  0.00000000000E+00  0.29245270467E+03  0.29245270472E+03  0.50400001928E-02 0.  1.
        1   -1    0    0  501    0  0.00000000000E+00  0.00000000000E+00 -0.21491781421E+03  0.21491781427E+03  0.50400001928E-02 0. -1.
    10030    2    1    2    0    0  0.00000000000E+00  0.00000000000E+00  0.77534890458E+02  0.50737051899E+03  0.50141119284E+03 0.  0.
        1    1    3    3  502    0 -0.18194313707E+03  0.64704451126E-03 -0.13576437705E+03  0.22701381286E+03  0.50400001928E-02 0. -1.
       -1    1    3    3    0  502  0.18194313707E+03 -0.64704451126E-03  0.21329926751E+03  0.28035670613E+03  0.50400001928E-02 0.  1.
</event>
<event>
 5   0  0.5038436E-02  0.4822237E+03  0.7818609E-02  0.1018526E+00
        1   -1    0    0  501    0  0.00000000000E+00  0.00000000000E+00  0.70860231226E+03  0.70860231228E+03  0.50400001928E-02 0. -1.
       -1   -1    0    0    0  501  0.00000000000E+00  0.00000000000E+00 -0.82041673842E+02  0.82041673997E+02  0.50400001928E-02 0.  1.
    10030    2    1    2    0    0  0.00000000000E+00  0.00000000000E+00  0.62656063842E+03  0.79064398627E+03  0.48222368193E+03 0.  0.
        1    1    3    3  502    0 -0.13218672005E+03 -0.17811094775E+03  0.46828848750E+03  0.51816111994E+03  0.50400001928E-02 0. -1.
       -1    1    3    3    0  502  0.13218672005E+03  0.17811094775E+03  0.15827215092E+03  0.27248286634E+03  0.50400001928E-02 0.  1.
</event>
<event>
 5   0  0.7881060E-02  0.4975185E+03  0.7818609E-02  0.1014429E+00
       -2   -1    0    0    0  501  0.00000000000E+00  0.00000000000E+00  0.85246467245E+02  0.85246467283E+02  0.25500000920E-02 0. -1.
        2   -1    0    0  501    0  0.00000000000E+00  0.00000000000E+00 -0.72590893729E+03  0.72590893730E+03  0.25500000920E-02 0.  1.
    10030    2    1    2    0    0  0.00000000000E+00  0.00000000000E+00 -0.64066247005E+03  0.81115540458E+03  0.49751853217E+03 0.  0.
        1    1    3    3  502    0  0.11578248617E+02  0.67414159884E+02 -0.71027511603E+03  0.71356111530E+03  0.50400001928E-02 0.  1.
       -1    1    3    3    0  502 -0.11578248617E+02 -0.67414159884E+02  0.69612645982E+02  0.97594289279E+02  0.50400001928E-02 0. -1.
</event>
<event>
 5   0  0.3210875E-02  0.5100440E+03  0.7818609E-02  0.1011190E+00
       -4   -1    0    0    0  501  0.00000000000E+00  0.00000000000E+00  0.46258324744E+03  0.46258499080E+03  0.12699999809E+01 0.  1.
        4   -1    0    0  501    0  0.00000000000E+00  0.00000000000E+00 -0.14058866743E+03  0.14059440355E+03  0.12699999809E+01 0. -1.
    10030    2    1    2    0    0  0.00000000000E+00  0.00000000000E+00  0.32199458001E+03  0.60317939435E+03  0.51004399047E+03 0.  0.
        3    1    3    3  502    0 -0.12116860118E+03 -0.21220018846E+03  0.74695989138E+02  0.25551957046E+03  0.10100000352E+00 0. -1.
       -3    1    3    3    0  502  0.12116860118E+03  0.21220018846E+03  0.24729859087E+03  0.34765982389E+03  0.10100000352E+00 0.  1.
</event>
<event>
 5   0  0.5038436E-02  0.5001205E+03  0.7818609E-02  0.1013747E+00
       -1   -1    0    0    0  501  0.00000000000E+00  0.00000000000E+00  0.10690951558E+03  0.10690951570E+03  0.50400001928E-02 0.  1.
        1   -1    0    0  501    0  0.00000000000E+00  0.00000000000E+00 -0.58488830057E+03  0.58488830059E+03  0.50400001928E-02 0. -1.
    10030    2    1    2    0    0  0.00000000000E+00  0.00000000000E+00 -0.47797878499E+03  0.69179781629E+03  0.50012048521E+03 0.  0.
        1    1    3    3  502    0  0.81217516868E+02 -0.70015966144E+02  0.73491994732E+02  0.12999843798E+03  0.50400001928E-02 0.  1.
       -1    1    3    3    0  502 -0.81217516868E+02  0.70015966144E+02 -0.55147077972E+03  0.56179937832E+03  0.50400001928E-02 0. -1.
</event>
<event>
 5   0  0.8208720E-02  0.5003546E+03  0.7818609E-02  0.1013686E+00
       -2   -1    0    0    0  501  0.00000000000E+00  0.00000000000E+00  0.94072503864E+02  0.94072503899E+02  0.25500000920E-02 0. -1.
        2   -1    0    0  501    0  0.00000000000E+00  0.00000000000E+00 -0.66532387228E+03  0.66532387228E+03  0.25500000920E-02 0.  1.
    10030    2    1    2    0    0  0.00000000000E+00  0.00000000000E+00 -0.57125136842E+03  0.75939637618E+03  0.50035460450E+03 0.  0.
        3    1    3    3  502    0  0.36287463639E+02  0.63465071981E+02 -0.64875047388E+03  0.65285663276E+03  0.10100000352E+00 0.  1.
       -3    1    3    3    0  502 -0.36287463639E+02 -0.63465071981E+02  0.77499105467E+02  0.10653974342E+03  0.10100000352E+00 0. -1.
</event>
<event>
 5   0  0.5191358E-02  0.5021579E+03  0.7818609E-02  0.1013217E+00
        1   -1    0    0  501    0  0.00000000000E+00  0.00000000000E+00  0.25601945443E+03  0.25601945448E+03  0.50400001928E-02 0.  1.
       -1   -1    0    0    0  501  0.00000000000E+00  0.00000000000E+00 -0.24623382987E+03  0.24623382993E+03  0.50400001928E-02 0. -1.
    10030    2    1    2    0    0  0.00000000000E+00  0.00000000000E+00  0.97856245594E+01  0.50225328441E+03  0.50215794652E+03 0.  0.
        4    1    3    3  502    0  0.17305132364E+03  0.12751499076E+03 -0.12487080528E+03  0.24859839982E+03  0.12699999809E+01 0. -1.
       -4    1    3    3    0  502 -0.17305132364E+03 -0.12751499076E+03  0.13465642983E+03  0.25365488459E+03  0.12699999809E+01 0.  1.
</event>
<event>
 5   0  0.5191358E-02  0.4992634E+03  0.7818609E-02  0.1013971E+00
        1   -1    0    0  501    0  0.00000000000E+00  0.00000000000E+00  0.57552530375E+03  0.57552530377E+03  0.50400001928E-02 0.  1.
       -1   -1    0    0    0  501  0.00000000000E+00  0.00000000000E+00 -0.10827672803E+03  0.10827672815E+03  0.50400001928E-02 0. -1.
    10030    2    1    2    0    0  0.00000000000E+00  0.00000000000E+00  0.46724857572E+03  0.68380203192E+03  0.49926344483E+03 0.  0.
        4    1    3    3  502    0  0.20449438902E+03 -0.35602545621E+02  0.43701228374E+02  0.21212474315E+03  0.12699999809E+01 0. -1.
       -4    1    3    3    0  502 -0.20449438902E+03  0.35602545621E+02  0.42354734735E+03  0.47167728877E+03  0.12699999809E+01 0.  1.
</event>
<event>
 5   0  0.5191358E-02  0.4913743E+03  0.7818609E-02  0.1016055E+00
        1   -1    0    0  501    0  0.00000000000E+00  0.00000000000E+00  0.14675120811E+03  0.14675120820E+03  0.50400001928E-02 0. -1.
       -1   -1    0    0    0  501  0.00000000000E+00  0.00000000000E+00 -0.41132320633E+03  0.41132320636E+03  0.50400001928E-02 0.  1.
    10030    2    1    2    0    0  0.00000000000E+00  0.00000000000E+00 -0.26457199822E+03  0.55807441456E+03  0.49137430737E+03 0.  0.
        4    1    3    3  502    0 -0.11051993330E+02  0.34530321083E+02  0.14369245933E+03  0.14820130026E+03  0.12699999809E+01 0. -1.
       -4    1    3    3    0  502  0.11051993330E+02 -0.34530321083E+02 -0.40826445755E+03  0.40987311430E+03  0.12699999809E+01 0.  1.
</event>
<event>
 5   0  0.7698747E-02  0.4975103E+03  0.7818609E-02  0.1014431E+00
       -2   -1    0    0    0  501  0.00000000000E+00  0.00000000000E+00  0.10092238623E+03  0.10092238626E+03  0.25500000920E-02 0. -1.
        2   -1    0    0  501    0  0.00000000000E+00  0.00000000000E+00 -0.61313581437E+03  0.61313581437E+03  0.25500000920E-02 0.  1.
    10030    2    1    2    0    0  0.00000000000E+00  0.00000000000E+00 -0.51221342814E+03  0.71405820063E+03  0.49751031941E+03 0.  0.
        2    1    3    3  502    0  0.31272754582E+02  0.10691164816E+03 -0.57533918145E+03  0.58602325842E+03  0.25500000920E-02 0.  1.
       -2    1    3    3    0  502 -0.31272754582E+02 -0.10691164816E+03  0.63125753304E+02  0.12803494222E+03  0.25500000920E-02 0. -1.
</event>
<event>
 5   0  0.7776070E-02  0.5016307E+03  0.7818609E-02  0.1013354E+00
       -2   -1    0    0    0  501  0.00000000000E+00  0.00000000000E+00  0.15341049279E+03  0.15341049281E+03  0.25500000920E-02 0. -1.
        2   -1    0    0  501    0  0.00000000000E+00  0.00000000000E+00 -0.41006547400E+03  0.41006547401E+03  0.25500000920E-02 0.  1.
    10030    2    1    2    0    0  0.00000000000E+00  0.00000000000E+00 -0.25665498121E+03  0.56347596682E+03  0.50163072654E+03 0.  0.
        4    1    3    3  502    0 -0.12725585529E+03 -0.21607627849E+03 -0.12285640514E+03  0.27924598478E+03  0.12699999809E+01 0. -1.
       -4    1    3    3    0  502  0.12725585529E+03  0.21607627849E+03 -0.13379857607E+03  0.28422998204E+03  0.12699999809E+01 0.  1.
</event>
<event>
 5   0  0.8208720E-02  0.5007958E+03  0.7818609E-02  0.1013571E+00
       -2   -1    0    0    0  501  0.00000000000E+00  0.00000000000E+00  0.97358742639E+02  0.97358742672E+02  0.25500000920E-02 0. -1.
        2   -1    0    0  501    0  0.00000000000E+00  0.00000000000E+00 -0.64400086360E+03  0.64400086360E+03  0.25500000920E-02 0.  1.
    10030    2    1    2    0    0  0.00000000000E+00  0.00000000000E+00 -0.54664212096E+03  0.74135960627E+03  0.50079582407E+03 0.  0.
        3    1    3    3  502    0 -0.60063994392E+02 -0.24319975683E+01 -0.63316044937E+03  0.63600767517E+03  0.10100000352E+00 0.  1.
       -3    1    3    3    0  502  0.60063994392E+02  0.24319975683E+01  0.86518328411E+02  0.10535193110E+03  0.10100000352E+00 0. -1.
</event>
<event>
 5   0  0.4884478E-02  0.5002893E+03  0.7818609E-02  0.1013703E+00
        1   -1    0    0  501    0  0.00000000000E+00  0.00000000000E+00  0.15186595682E+03  0.15186595690E+03  0.50400001928E-02 0. -1.
       -1   -1    0    0    0  501  0.00000000000E+00  0.00000000000E+00 -0.41202351393E+03  0.41202351396E+03  0.50400001928E-02 0.  1.
    10030    2    1    2    0    0  0.00000000000E+00  0.00000000000E+00 -0.26015755711E+03  0.56388947086E+03  0.50028929713E+03 0.  0.
        3    1    3    3  502    0  0.21946581364E+03  0.14055040121E+02  0.42790255841E+01  0.21995705893E+03  0.10100000352E+00 0. -1.
       -3    1    3    3    0  502 -0.21946581364E+03 -0.14055040121E+02 -0.26443658269E+03  0.34393241193E+03  0.10100000352E+00 0.  1.
</event>
<event>
 5   0  0.7933103E-02  0.4999662E+03  0.7818609E-02  0.1013788E+00
       -2   -1    0    0    0  501  0.00000000000E+00  0.00000000000E+00  0.64523603590E+02  0.64523603640E+02  0.25500000920E-02 0.  1.
        2   -1    0    0  501    0  0.00000000000E+00  0.00000000000E+00 -0.96850680707E+03  0.96850680707E+03  0.25500000920E-02 0. -1.
    10030    2    1    2    0    0  0.00000000000E+00  0.00000000000E+00 -0.90398320348E+03  0.10330304107E+04  0.49996619614E+03 0.  0.
        5    1    3    3  502    0 -0.23280187489E+03  0.90051743175E+02 -0.47840584977E+03  0.53962975872E+03  0.46999998093E+01 0. -1.
       -5    1    3    3    0  502  0.23280187489E+03 -0.90051743175E+02 -0.42557735371E+03  0.49340065200E+03  0.46999998093E+01 0.  1.
</event>
<event>
 5   0  0.3210875E-02  0.5021220E+03  0.7818609E-02  0.1013227E+00
       -3   -1    0    0    0  501  0.00000000000E+00  0.00000000000E+00  0.16628978508E+03  0.16628981575E+03  0.10100000352E+00 0. -1.
        3   -1    0    0  501    0  0.00000000000E+00  0.00000000000E+00 -0.37904681304E+03  0.37904682650E+03  0.10100000352E+00 0.  1.
    10030    2    1    2    0    0  0.00000000000E+00  0.00000000000E+00 -0.21275702796E+03  0.54533664225E+03  0.50212199756E+03 0.  0.
        4    1    3    3  502    0  0.23604660506E-01 -0.59481968044E+02 -0.37127998962E+03  0.37601668669E+03  0.12699999809E+01 0.  1.
       -4    1    3    3    0  502 -0.23604660506E-01  0.59481968044E+02  0.15852296166E+03  0.16931995556E+03  0.12699999809E+01 0. -1.
</event>
<event>
 5   0  0.7698747E-02  0.4852047E+03  0.7818609E-02  0.1017715E+00
        2   -1    0    0  501    0  0.00000000000E+00  0.00000000000E+00  0.44199304617E+03  0.44199304617E+03  0.25500000920E-02 0. -1.
       -2   -1    0    0    0  501  0.00000000000E+00  0.00000000000E+00 -0.13316023405E+03  0.13316023407E+03  0.25500000920E-02 0.  1.
    10030    2    1    2    0    0  0.00000000000E+00  0.00000000000E+00  0.30883281212E+03  0.57515328025E+03  0.48520468870E+03 0.  0.
        2    1    3    3  502    0  0.37920794393E+02 -0.21043727148E+03  0.18566856536E+02  0.21463121871E+03  0.25500000920E-02 0.  1.
       -2    1    3    3    0  502 -0.37920794393E+02  0.21043727148E+03  0.29026595558E+03  0.36052206154E+03  0.25500000920E-02 0. -1.
</event>
<event>
 5   0  0.4884478E-02  0.4978715E+03  0.7818609E-02  0.1014336E+00
        1   -1    0    0  501    0  0.00000000000E+00  0.00000000000E+00  0.83367972388E+03  0.83367972390E+03  0.50400001928E-02 0.  1.
       -1   -1    0    0    0  501  0.00000000000E+00  0.00000000000E+00 -0.74331918820E+02  0.74331918991E+02  0.50400001928E-02 0. -1.
    10030    2    1    2    0    0  0.00000000000E+00  0.00000000000E+00  0.75934780506E+03  0.90801164289E+03  0.49787152416E+03 0.  0.
        3    1    3    3  502    0  0.20074109928E+03  0.11841746054E+03  0.22016477798E+03  0.32061226359E+03  0.10100000352E+00 0. -1.
       -3    1    3    3    0  502 -0.20074109928E+03 -0.11841746054E+03  0.53918302709E+03  0.58739937930E+03  0.10100000352E+00 0.  1.
</event>
<event>
 5   0  0.7933103E-02  0.4967448E+03  0.7818609E-02  0.1014632E+00
       -2   -1    0    0    0  501  0.00000000000E+00  0.00000000000E+00  0.99477984339E+02  0.99477984372E+02  0.25500000920E-02 0. -1.
        2   -1    0    0  501    0  0.00000000000E+00  0.00000000000E+00 -0.62012558695E+03  0.62012558696E+03  0.25500000920E-02 0.  1.
    10030    2    1    2    0    0  0.00000000000E+00  0.00000000000E+00 -0.52064760261E+03  0.71960357133E+03  0.49674477729E+03 0.  0.
        5    1    3    3  502    0  0.17596369089E+03  0.11307641635E+03 -0.45423181688E+03  0.50009812028E+03  0.46999998093E+01 0.  1.
       -5    1    3    3    0  502 -0.17596369089E+03 -0.11307641635E+03 -0.66415785730E+02  0.21950545104E+03  0.46999998093E+01 0. -1.
</event>
<event>
 5   0  0.4803890E-02  0.5034400E+03  0.7818609E-02  0.1012885E+00
       -1   -1    0    0    0  501  0.00000000000E+00  0.00000000000E+00  0.10718561377E+04  0.10718561378E+04  0.50400001928E-02 0. -1.
        1   -1    0    0  501    0  0.00000000000E+00  0.00000000000E+00 -0.59115168019E+02  0.59115168234E+02  0.50400001928E-02 0.  1.
    10030    2    1    2    0    0  0.00000000000E+00  0.00000000000E+00  0.10127409697E+04  0.11309713060E+04  0.50343998969E+03 0.  0.
        5    1    3    3  502    0 -0.12842725590E+03 -0.21609495773E+03  0.47883154398E+03  0.54082559880E+03  0.46999998093E+01 0.  1.
       -5    1    3    3    0  502  0.12842725590E+03  0.21609495773E+03  0.53390942575E+03  0.59014570719E+03  0.46999998093E+01 0. -1.
</event>
<event>
 5   0  0.7933103E-02  0.5008806E+03  0.7818609E-02  0.1013549E+00
       -2   -1    0    0    0  501  0.00000000000E+00  0.00000000000E+00  0.53380362042E+03  0.53380362043E+03  0.25500000920E-02 0.  1.
        2   -1    0    0  501    0  0.00000000000E+00  0.00000000000E+00 -0.11749702348E+03  0.11749702350E+03  0.25500000920E-02 0. -1.
    10030    2    1    2    0    0  0.00000000000E+00  0.00000000000E+00  0.41630659695E+03  0.65130064393E+03  0.50088057072E+03 0.  0.
        5    1    3    3  502    0  0.22595451057E+03  0.75261918971E+02  0.30869392678E+03  0.38991515452E+03  0.46999998093E+01 0. -1.
       -5    1    3    3    0  502 -0.22595451057E+03 -0.75261918971E+02  0.10761267016E+03  0.26138548941E+03  0.46999998093E+01 0.  1.
</event>
<event>
 5   0  0.7881060E-02  0.4989285E+03  0.7818609E-02  0.1014059E+00
       -2   -1    0    0    0  501  0.00000000000E+00  0.00000000000E+00  0.15017649645E+03  0.15017649647E+03  0.25500000920E-02 0. -1.
        2   -1    0    0  501    0  0.00000000000E+00  0.00000000000E+00 -0.41439510502E+03  0.41439510503E+03  0.25500000920E-02 0.  1.
    10030    2    1    2    0    0  0.00000000000E+00  0.00000000000E+00 -0.26421860858E+03  0.56457160150E+03  0.49892847193E+03 0.  0.
        1    1    3    3  502    0 -0.17780314286E+03  0.17426942487E+03 -0.11426727052E+03  0.27393575742E+03  0.50400001928E-02 0.  1.
       -1    1    3    3    0  502  0.17780314286E+03 -0.17426942487E+03 -0.14995133805E+03  0.29063584408E+03  0.50400001928E-02 0. -1.
</event>
<event>
 5   0  0.7776070E-02  0.5063770E+03  0.7818609E-02  0.1012128E+00
        2   -1    0    0  501    0  0.00000000000E+00  0.00000000000E+00  0.18045594028E+03  0.18045594030E+03  0.25500000920E-02 0. -1.
       -2   -1    0    0    0  501  0.00000000000E+00  0.00000000000E+00 -0.35523584258E+03  0.35523584259E+03  0.25500000920E-02 0.  1.
    10030    2    1    2    0    0  0.00000000000E+00  0.00000000000E+00 -0.17477990230E+03  0.53569178289E+03  0.50637700580E+03 0.  0.
        4    1    3    3  502    0 -0.12887400568E+03 -0.21441200187E+03 -0.46121491484E+02  0.25438125081E+03  0.12699999809E+01 0.  1.
       -4    1    3    3    0  502  0.12887400568E+03  0.21441200187E+03 -0.12865841082E+03  0.28131053208E+03  0.12699999809E+01 0. -1.
</event>
<event>
 5   0  0.4884478E-02  0.5016592E+03  0.7818609E-02  0.1013347E+00
       -1   -1    0    0    0  501  0.00000000000E+00  0.00000000000E+00  0.52883118393E+02  0.52883118633E+02  0.50400001928E-02 0. -1.
        1   -1    0    0  501    0  0.00000000000E+00  0.00000000000E+00 -0.11897083428E+04  0.11897083428E+04  0.50400001928E-02 0.  1.
    10030    2    1    2    0    0  0.00000000000E+00  0.00000000000E+00 -0.11368252244E+04  0.12425914614E+04  0.50165919627E+03 0.  0.
        3    1    3    3  502    0 -0.52832459276E+01 -0.10580251134E+03 -0.11315794929E+04  0.11365272733E+04  0.10100000352E+00 0.  1.
       -3    1    3    3    0  502  0.52832459276E+01  0.10580251134E+03 -0.52457314878E+01  0.10606418808E+03  0.10100000352E+00 0. -1.
</event>
<event>
 5   0  0.5191358E-02  0.5004206E+03  0.7818609E-02  0.1013669E+00
       -1   -1    0    0    0  501  0.00000000000E+00  0.00000000000E+00  0.19475590004E+03  0.19475590011E+03  0.50400001928E-02 0.  1.
        1   -1    0    0  501    0  0.00000000000E+00  0.00000000000E+00 -0.32145463881E+03  0.32145463885E+03  0.50400001928E-02 0. -1.
    10030    2    1    2    0    0  0.00000000000E+00  0.00000000000E+00 -0.12669873877E+03  0.51621053896E+03  0.50042057324E+03 0.  0.
        4    1    3    3  502    0 -0.50546281658E+02 -0.24198094308E+03 -0.23479180609E+02  0.24831952849E+03  0.12699999809E+01 0. -1.
       -4    1    3    3    0  502  0.50546281658E+02  0.24198094308E+03 -0.10321955816E+03  0.26789101047E+03  0.12699999809E+01 0.  1.
</event>
<event>
 5   0  0.7881060E-02  0.5366599E+03  0.7818609E-02  0.1004630E+00
       -2   -1    0    0    0  501  0.00000000000E+00  0.00000000000E+00  0.89307157046E+02  0.89307157083E+02  0.25500000920E-02 0.  1.
        2   -1    0    0  501    0  0.00000000000E+00  0.00000000000E+00 -0.80621721077E+03  0.80621721078E+03  0.25500000920E-02 0. -1.
    10030    2    1    2    0    0  0.00000000000E+00  0.00000000000E+00 -0.71691005373E+03  0.89552436786E+03  0.53665991866E+03 0.  0.
        1    1    3    3  502    0 -0.25655916744E+03 -0.25133576836E+02 -0.23417704983E+03  0.34827172405E+03  0.50400001928E-02 0.  1.
       -1    1    3    3    0  502  0.25655916744E+03  0.25133576836E+02 -0.48273300390E+03  0.54725264381E+03  0.50400001928E-02 0. -1.
</event>
<event>
 5   0  0.5191358E-02  0.5038531E+03  0.7818609E-02  0.1012778E+00
       -1   -1    0    0    0  501  0.00000000000E+00  0.00000000000E+00  0.11754371366E+03  0.11754371377E+03  0.50400001928E-02 0.  1.
        1   -1    0    0  501    0  0.00000000000E+00  0.00000000000E+00 -0.53994373891E+03  0.53994373893E+03  0.50400001928E-02 0. -1.
    10030    2    1    2    0    0  0.00000000000E+00  0.00000000000E+00 -0.42240002524E+03  0.65748745270E+03  0.50385312258E+03 0.  0.
        4    1    3    3  502    0 -0.11365204434E+03 -0.13477312295E+03  0.23630273895E+02  0.17787800481E+03  0.12699999809E+01 0.  1.
       -4    1    3    3    0  502  0.11365204434E+03  0.13477312295E+03 -0.44603029914E+03  0.47960944789E+03  0.12699999809E+01 0. -1.
</event>
<event>
 5   0  0.7776070E-02  0.4981654E+03  0.7818609E-02  0.1014259E+00
       -2   -1    0    0    0  501  0.00000000000E+00  0.00000000000E+00  0.27519837756E+03  0.27519837757E+03  0.25500000920E-02 0.  1.
        2   -1    0    0  501    0  0.00000000000E+00  0.00000000000E+00 -0.22544533877E+03  0.22544533878E+03  0.25500000920E-02 0. -1.
    10030    2    1    2    0    0  0.00000000000E+00  0.00000000000E+00  0.49753038787E+02  0.50064371635E+03  0.49816540010E+03 0.  0.
        4    1    3    3  502    0  0.45327360720E+02  0.12565381574E+03  0.23615352419E+03  0.27131817286E+03  0.12699999809E+01 0.  1.
       -4    1    3    3    0  502 -0.45327360720E+02 -0.12565381574E+03 -0.18640048540E+03  0.22932554349E+03  0.12699999809E+01 0. -1.
</event>
<event>
 5   0  0.7933103E-02  0.4978125E+03  0.7818609E-02  0.1014351E+00
       -2   -1    0    0    0  501  0.00000000000E+00  0.00000000000E+00  0.11624451419E+03  0.11624451422E+03  0.25500000920E-02 0. -1.
        2   -1    0    0  501    0  0.00000000000E+00  0.00000000000E+00 -0.53296557394E+03  0.53296557395E+03  0.25500000920E-02 0.  1.
    10030    2    1    2    0    0  0.00000000000E+00  0.00000000000E+00 -0.41672105975E+03  0.64921008817E+03  0.49781251184E+03 0.  0.
        5    1    3    3  502    0  0.73696953684E+02 -0.21736132592E+03 -0.82899521978E+02  0.24407295575E+03  0.46999998093E+01 0.  1.
       -5    1    3    3    0  502 -0.73696953684E+02  0.21736132592E+03 -0.33382153777E+03  0.40513713242E+03  0.46999998093E+01 0. -1.
</event>
<event>
 5   0  0.7933103E-02  0.5160588E+03  0.7818609E-02  0.1009670E+00
        2   -1    0    0  501    0  0.00000000000E+00  0.00000000000E+00  0.21268283924E+04  0.21268283924E+04  0.25500000920E-02 0. -1.
       -2   -1    0    0    0  501  0.00000000000E+00  0.00000000000E+00 -0.31304439514E+02  0.31304439618E+02  0.25500000920E-02 0.  1.
    10030    2    1    2    0    0  0.00000000000E+00  0.00000000000E+00  0.20955239529E+04  0.21581328320E+04  0.51605879851E+03 0.  0.
        5    1    3    3  502    0  0.29821253418E+02 -0.20225240648E+03  0.17058281162E+04  0.17180416162E+04  0.46999998093E+01 0. -1.
       -5    1    3    3    0  502 -0.29821253418E+02  0.20225240648E+03  0.38969583667E+03  0.44009121577E+03  0.46999998093E+01 0.  1.
</event>
<event>
 5   0  0.4865501E-02  0.4989781E+03  0.7818609E-02  0.1014046E+00
        1   -1    0    0  501    0  0.00000000000E+00  0.00000000000E+00  0.78002818547E+03  0.78002818548E+03  0.50400001928E-02 0.  1.
       -1   -1    0    0    0  501  0.00000000000E+00  0.00000000000E+00 -0.79798127989E+02  0.79798128148E+02  0.50400001928E-02 0. -1.
    10030    2    1    2    0    0  0.00000000000E+00  0.00000000000E+00  0.70023005748E+03  0.85982631363E+03  0.49897811196E+03 0.  0.
        2    1    3    3  502    0 -0.21282656206E+03 -0.10059240265E+03  0.20769685755E+03  0.31392986738E+03  0.25500000920E-02 0. -1.
       -2    1    3    3    0  502  0.21282656206E+03  0.10059240265E+03  0.49253319993E+03  0.54589644625E+03  0.25500000920E-02 0.  1.
</event>
<event>
 5   0  0.4865501E-02  0.5015561E+03  0.7818609E-02  0.1013374E+00
       -1   -1    0    0    0  501  0.00000000000E+00  0.00000000000E+00  0.18948363031E+03  0.18948363038E+03  0.50400001928E-02 0.  1.
        1   -1    0    0  501    0  0.00000000000E+00  0.00000000000E+00 -0.33190002712E+03  0.33190002716E+03  0.50400001928E-02 0. -1.
    10030    2    1    2    0    0  0.00000000000E+00  0.00000000000E+00 -0.14241639681E+03  0.52138365753E+03  0.50155606692E+03 0.  0.
        2    1    3    3  502    0  0.19028507697E+03 -0.31595167867E+02  0.95386216600E+02  0.21518642028E+03  0.25500000920E-02 0.  1.
       -2    1    3    3    0  502 -0.19028507697E+03  0.31595167867E+02 -0.23780261341E+03  0.30619723725E+03  0.25500000920E-02 0. -1.
</event>
<event>
 5   0  0.3210875E-02  0.4976946E+03  0.7818609E-02  0.1014382E+00
       -3   -1    0    0    0  501  0.00000000000E+00  0.00000000000E+00  0.59478260580E+03  0.59478261437E+03  0.10100000352E+00 0.  1.
        3   -1    0    0  501    0  0.00000000000E+00  0.00000000000E+00 -0.10411359862E+03  0.10411364761E+03  0.10100000352E+00 0. -1.
    10030    2    1    2    0    0  0.00000000000E+00  0.00000000000E+00  0.49066900718E+03  0.69889626198E+03  0.49769459551E+03 0.  0.
        4    1    3    3  502    0 -0.14809965859E+03 -0.16691204143E+03  0.90672282204E+02  0.24086555193E+03  0.12699999809E+01 0.  1.
       -4    1    3    3    0  502  0.14809965859E+03  0.16691204143E+03  0.39999672498E+03  0.45803071004E+03  0.12699999809E+01 0. -1.
</event>
<event>
 5   0  0.5038436E-02  0.5039607E+03  0.7818609E-02  0.1012750E+00
       -1   -1    0    0    0  501  0.00000000000E+00  0.00000000000E+00  0.17274901350E+03  0.17274901358E+03  0.50400001928E-02 0.  1.
        1   -1    0    0  501    0  0.00000000000E+00  0.00000000000E+00 -0.36755113811E+03  0.36755113814E+03  0.50400001928E-02 0. -1.
    10030    2    1    2    0    0  0.00000000000E+00  0.00000000000E+00 -0.19480212460E+03  0.54030015172E+03  0.50396069906E+03 0.  0.
        1    1    3    3  502    0 -0.14181717792E+03  0.20906702613E+02 -0.31957555089E+03  0.35025381500E+03  0.50400001928E-02 0. -1.
       -1    1    3    3    0  502  0.14181717792E+03 -0.20906702613E+02  0.12477342629E+03  0.19004633672E+03  0.50400001928E-02 0.  1.
</event>
<event>
 5   0  0.7933103E-02  0.5003377E+03  0.7818609E-02  0.1013691E+00
       -2   -1    0    0    0  501  0.00000000000E+00  0.00000000000E+00  0.15331079348E+03  0.15331079350E+03  0.25500000920E-02 0. -1.
        2   -1    0    0  501    0  0.00000000000E+00  0.00000000000E+00 -0.40821952350E+03  0.40821952351E+03  0.25500000920E-02 0.  1.
    10030    2    1    2    0    0  0.00000000000E+00  0.00000000000E+00 -0.25490873003E+03  0.56153031701E+03  0.50033772222E+03 0.  0.
        5    1    3    3  502    0  0.82636851353E+02  0.14886106790E+03  0.78187187059E+02  0.18741342790E+03  0.46999998093E+01 0. -1.
       -5    1    3    3    0  502 -0.82636851353E+02 -0.14886106790E+03 -0.33309591709E+03  0.37411688911E+03  0.46999998093E+01 0.  1.
</event>
<event>
 5   0  0.7776070E-02  0.4960084E+03  0.7818609E-02  0.1014826E+00
        2   -1    0    0  501    0  0.00000000000E+00  0.00000000000E+00  0.28646070440E+03  0.28646070441E+03  0.25500000920E-02 0.  1.
       -2   -1    0    0    0  501  0.00000000000E+00  0.00000000000E+00 -0.21471034150E+03  0.21471034151E+03  0.25500000920E-02 0. -1.
    10030    2    1    2    0    0  0.00000000000E+00  0.00000000000E+00  0.71750362900E+02  0.50117104592E+03  0.49600836958E+03 0.  0.
        4    1    3    3  502    0  0.88497721951E+02 -0.11660951336E+03 -0.16639546021E+03  0.22162736175E+03  0.12699999809E+01 0. -1.
       -4    1    3    3    0  502 -0.88497721951E+02  0.11660951336E+03  0.23814582311E+03  0.27954368418E+03  0.12699999809E+01 0.  1.
</event>
<event>
 5   0  0.7881060E-02  0.4929933E+03  0.7818609E-02  0.1015624E+00
       -2   -1    0    0    0  501  0.00000000000E+00  0.00000000000E+00  0.19422002067E+03  0.19422002069E+03  0.25500000920E-02 0. -1.
        2   -1    0    0  501    0  0.00000000000E+00  0.00000000000E+00 -0.31284418651E+03  0.31284418652E+03  0.25500000920E-02 0.  1.
    10030    2    1    2    0    0  0.00000000000E+00  0.00000000000E+00 -0.11862416584E+03  0.50706420721E+03  0.49299332400E+03 0.  0.
        1    1    3    3  502    0 -0.16249569576E+03  0.46707368403E+02 -0.24380327065E+03  0.29669254155E+03  0.50400001928E-02 0.  1.
       -1    1    3    3    0  502  0.16249569576E+03 -0.46707368403E+02  0.12517910481E+03  0.21037166566E+03  0.50400001928E-02 0. -1.
</event>
<event>
 5   0  0.7881060E-02  0.5007630E+03  0.7818609E-02  0.1013580E+00
       -2   -1    0    0    0  501  0.00000000000E+00  0.00000000000E+00  0.91812687758E+02  0.91812687794E+02  0.25500000920E-02 0.  1.
        2   -1    0    0  501    0  0.00000000000E+00  0.00000000000E+00 -0.68281304165E+03  0.68281304166E+03  0.25500000920E-02 0. -1.
    10030    2    1    2    0    0  0.00000000000E+00  0.00000000000E+00 -0.59100035389E+03  0.77462572945E+03  0.50076302022E+03 0.  0.
        1    1    3    3  502    0 -0.14036320388E+03  0.19470516919E+03 -0.40574226610E+03  0.47142201735E+03  0.50400001928E-02 0. -1.
       -1    1    3    3    0  502  0.14036320388E+03 -0.19470516919E+03 -0.18525808779E+03  0.30320371210E+03  0.50400001928E-02 0.  1.
</event>
<event>
 5   0  0.4865501E-02  0.4974285E+03  0.7818609E-02  0.1014452E+00
       -1   -1    0    0    0  501  0.00000000000E+00  0.00000000000E+00  0.30184162971E+03  0.30184162975E+03  0.50400001928E-02 0. -1.
        1   -1    0    0  501    0  0.00000000000E+00  0.00000000000E+00 -0.20493787878E+03  0.20493787884E+03  0.50400001928E-02 0.  1.
    10030    2    1    2    0    0  0.00000000000E+00  0.00000000000E+00  0.96903750931E+02  0.50677950860E+03  0.49742852089E+03 0.  0.
        2    1    3    3  502    0  0.94977806816E+02 -0.27262813648E+02  0.28098525034E+03  0.29785358099E+03  0.25500000920E-02 0. -1.
       -2    1    3    3    0  502 -0.94977806816E+02  0.27262813648E+02 -0.18408149941E+03  0.20892592761E+03  0.25500000920E-02 0.  1.
</event>
<event>
 5   0  0.4803890E-02  0.4856460E+03  0.7818609E-02  0.1017595E+00
       -1   -1    0    0    0  501  0.00000000000E+00  0.00000000000E+00  0.19028658429E+03  0.19028658436E+03  0.50400001928E-02 0. -1.
        1   -1    0    0  501    0  0.00000000000E+00  0.00000000000E+00 -0.30986426053E+03  0.30986426057E+03  0.50400001928E-02 0.  1.
    10030    2    1    2    0    0  0.00000000000E+00  0.00000000000E+00 -0.11957767624E+03  0.50015084493E+03  0.48564601000E+03 0.  0.
        5    1    3    3  502    0 -0.17738344124E+03  0.15651585361E+03 -0.11599754724E+03  0.26351398183E+03  0.46999998093E+01 0.  1.
       -5    1    3    3    0  502  0.17738344124E+03 -0.15651585361E+03 -0.35801290031E+01  0.23663686310E+03  0.46999998093E+01 0. -1.
</event>
<event>
 5   0  0.7933103E-02  0.4996334E+03  0.7818609E-02  0.1013875E+00
        2   -1    0    0  501    0  0.00000000000E+00  0.00000000000E+00  0.87766935628E+03  0.87766935628E+03  0.25500000920E-02 0.  1.
       -2   -1    0    0    0  501  0.00000000000E+00  0.00000000000E+00 -0.71106954673E+02  0.71106954719E+02  0.25500000920E-02 0. -1.
    10030    2    1    2    0    0  0.00000000000E+00  0.00000000000E+00  0.80656240161E+03  0.94877631100E+03  0.49963344627E+03 0.  0.
        5    1    3    3  502    0  0.17916910875E+03 -0.10954748165E+02  0.73308985285E+03  0.75476115320E+03  0.46999998093E+01 0.  1.
       -5    1    3    3    0  502 -0.17916910875E+03  0.10954748165E+02  0.73472548756E+02  0.19401515780E+03  0.46999998093E+01 0. -1.
</event>
<event>
 5   0  0.4865501E-02  0.4956433E+03  0.7818609E-02  0.1014922E+00
       -1   -1    0    0    0  501  0.00000000000E+00  0.00000000000E+00  0.90123354444E+03  0.90123354446E+03  0.50400001928E-02 0.  1.
        1   -1    0    0  501    0  0.00000000000E+00  0.00000000000E+00 -0.68146116001E+02  0.68146116187E+02  0.50400001928E-02 0. -1.
    10030    2    1    2    0    0  0.00000000000E+00  0.00000000000E+00  0.83308742844E+03  0.96937966064E+03  0.49564328205E+03 0.  0.
        2    1    3    3  502    0  0.17419680931E+03 -0.15440516837E+03  0.25024217408E+03  0.34176984959E+03  0.25500000920E-02 0. -1.
       -2    1    3    3    0  502 -0.17419680931E+03  0.15440516837E+03  0.58284525436E+03  0.62760981105E+03  0.25500000920E-02 0.  1.
</event>
<event>
 5   0  0.7698747E-02  0.5031518E+03  0.7818609E-02  0.1012960E+00
        2   -1    0    0  501    0  0.00000000000E+00  0.00000000000E+00  0.36228597020E+03  0.36228597021E+03  0.25500000920E-02 0.  1.
       -2   -1    0    0    0  501  0.00000000000E+00  0.00000000000E+00 -0.17469741807E+03  0.17469741809E+03  0.25500000920E-02 0. -1.
    10030    2    1    2    0    0  0.00000000000E+00  0.00000000000E+00  0.18758855213E+03  0.53698338830E+03  0.50315176082E+03 0.  0.
        2    1    3    3  502    0 -0.89375014476E+02  0.16846596215E+03 -0.81316751848E+02  0.20731880704E+03  0.25500000920E-02 0. -1.
       -2    1    3    3    0  502  0.89375014476E+02 -0.16846596215E+03  0.26890530398E+03  0.32966458125E+03  0.25500000920E-02 0.  1.
</event>
<event>
 5   0  0.5038436E-02  0.4991052E+03  0.7818609E-02  0.1014013E+00
       -1   -1    0    0    0  501  0.00000000000E+00  0.00000000000E+00  0.72139163609E+02  0.72139163785E+02  0.50400001928E-02 0. -1.
        1   -1    0    0  501    0  0.00000000000E+00  0.00000000000E+00 -0.86328266250E+03  0.86328266252E+03  0.50400001928E-02 0.  1.
    10030    2    1    2    0    0  0.00000000000E+00  0.00000000000E+00 -0.79114349889E+03  0.93542182630E+03  0.49910515654E+03 0.  0.
        1    1    3    3  502    0  0.14918636025E+03  0.90058106509E+02 -0.73036380739E+03  0.75086505033E+03  0.50400001928E-02 0.  1.
       -1    1    3    3    0  502 -0.14918636025E+03 -0.90058106509E+02 -0.60779691504E+02  0.18455677598E+03  0.50400001928E-02 0. -1.
</event>
<event>
 5   0  0.8208720E-02  0.4913887E+03  0.7818609E-02  0.1016051E+00
       -2   -1    0    0    0  501  0.00000000000E+00  0.00000000000E+00  0.10547070352E+03  0.10547070355E+03  0.25500000920E-02 0. -1.
        2   -1    0    0  501    0  0.00000000000E+00  0.00000000000E+00 -0.57234580227E+03  0.57234580228E+03  0.25500000920E-02 0.  1.
    10030    2    1    2    0    0  0.00000000000E+00  0.00000000000E+00 -0.46687509875E+03  0.67781650583E+03  0.49138870331E+03 0.  0.
        3    1    3    3  502    0 -0.32520334362E+02 -0.10627171981E+03  0.68817084643E+02  0.13071745070E+03  0.10100000352E+00 0. -1.
       -3    1    3    3    0  502  0.32520334362E+02  0.10627171981E+03 -0.53569218339E+03  0.54709905513E+03  0.10100000352E+00 0.  1.
</event>
<event>
 5   0  0.7933103E-02  0.5000353E+03  0.7818609E-02  0.1013770E+00
       -2   -1    0    0    0  501  0.00000000000E+00  0.00000000000E+00  0.30869608826E+03  0.30869608827E+03  0.25500000920E-02 0. -1.
        2   -1    0    0  501    0  0.00000000000E+00  0.00000000000E+00 -0.20249307504E+03  0.20249307505E+03  0.25500000920E-02 0.  1.
    10030    2    1    2    0    0  0.00000000000E+00  0.00000000000E+00  0.10620301323E+03  0.51118916333E+03  0.50003527944E+03 0.  0.
        5    1    3    3  502    0  0.17492618234E+03  0.15381039016E+03 -0.39641020385E+02  0.23632669312E+03  0.46999998093E+01 0.  1.
       -5    1    3    3    0  502 -0.17492618234E+03 -0.15381039016E+03  0.14584403361E+03  0.27486247020E+03  0.46999998093E+01 0. -1.
</event>
<event>
 5   0  0.5038436E-02  0.5078534E+03  0.7818609E-02  0.1011749E+00
        1   -1    0    0  501    0  0.00000000000E+00  0.00000000000E+00  0.37365399640E+03  0.37365399643E+03  0.50400001928E-02 0.  1.
       -1   -1    0    0    0  501  0.00000000000E+00  0.00000000000E+00 -0.17256276516E+03  0.17256276523E+03  0.50400001928E-02 0. -1.
    10030    2    1    2    0    0  0.00000000000E+00  0.00000000000E+00  0.20109123124E+03  0.54621676167E+03  0.50785339168E+03 0.  0.
        1    1    3    3  502    0  0.25307709001E+02 -0.25222670167E+03  0.11649764573E+03  0.27898116541E+03  0.50400001928E-02 0. -1.
       -1    1    3    3    0  502 -0.25307709001E+02  0.25222670167E+03  0.84593585517E+02  0.26723559625E+03  0.50400001928E-02 0.  1.
</event>
<event>
 5   0  0.5191358E-02  0.5012557E+03  0.7818609E-02  0.1013452E+00
       -1   -1    0    0    0  501  0.00000000000E+00  0.00000000000E+00  0.15681805313E+03  0.15681805321E+03  0.50400001928E-02 0.  1.
        1   -1    0    0  501    0  0.00000000000E+00  0.00000000000E+00 -0.40055548315E+03  0.40055548318E+03  0.50400001928E-02 0. -1.
    10030    2    1    2    0    0  0.00000000000E+00  0.00000000000E+00 -0.24373743003E+03  0.55737353639E+03  0.50125574737E+03 0.  0.
        4    1    3    3  502    0 -0.62752858323E+02 -0.40811519477E+02 -0.38783095432E+03  0.39499109278E+03  0.12699999809E+01 0. -1.
       -4    1    3    3    0  502  0.62752858323E+02  0.40811519477E+02  0.14409352429E+03  0.16238244361E+03  0.12699999809E+01 0.  1.
</event>
<event>
 5   0  0.4803890E-02  0.4969001E+03  0.7818609E-02  0.1014591E+00
       -1   -1    0    0    0  501  0.00000000000E+00  0.00000000000E+00  0.38651549856E+03  0.38651549860E+03  0.50400001928E-02 0.  1.
        1   -1    0    0  501    0  0.00000000000E+00  0.00000000000E+00 -0.15970230690E+03  0.15970230698E+03  0.50400001928E-02 0. -1.
    10030    2    1    2    0    0  0.00000000000E+00  0.00000000000E+00  0.22681319166E+03  0.54621780558E+03  0.49690005758E+03 0.  0.
        5    1    3    3  502    0  0.22172539538E+02 -0.39091966906E+02 -0.15514720882E+03  0.16159378017E+03  0.46999998093E+01 0. -1.
       -5    1    3    3    0  502 -0.22172539538E+02  0.39091966906E+02  0.38196040048E+03  0.38462402541E+03  0.46999998093E+01 0.  1.
</event>
<event>
 5   0  0.4803890E-02  0.4997088E+03  0.7818609E-02  0.1013855E+00
       -1   -1    0    0    0  501  0.00000000000E+00  0.00000000000E+00  0.29016135425E+03  0.29016135430E+03  0.50400001928E-02 0. -1.
        1   -1    0    0  501    0  0.00000000000E+00  0.00000000000E+00 -0.21514660613E+03  0.21514660619E+03  0.50400001928E-02 0.  1.
    10030    2    1    2    0    0  0.00000000000E+00  0.00000000000E+00  0.75014748118E+02  0.50530796049E+03  0.49970883772E+03 0.  0.
        5    1    3    3  502    0  0.16154897341E+02 -0.86003468549E+02  0.27411106052E+03  0.28777863161E+03  0.46999998093E+01 0. -1.
       -5    1    3    3    0  502 -0.16154897341E+02  0.86003468549E+02 -0.19909631241E+03  0.21752932888E+03  0.46999998093E+01 0.  1.
</event>
<event>
 5   0  0.7933103E-02  0.4996046E+03  0.7818609E-02  0.1013882E+00
        2   -1    0    0  501    0  0.00000000000E+00  0.00000000000E+00  0.62970856905E+03  0.62970856905E+03  0.25500000920E-02 0.  1.
       -2   -1    0    0    0  501  0.00000000000E+00  0.00000000000E+00 -0.99095331744E+02  0.99095331776E+02  0.25500000920E-02 0. -1.
    10030    2    1    2    0    0  0.00000000000E+00  0.00000000000E+00  0.53061323730E+03  0.72880390083E+03  0.49960456189E+03 0.  0.
        5    1    3    3  502    0  0.11720661610E+03  0.91102984575E+02 -0.27690068028E+02  0.15108267446E+03  0.46999998093E+01 0. -1.
       -5    1    3    3    0  502 -0.11720661610E+03 -0.91102984575E+02  0.55830330533E+03  0.57772122637E+03  0.46999998093E+01 0.  1.
</event>
<event>
 5   0  0.7933103E-02  0.5229848E+03  0.7818609E-02  0.1007948E+00
       -2   -1    0    0    0  501  0.00000000000E+00  0.00000000000E+00  0.13678873770E+03  0.13678873772E+03  0.25500000920E-02 0.  1.
        2   -1    0    0  501    0  0.00000000000E+00  0.00000000000E+00 -0.49988241524E+03  0.49988241525E+03  0.25500000920E-02 0. -1.
    10030    2    1    2    0    0  0.00000000000E+00  0.00000000000E+00 -0.36309367754E+03  0.63667115298E+03  0.52298483569E+03 0.  0.
        5    1    3    3  502    0  0.25947434544E+03  0.31862393510E+02 -0.18610942010E+03  0.32093761747E+03  0.46999998093E+01 0.  1.
       -5    1    3    3    0  502 -0.25947434544E+03 -0.31862393510E+02 -0.17698425744E+03  0.31573353550E+03  0.46999998093E+01 0. -1.
</event>
<event>
 5   0  0.8208720E-02  0.4948857E+03  0.7818609E-02  0.1015123E+00
        2   -1    0    0  501    0  0.00000000000E+00  0.00000000000E+00  0.22022133420E+03  0.22022133421E+03  0.25500000920E-02 0.  1.
       -2   -1    0    0    0  501  0.00000000000E+00  0.00000000000E+00 -0.27802917072E+03  0.27802917073E+03  0.25500000920E-02 0. -1.
    10030    2    1    2    0    0  0.00000000000E+00  0.00000000000E+00 -0.57807836524E+02  0.49825050495E+03  0.49488566328E+03 0.  0.
        3    1    3    3  502    0 -0.23715672980E+03  0.24141360013E+02 -0.95701272374E+02  0.25687519048E+03  0.10100000352E+00 0. -1.
       -3    1    3    3    0  502  0.23715672980E+03 -0.24141360013E+02  0.37893435850E+02  0.24137531446E+03  0.10100000352E+00 0.  1.
</event>
<event>
 5   0  0.7933103E-02  0.4993973E+03  0.7818609E-02  0.1013936E+00
       -2   -1    0    0    0  501  0.00000000000E+00  0.00000000000E+00  0.13649243037E+03  0.13649243039E+03  0.25500000920E-02 0. -1.
        2   -1    0    0  501    0  0.00000000000E+00  0.00000000000E+00 -0.45679758904E+03  0.45679758904E+03  0.25500000920E-02 0.  1.
    10030    2    1    2    0    0  0.00000000000E+00  0.00000000000E+00 -0.32030515867E+03  0.59329001943E+03  0.49939728923E+03 0.  0.
        5    1    3    3  502    0  0.42588830370E+01 -0.15290059413E+03 -0.39455731064E+03  0.42319533451E+03  0.46999998093E+01 0.  1.
       -5    1    3    3    0  502 -0.42588830370E+01  0.15290059413E+03  0.74252151975E+02  0.17009468493E+03  0.46999998093E+01 0. -1.
</event>
<event>
 5   0  0.4865501E-02  0.4449438E+03  0.7818609E-02  0.1029241E+00
       -1   -1    0    0    0  501  0.00000000000E+00  0.00000000000E+00  0.46751747085E+02  0.46751747357E+02  0.50400001928E-02 0.  1.
        1   -1    0    0  501    0  0.00000000000E+00  0.00000000000E+00 -0.10586502658E+04  0.10586502658E+04  0.50400001928E-02 0. -1.
    10030    2    1    2    0    0  0.00000000000E+00  0.00000000000E+00 -0.10118985187E+04  0.11054020131E+04  0.44494381503E+03 0.  0.
        2    1    3    3  502    0 -0.38164592317E+02 -0.18062201057E+02 -0.10486047504E+04  0.10494544782E+04  0.25500000920E-02 0. -1.
       -2    1    3    3    0  502  0.38164592317E+02  0.18062201057E+02  0.36706231718E+02  0.55947534952E+02  0.25500000920E-02 0.  1.
</event>
<event>
 5   0  0.8208720E-02  0.4971503E+03  0.7818609E-02  0.1014525E+00
       -2   -1    0    0    0  501  0.00000000000E+00  0.00000000000E+00  0.95368909995E+02  0.95368910029E+02  0.25500000920E-02 0. -1.
        2   -1    0    0  501    0  0.00000000000E+00  0.00000000000E+00 -0.64790079761E+03  0.64790079761E+03  0.25500000920E-02 0.  1.
    10030    2    1    2    0    0  0.00000000000E+00  0.00000000000E+00 -0.55253188761E+03  0.74326970764E+03  0.49715025040E+03 0.  0.
        3    1    3    3  502    0 -0.14334693638E+03 -0.16474313739E+03 -0.45380044310E+03  0.50361046241E+03  0.10100000352E+00 0.  1.
       -3    1    3    3    0  502  0.14334693638E+03  0.16474313739E+03 -0.98731444506E+02  0.23965924523E+03  0.10100000352E+00 0. -1.
</event>
<event>
 5   0  0.7698747E-02  0.5030076E+03  0.7818609E-02  0.1012997E+00
        2   -1    0    0  501    0  0.00000000000E+00  0.00000000000E+00  0.11244243998E+04  0.11244243998E+04  0.25500000920E-02 0.  1.
       -2   -1    0    0    0  501  0.00000000000E+00  0.00000000000E+00 -0.56254701986E+02  0.56254702044E+02  0.25500000920E-02 0. -1.
    10030    2    1    2    0    0  0.00000000000E+00  0.00000000000E+00  0.10681696978E+04  0.11806791018E+04  0.50300759259E+03 0.  0.
        2    1    3    3  502    0  0.16525865017E+03  0.15916490404E+03  0.77586496532E+03  0.80907992964E+03  0.25500000920E-02 0. -1.
       -2    1    3    3    0  502 -0.16525865017E+03 -0.15916490404E+03  0.29230473248E+03  0.37159917218E+03  0.25500000920E-02 0.  1.
</event>
<event>
 5   0  0.8208720E-02  0.4987152E+03  0.7818609E-02  0.1014115E+00
        2   -1    0    0  501    0  0.00000000000E+00  0.00000000000E+00  0.13058195307E+04  0.13058195307E+04  0.25500000920E-02 0.  1.
       -2   -1    0    0    0  501  0.00000000000E+00  0.00000000000E+00 -0.47617003946E+02  0.47617004014E+02  0.25500000920E-02 0. -1.
    10030    2    1    2    0    0  0.00000000000E+00  0.00000000000E+00  0.12582025268E+04  0.13534365347E+04  0.49871520448E+03 0.  0.
        3    1    3    3  502    0 -0.69355122895E+02 -0.60991388280E+01  0.12789067058E+04  0.12808004157E+04  0.10100000352E+00 0.  1.
       -3    1    3    3    0  502  0.69355122895E+02  0.60991388280E+01 -0.20704178969E+02  0.72636119073E+02  0.10100000352E+00 0. -1.
</event>
<event>
 5   0  0.3210875E-02  0.4950732E+03  0.7818609E-02  0.1015073E+00
        4   -1    0    0  501    0  0.00000000000E+00  0.00000000000E+00  0.19646943665E+03  0.19647354131E+03  0.12699999809E+01 0. -1.
       -4   -1    0    0    0  501  0.00000000000E+00  0.00000000000E+00 -0.31186867544E+03  0.31187126130E+03  0.12699999809E+01 0.  1.
    10030    2    1    2    0    0  0.00000000000E+00  0.00000000000E+00 -0.11539923880E+03  0.50834480261E+03  0.49507318048E+03 0.  0.
        1    1    3    3  502    0  0.67501584604E+01 -0.19427626244E+03  0.99658513981E+02  0.21845056700E+03  0.50400001928E-02 0.  1.
       -1    1    3    3    0  502 -0.67501584604E+01  0.19427626244E+03 -0.21505775278E+03  0.28989423561E+03  0.50400001928E-02 0. -1.
</event>
<event>
 5   0  0.7698747E-02  0.5018212E+03  0.7818609E-02  0.1013305E+00
       -2   -1    0    0    0  501  0.00000000000E+00  0.00000000000E+00  0.25061913162E+03  0.25061913163E+03  0.25500000920E-02 0.  1.
        2   -1    0    0  501    0  0.00000000000E+00  0.00000000000E+00 -0.25120242821E+03  0.25120242822E+03  0.25500000920E-02 0. -1.
    10030    2    1    2    0    0  0.00000000000E+00  0.00000000000E+00 -0.58329659011E+00  0.50182155986E+03  0.50182122086E+03 0.  0.
        2    1    3    3  502    0  0.37302599843E+02  0.22314009576E+02  0.24682536437E+03  0.25062354135E+03  0.25500000920E-02 0.  1.
       -2    1    3    3    0  502 -0.37302599843E+02 -0.22314009576E+02 -0.24740866096E+03  0.25119801851E+03  0.25500000920E-02 0. -1.
</event>
<event>
 5   0  0.4865501E-02  0.4928276E+03  0.7818609E-02  0.1015668E+00
       -1   -1    0    0    0  501  0.00000000000E+00  0.00000000000E+00  0.79219563240E+02  0.79219563401E+02  0.50400001928E-02 0.  1.
        1   -1    0    0  501    0  0.00000000000E+00  0.00000000000E+00 -0.76647437453E+03  0.76647437454E+03  0.50400001928E-02 0. -1.
    10030    2    1    2    0    0  0.00000000000E+00  0.00000000000E+00 -0.68725481129E+03  0.84569393794E+03  0.49282761797E+03 0.  0.
        2    1    3    3  502    0  0.18970640312E+03  0.75181555099E+02 -0.58065327719E+03  0.61546650107E+03  0.25500000920E-02 0. -1.
       -2    1    3    3    0  502 -0.18970640312E+03 -0.75181555099E+02 -0.10660153409E+03  0.23022743688E+03  0.25500000920E-02 0.  1.
</event>
<event>
 5   0  0.4865501E-02  0.4985594E+03  0.7818609E-02  0.1014156E+00
        1   -1    0    0  501    0  0.00000000000E+00  0.00000000000E+00  0.10937243877E+04  0.10937243877E+04  0.50400001928E-02 0.  1.
       -1   -1    0    0    0  501  0.00000000000E+00  0.00000000000E+00 -0.56815375464E+02  0.56815375687E+02  0.50400001928E-02 0. -1.
    10030    2    1    2    0    0  0.00000000000E+00  0.00000000000E+00  0.10369090123E+04  0.11505397634E+04  0.49855937210E+03 0.  0.
        2    1    3    3  502    0 -0.12594722982E+03  0.21289552083E+03  0.58970147172E+03  0.63948028370E+03  0.25500000920E-02 0. -1.
       -2    1    3    3    0  502  0.12594722982E+03 -0.21289552083E+03  0.44720754056E+03  0.51105947974E+03  0.25500000920E-02 0.  1.
</event>
<event>
 5   0  0.3210875E-02  0.5023106E+03  0.7818609E-02  0.1013178E+00
       -3   -1    0    0    0  501  0.00000000000E+00  0.00000000000E+00  0.10956202617E+04  0.10956202664E+04  0.10100000352E+00 0.  1.
        3   -1    0    0  501    0  0.00000000000E+00  0.00000000000E+00 -0.57573707853E+02  0.57573796444E+02  0.10100000352E+00 0. -1.
    10030    2    1    2    0    0  0.00000000000E+00  0.00000000000E+00  0.10380465539E+04  0.11531940628E+04  0.50231055984E+03 0.  0.
        5    1    3    3  502    0 -0.86745845159E+01 -0.20490178107E+02 -0.55205123896E+02  0.59705875071E+02  0.46999998093E+01 0. -1.
       -5    1    3    3    0  502  0.86745845159E+01  0.20490178107E+02  0.10932516778E+04  0.10934881877E+04  0.46999998093E+01 0.  1.
</event>
<event>
 5   0  0.7776070E-02  0.4963221E+03  0.7818609E-02  0.1014743E+00
        2   -1    0    0  501    0  0.00000000000E+00  0.00000000000E+00  0.31849244235E+03  0.31849244236E+03  0.25500000920E-02 0.  1.
       -2   -1    0    0    0  501  0.00000000000E+00  0.00000000000E+00 -0.19336067757E+03  0.19336067759E+03  0.25500000920E-02 0. -1.
    10030    2    1    2    0    0  0.00000000000E+00  0.00000000000E+00  0.12513176479E+03  0.51185311995E+03  0.49632213113E+03 0.  0.
        4    1    3    3  502    0 -0.18580316908E+03  0.55061578869E+02  0.22242516978E+03  0.29500705781E+03  0.12699999809E+01 0.  1.
       -4    1    3    3    0  502  0.18580316908E+03 -0.55061578869E+02 -0.97293404993E+02  0.21684606214E+03  0.12699999809E+01 0. -1.
</event>
<event>
 5   0  0.3210875E-02  0.4983422E+03  0.7818609E-02  0.1014213E+00
       -3   -1    0    0    0  501  0.00000000000E+00  0.00000000000E+00  0.10086993780E+04  0.10086993831E+04  0.10100000352E+00 0. -1.
        3   -1    0    0  501    0  0.00000000000E+00  0.00000000000E+00 -0.61550742364E+02  0.61550825231E+02  0.10100000352E+00 0.  1.
    10030    2    1    2    0    0  0.00000000000E+00  0.00000000000E+00  0.94714863565E+03  0.10702502083E+04  0.49834222213E+03 0.  0.
        3    1    3    3  502    0  0.20272984652E+03 -0.13996269658E+03  0.39329564597E+03  0.46408018968E+03  0.10100000352E+00 0.  1.
       -3    1    3    3    0  502 -0.20272984652E+03  0.13996269658E+03  0.55385298967E+03  0.60617001862E+03  0.10100000352E+00 0. -1.
</event>
<event>
 5   0  0.4884478E-02  0.4869113E+03  0.7818609E-02  0.1017253E+00
       -1   -1    0    0    0  501  0.00000000000E+00  0.00000000000E+00  0.12445395442E+03  0.12445395452E+03  0.50400001928E-02 0. -1.
        1   -1    0    0  501    0  0.00000000000E+00  0.00000000000E+00 -0.47624558302E+03  0.47624558305E+03  0.50400001928E-02 0.  1.
    10030    2    1    2    0    0  0.00000000000E+00  0.00000000000E+00 -0.35179162860E+03  0.60069953757E+03  0.48691126962E+03 0.  0.
        3    1    3    3  502    0  0.18005070151E+03 -0.50159350967E+02  0.16562119918E+02  0.18763936053E+03  0.10100000352E+00 0. -1.
       -3    1    3    3    0  502 -0.18005070151E+03  0.50159350967E+02 -0.36835374852E+03  0.41306017704E+03  0.10100000352E+00 0.  1.
</event>
<event>
 5   0  0.3210875E-02  0.5012932E+03  0.7818609E-02  0.1013442E+00
        4   -1    0    0  501    0  0.00000000000E+00  0.00000000000E+00  0.32481407276E+03  0.32481655556E+03  0.12699999809E+01 0.  1.
       -4   -1    0    0    0  501  0.00000000000E+00  0.00000000000E+00 -0.19340910810E+03  0.19341327771E+03  0.12699999809E+01 0. -1.
    10030    2    1    2    0    0  0.00000000000E+00  0.00000000000E+00  0.13140496466E+03  0.51822983326E+03  0.50129322292E+03 0.  0.
        4    1    3    3  502    0  0.23389840364E+01  0.17289801571E+03 -0.12187457824E+03  0.21155193312E+03  0.12699999809E+01 0. -1.
       -4    1    3    3    0  502 -0.23389840364E+01 -0.17289801571E+03  0.25327954291E+03  0.30667790015E+03  0.12699999809E+01 0.  1.
</event>
<event>
 5   0  0.7881060E-02  0.4985481E+03  0.7818609E-02  0.1014159E+00
        2   -1    0    0  501    0  0.00000000000E+00  0.00000000000E+00  0.21412821148E+03  0.21412821150E+03  0.25500000920E-02 0. -1.
       -2   -1    0    0    0  501  0.00000000000E+00  0.00000000000E+00 -0.29018858363E+03  0.29018858365E+03  0.25500000920E-02 0.  1.
    10030    2    1    2    0    0  0.00000000000E+00  0.00000000000E+00 -0.76060372154E+02  0.50431679514E+03  0.49854814176E+03 0.  0.
        1    1    3    3  502    0  0.46695104598E+02 -0.19945878071E+03  0.10564609091E+03  0.23048933716E+03  0.50400001928E-02 0. -1.
       -1    1    3    3    0  502 -0.46695104598E+02  0.19945878071E+03 -0.18170646307E+03  0.27382745798E+03  0.50400001928E-02 0.  1.
</event>
<event>
 5   0  0.8208720E-02  0.5000380E+03  0.7818609E-02  0.1013769E+00
       -2   -1    0    0    0  501  0.00000000000E+00  0.00000000000E+00  0.14024199840E+03  0.14024199843E+03  0.25500000920E-02 0. -1.
        2   -1    0    0  501    0  0.00000000000E+00  0.00000000000E+00 -0.44572603429E+03  0.44572603430E+03  0.25500000920E-02 0.  1.
    10030    2    1    2    0    0  0.00000000000E+00  0.00000000000E+00 -0.30548403589E+03  0.58596803272E+03  0.50003803775E+03 0.  0.
        3    1    3    3  502    0 -0.38722392426E+02  0.24254510684E+03 -0.98003505990E+02  0.26444706449E+03  0.10100000352E+00 0. -1.
       -3    1    3    3    0  502  0.38722392426E+02 -0.24254510684E+03 -0.20748052990E+03  0.32152096824E+03  0.10100000352E+00 0.  1.
</event>
<event>
 5   0  0.7698747E-02  0.4981250E+03  0.7818609E-02  0.1014269E+00
       -2   -1    0    0    0  501  0.00000000000E+00  0.00000000000E+00  0.31152723987E+03  0.31152723988E+03  0.25500000920E-02 0.  1.
        2   -1    0    0  501    0  0.00000000000E+00  0.00000000000E+00 -0.19912263633E+03  0.19912263635E+03  0.25500000920E-02 0. -1.
    10030    2    1    2    0    0  0.00000000000E+00  0.00000000000E+00  0.11240460353E+03  0.51064987623E+03  0.49812498552E+03 0.  0.
        2    1    3    3  502    0 -0.49334476829E+02  0.23561858104E+03  0.12170025565E+03  0.26974239297E+03  0.25500000920E-02 0. -1.
       -2    1    3    3    0  502  0.49334476829E+02 -0.23561858104E+03 -0.92956521137E+01  0.24090748326E+03  0.25500000920E-02 0.  1.
</event>
<event>
 5   0  0.5038436E-02  0.4948832E+03  0.7818609E-02  0.1015123E+00
        1   -1    0    0  501    0  0.00000000000E+00  0.00000000000E+00  0.76329862923E+02  0.76329863089E+02  0.50400001928E-02 0.  1.
       -1   -1    0    0    0  501  0.00000000000E+00  0.00000000000E+00 -0.80214133000E+03  0.80214133002E+03  0.50400001928E-02 0. -1.
    10030    2    1    2    0    0  0.00000000000E+00  0.00000000000E+00 -0.72581146708E+03  0.87847119311E+03  0.49488316942E+03 0.  0.
        1    1    3    3  502    0 -0.12410890822E+03 -0.20240865049E+03 -0.48659212360E+03  0.54142790625E+03  0.50400001928E-02 0.  1.
       -1    1    3    3    0  502  0.12410890822E+03  0.20240865049E+03 -0.23921934348E+03  0.33704328686E+03  0.50400001928E-02 0. -1.
</event>
<event>
 5   0  0.7776070E-02  0.5038644E+03  0.7818609E-02  0.1012775E+00
       -2   -1    0    0    0  501  0.00000000000E+00  0.00000000000E+00  0.60716029143E+02  0.60716029196E+02  0.25500000920E-02 0.  1.
        2   -1    0    0  501    0  0.00000000000E+00  0.00000000000E+00 -0.10453553877E+04  0.10453553877E+04  0.25500000920E-02 0. -1.
    10030    2    1    2    0    0  0.00000000000E+00  0.00000000000E+00 -0.98463935859E+03  0.11060714169E+04  0.50386437944E+03 0.  0.
        4    1    3    3  502    0  0.15278932276E+03 -0.39969150233E+02 -0.61448876964E+02  0.16946883932E+03  0.12699999809E+01 0.  1.
       -4    1    3    3    0  502 -0.15278932276E+03  0.39969150233E+02 -0.92319048163E+03  0.93660257761E+03  0.12699999809E+01 0. -1.
</event>
<event>
 5   0  0.5038436E-02  0.4977826E+03  0.7818609E-02  0.1014359E+00
       -1   -1    0    0    0  501  0.00000000000E+00  0.00000000000E+00  0.36439549668E+03  0.36439549672E+03  0.50400001928E-02 0. -1.
        1   -1    0    0  501    0  0.00000000000E+00  0.00000000000E+00 -0.16999899453E+03  0.16999899461E+03  0.50400001928E-02 0.  1.
    10030    2    1    2    0    0  0.00000000000E+00  0.00000000000E+00  0.19439650215E+03  0.53439449132E+03  0.49778255525E+03 0.  0.
        1    1    3    3  502    0  0.14061358186E+03  0.94136080770E+02  0.29314124477E+03  0.33847536176E+03  0.50400001928E-02 0. -1.
       -1    1    3    3    0  502 -0.14061358186E+03 -0.94136080770E+02 -0.98744742623E+02  0.19591912956E+03  0.50400001928E-02 0.  1.
</event>
<event>
 5   0  0.8208720E-02  0.4968159E+03  0.7818609E-02  0.1014613E+00
       -2   -1    0    0    0  501  0.00000000000E+00  0.00000000000E+00  0.62989812799E+02  0.62989812851E+02  0.25500000920E-02 0.  1.
        2   -1    0    0  501    0  0.00000000000E+00  0.00000000000E+00 -0.97962667668E+03  0.97962667669E+03  0.25500000920E-02 0. -1.
    10030    2    1    2    0    0  0.00000000000E+00  0.00000000000E+00 -0.91663686388E+03  0.10426164895E+04  0.49681586531E+03 0.  0.
        3    1    3    3  502    0 -0.18779100507E+03  0.71372342806E+02 -0.15170036575E+03  0.25173892045E+03  0.10100000352E+00 0.  1.
       -3    1    3    3    0  502  0.18779100507E+03 -0.71372342806E+02 -0.76493649813E+03  0.79087756908E+03  0.10100000352E+00 0. -1.
</event>
<event>
 5   0  0.8208720E-02  0.4948549E+03  0.7818609E-02  0.1015131E+00
       -2   -1    0    0    0  501  0.00000000000E+00  0.00000000000E+00  0.10199765570E+03  0.10199765573E+03  0.25500000920E-02 0.  1.
        2   -1    0    0  501    0  0.00000000000E+00  0.00000000000E+00 -0.60021321305E+03  0.60021321306E+03  0.25500000920E-02 0. -1.
    10030    2    1    2    0    0  0.00000000000E+00  0.00000000000E+00 -0.49821555735E+03  0.70221086879E+03  0.49485489051E+03 0.  0.
        3    1    3    3  502    0 -0.15786517505E+03 -0.14028089196E+03 -0.66168210024E+02  0.22131060608E+03  0.10100000352E+00 0.  1.
       -3    1    3    3    0  502  0.15786517505E+03  0.14028089196E+03 -0.43204734733E+03  0.48090026271E+03  0.10100000352E+00 0. -1.
</event>
<event>
 5   0  0.5191358E-02  0.4997190E+03  0.7818609E-02  0.1013852E+00
       -1   -1    0    0    0  501  0.00000000000E+00  0.00000000000E+00  0.28157292924E+03  0.28157292929E+03  0.50400001928E-02 0. -1.
        1   -1    0    0  501    0  0.00000000000E+00  0.00000000000E+00 -0.22171793461E+03  0.22171793467E+03  0.50400001928E-02 0.  1.
    10030    2    1    2    0    0  0.00000000000E+00  0.00000000000E+00  0.59854994633E+02  0.50329086395E+03  0.49971899439E+03 0.  0.
        4    1    3    3  502    0 -0.62503161581E+02  0.23678901131E+03  0.79803934924E+02  0.25757709917E+03  0.12699999809E+01 0. -1.
       -4    1    3    3    0  502  0.62503161581E+02 -0.23678901131E+03 -0.19948940291E+02  0.24571376478E+03  0.12699999809E+01 0.  1.
</event>
<event>
 5   0  0.5038436E-02  0.4972675E+03  0.7818609E-02  0.1014495E+00
       -1   -1    0    0    0  501  0.00000000000E+00  0.00000000000E+00  0.19971482916E+03  0.19971482922E+03  0.50400001928E-02 0.  1.
        1   -1    0    0  501    0  0.00000000000E+00  0.00000000000E+00 -0.30953511048E+03  0.30953511052E+03  0.50400001928E-02 0. -1.
    10030    2    1    2    0    0  0.00000000000E+00  0.00000000000E+00 -0.10982028133E+03  0.50924993974E+03  0.49726754060E+03 0.  0.
        1    1    3    3  502    0 -0.88213478699E+01 -0.23759896980E+03 -0.12937868156E+03  0.27068418849E+03  0.50400001928E-02 0. -1.
       -1    1    3    3    0  502  0.88213478699E+01  0.23759896980E+03  0.19558400237E+02  0.23856575126E+03  0.50400001928E-02 0.  1.
</event>
<event>
 5   0  0.7881060E-02  0.5040692E+03  0.7818609E-02  0.1012722E+00
        2   -1    0    0  501    0  0.00000000000E+00  0.00000000000E+00  0.14544457414E+04  0.14544457414E+04  0.25500000920E-02 0. -1.
       -2   -1    0    0    0  501  0.00000000000E+00  0.00000000000E+00 -0.43673985715E+02  0.43673985789E+02  0.25500000920E-02 0.  1.
    10030    2    1    2    0    0  0.00000000000E+00  0.00000000000E+00  0.14107717556E+04  0.14981197272E+04  0.50406921187E+03 0.  0.
        1    1    3    3  502    0  0.11756605859E+02 -0.21022998300E+03  0.11170614752E+04  0.11367326875E+04  0.50400001928E-02 0. -1.
       -1    1    3    3    0  502 -0.11756605859E+02  0.21022998300E+03  0.29371028047E+03  0.36138703963E+03  0.50400001928E-02 0.  1.
</event>
<event>
 5   0  0.4865501E-02  0.5001095E+03  0.7818609E-02  0.1013750E+00
       -1   -1    0    0    0  501  0.00000000000E+00  0.00000000000E+00  0.38966571021E+02  0.38966571347E+02  0.50400001928E-02 0.  1.
        1   -1    0    0  501    0  0.00000000000E+00  0.00000000000E+00 -0.16046418085E+04  0.16046418085E+04  0.50400001928E-02 0. -1.
    10030    2    1    2    0    0  0.00000000000E+00  0.00000000000E+00 -0.15656752375E+04  0.16436083799E+04  0.50010954508E+03 0.  0.
        2    1    3    3  502    0  0.39057670944E+01 -0.83047019163E+02 -0.15578889209E+04  0.15601057503E+04  0.25500000920E-02 0. -1.
       -2    1    3    3    0  502 -0.39057670944E+01  0.83047019163E+02 -0.77863166235E+01  0.83502629549E+02  0.25500000920E-02 0.  1.
</event>
<event>
 5   0  0.7933103E-02  0.4973543E+03  0.7818609E-02  0.1014472E+00
        2   -1    0    0  501    0  0.00000000000E+00  0.00000000000E+00  0.23793644064E+03  0.23793644065E+03  0.25500000920E-02 0. -1.
       -2   -1    0    0    0  501  0.00000000000E+00  0.00000000000E+00 -0.25990266218E+03  0.25990266219E+03  0.25500000920E-02 0.  1.
    10030    2    1    2    0    0  0.00000000000E+00  0.00000000000E+00 -0.21966221539E+02  0.49783910285E+03  0.49735425748E+03 0.  0.
        5    1    3    3  502    0 -0.61966051481E+02  0.20186405098E+03  0.12040542043E+03  0.24312227763E+03  0.46999998093E+01 0.  1.
       -5    1    3    3    0  502  0.61966051481E+02 -0.20186405098E+03 -0.14237164196E+03  0.25471682522E+03  0.46999998093E+01 0. -1.
</event>
<event>
 5   0  0.4865501E-02  0.5006770E+03  0.7818609E-02  0.1013602E+00
       -1   -1    0    0    0  501  0.00000000000E+00  0.00000000000E+00  0.32099016899E+03  0.32099016903E+03  0.50400001928E-02 0.  1.
        1   -1    0    0  501    0  0.00000000000E+00  0.00000000000E+00 -0.19523765864E+03  0.19523765870E+03  0.50400001928E-02 0. -1.
    10030    2    1    2    0    0  0.00000000000E+00  0.00000000000E+00  0.12575251035E+03  0.51622782773E+03  0.50067701791E+03 0.  0.
        2    1    3    3  502    0 -0.28108811898E+02 -0.23316312649E+03  0.15225324295E+03  0.27988604620E+03  0.25500000920E-02 0.  1.
       -2    1    3    3    0  502  0.28108811898E+02  0.23316312649E+03 -0.26500732604E+02  0.23634178153E+03  0.25500000920E-02 0. -1.
</event>
<event>
 5   0  0.4803890E-02  0.4984528E+03  0.7818609E-02  0.1014184E+00
       -1   -1    0    0    0  501  0.00000000000E+00  0.00000000000E+00  0.11664066030E+03  0.11664066041E+03  0.50400001928E-02 0.  1.
        1   -1    0    0  501    0  0.00000000000E+00  0.00000000000E+00 -0.53252258697E+03  0.53252258700E+03  0.50400001928E-02 0. -1.
    10030    2    1    2    0    0  0.00000000000E+00  0.00000000000E+00 -0.41588192667E+03  0.64916324741E+03  0.49845275087E+03 0.  0.
        5    1    3    3  502    0 -0.13889103471E+03 -0.94895007318E+02  0.31479918971E+02  0.17119829799E+03  0.46999998093E+01 0.  1.
       -5    1    3    3    0  502  0.13889103471E+03  0.94895007318E+02 -0.44736184564E+03  0.47796494942E+03  0.46999998093E+01 0. -1.
</event>
<event>
 5   0  0.5038436E-02  0.5002106E+03  0.7818609E-02  0.1013724E+00
        1   -1    0    0  501    0  0.00000000000E+00  0.00000000000E+00  0.13727123447E+04  0.13727123447E+04  0.50400001928E-02 0.  1.
       -1   -1    0    0    0  501  0.00000000000E+00  0.00000000000E+00 -0.45568661239E+02  0.45568661518E+02  0.50400001928E-02 0. -1.
    10030    2    1    2    0    0  0.00000000000E+00  0.00000000000E+00  0.13271436835E+04  0.14182810062E+04  0.50021061172E+03 0.  0.
        1    1    3    3  502    0  0.24022215281E+03 -0.31382704400E+02  0.83975537422E+03  0.87400265755E+03  0.50400001928E-02 0. -1.
       -1    1    3    3    0  502 -0.24022215281E+03  0.31382704400E+02  0.48738830926E+03  0.54427834870E+03  0.50400001928E-02 0.  1.
</event>
<event>
 5   0  0.7933103E-02  0.4967321E+03  0.7818609E-02  0.1014635E+00
       -2   -1    0    0    0  501  0.00000000000E+00  0.00000000000E+00  0.54533589862E+02  0.54533589922E+02  0.25500000920E-02 0. -1.
        2   -1    0    0  501    0  0.00000000000E+00  0.00000000000E+00 -0.11311504639E+04  0.11311504639E+04  0.25500000920E-02 0.  1.
    10030    2    1    2    0    0  0.00000000000E+00  0.00000000000E+00 -0.10766168741E+04  0.11856840538E+04  0.49673210288E+03 0.  0.
        5    1    3    3  502    0 -0.15610511689E+03  0.53044485501E+02 -0.95070235444E+02  0.19037585096E+03  0.46999998093E+01 0. -1.
       -5    1    3    3    0  502  0.15610511689E+03 -0.53044485501E+02 -0.98154663861E+03  0.99530820288E+03  0.46999998093E+01 0.  1.
</event>
<event>
 5   0  0.4865501E-02  0.4994398E+03  0.7818609E-02  0.1013925E+00
        1   -1    0    0  501    0  0.00000000000E+00  0.00000000000E+00  0.40792417646E+03  0.40792417649E+03  0.50400001928E-02 0.  1.
       -1   -1    0    0    0  501  0.00000000000E+00  0.00000000000E+00 -0.15287164488E+03  0.15287164496E+03  0.50400001928E-02 0. -1.
    10030    2    1    2    0    0  0.00000000000E+00  0.00000000000E+00  0.25505253158E+03  0.56079582145E+03  0.49943984572E+03 0.  0.
        2    1    3    3  502    0 -0.68028488861E+02 -0.24025883408E+03  0.13067369488E+03  0.28182937602E+03  0.25500000920E-02 0. -1.
       -2    1    3    3    0  502  0.68028488861E+02  0.24025883408E+03  0.12437883670E+03  0.27896644543E+03  0.25500000920E-02 0.  1.
</event>
<event>
 5   0  0.4884478E-02  0.5000771E+03  0.7818609E-02  0.1013759E+00
       -1   -1    0    0    0  501  0.00000000000E+00  0.00000000000E+00  0.11629010644E+03  0.11629010655E+03  0.50400001928E-02 0.  1.
        1   -1    0    0  501    0  0.00000000000E+00  0.00000000000E+00 -0.53761480908E+03  0.53761480910E+03  0.50400001928E-02 0. -1.
    10030    2    1    2    0    0  0.00000000000E+00  0.00000000000E+00 -0.42132470263E+03  0.65390491565E+03  0.50007712772E+03 0.  0.
        3    1    3    3  502    0  0.42139176881E+01 -0.16076664678E+03 -0.46101246058E+03  0.48825830340E+03  0.10100000352E+00 0. -1.
       -3    1    3    3    0  502 -0.42139176881E+01  0.16076664678E+03  0.39687757952E+02  0.16564661226E+03  0.10100000352E+00 0.  1.
</event>
<event>
 5   0  0.8208720E-02  0.5007763E+03  0.7818609E-02  0.1013576E+00
       -2   -1    0    0    0  501  0.00000000000E+00  0.00000000000E+00  0.49826207964E+02  0.49826208030E+02  0.25500000920E-02 0. -1.
        2   -1    0    0  501    0  0.00000000000E+00  0.00000000000E+00 -0.12582582499E+04  0.12582582499E+04  0.25500000920E-02 0.  1.
    10030    2    1    2    0    0  0.00000000000E+00  0.00000000000E+00 -0.12084320419E+04  0.13080844579E+04  0.50077634639E+03 0.  0.
        3    1    3    3  502    0  0.13235902343E+03  0.17314033031E+02 -0.11575620827E+04  0.11652333124E+04  0.10100000352E+00 0.  1.
       -3    1    3    3    0  502 -0.13235902343E+03 -0.17314033031E+02 -0.50869959219E+02  0.14285114551E+03  0.10100000352E+00 0. -1.
</event>
<event>
 5   0  0.7933103E-02  0.4984717E+03  0.7818609E-02  0.1014179E+00
       -2   -1    0    0    0  501  0.00000000000E+00  0.00000000000E+00  0.10222269894E+03  0.10222269898E+03  0.25500000920E-02 0. -1.
        2   -1    0    0  501    0  0.00000000000E+00  0.00000000000E+00 -0.60767822745E+03  0.60767822746E+03  0.25500000920E-02 0.  1.
    10030    2    1    2    0    0  0.00000000000E+00  0.00000000000E+00 -0.50545552851E+03  0.70990092643E+03  0.49847169835E+03 0.  0.
        5    1    3    3  502    0 -0.47853928669E+02 -0.17241958562E+03 -0.49971871398E+03  0.53081013093E+03  0.46999998093E+01 0.  1.
       -5    1    3    3    0  502  0.47853928669E+02  0.17241958562E+03 -0.57368145228E+01  0.17909079550E+03  0.46999998093E+01 0. -1.
</event>
<event>
 5   0  0.7881060E-02  0.4970343E+03  0.7818609E-02  0.1014556E+00
        2   -1    0    0  501    0  0.00000000000E+00  0.00000000000E+00  0.30777548063E+04  0.30777548063E+04  0.25500000920E-02 0.  1.
       -2   -1    0    0    0  501  0.00000000000E+00  0.00000000000E+00 -0.20066828458E+02  0.20066828620E+02  0.25500000920E-02 0. -1.
    10030    2    1    2    0    0  0.00000000000E+00  0.00000000000E+00  0.30576879779E+04  0.30978216349E+04  0.49703431667E+03 0.  0.
        1    1    3    3  502    0 -0.23299465507E+03  0.16295687748E+02  0.20580187095E+04  0.20712298442E+04  0.50400001928E-02 0.  1.
       -1    1    3    3    0  502  0.23299465507E+03 -0.16295687748E+02  0.99966926834E+03  0.10265917907E+04  0.50400001928E-02 0. -1.
</event>
<event>
 5   0  0.5191358E-02  0.4999093E+03  0.7818609E-02  0.1013803E+00
        1   -1    0    0  501    0  0.00000000000E+00  0.00000000000E+00  0.53459500018E+03  0.53459500020E+03  0.50400001928E-02 0.  1.
       -1   -1    0    0    0  501  0.00000000000E+00  0.00000000000E+00 -0.11686850318E+03  0.11686850329E+03  0.50400001928E-02 0. -1.
    10030    2    1    2    0    0  0.00000000000E+00  0.00000000000E+00  0.41772649700E+03  0.65146350349E+03  0.49990926185E+03 0.  0.
        4    1    3    3  502    0  0.17532526134E+03 -0.84440057325E+02  0.41328401527E+03  0.45680888862E+03  0.12699999809E+01 0.  1.
       -4    1    3    3    0  502 -0.17532526134E+03  0.84440057325E+02  0.44424817304E+01  0.19465461487E+03  0.12699999809E+01 0. -1.
</event>
<event>
 5   0  0.4884478E-02  0.4986468E+03  0.7818609E-02  0.1014133E+00
       -1   -1    0    0    0  501  0.00000000000E+00  0.00000000000E+00  0.13792606092E+03  0.13792606102E+03  0.50400001928E-02 0. -1.
        1   -1    0    0  501    0  0.00000000000E+00  0.00000000000E+00 -0.45069183104E+03  0.45069183107E+03  0.50400001928E-02 0.  1.
    10030    2    1    2    0    0  0.00000000000E+00  0.00000000000E+00 -0.31276577012E+03  0.58861789209E+03  0.49864676468E+03 0.  0.
        3    1    3    3  502    0 -0.65083114551E+02  0.16407345046E+03 -0.36424001891E+03  0.40475512415E+03  0.10100000352E+00 0.  1.
       -3    1    3    3    0  502  0.65083114551E+02 -0.16407345046E+03  0.51474248792E+02  0.18386276794E+03  0.10100000352E+00 0. -1.
</event>
<event>
 5   0  0.5038436E-02  0.5019702E+03  0.7818609E-02  0.1013266E+00
        1   -1    0    0  501    0  0.00000000000E+00  0.00000000000E+00  0.10302118510E+04  0.10302118510E+04  0.50400001928E-02 0. -1.
       -1   -1    0    0    0  501  0.00000000000E+00  0.00000000000E+00 -0.61146184113E+02  0.61146184321E+02  0.50400001928E-02 0.  1.
    10030    2    1    2    0    0  0.00000000000E+00  0.00000000000E+00  0.96906566692E+03  0.10913580354E+04  0.50197021282E+03 0.  0.
        1    1    3    3  502    0  0.22176298217E+03  0.11142992293E+03  0.56582611147E+03  0.61786295927E+03  0.50400001928E-02 0. -1.
       -1    1    3    3    0  502 -0.22176298217E+03 -0.11142992293E+03  0.40323955545E+03  0.47349507610E+03  0.50400001928E-02 0.  1.
</event>
<event>
 5   0  0.7698747E-02  0.5091673E+03  0.7818609E-02  0.1011413E+00
        2   -1    0    0  501    0  0.00000000000E+00  0.00000000000E+00  0.47539100156E+03  0.47539100157E+03  0.25500000920E-02 0. -1.
       -2   -1    0    0    0  501  0.00000000000E+00  0.00000000000E+00 -0.13633586519E+03  0.13633586522E+03  0.25500000920E-02 0.  1.
    10030    2    1    2    0    0  0.00000000000E+00  0.00000000000E+00  0.33905513637E+03  0.61172686679E+03  0.50916733403E+03 0.  0.
        2    1    3    3  502    0  0.50053536466E+02  0.11958357206E+03 -0.93711572510E+02  0.15996076409E+03  0.25500000920E-02 0.  1.
       -2    1    3    3    0  502 -0.50053536466E+02 -0.11958357206E+03  0.43276670888E+03  0.45176610269E+03  0.25500000920E-02 0. -1.
</event>
<event>
 5   0  0.5038436E-02  0.5134100E+03  0.7818609E-02  0.1010337E+00
        1   -1    0    0  501    0  0.00000000000E+00  0.00000000000E+00  0.25730783663E+03  0.25730783668E+03  0.50400001928E-02 0.  1.
       -1   -1    0    0    0  501  0.00000000000E+00  0.00000000000E+00 -0.25610357317E+03  0.25610357322E+03  0.50400001928E-02 0. -1.
    10030    2    1    2    0    0  0.00000000000E+00  0.00000000000E+00  0.12042634673E+01  0.51341140990E+03  0.51340999753E+03 0.  0.
        1    1    3    3  502    0  0.19569081724E+03  0.14618528248E+03  0.79548049235E+02  0.25689088137E+03  0.50400001928E-02 0.  1.
       -1    1    3    3    0  502 -0.19569081724E+03 -0.14618528248E+03 -0.78343785768E+02  0.25652052854E+03  0.50400001928E-02 0. -1.
</event>
<event>
 5   0  0.3210875E-02  0.5014210E+03  0.7818609E-02  0.1013409E+00
       -4   -1    0    0    0  501  0.00000000000E+00  0.00000000000E+00  0.13256941066E+03  0.13257549375E+03  0.12699999809E+01 0.  1.
        4   -1    0    0  501    0  0.00000000000E+00  0.00000000000E+00 -0.47411685824E+03  0.47411855919E+03  0.12699999809E+01 0. -1.
    10030    2    1    2    0    0  0.00000000000E+00  0.00000000000E+00 -0.34154744758E+03  0.60669405295E+03  0.50142099570E+03 0.  0.
        2    1    3    3  502    0 -0.24544713589E+03  0.17156469057E+02 -0.22901633118E+03  0.33613556923E+03  0.25500000920E-02 0. -1.
       -2    1    3    3    0  502  0.24544713589E+03 -0.17156469057E+02 -0.11253111639E+03  0.27055848371E+03  0.25500000920E-02 0.  1.
</event>
<event>
 5   0  0.5191358E-02  0.5013340E+03  0.7818609E-02  0.1013431E+00
        1   -1    0    0  501    0  0.00000000000E+00  0.00000000000E+00  0.47564967503E+03  0.47564967505E+03  0.50400001928E-02 0.  1.
       -1   -1    0    0    0  501  0.00000000000E+00  0.00000000000E+00 -0.13210128983E+03  0.13210128992E+03  0.50400001928E-02 0. -1.
    10030    2    1    2    0    0  0.00000000000E+00  0.00000000000E+00  0.34354838520E+03  0.60775096498E+03  0.50133396300E+03 0.  0.
        4    1    3    3  502    0  0.14903077033E+03 -0.79761621168E+02 -0.52610747440E+02  0.17703556243E+03  0.12699999809E+01 0. -1.
       -4    1    3    3    0  502 -0.14903077033E+03  0.79761621168E+02  0.39615913264E+03  0.43071540255E+03  0.12699999809E+01 0.  1.
</event>
<event>
 5   0  0.7881060E-02  0.5117502E+03  0.7818609E-02  0.1010757E+00
       -2   -1    0    0    0  501  0.00000000000E+00  0.00000000000E+00  0.18348573492E+03  0.18348573494E+03  0.25500000920E-02 0. -1.
        2   -1    0    0  501    0  0.00000000000E+00  0.00000000000E+00 -0.35682377537E+03  0.35682377538E+03  0.25500000920E-02 0.  1.
    10030    2    1    2    0    0  0.00000000000E+00  0.00000000000E+00 -0.17333804046E+03  0.54030951032E+03  0.51175022293E+03 0.  0.
        1    1    3    3  502    0  0.34210226071E+02 -0.60793554017E+02  0.17325232194E+03  0.18676874166E+03  0.50400001928E-02 0. -1.
       -1    1    3    3    0  502 -0.34210226071E+02  0.60793554017E+02 -0.34659036239E+03  0.35354076866E+03  0.50400001928E-02 0.  1.
</event>
<event>
 5   0  0.8208720E-02  0.4973779E+03  0.7818609E-02  0.1014466E+00
       -2   -1    0    0    0  501  0.00000000000E+00  0.00000000000E+00  0.31815903439E+02  0.31815903541E+02  0.25500000920E-02 0. -1.
        2   -1    0    0  501    0  0.00000000000E+00  0.00000000000E+00 -0.19438763471E+04  0.19438763471E+04  0.25500000920E-02 0.  1.
    10030    2    1    2    0    0  0.00000000000E+00  0.00000000000E+00 -0.19120604437E+04  0.19756922506E+04  0.49737785338E+03 0.  0.
        3    1    3    3  502    0  0.19627807817E+03  0.11620554581E+03 -0.13496076592E+04  0.13687474774E+04  0.10100000352E+00 0. -1.
       -3    1    3    3    0  502 -0.19627807817E+03 -0.11620554581E+03 -0.56245278442E+03  0.60694477323E+03  0.10100000352E+00 0.  1.
</event>
<event>
 5   0  0.3210875E-02  0.4984556E+03  0.7818609E-02  0.1014183E+00
        4   -1    0    0  501    0  0.00000000000E+00  0.00000000000E+00  0.43927613031E+03  0.43927796617E+03  0.12699999809E+01 0.  1.
       -4   -1    0    0    0  501  0.00000000000E+00  0.00000000000E+00 -0.14139696006E+03  0.14140266339E+03  0.12699999809E+01 0. -1.
    10030    2    1    2    0    0  0.00000000000E+00  0.00000000000E+00  0.29787917025E+03  0.58068062956E+03  0.49845560833E+03 0.  0.
        3    1    3    3  502    0 -0.10688039559E+03 -0.17024923490E+03 -0.22694454716E+02  0.20229500592E+03  0.10100000352E+00 0. -1.
       -3    1    3    3    0  502  0.10688039559E+03  0.17024923490E+03  0.32057362497E+03  0.37838562363E+03  0.10100000352E+00 0.  1.
</event>
<event>
 5   0  0.3210875E-02  0.5010747E+03  0.7818609E-02  0.1013499E+00
       -3   -1    0    0    0  501  0.00000000000E+00  0.00000000000E+00  0.10688901805E+03  0.10688906577E+03  0.10100000352E+00 0. -1.
        3   -1    0    0  501    0  0.00000000000E+00  0.00000000000E+00 -0.58723463212E+03  0.58723464081E+03  0.10100000352E+00 0.  1.
    10030    2    1    2    0    0  0.00000000000E+00  0.00000000000E+00 -0.48034561407E+03  0.69412370658E+03  0.50107465619E+03 0.  0.
        2    1    3    3  502    0 -0.12902335780E+03  0.15704752378E+03 -0.37250835824E+02  0.20663633843E+03  0.25500000920E-02 0. -1.
       -2    1    3    3    0  502  0.12902335780E+03 -0.15704752378E+03 -0.44309477825E+03  0.48748736815E+03  0.25500000920E-02 0.  1.
</event>
<event>
 5   0  0.4803890E-02  0.5010660E+03  0.7818609E-02  0.1013501E+00
        1   -1    0    0  501    0  0.00000000000E+00  0.00000000000E+00  0.27702550547E+03  0.27702550551E+03  0.50400001928E-02 0. -1.
       -1   -1    0    0    0  501  0.00000000000E+00  0.00000000000E+00 -0.22657403091E+03  0.22657403096E+03  0.50400001928E-02 0.  1.
    10030    2    1    2    0    0  0.00000000000E+00  0.00000000000E+00  0.50451474560E+02  0.50359953648E+03  0.50106600549E+03 0.  0.
        5    1    3    3  502    0 -0.10380068699E+03 -0.36317121547E+02  0.25142186405E+03  0.27446048833E+03  0.46999998093E+01 0. -1.
       -5    1    3    3    0  502  0.10380068699E+03  0.36317121547E+02 -0.20097038949E+03  0.22913904815E+03  0.46999998093E+01 0.  1.
</event>
<event>
 5   0  0.7933103E-02  0.5008811E+03  0.7818609E-02  0.1013549E+00
       -2   -1    0    0    0  501  0.00000000000E+00  0.00000000000E+00  0.33446453299E+03  0.33446453300E+03  0.25500000920E-02 0. -1.
        2   -1    0    0  501    0  0.00000000000E+00  0.00000000000E+00 -0.18752501587E+03  0.18752501589E+03  0.25500000920E-02 0.  1.
    10030    2    1    2    0    0  0.00000000000E+00  0.00000000000E+00  0.14693951712E+03  0.52198954889E+03  0.50088109114E+03 0.  0.
        5    1    3    3  502    0 -0.15496766544E+03 -0.52379973032E+02  0.27103685810E+03  0.31660970825E+03  0.46999998093E+01 0. -1.
       -5    1    3    3    0  502  0.15496766544E+03  0.52379973032E+02 -0.12409734098E+03  0.20537984065E+03  0.46999998093E+01 0.  1.
</event>
<event>
 5   0  0.7881060E-02  0.4837483E+03  0.7818609E-02  0.1018110E+00
       -2   -1    0    0    0  501  0.00000000000E+00  0.00000000000E+00  0.39464060876E+03  0.39464060877E+03  0.25500000920E-02 0.  1.
        2   -1    0    0  501    0  0.00000000000E+00  0.00000000000E+00 -0.14824399914E+03  0.14824399917E+03  0.25500000920E-02 0. -1.
    10030    2    1    2    0    0  0.00000000000E+00  0.00000000000E+00  0.24639660962E+03  0.54288460794E+03  0.48374829024E+03 0.  0.
        1    1    3    3  502    0  0.73954445767E+02 -0.21311037706E+03  0.22114800943E+03  0.31589829845E+03  0.50400001928E-02 0. -1.
       -1    1    3    3    0  502 -0.73954445767E+02  0.21311037706E+03  0.25248600187E+02  0.22698630949E+03  0.50400001928E-02 0.  1.
</event>
<event>
 5   0  0.4803890E-02  0.5003875E+03  0.7818609E-02  0.1013678E+00
        1   -1    0    0  501    0  0.00000000000E+00  0.00000000000E+00  0.26116205314E+03  0.26116205319E+03  0.50400001928E-02 0.  1.
       -1   -1    0    0    0  501  0.00000000000E+00  0.00000000000E+00 -0.23968611519E+03  0.23968611524E+03  0.50400001928E-02 0. -1.
    10030    2    1    2    0    0  0.00000000000E+00  0.00000000000E+00  0.21475937953E+02  0.50084816844E+03  0.50038752174E+03 0.  0.
        5    1    3    3  502    0  0.22612432253E+03  0.62009093620E+02 -0.76505859929E+02  0.24668314400E+03  0.46999998093E+01 0. -1.
       -5    1    3    3    0  502 -0.22612432253E+03 -0.62009093620E+02  0.97981797882E+02  0.25416502444E+03  0.46999998093E+01 0.  1.
</event>
<event>
 5   0  0.4865501E-02  0.5045235E+03  0.7818609E-02  0.1012605E+00
        1   -1    0    0  501    0  0.00000000000E+00  0.00000000000E+00  0.17199519409E+04  0.17199519409E+04  0.50400001928E-02 0. -1.
       -1   -1    0    0    0  501  0.00000000000E+00  0.00000000000E+00 -0.36998707807E+02  0.36998708150E+02  0.50400001928E-02 0.  1.
    10030    2    1    2    0    0  0.00000000000E+00  0.00000000000E+00  0.16829532331E+04  0.17569506490E+04  0.50452353606E+03 0.  0.
        2    1    3    3  502    0 -0.16647987771E+03  0.68622070509E+02  0.14567033286E+04  0.14677905593E+04  0.25500000920E-02 0. -1.
       -2    1    3    3    0  502  0.16647987771E+03 -0.68622070509E+02  0.22624990443E+03  0.28916008975E+03  0.25500000920E-02 0.  1.
</event>
<event>
 5   0  0.7776070E-02  0.5071534E+03  0.7818609E-02  0.1011928E+00
        2   -1    0    0  501    0  0.00000000000E+00  0.00000000000E+00  0.10886565879E+04  0.10886565879E+04  0.25500000920E-02 0. -1.
       -2   -1    0    0    0  501  0.00000000000E+00  0.00000000000E+00 -0.59064674180E+02  0.59064674235E+02  0.25500000920E-02 0.  1.
    10030    2    1    2    0    0  0.00000000000E+00  0.00000000000E+00  0.10295919137E+04  0.11477212621E+04  0.50715341541E+03 0.  0.
        4    1    3    3  502    0 -0.10505930408E+03 -0.15842903375E+03  0.89457523899E+03  0.91455108508E+03  0.12699999809E+01 0. -1.
       -4    1    3    3    0  502  0.10505930408E+03  0.15842903375E+03  0.13501667470E+03  0.23317017703E+03  0.12699999809E+01 0.  1.
</event>
<event>
 5   0  0.7881060E-02  0.4959608E+03  0.7818609E-02  0.1014839E+00
       -2   -1    0    0    0  501  0.00000000000E+00  0.00000000000E+00  0.33118508983E+02  0.33118509081E+02  0.25500000920E-02 0.  1.
        2   -1    0    0  501    0  0.00000000000E+00  0.00000000000E+00 -0.18567950151E+04  0.18567950151E+04  0.25500000920E-02 0. -1.
    10030    2    1    2    0    0  0.00000000000E+00  0.00000000000E+00 -0.18236765061E+04  0.18899135242E+04  0.49596081490E+03 0.  0.
        1    1    3    3  502    0 -0.19472490044E+03  0.14945176298E+03 -0.77761676988E+03  0.81543942579E+03  0.50400001928E-02 0.  1.
       -1    1    3    3    0  502  0.19472490044E+03 -0.14945176298E+03 -0.10460597362E+04  0.10744740984E+04  0.50400001928E-02 0. -1.
</event>
<event>
 5   0  0.7933103E-02  0.5022063E+03  0.7818609E-02  0.1013205E+00
        2   -1    0    0  501    0  0.00000000000E+00  0.00000000000E+00  0.13413845839E+04  0.13413845839E+04  0.25500000920E-02 0. -1.
       -2   -1    0    0    0  501  0.00000000000E+00  0.00000000000E+00 -0.47005756881E+02  0.47005756951E+02  0.25500000920E-02 0.  1.
    10030    2    1    2    0    0  0.00000000000E+00  0.00000000000E+00  0.12943788270E+04  0.13883903409E+04  0.50220632288E+03 0.  0.
        5    1    3    3  502    0 -0.15698704298E+03 -0.66668500618E+02  0.11565112321E+04  0.11690294866E+04  0.46999998093E+01 0. -1.
       -5    1    3    3    0  502  0.15698704298E+03  0.66668500618E+02  0.13786759493E+03  0.21936085423E+03  0.46999998093E+01 0.  1.
</event>
<event>
 5   0  0.7933103E-02  0.4971040E+03  0.7818609E-02  0.1014538E+00
       -2   -1    0    0    0  501  0.00000000000E+00  0.00000000000E+00  0.13413727526E+03  0.13413727529E+03  0.25500000920E-02 0.  1.
        2   -1    0    0  501    0  0.00000000000E+00  0.00000000000E+00 -0.46055869444E+03  0.46055869445E+03  0.25500000920E-02 0. -1.
    10030    2    1    2    0    0  0.00000000000E+00  0.00000000000E+00 -0.32642141918E+03  0.59469596973E+03  0.49710396651E+03 0.  0.
        5    1    3    3  502    0 -0.38505408091E+02 -0.45389053306E+02  0.12543052652E+03  0.13891630428E+03  0.46999998093E+01 0.  1.
       -5    1    3    3    0  502  0.38505408091E+02  0.45389053306E+02 -0.45185194570E+03  0.45577966546E+03  0.46999998093E+01 0. -1.
</event>
<event>
 5   0  0.7933103E-02  0.5000225E+03  0.7818609E-02  0.1013773E+00
        2   -1    0    0  501    0  0.00000000000E+00  0.00000000000E+00  0.59606795154E+03  0.59606795154E+03  0.25500000920E-02 0. -1.
       -2   -1    0    0    0  501  0.00000000000E+00  0.00000000000E+00 -0.10486323923E+03  0.10486323926E+03  0.25500000920E-02 0.  1.
    10030    2    1    2    0    0  0.00000000000E+00  0.00000000000E+00  0.49120471231E+03  0.70093119080E+03  0.50002246434E+03 0.  0.
        5    1    3    3  502    0  0.61068441650E+02  0.23994479184E+03  0.29376938533E+03  0.38422050889E+03  0.46999998093E+01 0.  1.
       -5    1    3    3    0  502 -0.61068441650E+02 -0.23994479184E+03  0.19743532698E+03  0.31671068191E+03  0.46999998093E+01 0. -1.
</event>
<event>
 5   0  0.4803890E-02  0.4982277E+03  0.7818609E-02  0.1014243E+00
        1   -1    0    0  501    0  0.00000000000E+00  0.00000000000E+00  0.79589223882E+03  0.79589223884E+03  0.50400001928E-02 0.  1.
       -1   -1    0    0    0  501  0.00000000000E+00  0.00000000000E+00 -0.77972490734E+02  0.77972490897E+02  0.50400001928E-02 0. -1.
    10030    2    1    2    0    0  0.00000000000E+00  0.00000000000E+00  0.71791974809E+03  0.87386472974E+03  0.49822765999E+03 0.  0.
        5    1    3    3  502    0  0.24000862425E+01  0.19855685238E+03  0.62266518984E+03  0.65357831411E+03  0.46999998093E+01 0.  1.
       -5    1    3    3    0  502 -0.24000862425E+01 -0.19855685238E+03  0.95254558250E+02  0.22028641562E+03  0.46999998093E+01 0. -1.
</event>
<event>
 5   0  0.7881060E-02  0.5002756E+03  0.7818609E-02  0.1013707E+00
       -2   -1    0    0    0  501  0.00000000000E+00  0.00000000000E+00  0.99631662309E+02  0.99631662342E+02  0.25500000920E-02 0.  1.
        2   -1    0    0  501    0  0.00000000000E+00  0.00000000000E+00 -0.62800230380E+03  0.62800230380E+03  0.25500000920E-02 0. -1.
    10030    2    1    2    0    0  0.00000000000E+00  0.00000000000E+00 -0.52837064149E+03  0.72763396615E+03  0.50027557796E+03 0.  0.
        1    1    3    3  502    0 -0.12016667827E+03 -0.19649369057E+03 -0.12227895101E+03  0.26077182150E+03  0.50400001928E-02 0.  1.
       -1    1    3    3    0  502  0.12016667827E+03  0.19649369057E+03 -0.40609169048E+03  0.46686214465E+03  0.50400001928E-02 0. -1.
</event>
<event>
 5   0  0.3210875E-02  0.4988051E+03  0.7818609E-02  0.1014091E+00
       -4   -1    0    0    0  501  0.00000000000E+00  0.00000000000E+00  0.75841607850E+02  0.75852240449E+02  0.12699999809E+01 0. -1.
        4   -1    0    0  501    0  0.00000000000E+00  0.00000000000E+00 -0.82008323571E+03  0.82008421909E+03  0.12699999809E+01 0.  1.
    10030    2    1    2    0    0  0.00000000000E+00  0.00000000000E+00 -0.74424162787E+03  0.89593645954E+03  0.49880511113E+03 0.  0.
        3    1    3    3  502    0  0.23132494498E+03 -0.91486381417E+02 -0.33995809888E+03  0.42125112149E+03  0.10100000352E+00 0. -1.
       -3    1    3    3    0  502 -0.23132494498E+03  0.91486381417E+02 -0.40428352898E+03  0.47468533805E+03  0.10100000352E+00 0.  1.
</event>
<event>
 5   0  0.4865501E-02  0.5018449E+03  0.7818609E-02  0.1013298E+00
       -1   -1    0    0    0  501  0.00000000000E+00  0.00000000000E+00  0.26010832481E+03  0.26010832486E+03  0.50400001928E-02 0.  1.
        1   -1    0    0  501    0  0.00000000000E+00  0.00000000000E+00 -0.24206094375E+03  0.24206094380E+03  0.50400001928E-02 0. -1.
    10030    2    1    2    0    0  0.00000000000E+00  0.00000000000E+00  0.18047381064E+02  0.50216926866E+03  0.50184486290E+03 0.  0.
        2    1    3    3  502    0  0.23081895336E+03  0.88439050997E+02 -0.34169147555E+02  0.24953233383E+03  0.25500000920E-02 0. -1.
       -2    1    3    3    0  502 -0.23081895336E+03 -0.88439050997E+02  0.52216528618E+02  0.25263693483E+03  0.25500000920E-02 0.  1.
</event>
<event>
 5   0  0.4884478E-02  0.4993325E+03  0.7818609E-02  0.1013953E+00
       -1   -1    0    0    0  501  0.00000000000E+00  0.00000000000E+00  0.23511268318E+03  0.23511268323E+03  0.50400001928E-02 0. -1.
        1   -1    0    0  501    0  0.00000000000E+00  0.00000000000E+00 -0.26512070469E+03  0.26512070474E+03  0.50400001928E-02 0.  1.
    10030    2    1    2    0    0  0.00000000000E+00  0.00000000000E+00 -0.30008021514E+02  0.50023338797E+03  0.49933251555E+03 0.  0.
        3    1    3    3  502    0 -0.21222688586E+03 -0.68035892695E+01 -0.14656759860E+03  0.25800893603E+03  0.10100000352E+00 0.  1.
       -3    1    3    3    0  502  0.21222688586E+03  0.68035892695E+01  0.11655957708E+03  0.24222445195E+03  0.10100000352E+00 0. -1.
</event>
<event>
 5   0  0.7881060E-02  0.4952817E+03  0.7818609E-02  0.1015018E+00
       -2   -1    0    0    0  501  0.00000000000E+00  0.00000000000E+00  0.89406515252E+02  0.89406515288E+02  0.25500000920E-02 0.  1.
        2   -1    0    0  501    0  0.00000000000E+00  0.00000000000E+00 -0.68592299229E+03  0.68592299229E+03  0.25500000920E-02 0. -1.
    10030    2    1    2    0    0  0.00000000000E+00  0.00000000000E+00 -0.59651647704E+03  0.77532950758E+03  0.49528167536E+03 0.  0.
        1    1    3    3  502    0 -0.37045771203E+02 -0.13554838433E+03 -0.61746898257E+03  0.63325642367E+03  0.50400001928E-02 0. -1.
       -1    1    3    3    0  502  0.37045771203E+02  0.13554838433E+03  0.20952505530E+02  0.14207308391E+03  0.50400001928E-02 0.  1.
</event>
<event>
 5   0  0.5191358E-02  0.4982333E+03  0.7818609E-02  0.1014241E+00
        1   -1    0    0  501    0  0.00000000000E+00  0.00000000000E+00  0.26721458173E+03  0.26721458177E+03  0.50400001928E-02 0.  1.
       -1   -1    0    0    0  501  0.00000000000E+00  0.00000000000E+00 -0.23224441672E+03  0.23224441677E+03  0.50400001928E-02 0. -1.
    10030    2    1    2    0    0  0.00000000000E+00  0.00000000000E+00  0.34970165011E+02  0.49945899854E+03  0.49823325741E+03 0.  0.
        4    1    3    3  502    0 -0.40367759667E+02  0.12308248898E+03 -0.19582616297E+03  0.23479428042E+03  0.12699999809E+01 0. -1.
       -4    1    3    3    0  502  0.40367759667E+02 -0.12308248898E+03  0.23079632798E+03  0.26466471813E+03  0.12699999809E+01 0.  1.
</event>
<event>
 5   0  0.5191358E-02  0.4995188E+03  0.7818609E-02  0.1013905E+00
       -1   -1    0    0    0  501  0.00000000000E+00  0.00000000000E+00  0.26120226263E+02  0.26120226749E+02  0.50400001928E-02 0.  1.
        1   -1    0    0  501    0  0.00000000000E+00  0.00000000000E+00 -0.23881778991E+04  0.23881778991E+04  0.50400001928E-02 0. -1.
    10030    2    1    2    0    0  0.00000000000E+00  0.00000000000E+00 -0.23620576729E+04  0.24142981259E+04  0.49951875911E+03 0.  0.
        4    1    3    3  502    0  0.59378923272E+02  0.11007859924E+03 -0.22258937032E+04  0.22294051999E+04  0.12699999809E+01 0. -1.
       -4    1    3    3    0  502 -0.59378923272E+02 -0.11007859924E+03 -0.13616396967E+03  0.18489292597E+03  0.12699999809E+01 0.  1.
</event>
<event>
 5   0  0.4803890E-02  0.4924853E+03  0.7818609E-02  0.1015759E+00
       -1   -1    0    0    0  501  0.00000000000E+00  0.00000000000E+00  0.13414079257E+04  0.13414079257E+04  0.50400001928E-02 0. -1.
        1   -1    0    0  501    0  0.00000000000E+00  0.00000000000E+00 -0.45202834572E+02  0.45202834853E+02  0.50400001928E-02 0.  1.
    10030    2    1    2    0    0  0.00000000000E+00  0.00000000000E+00  0.12962050911E+04  0.13866107605E+04  0.49248529220E+03 0.  0.
        5    1    3    3  502    0  0.21307857461E+02 -0.23572456347E+03  0.83892155350E+03  0.87168317498E+03  0.46999998093E+01 0.  1.
       -5    1    3    3    0  502 -0.21307857461E+02  0.23572456347E+03  0.45728353760E+03  0.51492758556E+03  0.46999998093E+01 0. -1.
</event>
<event>
 5   0  0.7698747E-02  0.5014137E+03  0.7818609E-02  0.1013411E+00
       -2   -1    0    0    0  501  0.00000000000E+00  0.00000000000E+00  0.67917307468E+02  0.67917307516E+02  0.25500000920E-02 0. -1.
        2   -1    0    0  501    0  0.00000000000E+00  0.00000000000E+00 -0.92544782942E+03  0.92544782943E+03  0.25500000920E-02 0.  1.
    10030    2    1    2    0    0  0.00000000000E+00  0.00000000000E+00 -0.85753052195E+03  0.99336513694E+03  0.50141370066E+03 0.  0.
        2    1    3    3  502    0 -0.76436689005E+02 -0.14059825889E+02 -0.90097960248E+03  0.90432543380E+03  0.25500000920E-02 0.  1.
       -2    1    3    3    0  502  0.76436689005E+02  0.14059825889E+02  0.43449080526E+02  0.89039703139E+02  0.25500000920E-02 0. -1.
</event>
<event>
 5   0  0.7776070E-02  0.5003756E+03  0.7818609E-02  0.1013681E+00
        2   -1    0    0  501    0  0.00000000000E+00  0.00000000000E+00  0.40776727410E+03  0.40776727410E+03  0.25500000920E-02 0.  1.
       -2   -1    0    0    0  501  0.00000000000E+00  0.00000000000E+00 -0.15350407099E+03  0.15350407102E+03  0.25500000920E-02 0. -1.
    10030    2    1    2    0    0  0.00000000000E+00  0.00000000000E+00  0.25426320310E+03  0.56127134512E+03  0.50037560532E+03 0.  0.
        4    1    3    3  502    0  0.22652801465E+02 -0.81097045152E+02  0.39139243108E+03  0.40034925772E+03  0.12699999809E+01 0.  1.
       -4    1    3    3    0  502 -0.22652801465E+02  0.81097045152E+02 -0.13712922798E+03  0.16092208740E+03  0.12699999809E+01 0. -1.
</event>
<event>
 5   0  0.7933103E-02  0.4991518E+03  0.7818609E-02  0.1014001E+00
        2   -1    0    0  501    0  0.00000000000E+00  0.00000000000E+00  0.69548955611E+03  0.69548955611E+03  0.25500000920E-02 0. -1.
       -2   -1    0    0    0  501  0.00000000000E+00  0.00000000000E+00 -0.89560127898E+02  0.89560127934E+02  0.25500000920E-02 0.  1.
    10030    2    1    2    0    0  0.00000000000E+00  0.00000000000E+00  0.60592942821E+03  0.78504968405E+03  0.49915181503E+03 0.  0.
        5    1    3    3  502    0  0.13416939385E+03  0.20996117499E+03  0.28180983154E+03  0.37619674693E+03  0.46999998093E+01 0.  1.
       -5    1    3    3    0  502 -0.13416939385E+03 -0.20996117499E+03  0.32411959667E+03  0.40885293712E+03  0.46999998093E+01 0. -1.
</event>
<event>
 5   0  0.8208720E-02  0.5082052E+03  0.7818609E-02  0.1011659E+00
       -2   -1    0    0    0  501  0.00000000000E+00  0.00000000000E+00  0.12147396058E+03  0.12147396061E+03  0.25500000920E-02 0. -1.
        2   -1    0    0  501    0  0.00000000000E+00  0.00000000000E+00 -0.53153887464E+03  0.53153887464E+03  0.25500000920E-02 0.  1.
    10030    2    1    2    0    0  0.00000000000E+00  0.00000000000E+00 -0.41006491405E+03  0.65301283525E+03  0.50820520389E+03 0.  0.
        3    1    3    3  502    0 -0.10782691867E+03  0.16261926411E+03 -0.41419141867E+03  0.45784955056E+03  0.10100000352E+00 0.  1.
       -3    1    3    3    0  502  0.10782691867E+03 -0.16261926411E+03  0.41265046159E+01  0.19516328469E+03  0.10100000352E+00 0. -1.
</event>
<event>
 5   0  0.7933103E-02  0.5022593E+03  0.7818609E-02  0.1013191E+00
        2   -1    0    0  501    0  0.00000000000E+00  0.00000000000E+00  0.11542627834E+04  0.11542627834E+04  0.25500000920E-02 0.  1.
       -2   -1    0    0    0  501  0.00000000000E+00  0.00000000000E+00 -0.54637561770E+02  0.54637561830E+02  0.25500000920E-02 0. -1.
    10030    2    1    2    0    0  0.00000000000E+00  0.00000000000E+00  0.10996252216E+04  0.12089003452E+04  0.50225931217E+03 0.  0.
        5    1    3    3  502    0 -0.88367879571E+02  0.23268289968E+03  0.62941599077E+03  0.67685803044E+03  0.46999998093E+01 0.  1.
       -5    1    3    3    0  502  0.88367879571E+02 -0.23268289968E+03  0.47020923086E+03  0.53204231479E+03  0.46999998093E+01 0. -1.
</event>
<event>
 5   0  0.7698747E-02  0.4989886E+03  0.7818609E-02  0.1014043E+00
        2   -1    0    0  501    0  0.00000000000E+00  0.00000000000E+00  0.16139550503E+04  0.16139550503E+04  0.25500000920E-02 0.  1.
       -2   -1    0    0    0  501  0.00000000000E+00  0.00000000000E+00 -0.38568244023E+02  0.38568244107E+02  0.25500000920E-02 0. -1.
    10030    2    1    2    0    0  0.00000000000E+00  0.00000000000E+00  0.15753868063E+04  0.16525232944E+04  0.49898862629E+03 0.  0.
        2    1    3    3  502    0 -0.69386555168E+02  0.17308681164E+02  0.15792859635E+04  0.15809042473E+04  0.25500000920E-02 0.  1.
       -2    1    3    3    0  502  0.69386555168E+02 -0.17308681164E+02 -0.38991572203E+01  0.71619047154E+02  0.25500000920E-02 0. -1.
</event>
<event>
 5   0  0.5038436E-02  0.4991309E+03  0.7818609E-02  0.1014006E+00
       -1   -1    0    0    0  501  0.00000000000E+00  0.00000000000E+00  0.65618126409E+03  0.65618126411E+03  0.50400001928E-02 0.  1.
        1   -1    0    0  501    0  0.00000000000E+00  0.00000000000E+00 -0.94917233747E+02  0.94917233881E+02  0.50400001928E-02 0. -1.
    10030    2    1    2    0    0  0.00000000000E+00  0.00000000000E+00  0.56126403035E+03  0.75109849799E+03  0.49913088657E+03 0.  0.
        1    1    3    3  502    0  0.91258951672E+02 -0.12212568359E+03 -0.16697161758E+02  0.15336777396E+03  0.50400001928E-02 0. -1.
       -1    1    3    3    0  502 -0.91258951672E+02  0.12212568359E+03  0.57796119210E+03  0.59773072404E+03  0.50400001928E-02 0.  1.
</event>
<event>
 5   0  0.5191358E-02  0.5026727E+03  0.7818609E-02  0.1013084E+00
        1   -1    0    0  501    0  0.00000000000E+00  0.00000000000E+00  0.67474560532E+03  0.67474560533E+03  0.50400001928E-02 0.  1.
       -1   -1    0    0    0  501  0.00000000000E+00  0.00000000000E+00 -0.93620401095E+02  0.93620401231E+02  0.50400001928E-02 0. -1.
    10030    2    1    2    0    0  0.00000000000E+00  0.00000000000E+00  0.58112520422E+03  0.76836600657E+03  0.50267267388E+03 0.  0.
        4    1    3    3  502    0  0.19107311497E+03 -0.95743234028E+02  0.88395476790E+02  0.23128137699E+03  0.12699999809E+01 0. -1.
       -4    1    3    3    0  502 -0.19107311497E+03  0.95743234028E+02  0.49272972743E+03  0.53708462957E+03  0.12699999809E+01 0.  1.
</event>
<event>
 5   0  0.7776070E-02  0.4958797E+03  0.7818609E-02  0.1014860E+00
        2   -1    0    0  501    0  0.00000000000E+00  0.00000000000E+00  0.39001132115E+03  0.39001132115E+03  0.25500000920E-02 0. -1.
       -2   -1    0    0    0  501  0.00000000000E+00  0.00000000000E+00 -0.15762149334E+03  0.15762149336E+03  0.25500000920E-02 0.  1.
    10030    2    1    2    0    0  0.00000000000E+00  0.00000000000E+00  0.23238982781E+03  0.54763281451E+03  0.49587969051E+03 0.  0.
        4    1    3    3  502    0 -0.23179485615E+03 -0.47716177063E+02  0.19784982676E+03  0.30846694432E+03  0.12699999809E+01 0. -1.
       -4    1    3    3    0  502  0.23179485615E+03  0.47716177063E+02  0.34540001050E+02  0.23916587019E+03  0.12699999809E+01 0.  1.
</event>
<event>
 5   0  0.7776070E-02  0.5029203E+03  0.7818609E-02  0.1013019E+00
        2   -1    0    0  501    0  0.00000000000E+00  0.00000000000E+00  0.48180785425E+03  0.48180785425E+03  0.25500000920E-02 0.  1.
       -2   -1    0    0    0  501  0.00000000000E+00  0.00000000000E+00 -0.13123945082E+03  0.13123945084E+03  0.25500000920E-02 0. -1.
    10030    2    1    2    0    0  0.00000000000E+00  0.00000000000E+00  0.35056840343E+03  0.61304730509E+03  0.50292026485E+03 0.  0.
        4    1    3    3  502    0  0.12013587182E+03  0.81075172583E+02  0.42576735328E+03  0.44976134040E+03  0.12699999809E+01 0.  1.
       -4    1    3    3    0  502 -0.12013587182E+03 -0.81075172583E+02 -0.75198949845E+02  0.16328596469E+03  0.12699999809E+01 0. -1.
</event>
<event>
 5   0  0.4865501E-02  0.5004855E+03  0.7818609E-02  0.1013652E+00
       -1   -1    0    0    0  501  0.00000000000E+00  0.00000000000E+00  0.11402552164E+03  0.11402552175E+03  0.50400001928E-02 0. -1.
        1   -1    0    0  501    0  0.00000000000E+00  0.00000000000E+00 -0.54918787532E+03  0.54918787534E+03  0.50400001928E-02 0.  1.
    10030    2    1    2    0    0  0.00000000000E+00  0.00000000000E+00 -0.43516235368E+03  0.66321339710E+03  0.50048550032E+03 0.  0.
        2    1    3    3  502    0  0.18105761821E+03 -0.25208611998E+02  0.88747516879E+01  0.18301938820E+03  0.25500000920E-02 0. -1.
       -2    1    3    3    0  502 -0.18105761821E+03  0.25208611998E+02 -0.44403710537E+03  0.48019400890E+03  0.25500000920E-02 0.  1.
</event>
<event>
 5   0  0.3210875E-02  0.4970813E+03  0.7818609E-02  0.1014544E+00
        4   -1    0    0  501    0  0.00000000000E+00  0.00000000000E+00  0.58391685037E+03  0.58391823148E+03  0.12699999809E+01 0.  1.
       -4   -1    0    0    0  501  0.00000000000E+00  0.00000000000E+00 -0.10578451585E+03  0.10579213909E+03  0.12699999809E+01 0. -1.
    10030    2    1    2    0    0  0.00000000000E+00  0.00000000000E+00  0.47813233452E+03  0.68971037056E+03  0.49708134741E+03 0.  0.
        1    1    3    3  502    0 -0.11101220293E+03  0.18538318172E+03  0.40946489816E+03  0.46298178810E+03  0.50400001928E-02 0.  1.
       -1    1    3    3    0  502  0.11101220293E+03 -0.18538318172E+03  0.68667436364E+02  0.22672858246E+03  0.50400001928E-02 0. -1.
</event>
<event>
 5   0  0.7698747E-02  0.5006526E+03  0.7818609E-02  0.1013609E+00
       -2   -1    0    0    0  501  0.00000000000E+00  0.00000000000E+00  0.60614754650E+02  0.60614754704E+02  0.25500000920E-02 0. -1.
        2   -1    0    0  501    0  0.00000000000E+00  0.00000000000E+00 -0.10337954116E+04  0.10337954116E+04  0.25500000920E-02 0.  1.
    10030    2    1    2    0    0  0.00000000000E+00  0.00000000000E+00 -0.97318065694E+03  0.10944101663E+04  0.50065259517E+03 0.  0.
        2    1    3    3  502    0  0.97778972496E+02 -0.92501263433E+01 -0.98991830428E+03  0.99477863943E+03  0.25500000920E-02 0.  1.
       -2    1    3    3    0  502 -0.97778972496E+02  0.92501263433E+01  0.16737647349E+02  0.99631526863E+02  0.25500000920E-02 0. -1.
</event>
<event>
 5   0  0.8208720E-02  0.5063938E+03  0.7818609E-02  0.1012123E+00
       -2   -1    0    0    0  501  0.00000000000E+00  0.00000000000E+00  0.66354449861E+02  0.66354449910E+02  0.25500000920E-02 0.  1.
        2   -1    0    0  501    0  0.00000000000E+00  0.00000000000E+00 -0.96615474982E+03  0.96615474983E+03  0.25500000920E-02 0. -1.
    10030    2    1    2    0    0  0.00000000000E+00  0.00000000000E+00 -0.89980029996E+03  0.10325091997E+04  0.50639378721E+03 0.  0.
        3    1    3    3  502    0  0.52360499090E+02  0.89460192752E+02 -0.92090933653E+03  0.92672475108E+03  0.10100000352E+00 0. -1.
       -3    1    3    3    0  502 -0.52360499090E+02 -0.89460192752E+02  0.21109036567E+02  0.10578444866E+03  0.10100000352E+00 0.  1.
</event>
<event>
 5   0  0.3210875E-02  0.4995452E+03  0.7818609E-02  0.1013898E+00
        3   -1    0    0  501    0  0.00000000000E+00  0.00000000000E+00  0.67634995025E+02  0.67635070437E+02  0.10100000352E+00 0. -1.
       -3   -1    0    0    0  501  0.00000000000E+00  0.00000000000E+00 -0.92239709376E+03  0.92239709929E+03  0.10100000352E+00 0.  1.
    10030    2    1    2    0    0  0.00000000000E+00  0.00000000000E+00 -0.85476209874E+03  0.99003216973E+03  0.49954524486E+03 0.  0.
        3    1    3    3  502    0 -0.10701858255E+03  0.12569003601E+02  0.19200870348E+02  0.10945154401E+03  0.10100000352E+00 0. -1.
       -3    1    3    3    0  502  0.10701858255E+03 -0.12569003601E+02 -0.87396296909E+03  0.88058062572E+03  0.10100000352E+00 0.  1.
</event>
<event>
 5   0  0.3210875E-02  0.4987520E+03  0.7818609E-02  0.1014105E+00
       -3   -1    0    0    0  501  0.00000000000E+00  0.00000000000E+00  0.10027535993E+03  0.10027541080E+03  0.10100000352E+00 0. -1.
        3   -1    0    0  501    0  0.00000000000E+00  0.00000000000E+00 -0.62017594664E+03  0.62017595486E+03  0.10100000352E+00 0.  1.
    10030    2    1    2    0    0  0.00000000000E+00  0.00000000000E+00 -0.51990058670E+03  0.72045136566E+03  0.49875199271E+03 0.  0.
        4    1    3    3  502    0 -0.45258870084E+02  0.18632886899E+02  0.93264390849E+02  0.10533474876E+03  0.12699999809E+01 0. -1.
       -4    1    3    3    0  502  0.45258870084E+02 -0.18632886899E+02 -0.61316497755E+03  0.61511661690E+03  0.12699999809E+01 0.  1.
</event>
<event>
 5   0  0.7698747E-02  0.5027074E+03  0.7818609E-02  0.1013075E+00
       -2   -1    0    0    0  501  0.00000000000E+00  0.00000000000E+00  0.38604118325E+02  0.38604118409E+02  0.25500000920E-02 0.  1.
        2   -1    0    0  501    0  0.00000000000E+00  0.00000000000E+00 -0.16365787477E+04  0.16365787477E+04  0.25500000920E-02 0. -1.
    10030    2    1    2    0    0  0.00000000000E+00  0.00000000000E+00 -0.15979746294E+04  0.16751828662E+04  0.50270738884E+03 0.  0.
        2    1    3    3  502    0 -0.68109065717E+02  0.15096182671E+03 -0.16891967610E+03  0.23656325779E+03  0.25500000920E-02 0.  1.
       -2    1    3    3    0  502  0.68109065717E+02 -0.15096182671E+03 -0.14290549533E+04  0.14386196084E+04  0.25500000920E-02 0. -1.
</event>
<event>
 5   0  0.7881060E-02  0.5002360E+03  0.7818609E-02  0.1013717E+00
        2   -1    0    0  501    0  0.00000000000E+00  0.00000000000E+00  0.18255337217E+04  0.18255337217E+04  0.25500000920E-02 0. -1.
       -2   -1    0    0    0  501  0.00000000000E+00  0.00000000000E+00 -0.34268893210E+02  0.34268893305E+02  0.25500000920E-02 0.  1.
    10030    2    1    2    0    0  0.00000000000E+00  0.00000000000E+00  0.17912648285E+04  0.18598026150E+04  0.50023602529E+03 0.  0.
        1    1    3    3  502    0  0.98399593667E+02 -0.25521522266E+02  0.17452664706E+04  0.17482244940E+04  0.50400001928E-02 0. -1.
       -1    1    3    3    0  502 -0.98399593667E+02  0.25521522266E+02  0.45998357951E+02  0.11157812103E+03  0.50400001928E-02 0.  1.
</event>
<event>
 5   0  0.4884478E-02  0.5020023E+03  0.7818609E-02  0.1013258E+00
        1   -1    0    0  501    0  0.00000000000E+00  0.00000000000E+00  0.52143201231E+03  0.52143201233E+03  0.50400001928E-02 0.  1.
       -1   -1    0    0    0  501  0.00000000000E+00  0.00000000000E+00 -0.12082412698E+03  0.12082412708E+03  0.50400001928E-02 0. -1.
    10030    2    1    2    0    0  0.00000000000E+00  0.00000000000E+00  0.40060788533E+03  0.64225613942E+03  0.50200226178E+03 0.  0.
        3    1    3    3  502    0 -0.43369530677E+02  0.20481103500E+03  0.37745695723E+03  0.43162743311E+03  0.10100000352E+00 0.  1.
       -3    1    3    3    0  502  0.43369530677E+02 -0.20481103500E+03  0.23150928097E+02  0.21062870631E+03  0.10100000352E+00 0. -1.
</event>
<event>
 5   0  0.7933103E-02  0.4911470E+03  0.7818609E-02  0.1016116E+00
       -2   -1    0    0    0  501  0.00000000000E+00  0.00000000000E+00  0.43226239561E+02  0.43226239636E+02  0.25500000920E-02 0. -1.
        2   -1    0    0  501    0  0.00000000000E+00  0.00000000000E+00 -0.13951329626E+04  0.13951329626E+04  0.25500000920E-02 0.  1.
    10030    2    1    2    0    0  0.00000000000E+00  0.00000000000E+00 -0.13519067230E+04  0.14383592022E+04  0.49114703181E+03 0.  0.
        5    1    3    3  502    0  0.76675326783E+02  0.39421791219E+02 -0.13492132780E+04  0.13519732774E+04  0.46999998093E+01 0.  1.
       -5    1    3    3    0  502 -0.76675326783E+02 -0.39421791219E+02 -0.26934450395E+01  0.86385924806E+02  0.46999998093E+01 0. -1.
</event>
<event>
 5   0  0.7776070E-02  0.5029164E+03  0.7818609E-02  0.1013020E+00
       -2   -1    0    0    0  501  0.00000000000E+00  0.00000000000E+00  0.12564357776E+04  0.12564357776E+04  0.25500000920E-02 0. -1.
        2   -1    0    0  501    0  0.00000000000E+00  0.00000000000E+00 -0.50325877909E+02  0.50325877973E+02  0.25500000920E-02 0.  1.
    10030    2    1    2    0    0  0.00000000000E+00  0.00000000000E+00  0.12061098997E+04  0.13067616556E+04  0.50291642879E+03 0.  0.
        4    1    3    3  502    0 -0.23520580375E+03 -0.35747619341E+02  0.39148403824E+03  0.45810591298E+03  0.12699999809E+01 0.  1.
       -4    1    3    3    0  502  0.23520580375E+03  0.35747619341E+02  0.81462586145E+03  0.84865574260E+03  0.12699999809E+01 0. -1.
</event>
<event>
 5   0  0.7698747E-02  0.5009875E+03  0.7818609E-02  0.1013521E+00
       -2   -1    0    0    0  501  0.00000000000E+00  0.00000000000E+00  0.10476100194E+03  0.10476100197E+03  0.25500000920E-02 0. -1.
        2   -1    0    0  501    0  0.00000000000E+00  0.00000000000E+00 -0.59895496846E+03  0.59895496846E+03  0.25500000920E-02 0.  1.
    10030    2    1    2    0    0  0.00000000000E+00  0.00000000000E+00 -0.49419396652E+03  0.70371597043E+03  0.50098751531E+03 0.  0.
        2    1    3    3  502    0  0.16946437275E+02 -0.19920299063E+03 -0.35100165828E+02  0.20298038048E+03  0.25500000920E-02 0. -1.
       -2    1    3    3    0  502 -0.16946437275E+02  0.19920299063E+03 -0.45909380069E+03  0.50073558996E+03  0.25500000920E-02 0.  1.
</event>
<event>
 5   0  0.4884478E-02  0.5013478E+03  0.7818609E-02  0.1013428E+00
       -1   -1    0    0    0  501  0.00000000000E+00  0.00000000000E+00  0.55491296968E+02  0.55491297197E+02  0.50400001928E-02 0. -1.
        1   -1    0    0  501    0  0.00000000000E+00  0.00000000000E+00 -0.11323830872E+04  0.11323830872E+04  0.50400001928E-02 0.  1.
    10030    2    1    2    0    0  0.00000000000E+00  0.00000000000E+00 -0.10768917902E+04  0.11878743844E+04  0.50134780868E+03 0.  0.
        3    1    3    3  502    0 -0.11785615981E+03 -0.12830122541E+03 -0.11139434755E+03  0.20678488754E+03  0.10100000352E+00 0. -1.
       -3    1    3    3    0  502  0.11785615981E+03  0.12830122541E+03 -0.96549744267E+03  0.98108949686E+03  0.10100000352E+00 0.  1.
</event>
<event>
 5   0  0.4803890E-02  0.5008256E+03  0.7818609E-02  0.1013564E+00
        1   -1    0    0  501    0  0.00000000000E+00  0.00000000000E+00  0.10142906995E+04  0.10142906995E+04  0.50400001928E-02 0. -1.
       -1   -1    0    0    0  501  0.00000000000E+00  0.00000000000E+00 -0.61823083281E+02  0.61823083487E+02  0.50400001928E-02 0.  1.
    10030    2    1    2    0    0  0.00000000000E+00  0.00000000000E+00  0.95246761617E+03  0.10761137829E+04  0.50082563233E+03 0.  0.
        5    1    3    3  502    0  0.13562351728E+03 -0.21036350257E+03  0.46299772453E+03  0.52634164245E+03  0.46999998093E+01 0.  1.
       -5    1    3    3    0  502 -0.13562351728E+03  0.21036350257E+03  0.48946989164E+03  0.54977214050E+03  0.46999998093E+01 0. -1.
</event>
<event>
 5   0  0.7881060E-02  0.4984192E+03  0.7818609E-02  0.1014192E+00
        2   -1    0    0  501    0  0.00000000000E+00  0.00000000000E+00  0.27124713664E+03  0.27124713665E+03  0.25500000920E-02 0. -1.
       -2   -1    0    0    0  501  0.00000000000E+00  0.00000000000E+00 -0.22896252760E+03  0.22896252761E+03  0.25500000920E-02 0.  1.
    10030    2    1    2    0    0  0.00000000000E+00  0.00000000000E+00  0.42284609037E+02  0.50020966426E+03  0.49841922120E+03 0.  0.
        1    1    3    3  502    0  0.17645546064E+03 -0.12302118609E+02 -0.15503761568E+03  0.23521167916E+03  0.50400001928E-02 0.  1.
       -1    1    3    3    0  502 -0.17645546064E+03  0.12302118609E+02  0.19732222472E+03  0.26499798510E+03  0.50400001928E-02 0. -1.
</event>
<event>
 5   0  0.7933103E-02  0.5075820E+03  0.7818609E-02  0.1011819E+00
        2   -1    0    0  501    0  0.00000000000E+00  0.00000000000E+00  0.73795010906E+03  0.73795010907E+03  0.25500000920E-02 0.  1.
       -2   -1    0    0    0  501  0.00000000000E+00  0.00000000000E+00 -0.87282134146E+02  0.87282134183E+02  0.25500000920E-02 0. -1.
    10030    2    1    2    0    0  0.00000000000E+00  0.00000000000E+00  0.65066797492E+03  0.82523224325E+03  0.50758195567E+03 0.  0.
        5    1    3    3  502    0 -0.23392198515E+03 -0.82036465067E+02  0.41346273844E+03  0.48210268908E+03  0.46999998093E+01 0. -1.
       -5    1    3    3    0  502  0.23392198515E+03  0.82036465067E+02  0.23720523648E+03  0.34312955417E+03  0.46999998093E+01 0.  1.
</event>
<event>
 5   0  0.7933103E-02  0.5008044E+03  0.7818609E-02  0.1013569E+00
       -2   -1    0    0    0  501  0.00000000000E+00  0.00000000000E+00  0.10169078191E+03  0.10169078194E+03  0.25500000920E-02 0. -1.
        2   -1    0    0  501    0  0.00000000000E+00  0.00000000000E+00 -0.61658746976E+03  0.61658746976E+03  0.25500000920E-02 0.  1.
    10030    2    1    2    0    0  0.00000000000E+00  0.00000000000E+00 -0.51489668785E+03  0.71827825170E+03  0.50080440064E+03 0.  0.
        5    1    3    3  502    0  0.95348926501E+02 -0.59437335537E+02  0.63435704319E+02  0.12911387695E+03  0.46999998093E+01 0. -1.
       -5    1    3    3    0  502 -0.95348926501E+02  0.59437335537E+02 -0.57833239217E+03  0.58916437475E+03  0.46999998093E+01 0.  1.
</event>
<event>
 5   0  0.5191358E-02  0.4963940E+03  0.7818609E-02  0.1014724E+00
        1   -1    0    0  501    0  0.00000000000E+00  0.00000000000E+00  0.98002621187E+03  0.98002621189E+03  0.50400001928E-02 0.  1.
       -1   -1    0    0    0  501  0.00000000000E+00  0.00000000000E+00 -0.62857259719E+02  0.62857259921E+02  0.50400001928E-02 0. -1.
    10030    2    1    2    0    0  0.00000000000E+00  0.00000000000E+00  0.91716895215E+03  0.10428834718E+04  0.49639404607E+03 0.  0.
        4    1    3    3  502    0  0.71391340613E+02  0.14370017679E+02  0.95706887522E+03  0.95983627027E+03  0.12699999809E+01 0.  1.
       -4    1    3    3    0  502 -0.71391340613E+02 -0.14370017679E+02 -0.39899923061E+02  0.83047201535E+02  0.12699999809E+01 0. -1.
</event>
<event>
 5   0  0.5191358E-02  0.4933260E+03  0.7818609E-02  0.1015536E+00
        1   -1    0    0  501    0  0.00000000000E+00  0.00000000000E+00  0.63165771812E+03  0.63165771814E+03  0.50400001928E-02 0.  1.
       -1   -1    0    0    0  501  0.00000000000E+00  0.00000000000E+00 -0.96322155774E+02  0.96322155906E+02  0.50400001928E-02 0. -1.
    10030    2    1    2    0    0  0.00000000000E+00  0.00000000000E+00  0.53533556235E+03  0.72797987405E+03  0.49332599030E+03 0.  0.
        4    1    3    3  502    0 -0.68467568439E+02  0.48971086051E+02 -0.74465239434E+02  0.11239510657E+03  0.12699999809E+01 0. -1.
       -4    1    3    3    0  502  0.68467568439E+02 -0.48971086051E+02  0.60980080178E+03  0.61558476748E+03  0.12699999809E+01 0.  1.
</event>
<event>
 5   0  0.4865501E-02  0.4709836E+03  0.7818609E-02  0.1021643E+00
       -1   -1    0    0    0  501  0.00000000000E+00  0.00000000000E+00  0.84174525409E+02  0.84174525560E+02  0.50400001928E-02 0.  1.
        1   -1    0    0  501    0  0.00000000000E+00  0.00000000000E+00 -0.65882636148E+03  0.65882636150E+03  0.50400001928E-02 0. -1.
    10030    2    1    2    0    0  0.00000000000E+00  0.00000000000E+00 -0.57465183607E+03  0.74300088706E+03  0.47098363610E+03 0.  0.
        2    1    3    3  502    0  0.17330701052E+03 -0.10138490423E+03 -0.48144922572E+03  0.52163931567E+03  0.25500000920E-02 0. -1.
       -2    1    3    3    0  502 -0.17330701052E+03  0.10138490423E+03 -0.93202610348E+02  0.22136157138E+03  0.25500000920E-02 0.  1.
</event>
<event>
 5   0  0.7881060E-02  0.5006025E+03  0.7818609E-02  0.1013622E+00
        2   -1    0    0  501    0  0.00000000000E+00  0.00000000000E+00  0.10216414927E+03  0.10216414930E+03  0.25500000920E-02 0.  1.
       -2   -1    0    0    0  501  0.00000000000E+00  0.00000000000E+00 -0.61323582519E+03  0.61323582520E+03  0.25500000920E-02 0. -1.
    10030    2    1    2    0    0  0.00000000000E+00  0.00000000000E+00 -0.51107167592E+03  0.71539997450E+03  0.50060250257E+03 0.  0.
        1    1    3    3  502    0 -0.77830441998E+01 -0.24996299073E+03 -0.24064022109E+03  0.34705876814E+03  0.50400001928E-02 0. -1.
       -1    1    3    3    0  502  0.77830441998E+01  0.24996299073E+03 -0.27043145483E+03  0.36834120636E+03  0.50400001928E-02 0.  1.
</event>
<event>
 5   0  0.7933103E-02  0.4935793E+03  0.7818609E-02  0.1015469E+00
       -2   -1    0    0    0  501  0.00000000000E+00  0.00000000000E+00  0.57892167212E+02  0.57892167268E+02  0.25500000920E-02 0. -1.
        2   -1    0    0  501    0  0.00000000000E+00  0.00000000000E+00 -0.10520444900E+04  0.10520444900E+04  0.25500000920E-02 0.  1.
    10030    2    1    2    0    0  0.00000000000E+00  0.00000000000E+00 -0.99415232275E+03  0.11099366572E+04  0.49357931707E+03 0.  0.
        5    1    3    3  502    0 -0.43891440874E+02  0.19809644599E+02  0.47122187416E+02  0.67538664083E+02  0.46999998093E+01 0. -1.
       -5    1    3    3    0  502  0.43891440874E+02 -0.19809644599E+02 -0.10412745102E+04  0.10423979931E+04  0.46999998093E+01 0.  1.
</event>
<event>
 5   0  0.8208720E-02  0.4990012E+03  0.7818609E-02  0.1014040E+00
       -2   -1    0    0    0  501  0.00000000000E+00  0.00000000000E+00  0.16593397652E+03  0.16593397654E+03  0.25500000920E-02 0.  1.
        2   -1    0    0  501    0  0.00000000000E+00  0.00000000000E+00 -0.37515251027E+03  0.37515251028E+03  0.25500000920E-02 0. -1.
    10030    2    1    2    0    0  0.00000000000E+00  0.00000000000E+00 -0.20921853375E+03  0.54108648682E+03  0.49900119374E+03 0.  0.
        3    1    3    3  502    0  0.85053312597E+02 -0.11882882783E+03  0.11467449965E+03  0.18575415844E+03  0.10100000352E+00 0.  1.
       -3    1    3    3    0  502 -0.85053312597E+02  0.11882882783E+03 -0.32389303340E+03  0.35533232838E+03  0.10100000352E+00 0. -1.
</event>
<event>
 5   0  0.5191358E-02  0.4995823E+03  0.7818609E-02  0.1013888E+00
        1   -1    0    0  501    0  0.00000000000E+00  0.00000000000E+00  0.93415042059E+03  0.93415042060E+03  0.50400001928E-02 0. -1.
       -1   -1    0    0    0  501  0.00000000000E+00  0.00000000000E+00 -0.66793981281E+02  0.66793981471E+02  0.50400001928E-02 0.  1.
    10030    2    1    2    0    0  0.00000000000E+00  0.00000000000E+00  0.86735643931E+03  0.10009444021E+04  0.49958232878E+03 0.  0.
        4    1    3    3  502    0 -0.20698507872E+03  0.10996565649E+02  0.71295977599E+03  0.74248030435E+03  0.12699999809E+01 0. -1.
       -4    1    3    3    0  502  0.20698507872E+03 -0.10996565649E+02  0.15439666332E+03  0.25846409773E+03  0.12699999809E+01 0.  1.
</event>
<event>
 5   0  0.7881060E-02  0.4717808E+03  0.7818609E-02  0.1021419E+00
        2   -1    0    0  501    0  0.00000000000E+00  0.00000000000E+00  0.51330043452E+03  0.51330043452E+03  0.25500000920E-02 0.  1.
       -2   -1    0    0    0  501  0.00000000000E+00  0.00000000000E+00 -0.10840489494E+03  0.10840489497E+03  0.25500000920E-02 0. -1.
    10030    2    1    2    0    0  0.00000000000E+00  0.00000000000E+00  0.40489553958E+03  0.62170532949E+03  0.47178079522E+03 0.  0.
        1    1    3    3  502    0 -0.95607704455E+02 -0.12630103694E+03  0.43278310257E+03  0.46086223427E+03  0.50400001928E-02 0.  1.
       -1    1    3    3    0  502  0.95607704455E+02  0.12630103694E+03 -0.27887562989E+02  0.16084309522E+03  0.50400001928E-02 0. -1.
</event>
<event>
 5   0  0.5191358E-02  0.5006414E+03  0.7818609E-02  0.1013612E+00
        1   -1    0    0  501    0  0.00000000000E+00  0.00000000000E+00  0.92585419156E+03  0.92585419157E+03  0.50400001928E-02 0.  1.
       -1   -1    0    0    0  501  0.00000000000E+00  0.00000000000E+00 -0.67678529223E+02  0.67678529411E+02  0.50400001928E-02 0. -1.
    10030    2    1    2    0    0  0.00000000000E+00  0.00000000000E+00  0.85817566233E+03  0.99353272098E+03  0.50064138886E+03 0.  0.
        4    1    3    3  502    0 -0.88986263911E+02  0.23104084537E+03  0.35589133468E+03  0.43354201918E+03  0.12699999809E+01 0.  1.
       -4    1    3    3    0  502  0.88986263911E+02 -0.23104084537E+03  0.50228432766E+03  0.55999070180E+03  0.12699999809E+01 0. -1.
</event>
<event>
 5   0  0.8208720E-02  0.5034751E+03  0.7818609E-02  0.1012876E+00
        2   -1    0    0  501    0  0.00000000000E+00  0.00000000000E+00  0.82781723788E+03  0.82781723789E+03  0.25500000920E-02 0.  1.
       -2   -1    0    0    0  501  0.00000000000E+00  0.00000000000E+00 -0.76552878532E+02  0.76552878575E+02  0.25500000920E-02 0. -1.
    10030    2    1    2    0    0  0.00000000000E+00  0.00000000000E+00  0.75126435935E+03  0.90437011646E+03  0.50347509364E+03 0.  0.
        3    1    3    3  502    0  0.12109772105E+03 -0.82286733542E+02  0.77897644346E+01  0.14661669479E+03  0.10100000352E+00 0. -1.
       -3    1    3    3    0  502 -0.12109772105E+03  0.82286733542E+02  0.74347459492E+03  0.75775342167E+03  0.10100000352E+00 0.  1.
</event>
<event>
 5   0  0.7776070E-02  0.4941052E+03  0.7818609E-02  0.1015329E+00
       -2   -1    0    0    0  501  0.00000000000E+00  0.00000000000E+00  0.55984855899E+02  0.55984855957E+02  0.25500000920E-02 0.  1.
        2   -1    0    0  501    0  0.00000000000E+00  0.00000000000E+00 -0.10902053218E+04  0.10902053218E+04  0.25500000920E-02 0. -1.
    10030    2    1    2    0    0  0.00000000000E+00  0.00000000000E+00 -0.10342204659E+04  0.11461901777E+04  0.49410520287E+03 0.  0.
        4    1    3    3  502    0 -0.11887212994E+03 -0.12230864880E+03 -0.10251172857E+03  0.19899813126E+03  0.12699999809E+01 0.  1.
       -4    1    3    3    0  502  0.11887212994E+03  0.12230864880E+03 -0.93170873730E+03  0.94719204648E+03  0.12699999809E+01 0. -1.
</event>
<event>
 5   0  0.5038436E-02  0.5064112E+03  0.7818609E-02  0.1012119E+00
        1   -1    0    0  501    0  0.00000000000E+00  0.00000000000E+00  0.11005352064E+03  0.11005352076E+03  0.50400001928E-02 0. -1.
       -1   -1    0    0    0  501  0.00000000000E+00  0.00000000000E+00 -0.58256276256E+03  0.58256276258E+03  0.50400001928E-02 0.  1.
    10030    2    1    2    0    0  0.00000000000E+00  0.00000000000E+00 -0.47250924192E+03  0.69261628334E+03  0.50641122840E+03 0.  0.
        1    1    3    3  502    0 -0.61828946749E+02 -0.15564688946E+03  0.23479009450E+02  0.16911545395E+03  0.50400001928E-02 0. -1.
       -1    1    3    3    0  502  0.61828946749E+02  0.15564688946E+03 -0.49598825137E+03  0.52350082939E+03  0.50400001928E-02 0.  1.
</event>
<event>
 5   0  0.7881060E-02  0.5000643E+03  0.7818609E-02  0.1013762E+00
        2   -1    0    0  501    0  0.00000000000E+00  0.00000000000E+00  0.17374503481E+04  0.17374503481E+04  0.25500000920E-02 0. -1.
       -2   -1    0    0    0  501  0.00000000000E+00  0.00000000000E+00 -0.35981499713E+02  0.35981499803E+02  0.25500000920E-02 0.  1.
    10030    2    1    2    0    0  0.00000000000E+00  0.00000000000E+00  0.17014688484E+04  0.17734318479E+04  0.50006427301E+03 0.  0.
        1    1    3    3  502    0  0.14066975053E+03  0.20606123364E+03  0.90866785192E+03  0.94229850677E+03  0.50400001928E-02 0.  1.
       -1    1    3    3    0  502 -0.14066975053E+03 -0.20606123364E+03  0.79280099651E+03  0.83113334117E+03  0.50400001928E-02 0. -1.
</event>
<event>
 5   0  0.4884478E-02  0.4959458E+03  0.7818609E-02  0.1014843E+00
        1   -1    0    0  501    0  0.00000000000E+00  0.00000000000E+00  0.31707085926E+03  0.31707085930E+03  0.50400001928E-02 0.  1.
       -1   -1    0    0    0  501  0.00000000000E+00  0.00000000000E+00 -0.19393317352E+03  0.19393317359E+03  0.50400001928E-02 0. -1.
    10030    2    1    2    0    0  0.00000000000E+00  0.00000000000E+00  0.12313768574E+03  0.51100403289E+03  0.49594579540E+03 0.  0.
        3    1    3    3  502    0  0.18438237354E+03 -0.11282589619E+03 -0.63627663706E+02  0.22533315849E+03  0.10100000352E+00 0. -1.
       -3    1    3    3    0  502 -0.18438237354E+03  0.11282589619E+03  0.18676534944E+03  0.28567087440E+03  0.10100000352E+00 0.  1.
</event>
<event>
 5   0  0.4803890E-02  0.5020235E+03  0.7818609E-02  0.1013252E+00
        1   -1    0    0  501    0  0.00000000000E+00  0.00000000000E+00  0.58405010242E+03  0.58405010244E+03  0.50400001928E-02 0.  1.
       -1   -1    0    0    0  501  0.00000000000E+00  0.00000000000E+00 -0.10787928384E+03  0.10787928396E+03  0.50400001928E-02 0. -1.
    10030    2    1    2    0    0  0.00000000000E+00  0.00000000000E+00  0.47617081858E+03  0.69192938640E+03  0.50202353261E+03 0.  0.
        5    1    3    3  502    0  0.17743787245E+02  0.95832785920E+02  0.55684111784E+03  0.56532546852E+03  0.46999998093E+01 0.  1.
       -5    1    3    3    0  502 -0.17743787245E+02 -0.95832785920E+02 -0.80670299256E+02  0.12660391788E+03  0.46999998093E+01 0. -1.
</event>
<event>
 5   0  0.5191358E-02  0.5036350E+03  0.7818609E-02  0.1012834E+00
        1   -1    0    0  501    0  0.00000000000E+00  0.00000000000E+00  0.82085884256E+03  0.82085884257E+03  0.50400001928E-02 0. -1.
       -1   -1    0    0    0  501  0.00000000000E+00  0.00000000000E+00 -0.77250864114E+02  0.77250864279E+02  0.50400001928E-02 0.  1.
    10030    2    1    2    0    0  0.00000000000E+00  0.00000000000E+00  0.74360797844E+03  0.89810970685E+03  0.50363500666E+03 0.  0.
        4    1    3    3  502    0  0.15988566628E+03  0.19391065369E+03  0.39975472507E+03  0.47219722681E+03  0.12699999809E+01 0.  1.
       -4    1    3    3    0  502 -0.15988566628E+03 -0.19391065369E+03  0.34385325337E+03  0.42591248004E+03  0.12699999809E+01 0. -1.
</event>
<event>
 5   0  0.4884478E-02  0.4997674E+03  0.7818609E-02  0.1013840E+00
        1   -1    0    0  501    0  0.00000000000E+00  0.00000000000E+00  0.94489789756E+03  0.94489789757E+03  0.50400001928E-02 0.  1.
       -1   -1    0    0    0  501  0.00000000000E+00  0.00000000000E+00 -0.66083193810E+02  0.66083194002E+02  0.50400001928E-02 0. -1.
    10030    2    1    2    0    0  0.00000000000E+00  0.00000000000E+00  0.87881470375E+03  0.10109810916E+04  0.49976742991E+03 0.  0.
        3    1    3    3  502    0 -0.10222978714E+03  0.20225935040E+03  0.65236137699E+03  0.69060491642E+03  0.10100000352E+00 0.  1.
       -3    1    3    3    0  502  0.10222978714E+03 -0.20225935040E+03  0.22645332676E+03  0.32037617515E+03  0.10100000352E+00 0. -1.
</event>
<event>
 5   0  0.4884478E-02  0.5010574E+03  0.7818609E-02  0.1013503E+00
        1   -1    0    0  501    0  0.00000000000E+00  0.00000000000E+00  0.22149091449E+03  0.22149091455E+03  0.50400001928E-02 0. -1.
       -1   -1    0    0    0  501  0.00000000000E+00  0.00000000000E+00 -0.28337337233E+03  0.28337337237E+03  0.50400001928E-02 0.  1.
    10030    2    1    2    0    0  0.00000000000E+00  0.00000000000E+00 -0.61882457840E+02  0.50486428692E+03  0.50105739154E+03 0.  0.
        3    1    3    3  502    0  0.28638709238E+02  0.14686562858E+03 -0.23340301397E+03  0.27724838260E+03  0.10100000352E+00 0.  1.
       -3    1    3    3    0  502 -0.28638709238E+02 -0.14686562858E+03  0.17152055613E+03  0.22761590432E+03  0.10100000352E+00 0. -1.
</event>
<event>
 5   0  0.5191358E-02  0.4975709E+03  0.7818609E-02  0.1014415E+00
        1   -1    0    0  501    0  0.00000000000E+00  0.00000000000E+00  0.34961188793E+03  0.34961188796E+03  0.50400001928E-02 0. -1.
       -1   -1    0    0    0  501  0.00000000000E+00  0.00000000000E+00 -0.17703691818E+03  0.17703691825E+03  0.50400001928E-02 0.  1.
    10030    2    1    2    0    0  0.00000000000E+00  0.00000000000E+00  0.17257496975E+03  0.52664880621E+03  0.49757094459E+03 0.  0.
        4    1    3    3  502    0 -0.32896652587E+02  0.94587922248E+01  0.34710414813E+03  0.34879013898E+03  0.12699999809E+01 0. -1.
       -4    1    3    3    0  502  0.32896652587E+02 -0.94587922248E+01 -0.17452917838E+03  0.17785866723E+03  0.12699999809E+01 0.  1.
</event>
<event>
 5   0  0.4884478E-02  0.5027728E+03  0.7818609E-02  0.1013058E+00
        1   -1    0    0  501    0  0.00000000000E+00  0.00000000000E+00  0.10420679357E+04  0.10420679358E+04  0.50400001928E-02 0. -1.
       -1   -1    0    0    0  501  0.00000000000E+00  0.00000000000E+00 -0.60643962444E+02  0.60643962653E+02  0.50400001928E-02 0.  1.
    10030    2    1    2    0    0  0.00000000000E+00  0.00000000000E+00  0.98142397330E+03  0.11027118984E+04  0.50277282696E+03 0.  0.
        3    1    3    3  502    0  0.11789025046E+03 -0.21959747627E+03  0.56258791984E+03  0.61532620656E+03  0.10100000352E+00 0. -1.
       -3    1    3    3    0  502 -0.11789025046E+03  0.21959747627E+03  0.41883605346E+03  0.48738569185E+03  0.10100000352E+00 0.  1.
</event>
<event>
 5   0  0.5038436E-02  0.5129652E+03  0.7818609E-02  0.1010449E+00
       -1   -1    0    0    0  501  0.00000000000E+00  0.00000000000E+00  0.92161508491E+02  0.92161508629E+02  0.50400001928E-02 0. -1.
        1   -1    0    0  501    0  0.00000000000E+00  0.00000000000E+00 -0.71378310308E+03  0.71378310310E+03  0.50400001928E-02 0.  1.
    10030    2    1    2    0    0  0.00000000000E+00  0.00000000000E+00 -0.62162159459E+03  0.80594461173E+03  0.51296521355E+03 0.  0.
        1    1    3    3  502    0 -0.70161909643E+02 -0.46615974380E+02  0.69808147080E+02  0.10940255964E+03  0.50400001928E-02 0. -1.
       -1    1    3    3    0  502  0.70161909643E+02  0.46615974380E+02 -0.69142974167E+03  0.69654205209E+03  0.50400001928E-02 0.  1.
</event>
<event>
 5   0  0.4803890E-02  0.4926042E+03  0.7818609E-02  0.1015728E+00
       -1   -1    0    0    0  501  0.00000000000E+00  0.00000000000E+00  0.12729337564E+03  0.12729337574E+03  0.50400001928E-02 0.  1.
        1   -1    0    0  501    0  0.00000000000E+00  0.00000000000E+00 -0.47657404382E+03  0.47657404385E+03  0.50400001928E-02 0. -1.
    10030    2    1    2    0    0  0.00000000000E+00  0.00000000000E+00 -0.34928066818E+03  0.60386741958E+03  0.49260417707E+03 0.  0.
        5    1    3    3  502    0  0.10779819603E+03 -0.10562145363E+02  0.96469385303E+02  0.14512216330E+03  0.46999998093E+01 0.  1.
       -5    1    3    3    0  502 -0.10779819603E+03  0.10562145363E+02 -0.44575005348E+03  0.45874525628E+03  0.46999998093E+01 0. -1.
</event>
<event>
 5   0  0.8208720E-02  0.4953403E+03  0.7818609E-02  0.1015002E+00
       -2   -1    0    0    0  501  0.00000000000E+00  0.00000000000E+00  0.10975932157E+04  0.10975932157E+04  0.25500000920E-02 0.  1.
        2   -1    0    0  501    0  0.00000000000E+00  0.00000000000E+00 -0.55886378570E+02  0.55886378628E+02  0.25500000920E-02 0. -1.
    10030    2    1    2    0    0  0.00000000000E+00  0.00000000000E+00  0.10417068371E+04  0.11534795943E+04  0.49534032746E+03 0.  0.
        3    1    3    3  502    0  0.10211976969E+03  0.13787601984E+03  0.93678023715E+03  0.95236309626E+03  0.10100000352E+00 0.  1.
       -3    1    3    3    0  502 -0.10211976969E+03 -0.13787601984E+03  0.10492659997E+03  0.20111649806E+03  0.10100000352E+00 0. -1.
</event>
<event>
 5   0  0.7698747E-02  0.5075503E+03  0.7818609E-02  0.1011827E+00
       -2   -1    0    0    0  501  0.00000000000E+00  0.00000000000E+00  0.61595663992E+02  0.61595664045E+02  0.25500000920E-02 0. -1.
        2   -1    0    0  501    0  0.00000000000E+00  0.00000000000E+00 -0.10455577692E+04  0.10455577692E+04  0.25500000920E-02 0.  1.
    10030    2    1    2    0    0  0.00000000000E+00  0.00000000000E+00 -0.98396210521E+03  0.11071534332E+04  0.50755029334E+03 0.  0.
        2    1    3    3  502    0  0.23832114955E+03 -0.29945321917E+02 -0.67064196273E+03  0.71235829103E+03  0.25500000920E-02 0.  1.
       -2    1    3    3    0  502 -0.23832114955E+03  0.29945321917E+02 -0.31332014248E+03  0.39479514222E+03  0.25500000920E-02 0. -1.
</event>
<event>
 5   0  0.4803890E-02  0.4991162E+03  0.7818609E-02  0.1014010E+00
       -1   -1    0    0    0  501  0.00000000000E+00  0.00000000000E+00  0.62097470384E+03  0.62097470386E+03  0.50400001928E-02 0.  1.
        1   -1    0    0  501    0  0.00000000000E+00  0.00000000000E+00 -0.10029273890E+03  0.10029273902E+03  0.50400001928E-02 0. -1.
    10030    2    1    2    0    0  0.00000000000E+00  0.00000000000E+00  0.52068196494E+03  0.72126744288E+03  0.49911623450E+03 0.  0.
        5    1    3    3  502    0  0.70979588028E+02  0.23887640237E+03  0.27845518270E+03  0.37371033742E+03  0.46999998093E+01 0. -1.
       -5    1    3    3    0  502 -0.70979588028E+02 -0.23887640237E+03  0.24222678225E+03  0.34755710547E+03  0.46999998093E+01 0.  1.
</event>
<event>
 5   0  0.8208720E-02  0.4987128E+03  0.7818609E-02  0.1014115E+00
        2   -1    0    0  501    0  0.00000000000E+00  0.00000000000E+00  0.47256879457E+03  0.47256879458E+03  0.25500000920E-02 0. -1.
       -2   -1    0    0    0  501  0.00000000000E+00  0.00000000000E+00 -0.13157579885E+03  0.13157579887E+03  0.25500000920E-02 0.  1.
    10030    2    1    2    0    0  0.00000000000E+00  0.00000000000E+00  0.34099299573E+03  0.60414459345E+03  0.49871280981E+03 0.  0.
        3    1    3    3  502    0  0.10454267816E+03 -0.17951048305E+03  0.34037842762E+01  0.20776135596E+03  0.10100000352E+00 0.  1.
       -3    1    3    3    0  502 -0.10454267816E+03  0.17951048305E+03  0.33758921145E+03  0.39638323750E+03  0.10100000352E+00 0. -1.
</event>
<event>
 5   0  0.7881060E-02  0.5195633E+03  0.7818609E-02  0.1008795E+00
        2   -1    0    0  501    0  0.00000000000E+00  0.00000000000E+00  0.37230279313E+03  0.37230279314E+03  0.25500000920E-02 0.  1.
       -2   -1    0    0    0  501  0.00000000000E+00  0.00000000000E+00 -0.18126779931E+03  0.18126779933E+03  0.25500000920E-02 0. -1.
    10030    2    1    2    0    0  0.00000000000E+00  0.00000000000E+00  0.19103499382E+03  0.55357059246E+03  0.51956330892E+03 0.  0.
        1    1    3    3  502    0  0.62018753830E+02 -0.55238224708E+02 -0.16674195237E+03  0.18628061091E+03  0.50400001928E-02 0. -1.
       -1    1    3    3    0  502 -0.62018753830E+02  0.55238224708E+02  0.35777694619E+03  0.36728998155E+03  0.50400001928E-02 0.  1.
</event>
<event>
 5   0  0.7776070E-02  0.5035295E+03  0.7818609E-02  0.1012862E+00
        2   -1    0    0  501    0  0.00000000000E+00  0.00000000000E+00  0.62600446393E+03  0.62600446394E+03  0.25500000920E-02 0.  1.
       -2   -1    0    0    0  501  0.00000000000E+00  0.00000000000E+00 -0.10125406341E+03  0.10125406344E+03  0.25500000920E-02 0. -1.
    10030    2    1    2    0    0  0.00000000000E+00  0.00000000000E+00  0.52475040052E+03  0.72725852738E+03  0.50352952525E+03 0.  0.
        4    1    3    3  502    0 -0.21210557596E+03 -0.82640823269E+02  0.10704782686E+03  0.25155343599E+03  0.12699999809E+01 0. -1.
       -4    1    3    3    0  502  0.21210557596E+03  0.82640823269E+02  0.41770257366E+03  0.47570509139E+03  0.12699999809E+01 0.  1.
</event>
<event>
 5   0  0.7698747E-02  0.4981818E+03  0.7818609E-02  0.1014255E+00
       -2   -1    0    0    0  501  0.00000000000E+00  0.00000000000E+00  0.73576934436E+02  0.73576934480E+02  0.25500000920E-02 0.  1.
        2   -1    0    0  501    0  0.00000000000E+00  0.00000000000E+00 -0.84328449426E+03  0.84328449426E+03  0.25500000920E-02 0. -1.
    10030    2    1    2    0    0  0.00000000000E+00  0.00000000000E+00 -0.76970755982E+03  0.91686142874E+03  0.49818184618E+03 0.  0.
        2    1    3    3  502    0  0.23211252068E+03 -0.12431437384E+02 -0.22008239445E+03  0.32010470669E+03  0.25500000920E-02 0.  1.
       -2    1    3    3    0  502 -0.23211252068E+03  0.12431437384E+02 -0.54962516538E+03  0.59675672205E+03  0.25500000920E-02 0. -1.
</event>
<event>
 5   0  0.4803890E-02  0.5010291E+03  0.7818609E-02  0.1013511E+00
       -1   -1    0    0    0  501  0.00000000000E+00  0.00000000000E+00  0.40341524466E+02  0.40341524781E+02  0.50400001928E-02 0. -1.
        1   -1    0    0  501    0  0.00000000000E+00  0.00000000000E+00 -0.15556559149E+04  0.15556559149E+04  0.50400001928E-02 0.  1.
    10030    2    1    2    0    0  0.00000000000E+00  0.00000000000E+00 -0.15153143904E+04  0.15959974397E+04  0.50102906665E+03 0.  0.
        5    1    3    3  502    0  0.91271203266E+01  0.38843920246E+02  0.30011634451E+02  0.50149204043E+02  0.46999998093E+01 0. -1.
       -5    1    3    3    0  502 -0.91271203266E+01 -0.38843920246E+02 -0.15453260248E+04  0.15458482356E+04  0.46999998093E+01 0.  1.
</event>
<event>
 5   0  0.7698747E-02  0.4978333E+03  0.7818609E-02  0.1014346E+00
        2   -1    0    0  501    0  0.00000000000E+00  0.00000000000E+00  0.18858377360E+04  0.18858377360E+04  0.25500000920E-02 0. -1.
       -2   -1    0    0    0  501  0.00000000000E+00  0.00000000000E+00 -0.32855157621E+02  0.32855157720E+02  0.25500000920E-02 0.  1.
    10030    2    1    2    0    0  0.00000000000E+00  0.00000000000E+00  0.18529825784E+04  0.19186928937E+04  0.49783329001E+03 0.  0.
        2    1    3    3  502    0 -0.96286746049E+02  0.29917004817E+02  0.49372415481E+02  0.11226664713E+03  0.25500000920E-02 0.  1.
       -2    1    3    3    0  502  0.96286746049E+02 -0.29917004817E+02  0.18036101629E+04  0.18064262466E+04  0.25500000920E-02 0. -1.
</event>
<event>
 5   0  0.4803890E-02  0.4932457E+03  0.7818609E-02  0.1015557E+00
       -1   -1    0    0    0  501  0.00000000000E+00  0.00000000000E+00  0.16400585736E+03  0.16400585744E+03  0.50400001928E-02 0.  1.
        1   -1    0    0  501    0  0.00000000000E+00  0.00000000000E+00 -0.37085760201E+03  0.37085760204E+03  0.50400001928E-02 0. -1.
    10030    2    1    2    0    0  0.00000000000E+00  0.00000000000E+00 -0.20685174465E+03  0.53486345948E+03  0.49324565484E+03 0.  0.
        5    1    3    3  502    0 -0.21405456163E+03  0.74734684889E+02  0.16864153492E+01  0.22678086884E+03  0.46999998093E+01 0.  1.
       -5    1    3    3    0  502  0.21405456163E+03 -0.74734684889E+02 -0.20853816000E+03  0.30808259063E+03  0.46999998093E+01 0. -1.
</event>
<event>
 5   0  0.4865501E-02  0.4984862E+03  0.7818609E-02  0.1014175E+00
        1   -1    0    0  501    0  0.00000000000E+00  0.00000000000E+00  0.18854878033E+03  0.18854878039E+03  0.50400001928E-02 0. -1.
       -1   -1    0    0    0  501  0.00000000000E+00  0.00000000000E+00 -0.32947505355E+03  0.32947505359E+03  0.50400001928E-02 0.  1.
    10030    2    1    2    0    0  0.00000000000E+00  0.00000000000E+00 -0.14092627322E+03  0.51802383398E+03  0.49848618646E+03 0.  0.
        2    1    3    3  502    0  0.12692254958E+03  0.12723480547E+03 -0.24992832362E+03  0.30783468984E+03  0.25500000920E-02 0. -1.
       -2    1    3    3    0  502 -0.12692254958E+03 -0.12723480547E+03  0.10900205040E+03  0.21018914414E+03  0.25500000920E-02 0.  1.
</event>
<event>
 5   0  0.4865501E-02  0.5033464E+03  0.7818609E-02  0.1012909E+00
       -1   -1    0    0    0  501  0.00000000000E+00  0.00000000000E+00  0.41946883522E+03  0.41946883525E+03  0.50400001928E-02 0.  1.
        1   -1    0    0  501    0  0.00000000000E+00  0.00000000000E+00 -0.15099907412E+03  0.15099907420E+03  0.50400001928E-02 0. -1.
    10030    2    1    2    0    0  0.00000000000E+00  0.00000000000E+00  0.26846976110E+03  0.57046790945E+03  0.50334642453E+03 0.  0.
        2    1    3    3  502    0  0.17894444786E+02 -0.19194487675E+03  0.31760089663E+03  0.37152843285E+03  0.25500000920E-02 0.  1.
       -2    1    3    3    0  502 -0.17894444786E+02  0.19194487675E+03 -0.49131135539E+02  0.19893947660E+03  0.25500000920E-02 0. -1.
</event>
<event>
 5   0  0.4865501E-02  0.5027945E+03  0.7818609E-02  0.1013052E+00
        1   -1    0    0  501    0  0.00000000000E+00  0.00000000000E+00  0.42019984778E+03  0.42019984781E+03  0.50400001928E-02 0.  1.
       -1   -1    0    0    0  501  0.00000000000E+00  0.00000000000E+00 -0.15040601388E+03  0.15040601397E+03  0.50400001928E-02 0. -1.
    10030    2    1    2    0    0  0.00000000000E+00  0.00000000000E+00  0.26979383389E+03  0.57060586177E+03  0.50279452730E+03 0.  0.
        2    1    3    3  502    0 -0.16803532875E+03  0.18087031951E+03  0.81057704143E+02  0.25984667709E+03  0.25500000920E-02 0.  1.
       -2    1    3    3    0  502  0.16803532875E+03 -0.18087031951E+03  0.18873612975E+03  0.31075918468E+03  0.25500000920E-02 0. -1.
</event>
<event>
 5   0  0.7881060E-02  0.5000749E+03  0.7818609E-02  0.1013759E+00
       -2   -1    0    0    0  501  0.00000000000E+00  0.00000000000E+00  0.17285219078E+03  0.17285219080E+03  0.25500000920E-02 0. -1.
        2   -1    0    0  501    0  0.00000000000E+00  0.00000000000E+00 -0.36168892447E+03  0.36168892448E+03  0.25500000920E-02 0.  1.
    10030    2    1    2    0    0  0.00000000000E+00  0.00000000000E+00 -0.18883673369E+03  0.53454111528E+03  0.50007488632E+03 0.  0.
        1    1    3    3  502    0 -0.57720719628E+02  0.22357483644E+03  0.81164755440E+01  0.23104819013E+03  0.50400001928E-02 0. -1.
       -1    1    3    3    0  502  0.57720719628E+02 -0.22357483644E+03 -0.19695320923E+03  0.30349292515E+03  0.50400001928E-02 0.  1.
</event>
<event>
 5   0  0.7776070E-02  0.5021388E+03  0.7818609E-02  0.1013222E+00
        2   -1    0    0  501    0  0.00000000000E+00  0.00000000000E+00  0.14219747989E+04  0.14219747989E+04  0.25500000920E-02 0. -1.
       -2   -1    0    0    0  501  0.00000000000E+00  0.00000000000E+00 -0.44329794193E+02  0.44329794267E+02  0.25500000920E-02 0.  1.
    10030    2    1    2    0    0  0.00000000000E+00  0.00000000000E+00  0.13776450047E+04  0.14663045932E+04  0.50213882638E+03 0.  0.
        4    1    3    3  502    0 -0.15833216747E+03  0.30751700549E+02  0.12697864536E+03  0.20528012963E+03  0.12699999809E+01 0.  1.
       -4    1    3    3    0  502  0.15833216747E+03 -0.30751700549E+02  0.12506663594E+04  0.12610244636E+04  0.12699999809E+01 0. -1.
</event>
<event>
 5   0  0.3210875E-02  0.4994936E+03  0.7818609E-02  0.1013911E+00
       -3   -1    0    0    0  501  0.00000000000E+00  0.00000000000E+00  0.56016503206E+02  0.56016594259E+02  0.10100000352E+00 0. -1.
        3   -1    0    0  501    0  0.00000000000E+00  0.00000000000E+00 -0.11134828726E+04  0.11134828771E+04  0.10100000352E+00 0.  1.
    10030    2    1    2    0    0  0.00000000000E+00  0.00000000000E+00 -0.10574663693E+04  0.11694994714E+04  0.49949363488E+03 0.  0.
        3    1    3    3  502    0 -0.18381514336E+03 -0.13268004434E+03 -0.77409113994E+03  0.80660343678E+03  0.10100000352E+00 0.  1.
       -3    1    3    3    0  502  0.18381514336E+03  0.13268004434E+03 -0.28337522941E+03  0.36289603461E+03  0.10100000352E+00 0. -1.
</event>
<event>
 5   0  0.4884478E-02  0.4934738E+03  0.7818609E-02  0.1015497E+00
       -1   -1    0    0    0  501  0.00000000000E+00  0.00000000000E+00  0.22040447806E+03  0.22040447812E+03  0.50400001928E-02 0. -1.
        1   -1    0    0  501    0  0.00000000000E+00  0.00000000000E+00 -0.27621535160E+03  0.27621535165E+03  0.50400001928E-02 0.  1.
    10030    2    1    2    0    0  0.00000000000E+00  0.00000000000E+00 -0.55810873542E+02  0.49661982977E+03  0.49347381056E+03 0.  0.
        3    1    3    3  502    0 -0.69949334662E+02  0.86388519729E+02  0.19377873454E+03  0.22339671869E+03  0.10100000352E+00 0. -1.
       -3    1    3    3    0  502  0.69949334662E+02 -0.86388519729E+02 -0.24958960809E+03  0.27322311108E+03  0.10100000352E+00 0.  1.
</event>
<event>
 5   0  0.8208720E-02  0.4998189E+03  0.7818609E-02  0.1013826E+00
       -2   -1    0    0    0  501  0.00000000000E+00  0.00000000000E+00  0.23310111578E+03  0.23310111580E+03  0.25500000920E-02 0. -1.
        2   -1    0    0  501    0  0.00000000000E+00  0.00000000000E+00 -0.26792981953E+03  0.26792981954E+03  0.25500000920E-02 0.  1.
    10030    2    1    2    0    0  0.00000000000E+00  0.00000000000E+00 -0.34828703749E+02  0.50103093534E+03  0.49981892677E+03 0.  0.
        3    1    3    3  502    0 -0.14688907765E+03 -0.48198324470E+01  0.18520222364E+03  0.23643076314E+03  0.10100000352E+00 0. -1.
       -3    1    3    3    0  502  0.14688907765E+03  0.48198324470E+01 -0.22003092739E+03  0.26460017220E+03  0.10100000352E+00 0.  1.
</event>
<event>
 5   0  0.4884478E-02  0.4953294E+03  0.7818609E-02  0.1015005E+00
       -1   -1    0    0    0  501  0.00000000000E+00  0.00000000000E+00  0.59710384510E+02  0.59710384723E+02  0.50400001928E-02 0.  1.
        1   -1    0    0  501    0  0.00000000000E+00  0.00000000000E+00 -0.10272552557E+04  0.10272552557E+04  0.50400001928E-02 0. -1.
    10030    2    1    2    0    0  0.00000000000E+00  0.00000000000E+00 -0.96754487116E+03  0.10869656404E+04  0.49532941132E+03 0.  0.
        3    1    3    3  502    0 -0.13900296908E+03  0.20158739176E+03 -0.56524740146E+03  0.61600644233E+03  0.10100000352E+00 0.  1.
       -3    1    3    3    0  502  0.13900296908E+03 -0.20158739176E+03 -0.40229746970E+03  0.47095919808E+03  0.10100000352E+00 0. -1.
</event>
<event>
 5   0  0.4865501E-02  0.5017634E+03  0.7818609E-02  0.1013320E+00
       -1   -1    0    0    0  501  0.00000000000E+00  0.00000000000E+00  0.37373153218E+03  0.37373153222E+03  0.50400001928E-02 0. -1.
        1   -1    0    0  501    0  0.00000000000E+00  0.00000000000E+00 -0.16841401706E+03  0.16841401714E+03  0.50400001928E-02 0.  1.
    10030    2    1    2    0    0  0.00000000000E+00  0.00000000000E+00  0.20531751512E+03  0.54214554936E+03  0.50176340507E+03 0.  0.
        2    1    3    3  502    0  0.41165639054E+02  0.73886742396E+02 -0.15254461333E+03  0.17442396510E+03  0.25500000920E-02 0.  1.
       -2    1    3    3    0  502 -0.41165639054E+02 -0.73886742396E+02  0.35786212845E+03  0.36772158425E+03  0.25500000920E-02 0. -1.
</event>
<event>
 5   0  0.7698747E-02  0.5001513E+03  0.7818609E-02  0.1013739E+00
       -2   -1    0    0    0  501  0.00000000000E+00  0.00000000000E+00  0.92618415662E+02  0.92618415698E+02  0.25500000920E-02 0.  1.
        2   -1    0    0  501    0  0.00000000000E+00  0.00000000000E+00 -0.67522019020E+03  0.67522019020E+03  0.25500000920E-02 0. -1.
    10030    2    1    2    0    0  0.00000000000E+00  0.00000000000E+00 -0.58260177453E+03  0.76783860590E+03  0.50015127413E+03 0.  0.
        2    1    3    3  502    0  0.71291255552E+01 -0.21433692797E+03 -0.48878129415E+03  0.53375865018E+03  0.25500000920E-02 0. -1.
       -2    1    3    3    0  502 -0.71291255552E+01  0.21433692797E+03 -0.93820480386E+02  0.23407995572E+03  0.25500000920E-02 0.  1.
</event>
<event>
 5   0  0.4803890E-02  0.4987459E+03  0.7818609E-02  0.1014107E+00
       -1   -1    0    0    0  501  0.00000000000E+00  0.00000000000E+00  0.11609188972E+03  0.11609188983E+03  0.50400001928E-02 0.  1.
        1   -1    0    0  501    0  0.00000000000E+00  0.00000000000E+00 -0.53566933306E+03  0.53566933309E+03  0.50400001928E-02 0. -1.
    10030    2    1    2    0    0  0.00000000000E+00  0.00000000000E+00 -0.41957744335E+03  0.65176122291E+03  0.49874588793E+03 0.  0.
        5    1    3    3  502    0  0.83595607415E+01  0.24918471926E+03 -0.21157508151E+03  0.32703059748E+03  0.46999998093E+01 0.  1.
       -5    1    3    3    0  502 -0.83595607415E+01 -0.24918471926E+03 -0.20800236183E+03  0.32473062544E+03  0.46999998093E+01 0. -1.
</event>
<event>
 5   0  0.5191358E-02  0.5002931E+03  0.7818609E-02  0.1013702E+00
       -1   -1    0    0    0  501  0.00000000000E+00  0.00000000000E+00  0.23882963243E+03  0.23882963248E+03  0.50400001928E-02 0. -1.
        1   -1    0    0  501    0  0.00000000000E+00  0.00000000000E+00 -0.26199976969E+03  0.26199976974E+03  0.50400001928E-02 0.  1.
    10030    2    1    2    0    0  0.00000000000E+00  0.00000000000E+00 -0.23170137264E+02  0.50082940222E+03  0.50029314893E+03 0.  0.
        4    1    3    3  502    0 -0.14233226989E+03  0.17414965199E+03  0.98008847351E+02  0.24534449943E+03  0.12699999809E+01 0. -1.
       -4    1    3    3    0  502  0.14233226989E+03 -0.17414965199E+03 -0.12117898462E+03  0.25548490279E+03  0.12699999809E+01 0.  1.
</event>
<event>
 5   0  0.7776070E-02  0.4995158E+03  0.7818609E-02  0.1013905E+00
       -2   -1    0    0    0  501  0.00000000000E+00  0.00000000000E+00  0.17106158124E+03  0.17106158126E+03  0.25500000920E-02 0.  1.
        2   -1    0    0  501    0  0.00000000000E+00  0.00000000000E+00 -0.36465813434E+03  0.36465813435E+03  0.25500000920E-02 0. -1.
    10030    2    1    2    0    0  0.00000000000E+00  0.00000000000E+00 -0.19359655310E+03  0.53571971561E+03  0.49951575383E+03 0.  0.
        4    1    3    3  502    0  0.84410479047E+02  0.52526716695E+02 -0.34251796781E+03  0.35665719692E+03  0.12699999809E+01 0. -1.
       -4    1    3    3    0  502 -0.84410479047E+02 -0.52526716695E+02  0.14892141472E+03  0.17906251869E+03  0.12699999809E+01 0.  1.
</event>
<event>
 5   0  0.5038436E-02  0.4990446E+03  0.7818609E-02  0.1014029E+00
       -1   -1    0    0    0  501  0.00000000000E+00  0.00000000000E+00  0.16504356843E+03  0.16504356850E+03  0.50400001928E-02 0.  1.
        1   -1    0    0  501    0  0.00000000000E+00  0.00000000000E+00 -0.37724214510E+03  0.37724214513E+03  0.50400001928E-02 0. -1.
    10030    2    1    2    0    0  0.00000000000E+00  0.00000000000E+00 -0.21219857667E+03  0.54228571363E+03  0.49904464657E+03 0.  0.
        1    1    3    3  502    0  0.81267327244E+02 -0.11358023904E+03 -0.33079254658E+03  0.35906623077E+03  0.50400001928E-02 0. -1.
       -1    1    3    3    0  502 -0.81267327244E+02  0.11358023904E+03  0.11859396991E+03  0.18321948287E+03  0.50400001928E-02 0.  1.
</event>
<event>
 5   0  0.7776070E-02  0.5018515E+03  0.7818609E-02  0.1013297E+00
       -2   -1    0    0    0  501  0.00000000000E+00  0.00000000000E+00  0.20704902896E+03  0.20704902898E+03  0.25500000920E-02 0. -1.
        2   -1    0    0  501    0  0.00000000000E+00  0.00000000000E+00 -0.30410056019E+03  0.30410056020E+03  0.25500000920E-02 0.  1.
    10030    2    1    2    0    0  0.00000000000E+00  0.00000000000E+00 -0.97051531229E+02  0.51114958918E+03  0.50185147484E+03 0.  0.
        4    1    3    3  502    0  0.18632064861E+03 -0.29079818369E+02 -0.21712544856E+03  0.28758667084E+03  0.12699999809E+01 0.  1.
       -4    1    3    3    0  502 -0.18632064861E+03  0.29079818369E+02  0.12007391733E+03  0.22356291834E+03  0.12699999809E+01 0. -1.
</event>
<event>
 5   0  0.7933103E-02  0.5004484E+03  0.7818609E-02  0.1013662E+00
       -2   -1    0    0    0  501  0.00000000000E+00  0.00000000000E+00  0.12464583383E+03  0.12464583385E+03  0.25500000920E-02 0.  1.
        2   -1    0    0  501    0  0.00000000000E+00  0.00000000000E+00 -0.50232043568E+03  0.50232043569E+03  0.25500000920E-02 0. -1.
    10030    2    1    2    0    0  0.00000000000E+00  0.00000000000E+00 -0.37767460186E+03  0.62696626954E+03  0.50044839719E+03 0.  0.
        5    1    3    3  502    0 -0.41972000077E+02 -0.34979622032E+01  0.12011712785E+03  0.12737385497E+03  0.46999998093E+01 0.  1.
       -5    1    3    3    0  502  0.41972000077E+02  0.34979622032E+01 -0.49779172971E+03  0.49959241457E+03  0.46999998093E+01 0. -1.
</event>
<event>
 5   0  0.5191358E-02  0.4970259E+03  0.7818609E-02  0.1014558E+00
       -1   -1    0    0    0  501  0.00000000000E+00  0.00000000000E+00  0.72733117554E+03  0.72733117556E+03  0.50400001928E-02 0.  1.
        1   -1    0    0  501    0  0.00000000000E+00  0.00000000000E+00 -0.84911377315E+02  0.84911377465E+02  0.50400001928E-02 0. -1.
    10030    2    1    2    0    0  0.00000000000E+00  0.00000000000E+00  0.64241979823E+03  0.81224255303E+03  0.49702592265E+03 0.  0.
        4    1    3    3  502    0 -0.67637021353E+01 -0.22916499476E+03  0.16450724821E+03  0.28218183871E+03  0.12699999809E+01 0. -1.
       -4    1    3    3    0  502  0.67637021353E+01  0.22916499476E+03  0.47791255002E+03  0.53006071431E+03  0.12699999809E+01 0.  1.
</event>
<event>
 5   0  0.7933103E-02  0.5017271E+03  0.7818609E-02  0.1013329E+00
        2   -1    0    0  501    0  0.00000000000E+00  0.00000000000E+00  0.12786597425E+04  0.12786597425E+04  0.25500000920E-02 0.  1.
       -2   -1    0    0    0  501  0.00000000000E+00  0.00000000000E+00 -0.49217561879E+02  0.49217561945E+02  0.25500000920E-02 0. -1.
    10030    2    1    2    0    0  0.00000000000E+00  0.00000000000E+00  0.12294421806E+04  0.13278773044E+04  0.50172707738E+03 0.  0.
        5    1    3    3  502    0  0.10019242757E+03 -0.21594614482E+03  0.40566941833E+03  0.47038391445E+03  0.46999998093E+01 0. -1.
       -5    1    3    3    0  502 -0.10019242757E+03  0.21594614482E+03  0.82377276226E+03  0.85749338998E+03  0.46999998093E+01 0.  1.
</event>
<event>
 5   0  0.3210875E-02  0.4971461E+03  0.7818609E-02  0.1014527E+00
       -4   -1    0    0    0  501  0.00000000000E+00  0.00000000000E+00  0.38684493259E+03  0.38684701727E+03  0.12699999809E+01 0. -1.
        4   -1    0    0  501    0  0.00000000000E+00  0.00000000000E+00 -0.15971932783E+03  0.15972437692E+03  0.12699999809E+01 0.  1.
    10030    2    1    2    0    0  0.00000000000E+00  0.00000000000E+00  0.22712560476E+03  0.54657139419E+03  0.49714610389E+03 0.  0.
        4    1    3    3  502    0 -0.21688645120E+03  0.63985807148E+02  0.87984405022E-01  0.22613168038E+03  0.12699999809E+01 0.  1.
       -4    1    3    3    0  502  0.21688645120E+03 -0.63985807148E+02  0.22703762035E+03  0.32043971381E+03  0.12699999809E+01 0. -1.
</event>
<event>
 5   0  0.3210875E-02  0.4977884E+03  0.7818609E-02  0.1014358E+00
       -3   -1    0    0    0  501  0.00000000000E+00  0.00000000000E+00  0.34333426728E+03  0.34333428213E+03  0.10100000352E+00 0. -1.
        3   -1    0    0  501    0  0.00000000000E+00  0.00000000000E+00 -0.18043147688E+03  0.18043150515E+03  0.10100000352E+00 0.  1.
    10030    2    1    2    0    0  0.00000000000E+00  0.00000000000E+00  0.16290279040E+03  0.52376578729E+03  0.49778838959E+03 0.  0.
        3    1    3    3  502    0  0.21822112061E+03  0.11045419148E+03  0.12998583492E+03  0.27697818214E+03  0.10100000352E+00 0. -1.
       -3    1    3    3    0  502 -0.21822112061E+03 -0.11045419148E+03  0.32916955473E+02  0.24678760515E+03  0.10100000352E+00 0.  1.
</event>
<event>
 5   0  0.7698747E-02  0.4698824E+03  0.7818609E-02  0.1021953E+00
        2   -1    0    0  501    0  0.00000000000E+00  0.00000000000E+00  0.48854708513E+03  0.48854708513E+03  0.25500000920E-02 0. -1.
       -2   -1    0    0    0  501  0.00000000000E+00  0.00000000000E+00 -0.11298269350E+03  0.11298269353E+03  0.25500000920E-02 0.  1.
    10030    2    1    2    0    0  0.00000000000E+00  0.00000000000E+00  0.37556439162E+03  0.60152977866E+03  0.46988239205E+03 0.  0.
        2    1    3    3  502    0 -0.19762877182E+03  0.28411439788E+02  0.29262995857E+02  0.20179361808E+03  0.25500000920E-02 0.  1.
       -2    1    3    3    0  502  0.19762877182E+03 -0.28411439788E+02  0.34630139577E+03  0.39973616059E+03  0.25500000920E-02 0. -1.
</event>
<event>
 5   0  0.4884478E-02  0.5048978E+03  0.7818609E-02  0.1012508E+00
        1   -1    0    0  501    0  0.00000000000E+00  0.00000000000E+00  0.38703194697E+03  0.38703194700E+03  0.50400001928E-02 0. -1.
       -1   -1    0    0    0  501  0.00000000000E+00  0.00000000000E+00 -0.16466458114E+03  0.16466458122E+03  0.50400001928E-02 0.  1.
    10030    2    1    2    0    0  0.00000000000E+00  0.00000000000E+00  0.22236736582E+03  0.55169652822E+03  0.50489782518E+03 0.  0.
        3    1    3    3  502    0 -0.12702270399E+02  0.24951045038E+03  0.15078716777E+03  0.29181088514E+03  0.10100000352E+00 0. -1.
       -3    1    3    3    0  502  0.12702270399E+02 -0.24951045038E+03  0.71580198059E+02  0.25988564308E+03  0.10100000352E+00 0.  1.
</event>
</LesHouchesEvents>
