<LesHouchesEvents version="3.0">
<header>
<!--
#*********************************************************************
#                                                                    *
#                        MadGraph5_aMC@NLO                           *
#                                                                    *
#                           Going Beyond                             *
#                                                                    *
#                   http://madgraph.hep.uiuc.edu                     *
#                   http://madgraph.phys.ucl.ac.be                   *
#                   http://amcatnlo.cern.ch                          *
#                                                                    *
#                     The MadGraph5_aMC@NLO team                     *
#                                                                    *
#....................................................................*
#                                                                    *
# This file contains all the information necessary to reproduce      *
# the events generated:                                              *
#                                                                    *
# 1. software version                                                *
# 2. proc_card          : code generation info including model       *
# 3. param_card         : model primary parameters in the LH format  *
# 4. run_card           : running parameters (collider and cuts)     *
# 5. pythia_card        : present only if pythia has been run        *
# 6. pgs_card           : present only if pgs has been run           *
# 7. delphes_cards      : present only if delphes has been run       *
#                                                                    *
#                                                                    *
#*********************************************************************
-->
<MGVersion>
#5.2.2.3
</MGVersion>
<MG5ProcCard>
#************************************************************
#*                     MadGraph5_aMC@NLO                    *
#*                                                          *
#*                *                       *                 *
#*                  *        * *        *                   *
#*                    * * * * 5 * * * *                     *
#*                  *        * *        *                   *
#*                *                       *                 *
#*                                                          *
#*                                                          *
#*         VERSION 2.2.3                 2015-02-10         *
#*                                                          *
#*    The MadGraph5_aMC@NLO Development Team - Find us at   *
#*    https://server06.fynu.ucl.ac.be/projects/madgraph     *
#*                                                          *
#************************************************************
#*                                                          *
#*               Command File for MadGraph5_aMC@NLO         *
#*                                                          *
#*     run as ./bin/mg5_aMC  filename                       *
#*                                                          *
#************************************************************
set group_subprocesses Auto
set ignore_six_quark_processes False
set loop_optimized_output True
set gauge unitary
set complex_mass_scheme False
import model sm
define p = g u c d s u~ c~ d~ s~
define j = g u c d s u~ c~ d~ s~
define l+ = e+ mu+
define l- = e- mu-
define vl = ve vm vt
define vl~ = ve~ vm~ vt~
import model Zprime_UFO
generate p p > zph, zph > j j
add process p p > zph, zph > b b~
output Dijet_signal
</MG5ProcCard>
<MGProcCard>
#*********************************************************************
#                        MadGraph/MadEvent                           *
#                   http://madgraph.hep.uiuc.edu                     *
#                                                                    *
#                          proc_card.dat                             *
#*********************************************************************
#                                                                    *
#            This Files is generated by MADGRAPH 5                   *
#                                                                    *
# WARNING: This Files is generated for MADEVENT (compatibility issue)*
#          This files is NOT a valid MG4 proc_card.dat               *
#          Running this in MG4 will NEVER reproduce the result of MG5*
#                                                                    *
#*********************************************************************
#*********************************************************************
# Process(es) requested : mg2 input                                  *
#*********************************************************************
# Begin PROCESS # This is TAG. Do not modify this line
p p > zph , zph > j j           #Process
# Be carefull the coupling are here in MG5 convention
          
end_coup           # End the couplings input

done               # this tells MG there are no more procs
# End PROCESS  # This is TAG. Do not modify this line
#*********************************************************************
# Model information                                                  *
#*********************************************************************
# Begin MODEL  # This is TAG. Do not modify this line
Zprime_UFO
# End   MODEL  # This is TAG. Do not modify this line
#*********************************************************************
# Start multiparticle definitions                                    *
#*********************************************************************
# Begin MULTIPARTICLES # This is TAG. Do not modify this line

# End  MULTIPARTICLES # This is TAG. Do not modify this line
</MGProcCard>
<MGRunCard>
#*********************************************************************
#                       MadGraph5_aMC@NLO                            *
#                                                                    *
#                     run_card.dat MadEvent                          *
#                                                                    *
#  This file is used to set the parameters of the run.               *
#                                                                    *
#  Some notation/conventions:                                        *
#                                                                    *
#   Lines starting with a '# ' are info or comments                  *
#                                                                    *
#   mind the format:   value    = variable     ! comment             *
#*********************************************************************
#
#*******************                                                 
# Running parameters
#*******************                                                 
#                                                                    
#*********************************************************************
# Tag name for the run (one word)                                    *
#*********************************************************************
  tag_1     = run_tag ! name of the run 
#*********************************************************************
# Run to generate the grid pack                                      *
#*********************************************************************
  .false.     = gridpack  !True = setting up the grid pack
#*********************************************************************
# Number of events and rnd seed                                      *
# Warning: Do not generate more than 1M events in a single run       *
# If you want to run Pythia, avoid more than 50k events in a run.    *
#*********************************************************************
  2000 = nevents ! Number of unweighted events requested 
 2757 = iseed   ! rnd seed (0=assigned automatically=default))
#*********************************************************************
# Collider type and energy                                           *
# lpp: 0=No PDF, 1=proton, -1=antiproton, 2=photon from proton,      *
#                                         3=photon from electron     *
#*********************************************************************
        1     = lpp1    ! beam 1 type 
        1     = lpp2    ! beam 2 type
     4000     = ebeam1  ! beam 1 total energy in GeV
     4000     = ebeam2  ! beam 2 total energy in GeV
#*********************************************************************
# Beam polarization from -100 (left-handed) to 100 (right-handed)    *
#*********************************************************************
        0     = polbeam1 ! beam polarization for beam 1
        0     = polbeam2 ! beam polarization for beam 2
#*********************************************************************
# PDF CHOICE: this automatically fixes also alpha_s and its evol.    *
#*********************************************************************
 'nn23lo1'    = pdlabel     ! PDF set                                     
 230000    = lhaid     ! if pdlabel=lhapdf, this is the lhapdf number
#*********************************************************************
# Renormalization and factorization scales                           *
#*********************************************************************
 F        = fixed_ren_scale  ! if .true. use fixed ren scale
 F        = fixed_fac_scale  ! if .true. use fixed fac scale
 91.1880  = scale            ! fixed ren scale
 91.1880  = dsqrt_q2fact1    ! fixed fact scale for pdf1
 91.1880  = dsqrt_q2fact2    ! fixed fact scale for pdf2
 1        = scalefact        ! scale factor for event-by-event scales
#*********************************************************************
# Matching - Warning! ickkw > 1 is still beta
#*********************************************************************
 0        = ickkw            ! 0 no matching, 1 MLM, 2 CKKW matching
 1        = highestmult      ! for ickkw=2, highest mult group
 1        = ktscheme         ! for ickkw=1, 1 Durham kT, 2 Pythia pTE
 1        = alpsfact         ! scale factor for QCD emission vx
 F        = chcluster        ! cluster only according to channel diag
 T        = pdfwgt           ! for ickkw=1, perform pdf reweighting
 5        = asrwgtflavor     ! highest quark flavor for a_s reweight
 T        = clusinfo         ! include clustering tag in output
 3.0      = lhe_version       ! Change the way clustering information pass to shower.        
#*********************************************************************
#**********************************************************
#
#**********************************************************
# Automatic ptj and mjj cuts if xqcut > 0
# (turn off for VBF and single top processes)
#**********************************************************
   T  = auto_ptj_mjj  ! Automatic setting of ptj and mjj
#**********************************************************
#                                                                    
#**********************************
# BW cutoff (M+/-bwcutoff*Gamma)
#**********************************
  15  = bwcutoff      ! (M+/-bwcutoff*Gamma)
#**********************************************************
# Apply pt/E/eta/dr/mij cuts on decay products or not
# (note that etmiss/ptll/ptheavy/ht/sorted cuts always apply)
#**********************************************************
   T  = cut_decays    ! Cut decay products 
#*************************************************************
# Number of helicities to sum per event (0 = all helicities)
# 0 gives more stable result, but longer run time (needed for
# long decay chains e.g.).
# Use >=2 if most helicities contribute, e.g. pure QCD.
#*************************************************************
   0  = nhel          ! Number of helicities used per event
#*******************                                                 
# Standard Cuts
#*******************                                                 
#                                                                    
#*********************************************************************
# Minimum and maximum pt's (for max, -1 means no cut)                *
#*********************************************************************
 20  = ptj       ! minimum pt for the jets 
  0  = ptb       ! minimum pt for the b 
 10  = pta       ! minimum pt for the photons 
 10  = ptl       ! minimum pt for the charged leptons 
  0  = misset    ! minimum missing Et (sum of neutrino's momenta)
  0  = ptheavy   ! minimum pt for one heavy final state
 1.0 = ptonium   ! minimum pt for the quarkonium states
 -1  = ptjmax    ! maximum pt for the jets
 -1  = ptbmax    ! maximum pt for the b
 -1  = ptamax    ! maximum pt for the photons
 -1  = ptlmax    ! maximum pt for the charged leptons
 -1  = missetmax ! maximum missing Et (sum of neutrino's momenta)
#*********************************************************************
# Minimum and maximum E's (in the center of mass frame)              *
#*********************************************************************
  0  = ej     ! minimum E for the jets 
  0  = eb     ! minimum E for the b 
  0  = ea     ! minimum E for the photons 
  0  = el     ! minimum E for the charged leptons 
 -1   = ejmax ! maximum E for the jets
 -1   = ebmax ! maximum E for the b
 -1   = eamax ! maximum E for the photons
 -1   = elmax ! maximum E for the charged leptons
#*********************************************************************
# Maximum and minimum absolute rapidity (for max, -1 means no cut)   *
#*********************************************************************
   5  = etaj    ! max rap for the jets 
  -1  = etab    ! max rap for the b
 2.5  = etaa    ! max rap for the photons 
 2.5  = etal    ! max rap for the charged leptons 
 0.6  = etaonium ! max rap for the quarkonium states
   0  = etajmin ! min rap for the jets
   0  = etabmin ! min rap for the b
   0  = etaamin ! min rap for the photons
   0  = etalmin ! main rap for the charged leptons
#*********************************************************************
# Minimum and maximum DeltaR distance                                *
#*********************************************************************
 0.4 = drjj    ! min distance between jets 
 0   = drbb    ! min distance between b's 
 0.4 = drll    ! min distance between leptons 
 0.4 = draa    ! min distance between gammas 
 0   = drbj    ! min distance between b and jet 
 0.4 = draj    ! min distance between gamma and jet 
 0.4 = drjl    ! min distance between jet and lepton 
 0   = drab    ! min distance between gamma and b 
 0   = drbl    ! min distance between b and lepton 
 0.4 = dral    ! min distance between gamma and lepton 
 -1  = drjjmax ! max distance between jets
 -1  = drbbmax ! max distance between b's
 -1  = drllmax ! max distance between leptons
 -1  = draamax ! max distance between gammas
 -1  = drbjmax ! max distance between b and jet
 -1  = drajmax ! max distance between gamma and jet
 -1  = drjlmax ! max distance between jet and lepton
 -1  = drabmax ! max distance between gamma and b
 -1  = drblmax ! max distance between b and lepton
 -1  = dralmax ! maxdistance between gamma and lepton
#*********************************************************************
# Minimum and maximum invariant mass for pairs                       *
# WARNING: for four lepton final state mmll cut require to have      *
#          different lepton masses for each flavor!                  *           
#*********************************************************************
 0   = mmjj    ! min invariant mass of a jet pair 
 0   = mmbb    ! min invariant mass of a b pair 
 0   = mmaa    ! min invariant mass of gamma gamma pair
 0   = mmll    ! min invariant mass of l+l- (same flavour) lepton pair
 -1  = mmjjmax ! max invariant mass of a jet pair
 -1  = mmbbmax ! max invariant mass of a b pair
 -1  = mmaamax ! max invariant mass of gamma gamma pair
 -1  = mmllmax ! max invariant mass of l+l- (same flavour) lepton pair
#*********************************************************************
# Minimum and maximum invariant mass for all letpons                 *
#*********************************************************************
 0   = mmnl    ! min invariant mass for all letpons (l+- and vl) 
 -1  = mmnlmax ! max invariant mass for all letpons (l+- and vl) 
#*********************************************************************
# Minimum and maximum pt for 4-momenta sum of leptons                *
#*********************************************************************
 0   = ptllmin  ! Minimum pt for 4-momenta sum of leptons(l and vl)
 -1  = ptllmax  ! Maximum pt for 4-momenta sum of leptons(l and vl)
#*********************************************************************
# Inclusive cuts                                                     *
#*********************************************************************
 0  = xptj ! minimum pt for at least one jet  
 0  = xptb ! minimum pt for at least one b 
 0  = xpta ! minimum pt for at least one photon 
 0  = xptl ! minimum pt for at least one charged lepton 
#*********************************************************************
# Control the pt's of the jets sorted by pt                          *
#*********************************************************************
 0   = ptj1min ! minimum pt for the leading jet in pt
 0   = ptj2min ! minimum pt for the second jet in pt
 0   = ptj3min ! minimum pt for the third jet in pt
 0   = ptj4min ! minimum pt for the fourth jet in pt
 -1  = ptj1max ! maximum pt for the leading jet in pt 
 -1  = ptj2max ! maximum pt for the second jet in pt
 -1  = ptj3max ! maximum pt for the third jet in pt
 -1  = ptj4max ! maximum pt for the fourth jet in pt
 0   = cutuse  ! reject event if fails any (0) / all (1) jet pt cuts
#*********************************************************************
# Control the pt's of leptons sorted by pt                           *
#*********************************************************************
 0   = ptl1min ! minimum pt for the leading lepton in pt
 0   = ptl2min ! minimum pt for the second lepton in pt
 0   = ptl3min ! minimum pt for the third lepton in pt
 0   = ptl4min ! minimum pt for the fourth lepton in pt
 -1  = ptl1max ! maximum pt for the leading lepton in pt 
 -1  = ptl2max ! maximum pt for the second lepton in pt
 -1  = ptl3max ! maximum pt for the third lepton in pt
 -1  = ptl4max ! maximum pt for the fourth lepton in pt
#*********************************************************************
# Control the Ht(k)=Sum of k leading jets                            *
#*********************************************************************
 0   = htjmin ! minimum jet HT=Sum(jet pt)
 -1  = htjmax ! maximum jet HT=Sum(jet pt)
 0   = ihtmin  !inclusive Ht for all partons (including b)
 -1  = ihtmax  !inclusive Ht for all partons (including b)
 0   = ht2min ! minimum Ht for the two leading jets
 0   = ht3min ! minimum Ht for the three leading jets
 0   = ht4min ! minimum Ht for the four leading jets
 -1  = ht2max ! maximum Ht for the two leading jets
 -1  = ht3max ! maximum Ht for the three leading jets
 -1  = ht4max ! maximum Ht for the four leading jets
#***********************************************************************
# Photon-isolation cuts, according to hep-ph/9801442                   *
# When ptgmin=0, all the other parameters are ignored                  *
# When ptgmin>0, pta and draj are not going to be used                 *
#***********************************************************************
   0 = ptgmin ! Min photon transverse momentum
 0.4 = R0gamma ! Radius of isolation code
 1.0 = xn ! n parameter of eq.(3.4) in hep-ph/9801442
 1.0 = epsgamma ! epsilon_gamma parameter of eq.(3.4) in hep-ph/9801442
 .true. = isoEM ! isolate photons from EM energy (photons and leptons)
#*********************************************************************
# WBF cuts                                                           *
#*********************************************************************
 0   = xetamin ! minimum rapidity for two jets in the WBF case  
 0   = deltaeta ! minimum rapidity for two jets in the WBF case 
#*********************************************************************
# KT DURHAM CUT                                                      *
#*********************************************************************
 -1    =  ktdurham        
 0.4  =  dparameter 
#*********************************************************************
# maximal pdg code for quark to be considered as a light jet         *
# (otherwise b cuts are applied)                                     *
#*********************************************************************
 4 = maxjetflavor    ! Maximum jet pdg code
#*********************************************************************
# Jet measure cuts                                                   *
#*********************************************************************
 0   = xqcut   ! minimum kt jet measure between partons
#*********************************************************************
#
#*********************************************************************
# Store info for systematics studies                                 *
# WARNING: If use_syst is T, matched Pythia output is                *
#          meaningful ONLY if plotted taking matchscale              *
#          reweighting into account!                                 *
#*********************************************************************
   F  = use_syst      ! Enable systematics studies
#
#**************************************
# Parameter of the systematics study
#  will be used by SysCalc (if installed)
#**************************************                                  
#
0.5 1 2 = sys_scalefact  # factorization/renormalization scale factor
0.5 1 2 = sys_alpsfact  # \alpha_s emission scale factors
30 50 = sys_matchscale # variation of merging scale
# PDF sets and number of members (0 or none for all members).
CT10nlo.LHgrid = sys_pdf # matching scales
# MSTW2008nlo68cl.LHgrid 1  = sys_pdf
</MGRunCard>
<slha>
######################################################################
## PARAM_CARD AUTOMATICALY GENERATED BY MG5 FOLLOWING UFO MODEL   ####
######################################################################
##                                                                  ##
##  Width set on Auto will be computed following the information    ##
##        present in the decay.py files of the model.               ##
##        See  arXiv:1402.1178 for more details.                    ##
##                                                                  ##
######################################################################

###################################
## INFORMATION FOR CKMBLOCK
###################################
Block ckmblock 
    1 2.277360e-01 # cabi 

###################################
## INFORMATION FOR FRBLOCK
###################################
Block frblock 
    1 1.400000e+00 # gz 

###################################
## INFORMATION FOR MASS
###################################
Block mass 
    1 5.040000e-03 # MD 
    2 2.550000e-03 # MU 
    3 1.010000e-01 # MS 
    4 1.270000e+00 # MC 
    5 4.700000e+00 # MB 
    6 1.720000e+02 # MT 
   11 5.110000e-04 # Me 
   13 1.056600e-01 # MM 
   15 1.777000e+00 # MTA 
   23 9.118760e+01 # MZ 
   25 1.200000e+02 # MH 
  10030 4.000000e+03 # MZph 
  10031 3.000000e+02 # MZpl 
## Dependent parameters, given by model restrictions.
## Those values should be edited following the 
## analytical expression. MG5 ignores those values 
## but they are important for interfacing the output of MG5
## to external program such as Pythia.
  12 0.000000 # ve : 0.0 
  14 0.000000 # vm : 0.0 
  16 0.000000 # vt : 0.0 
  21 0.000000 # g : 0.0 
  22 0.000000 # a : 0.0 
  24 79.824360 # w+ : cmath.sqrt(MZ__exp__2/2. + cmath.sqrt(MZ__exp__4/4. - (aEW*cmath.pi*MZ__exp__2)/(Gf*sqrt__2))) 

###################################
## INFORMATION FOR SMINPUTS
###################################
Block sminputs 
    1 1.279000e+02 # aEWM1 
    2 1.166370e-05 # Gf 
    3 1.184000e-01 # aS 

###################################
## INFORMATION FOR YUKAWA
###################################
Block yukawa 
    1 5.040000e-03 # ymdo 
    2 2.550000e-03 # ymup 
    3 1.010000e-01 # yms 
    4 1.270000e+00 # ymc 
    5 4.700000e+00 # ymb 
    6 1.720000e+02 # ymt 
   11 5.110000e-04 # yme 
   13 1.056600e-01 # ymm 
   15 1.777000e+00 # ymtau 

###################################
## INFORMATION FOR DECAY
###################################
DECAY   6 1.508336e+00 # WT 
DECAY  23 2.495200e+00 # WZ 
DECAY  24 2.085000e+00 # WW 
DECAY  25 5.753088e-03 # WH 
## Dependent parameters, given by model restrictions.
## Those values should be edited following the 
## analytical expression. MG5 ignores those values 
## but they are important for interfacing the output of MG5
## to external program such as Pythia.
DECAY  1 0.000000 # d : 0.0 
DECAY  2 0.000000 # u : 0.0 
DECAY  3 0.000000 # s : 0.0 
DECAY  4 0.000000 # c : 0.0 
DECAY  5 0.000000 # b : 0.0 
DECAY  11 0.000000 # e- : 0.0 
DECAY  12 0.000000 # ve : 0.0 
DECAY  13 0.000000 # mu- : 0.0 
DECAY  14 0.000000 # vm : 0.0 
DECAY  15 0.000000 # ta- : 0.0 
DECAY  16 0.000000 # vt : 0.0 
DECAY  21 0.000000 # g : 0.0 
DECAY  22 0.000000 # a : 0.0 
DECAY  10030 0.308725 # zph : (gz__exp__2*MZph*(5 + cmath.sqrt(1 - (4*MT__exp__2)/MZph__exp__2)))/(144.*cmath.pi) 
DECAY  10031 0.132629 # zpl : (5*gz__exp__2*MZpl)/(144.*cmath.pi) 
#===========================================================
# QUANTUM NUMBERS OF NEW STATE(S) (NON SM PDG CODE)
#===========================================================

Block QNUMBERS 10030  # zph 
        1 0  # 3 times electric charge
        2 3  # number of spin states (2S+1)
        3 1  # colour rep (1: singlet, 3: triplet, 8: octet)
        4 0  # Particle/Antiparticle distinction (0=own anti)
Block QNUMBERS 10031  # zpl 
        1 0  # 3 times electric charge
        2 3  # number of spin states (2S+1)
        3 1  # colour rep (1: singlet, 3: triplet, 8: octet)
        4 0  # Particle/Antiparticle distinction (0=own anti)
</slha>
## END BANNER##
<MGGenerationInfo>
#  Number of Events        :         3912
#  Integrated weight (pb)  :  0.10808E-03
#  Max wgt                 :  0.63143E-07
#  Average wgt             :  0.27628E-07
</MGGenerationInfo>
</header>
<init>
     2212     2212  0.40000000000E+04  0.40000000000E+04 0 0  247000  247000 2   1
  0.10810803766E-03  0.64350689256E-06  0.63143000000E-07   0
</init>
<event>
 5   0  0.4301754E-07  0.4077059E+04  0.7818609E-02  0.7989179E-01
        2   -1    0    0  501    0  0.00000000000E+00  0.00000000000E+00  0.13385438012E+04  0.13385438012E+04  0.25500000920E-02 0. -1.
       -2   -1    0    0    0  501  0.00000000000E+00  0.00000000000E+00 -0.31045691699E+04  0.31045691699E+04  0.25500000920E-02 0.  1.
    10030    2    1    2    0    0  0.00000000000E+00  0.00000000000E+00 -0.17660253687E+04  0.44431129711E+04  0.40770586544E+04 0.  0.
        1    1    3    3  502    0 -0.34704771036E+03  0.19692529739E+04 -0.13150985133E+04  0.23932997071E+04  0.50400001928E-02 0.  1.
       -1    1    3    3    0  502  0.34704771036E+03 -0.19692529739E+04 -0.45092685537E+03  0.20498132640E+04  0.50400001928E-02 0. -1.
</event>
<event>
 5   0  0.4301754E-07  0.4018429E+04  0.7818609E-02  0.8000839E-01
        2   -1    0    0  501    0  0.00000000000E+00  0.00000000000E+00  0.22854219432E+04  0.22854219432E+04  0.25500000920E-02 0.  1.
       -2   -1    0    0    0  501  0.00000000000E+00  0.00000000000E+00 -0.17663881889E+04  0.17663881889E+04  0.25500000920E-02 0. -1.
    10030    2    1    2    0    0  0.00000000000E+00  0.00000000000E+00  0.51903375429E+03  0.40518101321E+04  0.40184287114E+04 0.  0.
        1    1    3    3  502    0 -0.15140806231E+04 -0.11307503207E+04  0.94776007204E+03  0.21140684887E+04  0.50400001928E-02 0.  1.
       -1    1    3    3    0  502  0.15140806231E+04  0.11307503207E+04 -0.42872631775E+03  0.19377416434E+04  0.50400001928E-02 0. -1.
</event>
<event>
 5   0  0.4077370E-07  0.4017216E+04  0.7818609E-02  0.8001083E-01
        2   -1    0    0  501    0  0.00000000000E+00  0.00000000000E+00  0.26431151605E+04  0.26431151605E+04  0.25500000920E-02 0.  1.
       -2   -1    0    0    0  501  0.00000000000E+00  0.00000000000E+00 -0.15264205845E+04  0.15264205845E+04  0.25500000920E-02 0. -1.
    10030    2    1    2    0    0  0.00000000000E+00  0.00000000000E+00  0.11166945760E+04  0.41695357450E+04  0.40172156468E+04 0.  0.
        3    1    3    3  502    0 -0.42060356218E+03  0.17739543629E+04  0.14333326881E+04  0.23191084587E+04  0.10100000352E+00 0.  1.
       -3    1    3    3    0  502  0.42060356218E+03 -0.17739543629E+04 -0.31663811206E+03  0.18504272864E+04  0.10100000352E+00 0. -1.
</event>
<event>
 5   0  0.4301754E-07  0.3932683E+04  0.7818609E-02  0.8018266E-01
        2   -1    0    0  501    0  0.00000000000E+00  0.00000000000E+00  0.25683956636E+04  0.25683956636E+04  0.25500000920E-02 0.  1.
       -2   -1    0    0    0  501  0.00000000000E+00  0.00000000000E+00 -0.15054138747E+04  0.15054138747E+04  0.25500000920E-02 0. -1.
    10030    2    1    2    0    0  0.00000000000E+00  0.00000000000E+00  0.10629817889E+04  0.40738095383E+04  0.39326827829E+04 0.  0.
        1    1    3    3  502    0 -0.17611077236E+04 -0.66351397698E+02 -0.37192700849E+03  0.18011753445E+04  0.50400001928E-02 0.  1.
       -1    1    3    3    0  502  0.17611077236E+04  0.66351397698E+02  0.14349087974E+04  0.22726341938E+04  0.50400001928E-02 0. -1.
</event>
<event>
 5   0  0.4077370E-07  0.3921213E+04  0.7818609E-02  0.8020632E-01
        2   -1    0    0  501    0  0.00000000000E+00  0.00000000000E+00  0.17643653260E+04  0.17643653260E+04  0.25500000920E-02 0.  1.
       -2   -1    0    0    0  501  0.00000000000E+00  0.00000000000E+00 -0.21786745527E+04  0.21786745527E+04  0.25500000920E-02 0. -1.
    10030    2    1    2    0    0  0.00000000000E+00  0.00000000000E+00 -0.41430922678E+03  0.39430398787E+04  0.39212129947E+04 0.  0.
        3    1    3    3  502    0 -0.70209661568E+02 -0.39979445223E+03  0.17216498019E+04  0.17688535980E+04  0.10100000352E+00 0.  1.
       -3    1    3    3    0  502  0.70209661568E+02  0.39979445223E+03 -0.21359590287E+04  0.21741862807E+04  0.10100000352E+00 0. -1.
</event>
<event>
 5   0  0.1372952E-07  0.4019777E+04  0.7818609E-02  0.8000569E-01
        1   -1    0    0  501    0  0.00000000000E+00  0.00000000000E+00  0.24661716086E+04  0.24661716086E+04  0.50400001928E-02 0. -1.
       -1   -1    0    0    0  501  0.00000000000E+00  0.00000000000E+00 -0.16380253188E+04  0.16380253188E+04  0.50400001928E-02 0.  1.
    10030    2    1    2    0    0  0.00000000000E+00  0.00000000000E+00  0.82814628980E+03  0.41041969273E+04  0.40197768770E+04 0.  0.
        1    1    3    3  502    0 -0.18727268563E+04 -0.72342664803E+03  0.31614459066E+03  0.20323384058E+04  0.50400001928E-02 0. -1.
       -1    1    3    3    0  502  0.18727268563E+04  0.72342664803E+03  0.51200169914E+03  0.20718585215E+04  0.50400001928E-02 0.  1.
</event>
<event>
 5   0  0.1351000E-07  0.3608384E+04  0.7818609E-02  0.8088574E-01
        1   -1    0    0  501    0  0.00000000000E+00  0.00000000000E+00  0.20550437117E+04  0.20550437117E+04  0.50400001928E-02 0.  1.
       -1   -1    0    0    0  501  0.00000000000E+00  0.00000000000E+00 -0.15839611518E+04  0.15839611518E+04  0.50400001928E-02 0. -1.
    10030    2    1    2    0    0  0.00000000000E+00  0.00000000000E+00  0.47108255991E+03  0.36390048635E+04  0.36083843502E+04 0.  0.
        3    1    3    3  502    0  0.17248728130E+04 -0.48348876985E+03  0.45221744095E+03  0.18475519575E+04  0.10100000352E+00 0. -1.
       -3    1    3    3    0  502 -0.17248728130E+04  0.48348876985E+03  0.18865118964E+02  0.17914529060E+04  0.10100000352E+00 0.  1.
</event>
<event>
 5   0  0.5217348E-07  0.2557700E+04  0.7818609E-02  0.8382713E-01
       -2   -1    0    0    0  501  0.00000000000E+00  0.00000000000E+00  0.99549887939E+03  0.99549887939E+03  0.25500000920E-02 0. -1.
        2   -1    0    0  501    0  0.00000000000E+00  0.00000000000E+00 -0.16428514612E+04  0.16428514612E+04  0.25500000920E-02 0.  1.
    10030    2    1    2    0    0  0.00000000000E+00  0.00000000000E+00 -0.64735258182E+03  0.26383503406E+04  0.25576995825E+04 0.  0.
        1    1    3    3  502    0  0.31349150864E+03 -0.33019979770E+03 -0.15564107405E+04  0.16216421385E+04  0.50400001928E-02 0.  1.
       -1    1    3    3    0  502 -0.31349150864E+03  0.33019979770E+03  0.90905815863E+03  0.10167082021E+04  0.50400001928E-02 0. -1.
</event>
<event>
 5   0  0.1421304E-07  0.4073264E+04  0.7818609E-02  0.7989928E-01
       -1   -1    0    0    0  501  0.00000000000E+00  0.00000000000E+00  0.20070702642E+04  0.20070702642E+04  0.50400001928E-02 0. -1.
        1   -1    0    0  501    0  0.00000000000E+00  0.00000000000E+00 -0.20666290843E+04  0.20666290843E+04  0.50400001928E-02 0.  1.
    10030    2    1    2    0    0  0.00000000000E+00  0.00000000000E+00 -0.59558820187E+02  0.40736993485E+04  0.40732639405E+04 0.  0.
        2    1    3    3  502    0 -0.13480978577E+04 -0.15959636774E+03  0.14886157172E+04  0.20146502396E+04  0.25500000920E-02 0. -1.
       -2    1    3    3    0  502  0.13480978577E+04  0.15959636774E+03 -0.15481745374E+04  0.20590491089E+04  0.25500000920E-02 0.  1.
</event>
<event>
 5   0  0.4301754E-07  0.4110604E+04  0.7818609E-02  0.7982598E-01
        2   -1    0    0  501    0  0.00000000000E+00  0.00000000000E+00  0.23976201083E+04  0.23976201083E+04  0.25500000920E-02 0. -1.
       -2   -1    0    0    0  501  0.00000000000E+00  0.00000000000E+00 -0.17618582216E+04  0.17618582216E+04  0.25500000920E-02 0.  1.
    10030    2    1    2    0    0  0.00000000000E+00  0.00000000000E+00  0.63576188668E+03  0.41594783300E+04  0.41106041893E+04 0.  0.
        1    1    3    3  502    0 -0.12645557752E+04  0.15918886703E+04  0.62322336009E+03  0.21264096981E+04  0.50400001928E-02 0. -1.
       -1    1    3    3    0  502  0.12645557752E+04 -0.15918886703E+04  0.12538526596E+02  0.20330686319E+04  0.50400001928E-02 0.  1.
</event>
<event>
 5   0  0.4047916E-07  0.3904375E+04  0.7818609E-02  0.8024120E-01
        2   -1    0    0  501    0  0.00000000000E+00  0.00000000000E+00  0.15295858177E+04  0.15295858177E+04  0.25500000920E-02 0.  1.
       -2   -1    0    0    0  501  0.00000000000E+00  0.00000000000E+00 -0.24915473227E+04  0.24915473227E+04  0.25500000920E-02 0. -1.
    10030    2    1    2    0    0  0.00000000000E+00  0.00000000000E+00 -0.96196150498E+03  0.40211331403E+04  0.39043746996E+04 0.  0.
        5    1    3    3  502    0 -0.39433128342E+03 -0.57189165817E+03 -0.23599444160E+04  0.24600644233E+04  0.46999998093E+01 0. -1.
       -5    1    3    3    0  502  0.39433128342E+03  0.57189165817E+03  0.13979829111E+04  0.15610687171E+04  0.46999998093E+01 0.  1.
</event>
<event>
 5   0  0.4047916E-07  0.3981479E+04  0.7818609E-02  0.8008293E-01
       -2   -1    0    0    0  501  0.00000000000E+00  0.00000000000E+00  0.16774484030E+04  0.16774484030E+04  0.25500000920E-02 0. -1.
        2   -1    0    0  501    0  0.00000000000E+00  0.00000000000E+00 -0.23625426508E+04  0.23625426508E+04  0.25500000920E-02 0.  1.
    10030    2    1    2    0    0  0.00000000000E+00  0.00000000000E+00 -0.68509424779E+03  0.40399910538E+04  0.39814788190E+04 0.  0.
        5    1    3    3  502    0  0.14294250202E+04  0.70955282123E+03 -0.15501208460E+04  0.22247736563E+04  0.46999998093E+01 0.  1.
       -5    1    3    3    0  502 -0.14294250202E+04 -0.70955282123E+03  0.86502659824E+03  0.18152173975E+04  0.46999998093E+01 0. -1.
</event>
<event>
 5   0  0.1368865E-07  0.4084829E+04  0.7818609E-02  0.7987649E-01
        1   -1    0    0  501    0  0.00000000000E+00  0.00000000000E+00  0.20351098077E+04  0.20351098077E+04  0.50400001928E-02 0. -1.
       -1   -1    0    0    0  501  0.00000000000E+00  0.00000000000E+00 -0.20497455096E+04  0.20497455096E+04  0.50400001928E-02 0.  1.
    10030    2    1    2    0    0  0.00000000000E+00  0.00000000000E+00 -0.14635701868E+02  0.40848553173E+04  0.40848290980E+04 0.  0.
        5    1    3    3  502    0 -0.17385666297E+04  0.38326307197E+03  0.99365340431E+03  0.20388412607E+04  0.46999998093E+01 0.  1.
       -5    1    3    3    0  502  0.17385666297E+04 -0.38326307197E+03 -0.10082891062E+04  0.20460140566E+04  0.46999998093E+01 0. -1.
</event>
<event>
 5   0  0.1372952E-07  0.3944237E+04  0.7818609E-02  0.8015891E-01
        1   -1    0    0  501    0  0.00000000000E+00  0.00000000000E+00  0.28009448227E+04  0.28009448227E+04  0.50400001928E-02 0.  1.
       -1   -1    0    0    0  501  0.00000000000E+00  0.00000000000E+00 -0.13885497621E+04  0.13885497621E+04  0.50400001928E-02 0. -1.
    10030    2    1    2    0    0  0.00000000000E+00  0.00000000000E+00  0.14123950606E+04  0.41894945848E+04  0.39442369438E+04 0.  0.
        1    1    3    3  502    0 -0.13144321608E+04  0.68697547069E+03 -0.67446818052E+03  0.16292865093E+04  0.50400001928E-02 0. -1.
       -1    1    3    3    0  502  0.13144321608E+04 -0.68697547069E+03  0.20868632411E+04  0.25602080755E+04  0.50400001928E-02 0.  1.
</event>
<event>
 5   0  0.1351000E-07  0.4109091E+04  0.7818609E-02  0.7982894E-01
        1   -1    0    0  501    0  0.00000000000E+00  0.00000000000E+00  0.16240378211E+04  0.16240378211E+04  0.50400001928E-02 0.  1.
       -1   -1    0    0    0  501  0.00000000000E+00  0.00000000000E+00 -0.25991735904E+04  0.25991735904E+04  0.50400001928E-02 0. -1.
    10030    2    1    2    0    0  0.00000000000E+00  0.00000000000E+00 -0.97513576935E+03  0.42232114115E+04  0.41090905146E+04 0.  0.
        3    1    3    3  502    0 -0.17553130426E+04 -0.81139939545E+03 -0.12008624488E+04  0.22763047880E+04  0.10100000352E+00 0. -1.
       -3    1    3    3    0  502  0.17553130426E+04  0.81139939545E+03  0.22572667948E+03  0.19469066235E+04  0.10100000352E+00 0.  1.
</event>
<event>
 5   0  0.1351000E-07  0.3996563E+04  0.7818609E-02  0.8005240E-01
        1   -1    0    0  501    0  0.00000000000E+00  0.00000000000E+00  0.15777846737E+04  0.15777846737E+04  0.50400001928E-02 0.  1.
       -1   -1    0    0    0  501  0.00000000000E+00  0.00000000000E+00 -0.25308457194E+04  0.25308457194E+04  0.50400001928E-02 0. -1.
    10030    2    1    2    0    0  0.00000000000E+00  0.00000000000E+00 -0.95306104575E+03  0.41086303931E+04  0.39965633174E+04 0.  0.
        3    1    3    3  502    0  0.16343962873E+04  0.84640685925E+03 -0.12764716907E+04  0.22398740551E+04  0.10100000352E+00 0. -1.
       -3    1    3    3    0  502 -0.16343962873E+04 -0.84640685925E+03  0.32341064491E+03  0.18687563380E+04  0.10100000352E+00 0.  1.
</event>
<event>
 5   0  0.4301754E-07  0.3994604E+04  0.7818609E-02  0.8005636E-01
        2   -1    0    0  501    0  0.00000000000E+00  0.00000000000E+00  0.18605114274E+04  0.18605114274E+04  0.25500000920E-02 0. -1.
       -2   -1    0    0    0  501  0.00000000000E+00  0.00000000000E+00 -0.21441496319E+04  0.21441496319E+04  0.25500000920E-02 0.  1.
    10030    2    1    2    0    0  0.00000000000E+00  0.00000000000E+00 -0.28363820447E+03  0.40046610594E+04  0.39946038063E+04 0.  0.
        1    1    3    3  502    0 -0.14186834632E+04 -0.11158673462E+04  0.71554878375E+03  0.19416057182E+04  0.50400001928E-02 0.  1.
       -1    1    3    3    0  502  0.14186834632E+04  0.11158673462E+04 -0.99918698822E+03  0.20630553411E+04  0.50400001928E-02 0. -1.
</event>
<event>
 5   0  0.1351000E-07  0.3984111E+04  0.7818609E-02  0.8007760E-01
        1   -1    0    0  501    0  0.00000000000E+00  0.00000000000E+00  0.21497080950E+04  0.21497080950E+04  0.50400001928E-02 0. -1.
       -1   -1    0    0    0  501  0.00000000000E+00  0.00000000000E+00 -0.18459647346E+04  0.18459647346E+04  0.50400001928E-02 0.  1.
    10030    2    1    2    0    0  0.00000000000E+00  0.00000000000E+00  0.30374336039E+03  0.39956728295E+04  0.39841111094E+04 0.  0.
        4    1    3    3  502    0  0.53731532291E+03 -0.26104520391E+03 -0.17540197693E+04  0.18529542139E+04  0.12699999809E+01 0.  1.
       -4    1    3    3    0  502 -0.53731532291E+03  0.26104520391E+03  0.20577631297E+04  0.21427186156E+04  0.12699999809E+01 0. -1.
</event>
<event>
 5   0  0.1372952E-07  0.3965120E+04  0.7818609E-02  0.8011620E-01
       -1   -1    0    0    0  501  0.00000000000E+00  0.00000000000E+00  0.13021559623E+04  0.13021559623E+04  0.50400001928E-02 0.  1.
        1   -1    0    0  501    0  0.00000000000E+00  0.00000000000E+00 -0.30184890997E+04  0.30184890997E+04  0.50400001928E-02 0. -1.
    10030    2    1    2    0    0  0.00000000000E+00  0.00000000000E+00 -0.17163331374E+04  0.43206450621E+04  0.39651197099E+04 0.  0.
        1    1    3    3  502    0 -0.18602752758E+04  0.61477047213E+03 -0.52769713111E+03  0.20290468445E+04  0.50400001928E-02 0. -1.
       -1    1    3    3    0  502  0.18602752758E+04 -0.61477047213E+03 -0.11886360063E+04  0.22915982175E+04  0.50400001928E-02 0.  1.
</event>
<event>
 5   0  0.4149487E-07  0.2603483E+04  0.7818609E-02  0.8367019E-01
       -2   -1    0    0    0  501  0.00000000000E+00  0.00000000000E+00  0.65004621486E+03  0.65004621487E+03  0.25500000920E-02 0.  1.
        2   -1    0    0  501    0  0.00000000000E+00  0.00000000000E+00 -0.26067860109E+04  0.26067860109E+04  0.25500000920E-02 0. -1.
    10030    2    1    2    0    0  0.00000000000E+00  0.00000000000E+00 -0.19567397960E+04  0.32568322257E+04  0.26034833430E+04 0.  0.
        2    1    3    3  502    0  0.46830286101E+03  0.90369565624E+03 -0.19935371241E+04  0.22383394903E+04  0.25500000920E-02 0. -1.
       -2    1    3    3    0  502 -0.46830286101E+03 -0.90369565624E+03  0.36797328094E+02  0.10184927354E+04  0.25500000920E-02 0.  1.
</event>
<event>
 5   0  0.1351000E-07  0.3853043E+04  0.7818609E-02  0.8034867E-01
       -1   -1    0    0    0  501  0.00000000000E+00  0.00000000000E+00  0.31944551258E+04  0.31944551258E+04  0.50400001928E-02 0. -1.
        1   -1    0    0  501    0  0.00000000000E+00  0.00000000000E+00 -0.11618520259E+04  0.11618520259E+04  0.50400001928E-02 0.  1.
    10030    2    1    2    0    0  0.00000000000E+00  0.00000000000E+00  0.20326031000E+04  0.43563071517E+04  0.38530425170E+04 0.  0.
        3    1    3    3  502    0  0.45299165367E+03  0.33484419131E+03 -0.10666586908E+04  0.12062681474E+04  0.10100000352E+00 0.  1.
       -3    1    3    3    0  502 -0.45299165367E+03 -0.33484419131E+03  0.30992617907E+04  0.31500390043E+04  0.10100000352E+00 0. -1.
</event>
<event>
 5   0  0.4077370E-07  0.3928969E+04  0.7818609E-02  0.8019031E-01
        2   -1    0    0  501    0  0.00000000000E+00  0.00000000000E+00  0.17666142856E+04  0.17666142856E+04  0.25500000920E-02 0. -1.
       -2   -1    0    0    0  501  0.00000000000E+00  0.00000000000E+00 -0.21845168805E+04  0.21845168805E+04  0.25500000920E-02 0.  1.
    10030    2    1    2    0    0  0.00000000000E+00  0.00000000000E+00 -0.41790259497E+03  0.39511311661E+04  0.39289686831E+04 0.  0.
        3    1    3    3  502    0 -0.79992389687E+03  0.17942161687E+04 -0.21944168139E+03  0.19766751283E+04  0.10100000352E+00 0.  1.
       -3    1    3    3    0  502  0.79992389687E+03 -0.17942161687E+04 -0.19846091358E+03  0.19744560378E+04  0.10100000352E+00 0. -1.
</event>
<event>
 5   0  0.1372952E-07  0.3959726E+04  0.7818609E-02  0.8012721E-01
       -1   -1    0    0    0  501  0.00000000000E+00  0.00000000000E+00  0.24627294485E+04  0.24627294485E+04  0.50400001928E-02 0.  1.
        1   -1    0    0  501    0  0.00000000000E+00  0.00000000000E+00 -0.15916722736E+04  0.15916722736E+04  0.50400001928E-02 0. -1.
    10030    2    1    2    0    0  0.00000000000E+00  0.00000000000E+00  0.87105717490E+03  0.40544017221E+04  0.39597263444E+04 0.  0.
        1    1    3    3  502    0 -0.36524965719E+03  0.17575983681E+04 -0.41948118306E+03  0.18435085567E+04  0.50400001928E-02 0. -1.
       -1    1    3    3    0  502  0.36524965719E+03 -0.17575983681E+04  0.12905383580E+04  0.22108931654E+04  0.50400001928E-02 0.  1.
</event>
<event>
 5   0  0.4149487E-07  0.3047307E+04  0.7818609E-02  0.8230350E-01
        2   -1    0    0  501    0  0.00000000000E+00  0.00000000000E+00  0.20210012701E+04  0.20210012701E+04  0.25500000920E-02 0.  1.
       -2   -1    0    0    0  501  0.00000000000E+00  0.00000000000E+00 -0.11486978217E+04  0.11486978217E+04  0.25500000920E-02 0. -1.
    10030    2    1    2    0    0  0.00000000000E+00  0.00000000000E+00  0.87230344843E+03  0.31696990918E+04  0.30473068481E+04 0.  0.
        2    1    3    3  502    0  0.10909525453E+04 -0.21929930320E+03 -0.64644378172E+03  0.12869184913E+04  0.25500000920E-02 0. -1.
       -2    1    3    3    0  502 -0.10909525453E+04  0.21929930320E+03  0.15187472301E+04  0.18827806005E+04  0.25500000920E-02 0.  1.
</event>
<event>
 5   0  0.1421304E-07  0.4004785E+04  0.7818609E-02  0.8003582E-01
        1   -1    0    0  501    0  0.00000000000E+00  0.00000000000E+00  0.20636882270E+04  0.20636882270E+04  0.50400001928E-02 0. -1.
       -1   -1    0    0    0  501  0.00000000000E+00  0.00000000000E+00 -0.19429177907E+04  0.19429177907E+04  0.50400001928E-02 0.  1.
    10030    2    1    2    0    0  0.00000000000E+00  0.00000000000E+00  0.12077043630E+03  0.40066060176E+04  0.40047854227E+04 0.  0.
        2    1    3    3  502    0 -0.16864756049E+04 -0.43313952180E+03 -0.92888519804E+03  0.19734836008E+04  0.25500000920E-02 0.  1.
       -2    1    3    3    0  502  0.16864756049E+04  0.43313952180E+03  0.10496556343E+04  0.20331224169E+04  0.25500000920E-02 0. -1.
</event>
<event>
 5   0  0.4077370E-07  0.3853627E+04  0.7818609E-02  0.8034744E-01
       -2   -1    0    0    0  501  0.00000000000E+00  0.00000000000E+00  0.23448968217E+04  0.23448968217E+04  0.25500000920E-02 0. -1.
        2   -1    0    0  501    0  0.00000000000E+00  0.00000000000E+00 -0.15832721930E+04  0.15832721930E+04  0.25500000920E-02 0.  1.
    10030    2    1    2    0    0  0.00000000000E+00  0.00000000000E+00  0.76162462868E+03  0.39281690147E+04  0.38536268285E+04 0.  0.
        3    1    3    3  502    0 -0.47838204059E+03 -0.79085200527E+03  0.21041701003E+04  0.22982228117E+04  0.10100000352E+00 0. -1.
       -3    1    3    3    0  502  0.47838204059E+03  0.79085200527E+03 -0.13425454716E+04  0.16299462030E+04  0.10100000352E+00 0.  1.
</event>
<event>
 5   0  0.4047916E-07  0.3811656E+04  0.7818609E-02  0.8043658E-01
        2   -1    0    0  501    0  0.00000000000E+00  0.00000000000E+00  0.21212116731E+04  0.21212116731E+04  0.25500000920E-02 0. -1.
       -2   -1    0    0    0  501  0.00000000000E+00  0.00000000000E+00 -0.17123135562E+04  0.17123135562E+04  0.25500000920E-02 0.  1.
    10030    2    1    2    0    0  0.00000000000E+00  0.00000000000E+00  0.40889811699E+03  0.38335252293E+04  0.38116555476E+04 0.  0.
        5    1    3    3  502    0  0.16274919446E+04 -0.47286287469E+03  0.10811315830E+04  0.20102728466E+04  0.46999998093E+01 0. -1.
       -5    1    3    3    0  502 -0.16274919446E+04  0.47286287469E+03 -0.67223346602E+03  0.18232523827E+04  0.46999998093E+01 0.  1.
</event>
<event>
 5   0  0.1421304E-07  0.2663875E+04  0.7818609E-02  0.8346822E-01
       -1   -1    0    0    0  501  0.00000000000E+00  0.00000000000E+00  0.10901038101E+04  0.10901038101E+04  0.50400001928E-02 0. -1.
        1   -1    0    0  501    0  0.00000000000E+00  0.00000000000E+00 -0.16274207988E+04  0.16274207988E+04  0.50400001928E-02 0.  1.
    10030    2    1    2    0    0  0.00000000000E+00  0.00000000000E+00 -0.53731698873E+03  0.27175246089E+04  0.26638750822E+04 0.  0.
        2    1    3    3  502    0  0.12788371627E+04 -0.32571236903E+03 -0.84624120288E+02  0.13223744847E+04  0.25500000920E-02 0.  1.
       -2    1    3    3    0  502 -0.12788371627E+04  0.32571236903E+03 -0.45269286845E+03  0.13951501242E+04  0.25500000920E-02 0. -1.
</event>
<event>
 5   0  0.4077370E-07  0.3877825E+04  0.7818609E-02  0.8029657E-01
        2   -1    0    0  501    0  0.00000000000E+00  0.00000000000E+00  0.23580120127E+04  0.23580120127E+04  0.25500000920E-02 0.  1.
       -2   -1    0    0    0  501  0.00000000000E+00  0.00000000000E+00 -0.15943009334E+04  0.15943009334E+04  0.25500000920E-02 0. -1.
    10030    2    1    2    0    0  0.00000000000E+00  0.00000000000E+00  0.76371107927E+03  0.39523129461E+04  0.38778245204E+04 0.  0.
        3    1    3    3  502    0  0.54560321437E+03 -0.12638336933E+04 -0.10098114101E+04  0.17072426793E+04  0.10100000352E+00 0. -1.
       -3    1    3    3    0  502 -0.54560321437E+03  0.12638336933E+04  0.17735224894E+04  0.22450702667E+04  0.10100000352E+00 0.  1.
</event>
<event>
 5   0  0.4301754E-07  0.4083753E+04  0.7818609E-02  0.7987861E-01
       -2   -1    0    0    0  501  0.00000000000E+00  0.00000000000E+00  0.26064339571E+04  0.26064339571E+04  0.25500000920E-02 0. -1.
        2   -1    0    0  501    0  0.00000000000E+00  0.00000000000E+00 -0.15996032313E+04  0.15996032313E+04  0.25500000920E-02 0.  1.
    10030    2    1    2    0    0  0.00000000000E+00  0.00000000000E+00  0.10068307258E+04  0.42060371884E+04  0.40837532638E+04 0.  0.
        1    1    3    3  502    0 -0.58392280391E+03  0.16565257632E+04 -0.56902133517E+03  0.18463013635E+04  0.50400001928E-02 0.  1.
       -1    1    3    3    0  502  0.58392280391E+03 -0.16565257632E+04  0.15758520609E+04  0.23597358248E+04  0.50400001928E-02 0. -1.
</event>
<event>
 5   0  0.1368865E-07  0.3936888E+04  0.7818609E-02  0.8017401E-01
       -1   -1    0    0    0  501  0.00000000000E+00  0.00000000000E+00  0.25524808677E+04  0.25524808678E+04  0.50400001928E-02 0. -1.
        1   -1    0    0  501    0  0.00000000000E+00  0.00000000000E+00 -0.15180418016E+04  0.15180418017E+04  0.50400001928E-02 0.  1.
    10030    2    1    2    0    0  0.00000000000E+00  0.00000000000E+00  0.10344390661E+04  0.40705226694E+04  0.39368884440E+04 0.  0.
        5    1    3    3  502    0  0.13526901900E+03  0.27599107139E+03 -0.14930725202E+04  0.15243872276E+04  0.46999998093E+01 0.  1.
       -5    1    3    3    0  502 -0.13526901900E+03 -0.27599107139E+03  0.25275115863E+04  0.25461354418E+04  0.46999998093E+01 0. -1.
</event>
<event>
 5   0  0.4077370E-07  0.3551083E+04  0.7818609E-02  0.8101790E-01
       -2   -1    0    0    0  501  0.00000000000E+00  0.00000000000E+00  0.17585719515E+04  0.17585719515E+04  0.25500000920E-02 0. -1.
        2   -1    0    0  501    0  0.00000000000E+00  0.00000000000E+00 -0.17926745625E+04  0.17926745625E+04  0.25500000920E-02 0.  1.
    10030    2    1    2    0    0  0.00000000000E+00  0.00000000000E+00 -0.34102611006E+02  0.35512465139E+04  0.35510827665E+04 0.  0.
        3    1    3    3  502    0  0.97786890927E+03  0.60514685619E+03 -0.13699318090E+04  0.17886149649E+04  0.10100000352E+00 0.  1.
       -3    1    3    3    0  502 -0.97786890927E+03 -0.60514685619E+03  0.13358291980E+04  0.17626315490E+04  0.10100000352E+00 0. -1.
</event>
<event>
 5   0  0.1351000E-07  0.3685920E+04  0.7818609E-02  0.8071089E-01
       -1   -1    0    0    0  501  0.00000000000E+00  0.00000000000E+00  0.18526671995E+04  0.18526671995E+04  0.50400001928E-02 0. -1.
        1   -1    0    0  501    0  0.00000000000E+00  0.00000000000E+00 -0.18333036725E+04  0.18333036725E+04  0.50400001928E-02 0.  1.
    10030    2    1    2    0    0  0.00000000000E+00  0.00000000000E+00  0.19363527046E+02  0.36859708721E+04  0.36859200104E+04 0.  0.
        4    1    3    3  502    0 -0.15957682815E+04 -0.44127358113E+02  0.93060507261E+03  0.18478233265E+04  0.12699999809E+01 0. -1.
       -4    1    3    3    0  502  0.15957682815E+04  0.44127358113E+02 -0.91124154557E+03  0.18381475455E+04  0.12699999809E+01 0.  1.
</event>
<event>
 5   0  0.1372952E-07  0.3137687E+04  0.7818609E-02  0.8205471E-01
       -1   -1    0    0    0  501  0.00000000000E+00  0.00000000000E+00  0.13657759214E+04  0.13657759214E+04  0.50400001928E-02 0.  1.
        1   -1    0    0  501    0  0.00000000000E+00  0.00000000000E+00 -0.18021033348E+04  0.18021033349E+04  0.50400001928E-02 0. -1.
    10030    2    1    2    0    0  0.00000000000E+00  0.00000000000E+00 -0.43632741346E+03  0.31678792562E+04  0.31376866272E+04 0.  0.
        1    1    3    3  502    0  0.55078569406E+03 -0.79682642013E+03  0.10277989600E+04  0.14123271317E+04  0.50400001928E-02 0.  1.
       -1    1    3    3    0  502 -0.55078569406E+03  0.79682642013E+03 -0.14641263735E+04  0.17555521246E+04  0.50400001928E-02 0. -1.
</event>
<event>
 5   0  0.1351000E-07  0.2694188E+04  0.7818609E-02  0.8336893E-01
        1   -1    0    0  501    0  0.00000000000E+00  0.00000000000E+00  0.15078180515E+04  0.15078180515E+04  0.50400001928E-02 0.  1.
       -1   -1    0    0    0  501  0.00000000000E+00  0.00000000000E+00 -0.12035021967E+04  0.12035021967E+04  0.50400001928E-02 0. -1.
    10030    2    1    2    0    0  0.00000000000E+00  0.00000000000E+00  0.30431585481E+03  0.27113202483E+04  0.26941880687E+04 0.  0.
        3    1    3    3  502    0 -0.33007896207E+02 -0.49588950615E+02  0.15064918975E+04  0.15076692054E+04  0.10100000352E+00 0.  1.
       -3    1    3    3    0  502  0.33007896207E+02  0.49588950615E+02 -0.12021760427E+04  0.12036510429E+04  0.10100000352E+00 0. -1.
</event>
<event>
 5   0  0.4079777E-07  0.4092469E+04  0.7818609E-02  0.7986148E-01
       -2   -1    0    0    0  501  0.00000000000E+00  0.00000000000E+00  0.16929207673E+04  0.16929207673E+04  0.25500000920E-02 0. -1.
        2   -1    0    0  501    0  0.00000000000E+00  0.00000000000E+00 -0.24732847293E+04  0.24732847293E+04  0.25500000920E-02 0.  1.
    10030    2    1    2    0    0  0.00000000000E+00  0.00000000000E+00 -0.78036396205E+03  0.41662054966E+04  0.40924687325E+04 0.  0.
        4    1    3    3  502    0  0.12008148612E+04 -0.12436967914E+04 -0.15045907412E+04  0.22918405160E+04  0.12699999809E+01 0.  1.
       -4    1    3    3    0  502 -0.12008148612E+04  0.12436967914E+04  0.72422677911E+03  0.18743649805E+04  0.12699999809E+01 0. -1.
</event>
<event>
 5   0  0.4079777E-07  0.4094728E+04  0.7818609E-02  0.7985705E-01
        2   -1    0    0  501    0  0.00000000000E+00  0.00000000000E+00  0.27342577341E+04  0.27342577341E+04  0.25500000920E-02 0. -1.
       -2   -1    0    0    0  501  0.00000000000E+00  0.00000000000E+00 -0.15330304167E+04  0.15330304167E+04  0.25500000920E-02 0.  1.
    10030    2    1    2    0    0  0.00000000000E+00  0.00000000000E+00  0.12012273174E+04  0.42672881508E+04  0.40947284518E+04 0.  0.
        4    1    3    3  502    0 -0.86407765596E+03  0.58713960778E+03 -0.12343658273E+04  0.16171034980E+04  0.12699999809E+01 0.  1.
       -4    1    3    3    0  502  0.86407765596E+03 -0.58713960778E+03  0.24355931448E+04  0.26501846529E+04  0.12699999809E+01 0. -1.
</event>
<event>
 5   0  0.4047916E-07  0.4011903E+04  0.7818609E-02  0.8002150E-01
        2   -1    0    0  501    0  0.00000000000E+00  0.00000000000E+00  0.17673042793E+04  0.17673042793E+04  0.25500000920E-02 0.  1.
       -2   -1    0    0    0  501  0.00000000000E+00  0.00000000000E+00 -0.22768240392E+04  0.22768240392E+04  0.25500000920E-02 0. -1.
    10030    2    1    2    0    0  0.00000000000E+00  0.00000000000E+00 -0.50951975999E+03  0.40441283185E+04  0.40119027245E+04 0.  0.
        5    1    3    3  502    0 -0.14426892205E+04  0.12676040677E+04 -0.83876359006E+03  0.20956427915E+04  0.46999998093E+01 0. -1.
       -5    1    3    3    0  502  0.14426892205E+04 -0.12676040677E+04  0.32924383006E+03  0.19484855270E+04  0.46999998093E+01 0.  1.
</event>
<event>
 5   0  0.1351000E-07  0.2518076E+04  0.7818609E-02  0.8396574E-01
        1   -1    0    0  501    0  0.00000000000E+00  0.00000000000E+00  0.16543398567E+04  0.16543398567E+04  0.50400001928E-02 0. -1.
       -1   -1    0    0    0  501  0.00000000000E+00  0.00000000000E+00 -0.95819283393E+03  0.95819283394E+03  0.50400001928E-02 0.  1.
    10030    2    1    2    0    0  0.00000000000E+00  0.00000000000E+00  0.69614702276E+03  0.26125326906E+04  0.25180759286E+04 0.  0.
        3    1    3    3  502    0 -0.94122860208E+03  0.15775663176E+03 -0.50393641992E+03  0.10792360084E+04  0.10100000352E+00 0.  1.
       -3    1    3    3    0  502  0.94122860208E+03 -0.15775663176E+03  0.12000834427E+04  0.15332966823E+04  0.10100000352E+00 0. -1.
</event>
<event>
 5   0  0.1368865E-07  0.2580796E+04  0.7818609E-02  0.8374754E-01
        1   -1    0    0  501    0  0.00000000000E+00  0.00000000000E+00  0.24303069062E+04  0.24303069062E+04  0.50400001928E-02 0.  1.
       -1   -1    0    0    0  501  0.00000000000E+00  0.00000000000E+00 -0.68515087213E+03  0.68515087215E+03  0.50400001928E-02 0. -1.
    10030    2    1    2    0    0  0.00000000000E+00  0.00000000000E+00  0.17451560341E+04  0.31154577783E+04  0.25807959209E+04 0.  0.
        5    1    3    3  502    0  0.71020747003E+02  0.12038866017E+04  0.14267172911E+04  0.18681357592E+04  0.46999998093E+01 0.  1.
       -5    1    3    3    0  502 -0.71020747003E+02 -0.12038866017E+04  0.31843874301E+03  0.12473220191E+04  0.46999998093E+01 0. -1.
</event>
<event>
 5   0  0.4149487E-07  0.2501601E+04  0.7818609E-02  0.8402415E-01
        2   -1    0    0  501    0  0.00000000000E+00  0.00000000000E+00  0.18215016883E+04  0.18215016883E+04  0.25500000920E-02 0. -1.
       -2   -1    0    0    0  501  0.00000000000E+00  0.00000000000E+00 -0.85890753056E+03  0.85890753057E+03  0.25500000920E-02 0.  1.
    10030    2    1    2    0    0  0.00000000000E+00  0.00000000000E+00  0.96259415769E+03  0.26804092188E+04  0.25016007011E+04 0.  0.
        2    1    3    3  502    0 -0.31358744230E+03 -0.85141109978E+03 -0.44120943642E+03  0.10089121427E+04  0.25500000920E-02 0.  1.
       -2    1    3    3    0  502  0.31358744230E+03  0.85141109978E+03  0.14038035941E+04  0.16714970762E+04  0.25500000920E-02 0. -1.
</event>
<event>
 5   0  0.4077370E-07  0.4025737E+04  0.7818609E-02  0.7999375E-01
       -2   -1    0    0    0  501  0.00000000000E+00  0.00000000000E+00  0.32439984650E+04  0.32439984650E+04  0.25500000920E-02 0.  1.
        2   -1    0    0  501    0  0.00000000000E+00  0.00000000000E+00 -0.12489649625E+04  0.12489649625E+04  0.25500000920E-02 0. -1.
    10030    2    1    2    0    0  0.00000000000E+00  0.00000000000E+00  0.19950335025E+04  0.44929634274E+04  0.40257374087E+04 0.  0.
        3    1    3    3  502    0 -0.69494624564E+03  0.17677649418E+03 -0.11015777623E+04  0.13144100539E+04  0.10100000352E+00 0. -1.
       -3    1    3    3    0  502  0.69494624564E+03 -0.17677649418E+03  0.30966112648E+04  0.31785533735E+04  0.10100000352E+00 0.  1.
</event>
<event>
 5   0  0.4301754E-07  0.3989995E+04  0.7818609E-02  0.8006568E-01
       -2   -1    0    0    0  501  0.00000000000E+00  0.00000000000E+00  0.22423719807E+04  0.22423719807E+04  0.25500000920E-02 0. -1.
        2   -1    0    0  501    0  0.00000000000E+00  0.00000000000E+00 -0.17749129617E+04  0.17749129617E+04  0.25500000920E-02 0.  1.
    10030    2    1    2    0    0  0.00000000000E+00  0.00000000000E+00  0.46745901904E+03  0.40172849423E+04  0.39899950343E+04 0.  0.
        1    1    3    3  502    0  0.14656645999E+04 -0.72094664402E+03 -0.91956482857E+03  0.18744429191E+04  0.50400001928E-02 0. -1.
       -1    1    3    3    0  502 -0.14656645999E+04  0.72094664402E+03  0.13870238476E+04  0.21428420233E+04  0.50400001928E-02 0.  1.
</event>
<event>
 5   0  0.4149487E-07  0.3980813E+04  0.7818609E-02  0.8008428E-01
       -2   -1    0    0    0  501  0.00000000000E+00  0.00000000000E+00  0.18944289120E+04  0.18944289120E+04  0.25500000920E-02 0.  1.
        2   -1    0    0  501    0  0.00000000000E+00  0.00000000000E+00 -0.20912464551E+04  0.20912464551E+04  0.25500000920E-02 0. -1.
    10030    2    1    2    0    0  0.00000000000E+00  0.00000000000E+00 -0.19681754311E+03  0.39856753672E+04  0.39808128551E+04 0.  0.
        2    1    3    3  502    0  0.18637260975E+04 -0.59707024692E+03 -0.46182583047E+03  0.20107836641E+04  0.25500000920E-02 0. -1.
       -2    1    3    3    0  502 -0.18637260975E+04  0.59707024692E+03  0.26500828736E+03  0.19748917030E+04  0.25500000920E-02 0.  1.
</event>
<event>
 5   0  0.4077370E-07  0.3971592E+04  0.7818609E-02  0.8010302E-01
       -2   -1    0    0    0  501  0.00000000000E+00  0.00000000000E+00  0.15390789583E+04  0.15390789583E+04  0.25500000920E-02 0.  1.
        2   -1    0    0  501    0  0.00000000000E+00  0.00000000000E+00 -0.25621730696E+04  0.25621730696E+04  0.25500000920E-02 0. -1.
    10030    2    1    2    0    0  0.00000000000E+00  0.00000000000E+00 -0.10230941113E+04  0.41012520280E+04  0.39715924560E+04 0.  0.
        3    1    3    3  502    0 -0.65908812576E+03  0.17647134807E+04  0.13727716601E+03  0.18887709912E+04  0.10100000352E+00 0.  1.
       -3    1    3    3    0  502  0.65908812576E+03 -0.17647134807E+04 -0.11603712773E+04  0.22124810368E+04  0.10100000352E+00 0. -1.
</event>
<event>
 5   0  0.1351000E-07  0.4000698E+04  0.7818609E-02  0.8004406E-01
       -1   -1    0    0    0  501  0.00000000000E+00  0.00000000000E+00  0.27356412847E+04  0.27356412847E+04  0.50400001928E-02 0.  1.
        1   -1    0    0  501    0  0.00000000000E+00  0.00000000000E+00 -0.14626901195E+04  0.14626901195E+04  0.50400001928E-02 0. -1.
    10030    2    1    2    0    0  0.00000000000E+00  0.00000000000E+00  0.12729511652E+04  0.41983314042E+04  0.40006976779E+04 0.  0.
        3    1    3    3  502    0 -0.67704311348E+03 -0.17571403982E+04 -0.71745460992E+02  0.18844301998E+04  0.10100000352E+00 0. -1.
       -3    1    3    3    0  502  0.67704311348E+03  0.17571403982E+04  0.13446966262E+04  0.23139012043E+04  0.10100000352E+00 0.  1.
</event>
<event>
 5   0  0.4047916E-07  0.3911544E+04  0.7818609E-02  0.8022633E-01
        2   -1    0    0  501    0  0.00000000000E+00  0.00000000000E+00  0.18306746418E+04  0.18306746418E+04  0.25500000920E-02 0.  1.
       -2   -1    0    0    0  501  0.00000000000E+00  0.00000000000E+00 -0.20894177034E+04  0.20894177034E+04  0.25500000920E-02 0. -1.
    10030    2    1    2    0    0  0.00000000000E+00  0.00000000000E+00 -0.25874306167E+03  0.39200923452E+04  0.39115439436E+04 0.  0.
        5    1    3    3  502    0  0.14175332026E+04 -0.13420840881E+04 -0.24976664859E+03  0.19679927715E+04  0.46999998093E+01 0.  1.
       -5    1    3    3    0  502 -0.14175332026E+04  0.13420840881E+04 -0.89764130794E+01  0.19520995737E+04  0.46999998093E+01 0. -1.
</event>
<event>
 5   0  0.1368865E-07  0.4049226E+04  0.7818609E-02  0.7994689E-01
        1   -1    0    0  501    0  0.00000000000E+00  0.00000000000E+00  0.17741407921E+04  0.17741407922E+04  0.50400001928E-02 0. -1.
       -1   -1    0    0    0  501  0.00000000000E+00  0.00000000000E+00 -0.23104470900E+04  0.23104470901E+04  0.50400001928E-02 0.  1.
    10030    2    1    2    0    0  0.00000000000E+00  0.00000000000E+00 -0.53630629790E+03  0.40845878822E+04  0.40492263116E+04 0.  0.
        5    1    3    3  502    0  0.14900224349E+04  0.59500799044E+03 -0.15137790116E+04  0.22058445891E+04  0.46999998093E+01 0.  1.
       -5    1    3    3    0  502 -0.14900224349E+04 -0.59500799044E+03  0.97747271371E+03  0.18787432931E+04  0.46999998093E+01 0. -1.
</event>
<event>
 5   0  0.1351000E-07  0.3429545E+04  0.7818609E-02  0.8130693E-01
        1   -1    0    0  501    0  0.00000000000E+00  0.00000000000E+00  0.17999261383E+04  0.17999261383E+04  0.50400001928E-02 0. -1.
       -1   -1    0    0    0  501  0.00000000000E+00  0.00000000000E+00 -0.16336478639E+04  0.16336478639E+04  0.50400001928E-02 0.  1.
    10030    2    1    2    0    0  0.00000000000E+00  0.00000000000E+00  0.16627827439E+03  0.34335740022E+04  0.34295454457E+04 0.  0.
        3    1    3    3  502    0 -0.27521964149E+03 -0.44607063805E+03 -0.15514822058E+04  0.16376269143E+04  0.10100000352E+00 0.  1.
       -3    1    3    3    0  502  0.27521964149E+03  0.44607063805E+03  0.17177604802E+04  0.17959470880E+04  0.10100000352E+00 0. -1.
</event>
<event>
 5   0  0.4077370E-07  0.3999954E+04  0.7818609E-02  0.8004556E-01
       -2   -1    0    0    0  501  0.00000000000E+00  0.00000000000E+00  0.19280866850E+04  0.19280866850E+04  0.25500000920E-02 0. -1.
        2   -1    0    0  501    0  0.00000000000E+00  0.00000000000E+00 -0.20745478344E+04  0.20745478344E+04  0.25500000920E-02 0.  1.
    10030    2    1    2    0    0  0.00000000000E+00  0.00000000000E+00 -0.14646114945E+03  0.40026345194E+04  0.39999540282E+04 0.  0.
        3    1    3    3  502    0 -0.19847499224E+04 -0.18922841651E+03  0.84572276846E+02  0.19955430660E+04  0.10100000352E+00 0. -1.
       -3    1    3    3    0  502  0.19847499224E+04  0.18922841651E+03 -0.23103342630E+03  0.20070914534E+04  0.10100000352E+00 0.  1.
</event>
<event>
 5   0  0.1372952E-07  0.4021494E+04  0.7818609E-02  0.8000225E-01
        1   -1    0    0  501    0  0.00000000000E+00  0.00000000000E+00  0.18662762279E+04  0.18662762279E+04  0.50400001928E-02 0.  1.
       -1   -1    0    0    0  501  0.00000000000E+00  0.00000000000E+00 -0.21664009741E+04  0.21664009741E+04  0.50400001928E-02 0. -1.
    10030    2    1    2    0    0  0.00000000000E+00  0.00000000000E+00 -0.30012474619E+03  0.40326772020E+04  0.40214935723E+04 0.  0.
        1    1    3    3  502    0  0.79909699752E+03 -0.12648501956E+04  0.11970650084E+04  0.19160810690E+04  0.50400001928E-02 0.  1.
       -1    1    3    3    0  502 -0.79909699752E+03  0.12648501956E+04 -0.14971897546E+04  0.21165961329E+04  0.50400001928E-02 0. -1.
</event>
<event>
 5   0  0.1351000E-07  0.3924282E+04  0.7818609E-02  0.8019998E-01
        1   -1    0    0  501    0  0.00000000000E+00  0.00000000000E+00  0.22205995644E+04  0.22205995644E+04  0.50400001928E-02 0. -1.
       -1   -1    0    0    0  501  0.00000000000E+00  0.00000000000E+00 -0.17337644401E+04  0.17337644401E+04  0.50400001928E-02 0.  1.
    10030    2    1    2    0    0  0.00000000000E+00  0.00000000000E+00  0.48683512437E+03  0.39543640045E+04  0.39242816211E+04 0.  0.
        3    1    3    3  502    0  0.58032947526E+03  0.26006631071E+02  0.21319610402E+04  0.22096869760E+04  0.10100000352E+00 0. -1.
       -3    1    3    3    0  502 -0.58032947526E+03 -0.26006631071E+02 -0.16451259158E+04  0.17446770285E+04  0.10100000352E+00 0.  1.
</event>
<event>
 5   0  0.1421304E-07  0.4026570E+04  0.7818609E-02  0.7999208E-01
       -1   -1    0    0    0  501  0.00000000000E+00  0.00000000000E+00  0.29613505735E+04  0.29613505735E+04  0.50400001928E-02 0. -1.
        1   -1    0    0  501    0  0.00000000000E+00  0.00000000000E+00 -0.13687391974E+04  0.13687391974E+04  0.50400001928E-02 0.  1.
    10030    2    1    2    0    0  0.00000000000E+00  0.00000000000E+00  0.15926113761E+04  0.43300897709E+04  0.40265700576E+04 0.  0.
        2    1    3    3  502    0 -0.54353396443E+03 -0.73527795151E+03 -0.11325702690E+04  0.14556023670E+04  0.25500000920E-02 0.  1.
       -2    1    3    3    0  502  0.54353396443E+03  0.73527795151E+03  0.27251816451E+04  0.28744874039E+04  0.25500000920E-02 0. -1.
</event>
<event>
 5   0  0.1368865E-07  0.3085301E+04  0.7818609E-02  0.8219784E-01
        1   -1    0    0  501    0  0.00000000000E+00  0.00000000000E+00  0.13190513628E+04  0.13190513628E+04  0.50400001928E-02 0.  1.
       -1   -1    0    0    0  501  0.00000000000E+00  0.00000000000E+00 -0.18041530386E+04  0.18041530386E+04  0.50400001928E-02 0. -1.
    10030    2    1    2    0    0  0.00000000000E+00  0.00000000000E+00 -0.48510167581E+03  0.31232044014E+04  0.30853009734E+04 0.  0.
        5    1    3    3  502    0 -0.13285384846E+04 -0.27772609381E+03  0.49967038555E+03  0.14463190770E+04  0.46999998093E+01 0.  1.
       -5    1    3    3    0  502  0.13285384846E+04  0.27772609381E+03 -0.98477206136E+03  0.16768853244E+04  0.46999998093E+01 0. -1.
</event>
<event>
 5   0  0.4079777E-07  0.3588849E+04  0.7818609E-02  0.8093051E-01
        2   -1    0    0  501    0  0.00000000000E+00  0.00000000000E+00  0.14649896651E+04  0.14649896651E+04  0.25500000920E-02 0. -1.
       -2   -1    0    0    0  501  0.00000000000E+00  0.00000000000E+00 -0.21979397659E+04  0.21979397659E+04  0.25500000920E-02 0.  1.
    10030    2    1    2    0    0  0.00000000000E+00  0.00000000000E+00 -0.73295010073E+03  0.36629294310E+04  0.35888488637E+04 0.  0.
        4    1    3    3  502    0  0.31401742753E+03  0.10138383674E+04 -0.18432286009E+04  0.21269622630E+04  0.12699999809E+01 0.  1.
       -4    1    3    3    0  502 -0.31401742753E+03 -0.10138383674E+04  0.11102785002E+04  0.15359671680E+04  0.12699999809E+01 0. -1.
</event>
<event>
 5   0  0.4301754E-07  0.3979927E+04  0.7818609E-02  0.8008608E-01
       -2   -1    0    0    0  501  0.00000000000E+00  0.00000000000E+00  0.17052298326E+04  0.17052298326E+04  0.25500000920E-02 0. -1.
        2   -1    0    0  501    0  0.00000000000E+00  0.00000000000E+00 -0.23222405982E+04  0.23222405982E+04  0.25500000920E-02 0.  1.
    10030    2    1    2    0    0  0.00000000000E+00  0.00000000000E+00 -0.61701076559E+03  0.40274704308E+04  0.39799266056E+04 0.  0.
        1    1    3    3  502    0 -0.13714544700E+04  0.75800844692E+03  0.93272362873E+03  0.18235782233E+04  0.50400001928E-02 0. -1.
       -1    1    3    3    0  502  0.13714544700E+04 -0.75800844692E+03 -0.15497343943E+04  0.22038922074E+04  0.50400001928E-02 0.  1.
</event>
<event>
 5   0  0.1351000E-07  0.4043117E+04  0.7818609E-02  0.7995905E-01
       -1   -1    0    0    0  501  0.00000000000E+00  0.00000000000E+00  0.20419680643E+04  0.20419680643E+04  0.50400001928E-02 0. -1.
        1   -1    0    0  501    0  0.00000000000E+00  0.00000000000E+00 -0.20013527392E+04  0.20013527392E+04  0.50400001928E-02 0.  1.
    10030    2    1    2    0    0  0.00000000000E+00  0.00000000000E+00  0.40615325086E+02  0.40433208035E+04  0.40431168070E+04 0.  0.
        4    1    3    3  502    0  0.59364659519E+03  0.15727521406E+04 -0.11025718565E+04  0.20103810304E+04  0.12699999809E+01 0.  1.
       -4    1    3    3    0  502 -0.59364659519E+03 -0.15727521406E+04  0.11431871816E+04  0.20329397731E+04  0.12699999809E+01 0. -1.
</event>
<event>
 5   0  0.4149487E-07  0.4101966E+04  0.7818609E-02  0.7984287E-01
        2   -1    0    0  501    0  0.00000000000E+00  0.00000000000E+00  0.18987086762E+04  0.18987086762E+04  0.25500000920E-02 0.  1.
       -2   -1    0    0    0  501  0.00000000000E+00  0.00000000000E+00 -0.22154690224E+04  0.22154690224E+04  0.25500000920E-02 0. -1.
    10030    2    1    2    0    0  0.00000000000E+00  0.00000000000E+00 -0.31676034627E+03  0.41141776986E+04  0.41019655068E+04 0.  0.
        2    1    3    3  502    0 -0.71018604647E+03  0.19230422510E+04 -0.94358050241E+02  0.20521596335E+04  0.25500000920E-02 0. -1.
       -2    1    3    3    0  502  0.71018604647E+03 -0.19230422510E+04 -0.22240229603E+03  0.20620180651E+04  0.25500000920E-02 0.  1.
</event>
<event>
 5   0  0.1368865E-07  0.4024156E+04  0.7818609E-02  0.7999691E-01
        1   -1    0    0  501    0  0.00000000000E+00  0.00000000000E+00  0.12804987927E+04  0.12804987927E+04  0.50400001928E-02 0. -1.
       -1   -1    0    0    0  501  0.00000000000E+00  0.00000000000E+00 -0.31616256910E+04  0.31616256910E+04  0.50400001928E-02 0.  1.
    10030    2    1    2    0    0  0.00000000000E+00  0.00000000000E+00 -0.18811268983E+04  0.44421244837E+04  0.40241560010E+04 0.  0.
        5    1    3    3  502    0 -0.80385666746E+03  0.18205096142E+04 -0.12680133755E+04  0.23597289691E+04  0.46999998093E+01 0.  1.
       -5    1    3    3    0  502  0.80385666746E+03 -0.18205096142E+04 -0.61311352285E+03  0.20823955146E+04  0.46999998093E+01 0. -1.
</event>
<event>
 5   0  0.4149487E-07  0.3927368E+04  0.7818609E-02  0.8019361E-01
        2   -1    0    0  501    0  0.00000000000E+00  0.00000000000E+00  0.24703571131E+04  0.24703571131E+04  0.25500000920E-02 0. -1.
       -2   -1    0    0    0  501  0.00000000000E+00  0.00000000000E+00 -0.15609304217E+04  0.15609304217E+04  0.25500000920E-02 0.  1.
    10030    2    1    2    0    0  0.00000000000E+00  0.00000000000E+00  0.90942669144E+03  0.40312875348E+04  0.39273683658E+04 0.  0.
        2    1    3    3  502    0 -0.11726452871E+04 -0.15710406838E+04  0.33862903863E+03  0.19894560627E+04  0.25500000920E-02 0.  1.
       -2    1    3    3    0  502  0.11726452871E+04  0.15710406838E+04  0.57079765281E+03  0.20418314720E+04  0.25500000920E-02 0. -1.
</event>
<event>
 5   0  0.1351000E-07  0.3718731E+04  0.7818609E-02  0.8063824E-01
       -1   -1    0    0    0  501  0.00000000000E+00  0.00000000000E+00  0.17329533521E+04  0.17329533521E+04  0.50400001928E-02 0. -1.
        1   -1    0    0  501    0  0.00000000000E+00  0.00000000000E+00 -0.19949984184E+04  0.19949984184E+04  0.50400001928E-02 0.  1.
    10030    2    1    2    0    0  0.00000000000E+00  0.00000000000E+00 -0.26204506632E+03  0.37279517705E+04  0.37187305343E+04 0.  0.
        4    1    3    3  502    0 -0.82451314155E+03  0.98072544661E+03  0.12197581970E+04  0.17690268495E+04  0.12699999809E+01 0. -1.
       -4    1    3    3    0  502  0.82451314155E+03 -0.98072544661E+03 -0.14818032633E+04  0.19589249210E+04  0.12699999809E+01 0.  1.
</event>
<event>
 5   0  0.1421304E-07  0.4052946E+04  0.7818609E-02  0.7993950E-01
       -1   -1    0    0    0  501  0.00000000000E+00  0.00000000000E+00  0.20629961159E+04  0.20629961160E+04  0.50400001928E-02 0.  1.
        1   -1    0    0  501    0  0.00000000000E+00  0.00000000000E+00 -0.19905965881E+04  0.19905965881E+04  0.50400001928E-02 0. -1.
    10030    2    1    2    0    0  0.00000000000E+00  0.00000000000E+00  0.72399527861E+02  0.40535927040E+04  0.40529461036E+04 0.  0.
        2    1    3    3  502    0 -0.39704552154E+03 -0.12720623591E+04  0.15631408247E+04  0.20540684092E+04  0.25500000920E-02 0.  1.
       -2    1    3    3    0  502  0.39704552154E+03  0.12720623591E+04 -0.14907412969E+04  0.19995242949E+04  0.25500000920E-02 0. -1.
</event>
<event>
 5   0  0.1421304E-07  0.4015373E+04  0.7818609E-02  0.8001452E-01
       -1   -1    0    0    0  501  0.00000000000E+00  0.00000000000E+00  0.25269878446E+04  0.25269878446E+04  0.50400001928E-02 0. -1.
        1   -1    0    0  501    0  0.00000000000E+00  0.00000000000E+00 -0.15951027884E+04  0.15951027884E+04  0.50400001928E-02 0.  1.
    10030    2    1    2    0    0  0.00000000000E+00  0.00000000000E+00  0.93188505613E+03  0.41220906330E+04  0.40153731369E+04 0.  0.
        2    1    3    3  502    0 -0.13160482040E+04  0.10023205236E+04 -0.70191081007E+03  0.17970275715E+04  0.25500000920E-02 0.  1.
       -2    1    3    3    0  502  0.13160482040E+04 -0.10023205236E+04  0.16337958662E+04  0.23250630615E+04  0.25500000920E-02 0. -1.
</event>
<event>
 5   0  0.4149487E-07  0.3906394E+04  0.7818609E-02  0.8023701E-01
       -2   -1    0    0    0  501  0.00000000000E+00  0.00000000000E+00  0.21208162036E+04  0.21208162036E+04  0.25500000920E-02 0. -1.
        2   -1    0    0  501    0  0.00000000000E+00  0.00000000000E+00 -0.17988255325E+04  0.17988255325E+04  0.25500000920E-02 0.  1.
    10030    2    1    2    0    0  0.00000000000E+00  0.00000000000E+00  0.32199067119E+03  0.39196417361E+04  0.39063939058E+04 0.  0.
        2    1    3    3  502    0  0.46306407229E+03 -0.15538486068E+04  0.12537730208E+04  0.20495903531E+04  0.25500000920E-02 0. -1.
       -2    1    3    3    0  502 -0.46306407229E+03  0.15538486068E+04 -0.93178234958E+03  0.18700513830E+04  0.25500000920E-02 0.  1.
</event>
<event>
 5   0  0.1351000E-07  0.3977861E+04  0.7818609E-02  0.8009028E-01
       -3   -1    0    0    0  501  0.00000000000E+00  0.00000000000E+00  0.17440218599E+04  0.17440218628E+04  0.10100000352E+00 0.  1.
        3   -1    0    0  501    0  0.00000000000E+00  0.00000000000E+00 -0.22682315484E+04  0.22682315506E+04  0.10100000352E+00 0. -1.
    10030    2    1    2    0    0  0.00000000000E+00  0.00000000000E+00 -0.52420968848E+03  0.40122534134E+04  0.39778614425E+04 0.  0.
        4    1    3    3  502    0  0.41009247426E+03  0.19268040057E+04  0.14297774136E+02  0.19700140998E+04  0.12699999809E+01 0.  1.
       -4    1    3    3    0  502 -0.41009247426E+03 -0.19268040057E+04 -0.53850746261E+03  0.20422393136E+04  0.12699999809E+01 0. -1.
</event>
<event>
 5   0  0.4047916E-07  0.4136001E+04  0.7818609E-02  0.7977659E-01
       -2   -1    0    0    0  501  0.00000000000E+00  0.00000000000E+00  0.17315431155E+04  0.17315431155E+04  0.25500000920E-02 0. -1.
        2   -1    0    0  501    0  0.00000000000E+00  0.00000000000E+00 -0.24698349902E+04  0.24698349902E+04  0.25500000920E-02 0.  1.
    10030    2    1    2    0    0  0.00000000000E+00  0.00000000000E+00 -0.73829187471E+03  0.42013781057E+04  0.41360008577E+04 0.  0.
        5    1    3    3  502    0 -0.11307652413E+04  0.64230714924E+02 -0.21267701482E+04  0.24095495365E+04  0.46999998093E+01 0.  1.
       -5    1    3    3    0  502  0.11307652413E+04 -0.64230714924E+02  0.13884782734E+04  0.17918285692E+04  0.46999998093E+01 0. -1.
</event>
<event>
 5   0  0.4047916E-07  0.4030701E+04  0.7818609E-02  0.7998382E-01
        2   -1    0    0  501    0  0.00000000000E+00  0.00000000000E+00  0.14344334131E+04  0.14344334131E+04  0.25500000920E-02 0. -1.
       -2   -1    0    0    0  501  0.00000000000E+00  0.00000000000E+00 -0.28315271518E+04  0.28315271518E+04  0.25500000920E-02 0.  1.
    10030    2    1    2    0    0  0.00000000000E+00  0.00000000000E+00 -0.13970937387E+04  0.42659605650E+04  0.40307007613E+04 0.  0.
        5    1    3    3  502    0 -0.77180121484E+03  0.48240973924E+03  0.12045190263E+04  0.15097299250E+04  0.46999998093E+01 0. -1.
       -5    1    3    3    0  502  0.77180121484E+03 -0.48240973924E+03 -0.26016127650E+04  0.27562306400E+04  0.46999998093E+01 0.  1.
</event>
<event>
 5   0  0.4079777E-07  0.3746474E+04  0.7818609E-02  0.8057740E-01
       -2   -1    0    0    0  501  0.00000000000E+00  0.00000000000E+00  0.19256445655E+04  0.19256445655E+04  0.25500000920E-02 0.  1.
        2   -1    0    0  501    0  0.00000000000E+00  0.00000000000E+00 -0.18222556821E+04  0.18222556821E+04  0.25500000920E-02 0. -1.
    10030    2    1    2    0    0  0.00000000000E+00  0.00000000000E+00  0.10338888334E+03  0.37479002476E+04  0.37464739429E+04 0.  0.
        4    1    3    3  502    0  0.18155502632E+04 -0.17580393470E+03  0.47833699992E+03  0.18857194065E+04  0.12699999809E+01 0. -1.
       -4    1    3    3    0  502 -0.18155502632E+04  0.17580393470E+03 -0.37494811658E+03  0.18621808411E+04  0.12699999809E+01 0.  1.
</event>
<event>
 5   0  0.1351000E-07  0.4071565E+04  0.7818609E-02  0.7990263E-01
       -1   -1    0    0    0  501  0.00000000000E+00  0.00000000000E+00  0.25023755205E+04  0.25023755206E+04  0.50400001928E-02 0. -1.
        1   -1    0    0  501    0  0.00000000000E+00  0.00000000000E+00 -0.16561908028E+04  0.16561908028E+04  0.50400001928E-02 0.  1.
    10030    2    1    2    0    0  0.00000000000E+00  0.00000000000E+00  0.84618471776E+03  0.41585663233E+04  0.40715654593E+04 0.  0.
        4    1    3    3  502    0 -0.98654735046E+03  0.71967707608E+03 -0.12405773852E+04  0.17407597853E+04  0.12699999809E+01 0.  1.
       -4    1    3    3    0  502  0.98654735046E+03 -0.71967707608E+03  0.20867621029E+04  0.24178065381E+04  0.12699999809E+01 0. -1.
</event>
<event>
 5   0  0.1421304E-07  0.3277148E+04  0.7818609E-02  0.8168735E-01
        1   -1    0    0  501    0  0.00000000000E+00  0.00000000000E+00  0.24286779895E+04  0.24286779895E+04  0.50400001928E-02 0.  1.
       -1   -1    0    0    0  501  0.00000000000E+00  0.00000000000E+00 -0.11055088007E+04  0.11055088007E+04  0.50400001928E-02 0. -1.
    10030    2    1    2    0    0  0.00000000000E+00  0.00000000000E+00  0.13231691888E+04  0.35341867902E+04  0.32771480842E+04 0.  0.
        2    1    3    3  502    0  0.11382159148E+04 -0.70300352100E+03 -0.35876153194E+03  0.13850845664E+04  0.25500000920E-02 0. -1.
       -2    1    3    3    0  502 -0.11382159148E+04  0.70300352100E+03  0.16819307207E+04  0.21491022238E+04  0.25500000920E-02 0.  1.
</event>
<event>
 5   0  0.4149487E-07  0.4081098E+04  0.7818609E-02  0.7988383E-01
        2   -1    0    0  501    0  0.00000000000E+00  0.00000000000E+00  0.11355976007E+04  0.11355976007E+04  0.25500000920E-02 0.  1.
       -2   -1    0    0    0  501  0.00000000000E+00  0.00000000000E+00 -0.36666510855E+04  0.36666510855E+04  0.25500000920E-02 0. -1.
    10030    2    1    2    0    0  0.00000000000E+00  0.00000000000E+00 -0.25310534848E+04  0.48022486862E+04  0.40810979774E+04 0.  0.
        2    1    3    3  502    0 -0.30483290526E+03 -0.10530960875E+04  0.75960480580E+03  0.13337668202E+04  0.25500000920E-02 0.  1.
       -2    1    3    3    0  502  0.30483290526E+03  0.10530960875E+04 -0.32906582906E+04  0.34684818660E+04  0.25500000920E-02 0. -1.
</event>
<event>
 5   0  0.1421304E-07  0.3960724E+04  0.7818609E-02  0.8012517E-01
        1   -1    0    0  501    0  0.00000000000E+00  0.00000000000E+00  0.17154768398E+04  0.17154768398E+04  0.50400001928E-02 0. -1.
       -1   -1    0    0    0  501  0.00000000000E+00  0.00000000000E+00 -0.22861478838E+04  0.22861478838E+04  0.50400001928E-02 0.  1.
    10030    2    1    2    0    0  0.00000000000E+00  0.00000000000E+00 -0.57067104400E+03  0.40016247237E+04  0.39607240485E+04 0.  0.
        2    1    3    3  502    0 -0.52936497276E+02 -0.10173862100E+04  0.14304229251E+04  0.17561283318E+04  0.25500000920E-02 0. -1.
       -2    1    3    3    0  502  0.52936497276E+02  0.10173862100E+04 -0.20010939691E+04  0.22454963919E+04  0.25500000920E-02 0.  1.
</event>
<event>
 5   0  0.4077370E-07  0.4146574E+04  0.7818609E-02  0.7975613E-01
        2   -1    0    0  501    0  0.00000000000E+00  0.00000000000E+00  0.22841204242E+04  0.22841204242E+04  0.25500000920E-02 0.  1.
       -2   -1    0    0    0  501  0.00000000000E+00  0.00000000000E+00 -0.18819147556E+04  0.18819147556E+04  0.25500000920E-02 0. -1.
    10030    2    1    2    0    0  0.00000000000E+00  0.00000000000E+00  0.40220566857E+03  0.41660351798E+04  0.41465744560E+04 0.  0.
        3    1    3    3  502    0 -0.20256770766E+04 -0.43386728130E+03  0.28462833716E+03  0.20910814754E+04  0.10100000352E+00 0. -1.
       -3    1    3    3    0  502  0.20256770766E+04  0.43386728130E+03  0.11757733141E+03  0.20749537044E+04  0.10100000352E+00 0.  1.
</event>
<event>
 5   0  0.4047916E-07  0.3888500E+04  0.7818609E-02  0.8027425E-01
        2   -1    0    0  501    0  0.00000000000E+00  0.00000000000E+00  0.23130324069E+04  0.23130324069E+04  0.25500000920E-02 0. -1.
       -2   -1    0    0    0  501  0.00000000000E+00  0.00000000000E+00 -0.16342653119E+04  0.16342653119E+04  0.25500000920E-02 0.  1.
    10030    2    1    2    0    0  0.00000000000E+00  0.00000000000E+00  0.67876709503E+03  0.39472977188E+04  0.38885002908E+04 0.  0.
        5    1    3    3  502    0 -0.82328373563E+03  0.14960685303E+04 -0.60422541193E+03  0.18113883060E+04  0.46999998093E+01 0.  1.
       -5    1    3    3    0  502  0.82328373563E+03 -0.14960685303E+04  0.12829925070E+04  0.21359094128E+04  0.46999998093E+01 0. -1.
</event>
<event>
 5   0  0.1368865E-07  0.4034151E+04  0.7818609E-02  0.7997692E-01
       -1   -1    0    0    0  501  0.00000000000E+00  0.00000000000E+00  0.17273553293E+04  0.17273553293E+04  0.50400001928E-02 0.  1.
        1   -1    0    0  501    0  0.00000000000E+00  0.00000000000E+00 -0.23553890794E+04  0.23553890794E+04  0.50400001928E-02 0. -1.
    10030    2    1    2    0    0  0.00000000000E+00  0.00000000000E+00 -0.62803375015E+03  0.40827444088E+04  0.40341511518E+04 0.  0.
        5    1    3    3  502    0 -0.14969225791E+04 -0.92310624666E+03  0.68564096672E+03  0.18875984678E+04  0.46999998093E+01 0.  1.
       -5    1    3    3    0  502  0.14969225791E+04  0.92310624666E+03 -0.13136747169E+04  0.21951459410E+04  0.46999998093E+01 0. -1.
</event>
<event>
 5   0  0.1351000E-07  0.4030443E+04  0.7818609E-02  0.7998433E-01
        1   -1    0    0  501    0  0.00000000000E+00  0.00000000000E+00  0.14881727909E+04  0.14881727909E+04  0.50400001928E-02 0. -1.
       -1   -1    0    0    0  501  0.00000000000E+00  0.00000000000E+00 -0.27289288113E+04  0.27289288113E+04  0.50400001928E-02 0.  1.
    10030    2    1    2    0    0  0.00000000000E+00  0.00000000000E+00 -0.12407560204E+04  0.42171016022E+04  0.40304429559E+04 0.  0.
        3    1    3    3  502    0 -0.84172587136E+03 -0.34709870464E+03 -0.25014534333E+04  0.26620009847E+04  0.10100000352E+00 0.  1.
       -3    1    3    3    0  502  0.84172587136E+03  0.34709870464E+03  0.12606974130E+04  0.15551006175E+04  0.10100000352E+00 0. -1.
</event>
<event>
 5   0  0.4077370E-07  0.4206023E+04  0.7818609E-02  0.7964228E-01
        2   -1    0    0  501    0  0.00000000000E+00  0.00000000000E+00  0.22986574986E+04  0.22986574986E+04  0.25500000920E-02 0. -1.
       -2   -1    0    0    0  501  0.00000000000E+00  0.00000000000E+00 -0.19240176092E+04  0.19240176092E+04  0.25500000920E-02 0.  1.
    10030    2    1    2    0    0  0.00000000000E+00  0.00000000000E+00  0.37463988945E+03  0.42226751078E+04  0.42060230645E+04 0.  0.
        3    1    3    3  502    0 -0.61097320153E+03 -0.20067328418E+04  0.33755377099E+03  0.21246664467E+04  0.10100000352E+00 0.  1.
       -3    1    3    3    0  502  0.61097320153E+03  0.20067328418E+04  0.37086118459E+02  0.20980086610E+04  0.10100000352E+00 0. -1.
</event>
<event>
 5   0  0.4079777E-07  0.2903418E+04  0.7818609E-02  0.8271861E-01
       -2   -1    0    0    0  501  0.00000000000E+00  0.00000000000E+00  0.78220794290E+03  0.78220794291E+03  0.25500000920E-02 0. -1.
        2   -1    0    0  501    0  0.00000000000E+00  0.00000000000E+00 -0.26942434295E+04  0.26942434295E+04  0.25500000920E-02 0.  1.
    10030    2    1    2    0    0  0.00000000000E+00  0.00000000000E+00 -0.19120354866E+04  0.34764513724E+04  0.29034177176E+04 0.  0.
        4    1    3    3  502    0 -0.10458363644E+04 -0.73401026103E+02 -0.21583391215E+04  0.23994980284E+04  0.12699999809E+01 0.  1.
       -4    1    3    3    0  502  0.10458363644E+04  0.73401026103E+02  0.24630363495E+03  0.10769533440E+04  0.12699999809E+01 0. -1.
</event>
<event>
 5   0  0.4301754E-07  0.3099314E+04  0.7818609E-02  0.8215926E-01
        2   -1    0    0  501    0  0.00000000000E+00  0.00000000000E+00  0.19640416957E+04  0.19640416957E+04  0.25500000920E-02 0. -1.
       -2   -1    0    0    0  501  0.00000000000E+00  0.00000000000E+00 -0.12227018099E+04  0.12227018099E+04  0.25500000920E-02 0.  1.
    10030    2    1    2    0    0  0.00000000000E+00  0.00000000000E+00  0.74133988582E+03  0.31867435057E+04  0.30993143346E+04 0.  0.
        1    1    3    3  502    0  0.10775149302E+03 -0.95863344908E+02 -0.12157862694E+04  0.12243105889E+04  0.50400001928E-02 0.  1.
       -1    1    3    3    0  502 -0.10775149302E+03  0.95863344908E+02  0.19571261553E+04  0.19624329168E+04  0.50400001928E-02 0. -1.
</event>
<event>
 5   0  0.4149487E-07  0.3980150E+04  0.7818609E-02  0.8008563E-01
       -2   -1    0    0    0  501  0.00000000000E+00  0.00000000000E+00  0.20430300829E+04  0.20430300830E+04  0.25500000920E-02 0.  1.
        2   -1    0    0  501    0  0.00000000000E+00  0.00000000000E+00 -0.19384923510E+04  0.19384923510E+04  0.25500000920E-02 0. -1.
    10030    2    1    2    0    0  0.00000000000E+00  0.00000000000E+00  0.10453773193E+03  0.39815224340E+04  0.39801498408E+04 0.  0.
        2    1    3    3  502    0  0.39841485142E+01  0.78038942551E+03  0.18835762040E+04  0.20388435068E+04  0.25500000920E-02 0.  1.
       -2    1    3    3    0  502 -0.39841485142E+01 -0.78038942551E+03 -0.17790384721E+04  0.19426789272E+04  0.25500000920E-02 0. -1.
</event>
<event>
 5   0  0.1372952E-07  0.4017720E+04  0.7818609E-02  0.8000981E-01
       -1   -1    0    0    0  501  0.00000000000E+00  0.00000000000E+00  0.14248561913E+04  0.14248561913E+04  0.50400001928E-02 0. -1.
        1   -1    0    0  501    0  0.00000000000E+00  0.00000000000E+00 -0.28322284483E+04  0.28322284483E+04  0.50400001928E-02 0.  1.
    10030    2    1    2    0    0  0.00000000000E+00  0.00000000000E+00 -0.14073722570E+04  0.42570846395E+04  0.40177198706E+04 0.  0.
        1    1    3    3  502    0 -0.50617122789E+03 -0.13419691391E+04 -0.21940514281E+04  0.26212501123E+04  0.50400001928E-02 0.  1.
       -1    1    3    3    0  502  0.50617122789E+03  0.13419691391E+04  0.78667917105E+03  0.16358345272E+04  0.50400001928E-02 0. -1.
</event>
<event>
 5   0  0.4079777E-07  0.2890370E+04  0.7818609E-02  0.8275748E-01
        2   -1    0    0  501    0  0.00000000000E+00  0.00000000000E+00  0.15021193540E+04  0.15021193540E+04  0.25500000920E-02 0.  1.
       -2   -1    0    0    0  501  0.00000000000E+00  0.00000000000E+00 -0.13904090711E+04  0.13904090711E+04  0.25500000920E-02 0. -1.
    10030    2    1    2    0    0  0.00000000000E+00  0.00000000000E+00  0.11171028284E+03  0.28925284251E+04  0.28903704785E+04 0.  0.
        4    1    3    3  502    0  0.13140575611E+04 -0.47145084294E+03 -0.31798177268E+03  0.14318265230E+04  0.12699999809E+01 0. -1.
       -4    1    3    3    0  502 -0.13140575611E+04  0.47145084294E+03  0.42969205552E+03  0.14607019021E+04  0.12699999809E+01 0.  1.
</event>
<event>
 5   0  0.4079777E-07  0.3829346E+04  0.7818609E-02  0.8039887E-01
       -2   -1    0    0    0  501  0.00000000000E+00  0.00000000000E+00  0.14556024137E+04  0.14556024137E+04  0.25500000920E-02 0. -1.
        2   -1    0    0  501    0  0.00000000000E+00  0.00000000000E+00 -0.25185259765E+04  0.25185259765E+04  0.25500000920E-02 0.  1.
    10030    2    1    2    0    0  0.00000000000E+00  0.00000000000E+00 -0.10629235629E+04  0.39741283902E+04  0.38293458921E+04 0.  0.
        4    1    3    3  502    0  0.56578749963E+03  0.75359010595E+02  0.13652528691E+04  0.14797673752E+04  0.12699999809E+01 0. -1.
       -4    1    3    3    0  502 -0.56578749963E+03 -0.75359010595E+02 -0.24281764320E+04  0.24943610150E+04  0.12699999809E+01 0.  1.
</event>
<event>
 5   0  0.4077370E-07  0.3032901E+04  0.7818609E-02  0.8234398E-01
        2   -1    0    0  501    0  0.00000000000E+00  0.00000000000E+00  0.22486751130E+04  0.22486751130E+04  0.25500000920E-02 0.  1.
       -2   -1    0    0    0  501  0.00000000000E+00  0.00000000000E+00 -0.10226562447E+04  0.10226562447E+04  0.25500000920E-02 0. -1.
    10030    2    1    2    0    0  0.00000000000E+00  0.00000000000E+00  0.12260188683E+04  0.32713313577E+04  0.30329006885E+04 0.  0.
        3    1    3    3  502    0 -0.34667584505E+03 -0.38640354243E+03 -0.92382912981E+03  0.10596943476E+04  0.10100000352E+00 0. -1.
       -3    1    3    3    0  502  0.34667584505E+03  0.38640354243E+03  0.21498479981E+04  0.22116370101E+04  0.10100000352E+00 0.  1.
</event>
<event>
 5   0  0.1368865E-07  0.4058185E+04  0.7818609E-02  0.7992911E-01
       -1   -1    0    0    0  501  0.00000000000E+00  0.00000000000E+00  0.17818897791E+04  0.17818897791E+04  0.50400001928E-02 0.  1.
        1   -1    0    0  501    0  0.00000000000E+00  0.00000000000E+00 -0.23105898082E+04  0.23105898082E+04  0.50400001928E-02 0. -1.
    10030    2    1    2    0    0  0.00000000000E+00  0.00000000000E+00 -0.52870002914E+03  0.40924795874E+04  0.40581849948E+04 0.  0.
        5    1    3    3  502    0  0.10407749826E+03  0.41875234502E+03 -0.22637822023E+04  0.23045428184E+04  0.46999998093E+01 0. -1.
       -5    1    3    3    0  502 -0.10407749826E+03 -0.41875234502E+03  0.17350821732E+04  0.17879367690E+04  0.46999998093E+01 0.  1.
</event>
<event>
 5   0  0.4047916E-07  0.4020209E+04  0.7818609E-02  0.8000482E-01
        2   -1    0    0  501    0  0.00000000000E+00  0.00000000000E+00  0.28006387548E+04  0.28006387548E+04  0.25500000920E-02 0.  1.
       -2   -1    0    0    0  501  0.00000000000E+00  0.00000000000E+00 -0.14427137598E+04  0.14427137598E+04  0.25500000920E-02 0. -1.
    10030    2    1    2    0    0  0.00000000000E+00  0.00000000000E+00  0.13579249950E+04  0.42433525145E+04  0.40202089834E+04 0.  0.
        5    1    3    3  502    0 -0.65252186253E+03  0.47337040127E+03 -0.12646107695E+04  0.14997089072E+04  0.46999998093E+01 0. -1.
       -5    1    3    3    0  502  0.65252186253E+03 -0.47337040127E+03  0.26225357645E+04  0.27436436073E+04  0.46999998093E+01 0.  1.
</event>
<event>
 5   0  0.4301754E-07  0.3842339E+04  0.7818609E-02  0.8037130E-01
       -2   -1    0    0    0  501  0.00000000000E+00  0.00000000000E+00  0.17959357416E+04  0.17959357416E+04  0.25500000920E-02 0.  1.
        2   -1    0    0  501    0  0.00000000000E+00  0.00000000000E+00 -0.20551364691E+04  0.20551364691E+04  0.25500000920E-02 0. -1.
    10030    2    1    2    0    0  0.00000000000E+00  0.00000000000E+00 -0.25920072745E+03  0.38510722107E+04  0.38423394117E+04 0.  0.
        1    1    3    3  502    0  0.76774099953E+03  0.30503612927E+03  0.16088214089E+04  0.18085296813E+04  0.50400001928E-02 0.  1.
       -1    1    3    3    0  502 -0.76774099953E+03 -0.30503612927E+03 -0.18680221363E+04  0.20425425294E+04  0.50400001928E-02 0. -1.
</event>
<event>
 5   0  0.4079777E-07  0.3960654E+04  0.7818609E-02  0.8012531E-01
       -2   -1    0    0    0  501  0.00000000000E+00  0.00000000000E+00  0.16580166017E+04  0.16580166017E+04  0.25500000920E-02 0.  1.
        2   -1    0    0  501    0  0.00000000000E+00  0.00000000000E+00 -0.23652927180E+04  0.23652927180E+04  0.25500000920E-02 0. -1.
    10030    2    1    2    0    0  0.00000000000E+00  0.00000000000E+00 -0.70727611635E+03  0.40233093197E+04  0.39606537816E+04 0.  0.
        4    1    3    3  502    0 -0.11403318503E+04  0.13303901576E+04 -0.12909473608E+04  0.21764285887E+04  0.12699999809E+01 0. -1.
       -4    1    3    3    0  502  0.11403318503E+04 -0.13303901576E+04  0.58367124441E+03  0.18468807311E+04  0.12699999809E+01 0.  1.
</event>
<event>
 5   0  0.4077370E-07  0.3987885E+04  0.7818609E-02  0.8006995E-01
       -2   -1    0    0    0  501  0.00000000000E+00  0.00000000000E+00  0.16410863238E+04  0.16410863238E+04  0.25500000920E-02 0. -1.
        2   -1    0    0  501    0  0.00000000000E+00  0.00000000000E+00 -0.24226678248E+04  0.24226678248E+04  0.25500000920E-02 0.  1.
    10030    2    1    2    0    0  0.00000000000E+00  0.00000000000E+00 -0.78158150104E+03  0.40637541486E+04  0.39878851711E+04 0.  0.
        3    1    3    3  502    0  0.14841103969E+04 -0.58114575000E+03 -0.16117054330E+04  0.22666954947E+04  0.10100000352E+00 0.  1.
       -3    1    3    3    0  502 -0.14841103969E+04  0.58114575000E+03  0.83012393191E+03  0.17970586539E+04  0.10100000352E+00 0. -1.
</event>
<event>
 5   0  0.1372952E-07  0.2628053E+04  0.7818609E-02  0.8358734E-01
        1   -1    0    0  501    0  0.00000000000E+00  0.00000000000E+00  0.88626158402E+03  0.88626158403E+03  0.50400001928E-02 0.  1.
       -1   -1    0    0    0  501  0.00000000000E+00  0.00000000000E+00 -0.19482579467E+04  0.19482579467E+04  0.50400001928E-02 0. -1.
    10030    2    1    2    0    0  0.00000000000E+00  0.00000000000E+00 -0.10619963627E+04  0.28345195307E+04  0.26280534043E+04 0.  0.
        1    1    3    3  502    0  0.11299461054E+04  0.48916427262E+03 -0.36025837748E+02  0.12318107597E+04  0.50400001928E-02 0.  1.
       -1    1    3    3    0  502 -0.11299461054E+04 -0.48916427262E+03 -0.10259705249E+04  0.16027087710E+04  0.50400001928E-02 0. -1.
</event>
<event>
 5   0  0.4149487E-07  0.3891091E+04  0.7818609E-02  0.8026885E-01
       -2   -1    0    0    0  501  0.00000000000E+00  0.00000000000E+00  0.15048197323E+04  0.15048197323E+04  0.25500000920E-02 0. -1.
        2   -1    0    0  501    0  0.00000000000E+00  0.00000000000E+00 -0.25153493551E+04  0.25153493551E+04  0.25500000920E-02 0.  1.
    10030    2    1    2    0    0  0.00000000000E+00  0.00000000000E+00 -0.10105296228E+04  0.40201690874E+04  0.38910910260E+04 0.  0.
        2    1    3    3  502    0  0.19083655690E+04 -0.32633654348E+03 -0.30708769057E+03  0.19602697606E+04  0.25500000920E-02 0. -1.
       -2    1    3    3    0  502 -0.19083655690E+04  0.32633654348E+03 -0.70344193220E+03  0.20598993268E+04  0.25500000920E-02 0.  1.
</event>
<event>
 5   0  0.1372952E-07  0.4131305E+04  0.7818609E-02  0.7978570E-01
       -1   -1    0    0    0  501  0.00000000000E+00  0.00000000000E+00  0.31172636569E+04  0.31172636569E+04  0.50400001928E-02 0.  1.
        1   -1    0    0  501    0  0.00000000000E+00  0.00000000000E+00 -0.13688032001E+04  0.13688032001E+04  0.50400001928E-02 0. -1.
    10030    2    1    2    0    0  0.00000000000E+00  0.00000000000E+00  0.17484604568E+04  0.44860668570E+04  0.41313051056E+04 0.  0.
        1    1    3    3  502    0  0.70931635207E+03  0.11146655353E+04  0.25984464496E+04  0.29150528116E+04  0.50400001928E-02 0.  1.
       -1    1    3    3    0  502 -0.70931635207E+03 -0.11146655353E+04 -0.84998599275E+03  0.15710140454E+04  0.50400001928E-02 0. -1.
</event>
<event>
 5   0  0.1421304E-07  0.3921560E+04  0.7818609E-02  0.8020560E-01
        1   -1    0    0  501    0  0.00000000000E+00  0.00000000000E+00  0.27351464902E+04  0.27351464902E+04  0.50400001928E-02 0. -1.
       -1   -1    0    0    0  501  0.00000000000E+00  0.00000000000E+00 -0.14056500207E+04  0.14056500207E+04  0.50400001928E-02 0.  1.
    10030    2    1    2    0    0  0.00000000000E+00  0.00000000000E+00  0.13294964695E+04  0.41407965109E+04  0.39215602612E+04 0.  0.
        2    1    3    3  502    0  0.86457457680E+03  0.53419081326E+03  0.24353380340E+04  0.26388861975E+04  0.25500000920E-02 0. -1.
       -2    1    3    3    0  502 -0.86457457680E+03 -0.53419081326E+03 -0.11058415644E+04  0.15019103134E+04  0.25500000920E-02 0.  1.
</event>
<event>
 5   0  0.4047916E-07  0.2762010E+04  0.7818609E-02  0.8315161E-01
       -2   -1    0    0    0  501  0.00000000000E+00  0.00000000000E+00  0.74001096533E+03  0.74001096534E+03  0.25500000920E-02 0.  1.
        2   -1    0    0  501    0  0.00000000000E+00  0.00000000000E+00 -0.25772257921E+04  0.25772257921E+04  0.25500000920E-02 0. -1.
    10030    2    1    2    0    0  0.00000000000E+00  0.00000000000E+00 -0.18372148268E+04  0.33172367575E+04  0.27620103883E+04 0.  0.
        5    1    3    3  502    0 -0.67691836932E+03 -0.10821029291E+04 -0.15518413883E+04  0.20093280002E+04  0.46999998093E+01 0. -1.
       -5    1    3    3    0  502  0.67691836932E+03  0.10821029291E+04 -0.28537343847E+03  0.13079087573E+04  0.46999998093E+01 0.  1.
</event>
<event>
 5   0  0.1372952E-07  0.3267973E+04  0.7818609E-02  0.8171093E-01
       -1   -1    0    0    0  501  0.00000000000E+00  0.00000000000E+00  0.13146643888E+04  0.13146643888E+04  0.50400001928E-02 0. -1.
        1   -1    0    0  501    0  0.00000000000E+00  0.00000000000E+00 -0.20308690797E+04  0.20308690797E+04  0.50400001928E-02 0.  1.
    10030    2    1    2    0    0  0.00000000000E+00  0.00000000000E+00 -0.71620469086E+03  0.33455334685E+04  0.32679726176E+04 0.  0.
        1    1    3    3  502    0  0.97924531086E+03  0.81080855608E+03 -0.14089036367E+04  0.18977200402E+04  0.50400001928E-02 0.  1.
       -1    1    3    3    0  502 -0.97924531086E+03 -0.81080855608E+03  0.69269894586E+03  0.14478134283E+04  0.50400001928E-02 0. -1.
</event>
<event>
 5   0  0.4079777E-07  0.3879611E+04  0.7818609E-02  0.8029283E-01
       -2   -1    0    0    0  501  0.00000000000E+00  0.00000000000E+00  0.16700949595E+04  0.16700949595E+04  0.25500000920E-02 0.  1.
        2   -1    0    0  501    0  0.00000000000E+00  0.00000000000E+00 -0.22530726019E+04  0.22530726019E+04  0.25500000920E-02 0. -1.
    10030    2    1    2    0    0  0.00000000000E+00  0.00000000000E+00 -0.58297764242E+03  0.39231675615E+04  0.38796109062E+04 0.  0.
        4    1    3    3  502    0  0.15460984557E+04  0.33968401747E+03 -0.14252533747E+04  0.21300597319E+04  0.12699999809E+01 0. -1.
       -4    1    3    3    0  502 -0.15460984557E+04 -0.33968401747E+03  0.84227573230E+03  0.17931078296E+04  0.12699999809E+01 0.  1.
</event>
<event>
 5   0  0.1351000E-07  0.4020057E+04  0.7818609E-02  0.8000513E-01
       -3   -1    0    0    0  501  0.00000000000E+00  0.00000000000E+00  0.22622695694E+04  0.22622695717E+04  0.10100000352E+00 0.  1.
        3   -1    0    0  501    0  0.00000000000E+00  0.00000000000E+00 -0.17859123357E+04  0.17859123386E+04  0.10100000352E+00 0. -1.
    10030    2    1    2    0    0  0.00000000000E+00  0.00000000000E+00  0.47635723370E+03  0.40481819103E+04  0.40200572838E+04 0.  0.
        1    1    3    3  502    0 -0.82573726659E+03 -0.14713503444E+04 -0.86193925827E+03  0.18946380009E+04  0.50400001928E-02 0. -1.
       -1    1    3    3    0  502  0.82573726659E+03  0.14713503444E+04  0.13382964920E+04  0.21535439094E+04  0.50400001928E-02 0.  1.
</event>
<event>
 5   0  0.4077370E-07  0.3007060E+04  0.7818609E-02  0.8241718E-01
       -2   -1    0    0    0  501  0.00000000000E+00  0.00000000000E+00  0.18819625516E+04  0.18819625516E+04  0.25500000920E-02 0.  1.
        2   -1    0    0  501    0  0.00000000000E+00  0.00000000000E+00 -0.12011937982E+04  0.12011937982E+04  0.25500000920E-02 0. -1.
    10030    2    1    2    0    0  0.00000000000E+00  0.00000000000E+00  0.68076875339E+03  0.30831563499E+04  0.30070595242E+04 0.  0.
        3    1    3    3  502    0 -0.12317935378E+04  0.77612725923E+02 -0.53998443613E+03  0.13471905049E+04  0.10100000352E+00 0.  1.
       -3    1    3    3    0  502  0.12317935378E+04 -0.77612725923E+02  0.12207531895E+04  0.17359658450E+04  0.10100000352E+00 0. -1.
</event>
<event>
 5   0  0.4077370E-07  0.2899770E+04  0.7818609E-02  0.8272946E-01
       -2   -1    0    0    0  501  0.00000000000E+00  0.00000000000E+00  0.75179938313E+03  0.75179938313E+03  0.25500000920E-02 0.  1.
        2   -1    0    0  501    0  0.00000000000E+00  0.00000000000E+00 -0.27961793511E+04  0.27961793511E+04  0.25500000920E-02 0. -1.
    10030    2    1    2    0    0  0.00000000000E+00  0.00000000000E+00 -0.20443799680E+04  0.35479787343E+04  0.28997695848E+04 0.  0.
        3    1    3    3  502    0  0.93294380757E+03  0.10695616685E+04 -0.65960215562E+03  0.15650627223E+04  0.10100000352E+00 0.  1.
       -3    1    3    3    0  502 -0.93294380757E+03 -0.10695616685E+04 -0.13847778124E+04  0.19829160120E+04  0.10100000352E+00 0. -1.
</event>
<event>
 5   0  0.1351000E-07  0.2754946E+04  0.7818609E-02  0.8317394E-01
       -1   -1    0    0    0  501  0.00000000000E+00  0.00000000000E+00  0.13614440855E+04  0.13614440855E+04  0.50400001928E-02 0. -1.
        1   -1    0    0  501    0  0.00000000000E+00  0.00000000000E+00 -0.13936902259E+04  0.13936902260E+04  0.50400001928E-02 0.  1.
    10030    2    1    2    0    0  0.00000000000E+00  0.00000000000E+00 -0.32246140451E+02  0.27551343115E+04  0.27549456003E+04 0.  0.
        3    1    3    3  502    0 -0.60343856230E+03 -0.41092255730E+03 -0.11842937726E+04  0.13912394462E+04  0.10100000352E+00 0. -1.
       -3    1    3    3    0  502  0.60343856230E+03  0.41092255730E+03  0.11520476322E+04  0.13638948653E+04  0.10100000352E+00 0.  1.
</event>
<event>
 5   0  0.4149487E-07  0.3640324E+04  0.7818609E-02  0.8081317E-01
        2   -1    0    0  501    0  0.00000000000E+00  0.00000000000E+00  0.24320706404E+04  0.24320706404E+04  0.25500000920E-02 0. -1.
       -2   -1    0    0    0  501  0.00000000000E+00  0.00000000000E+00 -0.13622092906E+04  0.13622092906E+04  0.25500000920E-02 0.  1.
    10030    2    1    2    0    0  0.00000000000E+00  0.00000000000E+00  0.10698613498E+04  0.37942799311E+04  0.36403237339E+04 0.  0.
        2    1    3    3  502    0 -0.12920526256E+04 -0.22701991873E+03  0.18500582245E+04  0.22679624038E+04  0.25500000920E-02 0. -1.
       -2    1    3    3    0  502  0.12920526256E+04  0.22701991873E+03 -0.78019687470E+03  0.15263175273E+04  0.25500000920E-02 0.  1.
</event>
<event>
 5   0  0.4079777E-07  0.2489614E+04  0.7818609E-02  0.8406695E-01
        2   -1    0    0  501    0  0.00000000000E+00  0.00000000000E+00  0.29815209824E+04  0.29815209824E+04  0.25500000920E-02 0.  1.
       -2   -1    0    0    0  501  0.00000000000E+00  0.00000000000E+00 -0.51971612967E+03  0.51971612968E+03  0.25500000920E-02 0. -1.
    10030    2    1    2    0    0  0.00000000000E+00  0.00000000000E+00  0.24618048527E+04  0.35012371121E+04  0.24896140629E+04 0.  0.
        4    1    3    3  502    0  0.50551612032E+03 -0.60470960556E+03  0.25859014262E+04  0.27033512635E+04  0.12699999809E+01 0.  1.
       -4    1    3    3    0  502 -0.50551612032E+03  0.60470960556E+03 -0.12409657344E+03  0.79788584860E+03  0.12699999809E+01 0. -1.
</event>
<event>
 5   0  0.4079777E-07  0.3111848E+04  0.7818609E-02  0.8212494E-01
       -2   -1    0    0    0  501  0.00000000000E+00  0.00000000000E+00  0.18147664464E+04  0.18147664464E+04  0.25500000920E-02 0.  1.
        2   -1    0    0  501    0  0.00000000000E+00  0.00000000000E+00 -0.13340006774E+04  0.13340006774E+04  0.25500000920E-02 0. -1.
    10030    2    1    2    0    0  0.00000000000E+00  0.00000000000E+00  0.48076576904E+03  0.31487671238E+04  0.31118481125E+04 0.  0.
        4    1    3    3  502    0  0.12184894411E+04  0.21567304911E+03 -0.71402894237E+03  0.14286603255E+04  0.12699999809E+01 0. -1.
       -4    1    3    3    0  502 -0.12184894411E+04 -0.21567304911E+03  0.11947947114E+04  0.17201067983E+04  0.12699999809E+01 0.  1.
</event>
<event>
 5   0  0.1351000E-07  0.3895697E+04  0.7818609E-02  0.8025925E-01
        1   -1    0    0  501    0  0.00000000000E+00  0.00000000000E+00  0.22483520380E+04  0.22483520380E+04  0.50400001928E-02 0.  1.
       -1   -1    0    0    0  501  0.00000000000E+00  0.00000000000E+00 -0.16875085079E+04  0.16875085079E+04  0.50400001928E-02 0. -1.
    10030    2    1    2    0    0  0.00000000000E+00  0.00000000000E+00  0.56084353008E+03  0.39358605459E+04  0.38956966991E+04 0.  0.
        4    1    3    3  502    0 -0.62790797139E+03  0.17000574102E+04  0.10016782161E+04  0.20707062757E+04  0.12699999809E+01 0. -1.
       -4    1    3    3    0  502  0.62790797139E+03 -0.17000574102E+04 -0.44083468600E+03  0.18651542703E+04  0.12699999809E+01 0.  1.
</event>
<event>
 5   0  0.1351000E-07  0.2724959E+04  0.7818609E-02  0.8326952E-01
       -1   -1    0    0    0  501  0.00000000000E+00  0.00000000000E+00  0.98744362945E+03  0.98744362946E+03  0.50400001928E-02 0.  1.
        1   -1    0    0  501    0  0.00000000000E+00  0.00000000000E+00 -0.18799558680E+04  0.18799558680E+04  0.50400001928E-02 0. -1.
    10030    2    1    2    0    0  0.00000000000E+00  0.00000000000E+00 -0.89251223856E+03  0.28673994975E+04  0.27249590423E+04 0.  0.
        3    1    3    3  502    0 -0.12511392654E+04  0.50749277193E+03 -0.63871575633E+03  0.14936051026E+04  0.10100000352E+00 0. -1.
       -3    1    3    3    0  502  0.12511392654E+04 -0.50749277193E+03 -0.25379648223E+03  0.13737943949E+04  0.10100000352E+00 0.  1.
</event>
<event>
 5   0  0.1372952E-07  0.2561956E+04  0.7818609E-02  0.8381240E-01
        1   -1    0    0  501    0  0.00000000000E+00  0.00000000000E+00  0.23883151584E+04  0.23883151584E+04  0.50400001928E-02 0.  1.
       -1   -1    0    0    0  501  0.00000000000E+00  0.00000000000E+00 -0.68705513666E+03  0.68705513668E+03  0.50400001928E-02 0. -1.
    10030    2    1    2    0    0  0.00000000000E+00  0.00000000000E+00  0.17012600218E+04  0.30753702951E+04  0.25619556574E+04 0.  0.
        1    1    3    3  502    0  0.34756992268E+03  0.25102744010E+03  0.22996293462E+04  0.23392551714E+04  0.50400001928E-02 0.  1.
       -1    1    3    3    0  502 -0.34756992268E+03 -0.25102744010E+03 -0.59836932448E+03  0.73611512370E+03  0.50400001928E-02 0. -1.
</event>
<event>
 5   0  0.1351000E-07  0.2999191E+04  0.7818609E-02  0.8243962E-01
       -1   -1    0    0    0  501  0.00000000000E+00  0.00000000000E+00  0.17597721667E+04  0.17597721667E+04  0.50400001928E-02 0. -1.
        1   -1    0    0  501    0  0.00000000000E+00  0.00000000000E+00 -0.12778848703E+04  0.12778848703E+04  0.50400001928E-02 0.  1.
    10030    2    1    2    0    0  0.00000000000E+00  0.00000000000E+00  0.48188729638E+03  0.30376570370E+04  0.29991907089E+04 0.  0.
        4    1    3    3  502    0  0.43104582109E+03  0.13232465998E+04 -0.32479223898E+03  0.14290814095E+04  0.12699999809E+01 0.  1.
       -4    1    3    3    0  502 -0.43104582109E+03 -0.13232465998E+04  0.80667953535E+03  0.16085756275E+04  0.12699999809E+01 0. -1.
</event>
<event>
 5   0  0.1372952E-07  0.4021400E+04  0.7818609E-02  0.8000243E-01
        1   -1    0    0  501    0  0.00000000000E+00  0.00000000000E+00  0.18767469403E+04  0.18767469403E+04  0.50400001928E-02 0.  1.
       -1   -1    0    0    0  501  0.00000000000E+00  0.00000000000E+00 -0.21542140018E+04  0.21542140018E+04  0.50400001928E-02 0. -1.
    10030    2    1    2    0    0  0.00000000000E+00  0.00000000000E+00 -0.27746706150E+03  0.40309609420E+04  0.40214000231E+04 0.  0.
        1    1    3    3  502    0  0.10122962301E+04  0.85518533107E+03  0.13770882834E+04  0.19111404314E+04  0.50400001928E-02 0.  1.
       -1    1    3    3    0  502 -0.10122962301E+04 -0.85518533107E+03 -0.16545553449E+04  0.21198205107E+04  0.50400001928E-02 0. -1.
</event>
<event>
 5   0  0.4149487E-07  0.3061767E+04  0.7818609E-02  0.8226310E-01
       -2   -1    0    0    0  501  0.00000000000E+00  0.00000000000E+00  0.15132708935E+04  0.15132708935E+04  0.25500000920E-02 0.  1.
        2   -1    0    0  501    0  0.00000000000E+00  0.00000000000E+00 -0.15487008878E+04  0.15487008878E+04  0.25500000920E-02 0. -1.
    10030    2    1    2    0    0  0.00000000000E+00  0.00000000000E+00 -0.35429994301E+02  0.30619717814E+04  0.30617667947E+04 0.  0.
        2    1    3    3  502    0  0.46273000429E+03  0.17385158237E+03  0.14312645227E+04  0.15142197871E+04  0.25500000920E-02 0.  1.
       -2    1    3    3    0  502 -0.46273000429E+03 -0.17385158237E+03 -0.14666945170E+04  0.15477519943E+04  0.25500000920E-02 0. -1.
</event>
<event>
 5   0  0.1351000E-07  0.4176962E+04  0.7818609E-02  0.7969769E-01
        1   -1    0    0  501    0  0.00000000000E+00  0.00000000000E+00  0.22834031816E+04  0.22834031816E+04  0.50400001928E-02 0. -1.
       -1   -1    0    0    0  501  0.00000000000E+00  0.00000000000E+00 -0.19101985402E+04  0.19101985402E+04  0.50400001928E-02 0.  1.
    10030    2    1    2    0    0  0.00000000000E+00  0.00000000000E+00  0.37320464144E+03  0.41936017218E+04  0.41769622571E+04 0.  0.
        4    1    3    3  502    0  0.57370372857E+02  0.64269358324E+03  0.21808194797E+04  0.22742738660E+04  0.12699999809E+01 0. -1.
       -4    1    3    3    0  502 -0.57370372857E+02 -0.64269358324E+03 -0.18076148383E+04  0.19193278558E+04  0.12699999809E+01 0.  1.
</event>
<event>
 5   0  0.4149487E-07  0.2865336E+04  0.7818609E-02  0.8283266E-01
        2   -1    0    0  501    0  0.00000000000E+00  0.00000000000E+00  0.20522179629E+04  0.20522179629E+04  0.25500000920E-02 0. -1.
       -2   -1    0    0    0  501  0.00000000000E+00  0.00000000000E+00 -0.10001558553E+04  0.10001558553E+04  0.25500000920E-02 0.  1.
    10030    2    1    2    0    0  0.00000000000E+00  0.00000000000E+00  0.10520621076E+04  0.30523738182E+04  0.28653361492E+04 0.  0.
        2    1    3    3  502    0 -0.10989306290E+03 -0.98502489516E+02  0.20440992783E+04  0.20494196947E+04  0.25500000920E-02 0. -1.
       -2    1    3    3    0  502  0.10989306290E+03  0.98502489516E+02 -0.99203717068E+03  0.10029541234E+04  0.25500000920E-02 0.  1.
</event>
<event>
 5   0  0.1372952E-07  0.3975024E+04  0.7818609E-02  0.8009604E-01
        1   -1    0    0  501    0  0.00000000000E+00  0.00000000000E+00  0.11218644188E+04  0.11218644188E+04  0.50400001928E-02 0. -1.
       -1   -1    0    0    0  501  0.00000000000E+00  0.00000000000E+00 -0.35211064630E+04  0.35211064630E+04  0.50400001928E-02 0.  1.
    10030    2    1    2    0    0  0.00000000000E+00  0.00000000000E+00 -0.23992420442E+04  0.46429708818E+04  0.39750240532E+04 0.  0.
        1    1    3    3  502    0 -0.13749916474E+04  0.14332080106E+04 -0.11128647771E+04  0.22766543972E+04  0.50400001928E-02 0.  1.
       -1    1    3    3    0  502  0.13749916474E+04 -0.14332080106E+04 -0.12863772670E+04  0.23663164846E+04  0.50400001928E-02 0. -1.
</event>
<event>
 5   0  0.1351000E-07  0.4045694E+04  0.7818609E-02  0.7995392E-01
        1   -1    0    0  501    0  0.00000000000E+00  0.00000000000E+00  0.24713463460E+04  0.24713463460E+04  0.50400001928E-02 0.  1.
       -1   -1    0    0    0  501  0.00000000000E+00  0.00000000000E+00 -0.16557409062E+04  0.16557409063E+04  0.50400001928E-02 0. -1.
    10030    2    1    2    0    0  0.00000000000E+00  0.00000000000E+00  0.81560543979E+03  0.41270872523E+04  0.40456936308E+04 0.  0.
        3    1    3    3  502    0  0.15536633157E+04  0.19931279197E+03  0.17135202119E+04  0.23215828253E+04  0.10100000352E+00 0.  1.
       -3    1    3    3    0  502 -0.15536633157E+04 -0.19931279197E+03 -0.89791477214E+03  0.18055044270E+04  0.10100000352E+00 0. -1.
</event>
<event>
 5   0  0.4149487E-07  0.2596717E+04  0.7818609E-02  0.8369317E-01
       -2   -1    0    0    0  501  0.00000000000E+00  0.00000000000E+00  0.76265500625E+03  0.76265500626E+03  0.25500000920E-02 0. -1.
        2   -1    0    0  501    0  0.00000000000E+00  0.00000000000E+00 -0.22103498134E+04  0.22103498134E+04  0.25500000920E-02 0.  1.
    10030    2    1    2    0    0  0.00000000000E+00  0.00000000000E+00 -0.14476948072E+04  0.29730048197E+04  0.25967166582E+04 0.  0.
        2    1    3    3  502    0 -0.23213486852E+03  0.98001569590E+03  0.21429164340E+03  0.10296787217E+04  0.25500000920E-02 0. -1.
       -2    1    3    3    0  502  0.23213486852E+03 -0.98001569590E+03 -0.16619864506E+04  0.19433260980E+04  0.25500000920E-02 0.  1.
</event>
<event>
 5   0  0.4301754E-07  0.3980690E+04  0.7818609E-02  0.8008453E-01
       -2   -1    0    0    0  501  0.00000000000E+00  0.00000000000E+00  0.23245875159E+04  0.23245875159E+04  0.25500000920E-02 0. -1.
        2   -1    0    0  501    0  0.00000000000E+00  0.00000000000E+00 -0.17041615335E+04  0.17041615335E+04  0.25500000920E-02 0.  1.
    10030    2    1    2    0    0  0.00000000000E+00  0.00000000000E+00  0.62042598244E+03  0.40287490494E+04  0.39806897020E+04 0.  0.
        1    1    3    3  502    0 -0.18199570932E+04  0.23745936184E+03 -0.46904509931E+03  0.18943690440E+04  0.50400001928E-02 0.  1.
       -1    1    3    3    0  502  0.18199570932E+04 -0.23745936184E+03  0.10894710818E+04  0.21343800054E+04  0.50400001928E-02 0. -1.
</event>
<event>
 5   0  0.4047916E-07  0.3308958E+04  0.7818609E-02  0.8160620E-01
       -2   -1    0    0    0  501  0.00000000000E+00  0.00000000000E+00  0.15510623153E+04  0.15510623153E+04  0.25500000920E-02 0. -1.
        2   -1    0    0  501    0  0.00000000000E+00  0.00000000000E+00 -0.17647913367E+04  0.17647913367E+04  0.25500000920E-02 0.  1.
    10030    2    1    2    0    0  0.00000000000E+00  0.00000000000E+00 -0.21372902143E+03  0.33158536520E+04  0.33089583477E+04 0.  0.
        5    1    3    3  502    0  0.17126666076E+03  0.12676601353E+04  0.94460021450E+03  0.15901528678E+04  0.46999998093E+01 0. -1.
       -5    1    3    3    0  502 -0.17126666076E+03 -0.12676601353E+04 -0.11583292359E+04  0.17257007842E+04  0.46999998093E+01 0.  1.
</event>
<event>
 5   0  0.1351000E-07  0.3890670E+04  0.7818609E-02  0.8026972E-01
       -1   -1    0    0    0  501  0.00000000000E+00  0.00000000000E+00  0.10907375643E+04  0.10907375643E+04  0.50400001928E-02 0. -1.
        1   -1    0    0  501    0  0.00000000000E+00  0.00000000000E+00 -0.34695139005E+04  0.34695139005E+04  0.50400001928E-02 0.  1.
    10030    2    1    2    0    0  0.00000000000E+00  0.00000000000E+00 -0.23787763362E+04  0.45602514649E+04  0.38906704519E+04 0.  0.
        4    1    3    3  502    0  0.15355066206E+04  0.67801225714E+03 -0.36882498899E+02  0.16789410753E+04  0.12699999809E+01 0.  1.
       -4    1    3    3    0  502 -0.15355066206E+04 -0.67801225714E+03 -0.23418938373E+04  0.28813103895E+04  0.12699999809E+01 0. -1.
</event>
<event>
 5   0  0.1372952E-07  0.3955545E+04  0.7818609E-02  0.8013575E-01
        1   -1    0    0  501    0  0.00000000000E+00  0.00000000000E+00  0.25882514251E+04  0.25882514251E+04  0.50400001928E-02 0.  1.
       -1   -1    0    0    0  501  0.00000000000E+00  0.00000000000E+00 -0.15112843963E+04  0.15112843963E+04  0.50400001928E-02 0. -1.
    10030    2    1    2    0    0  0.00000000000E+00  0.00000000000E+00  0.10769670288E+04  0.40995358214E+04  0.39555449649E+04 0.  0.
        1    1    3    3  502    0  0.41534658543E+03  0.12050090133E+03  0.25386461373E+04  0.25752198864E+04  0.50400001928E-02 0.  1.
       -1    1    3    3    0  502 -0.41534658543E+03 -0.12050090133E+03 -0.14616791085E+04  0.15243159349E+04  0.50400001928E-02 0. -1.
</event>
<event>
 5   0  0.1351000E-07  0.3189889E+04  0.7818609E-02  0.8191493E-01
       -1   -1    0    0    0  501  0.00000000000E+00  0.00000000000E+00  0.12695234144E+04  0.12695234144E+04  0.50400001928E-02 0. -1.
        1   -1    0    0  501    0  0.00000000000E+00  0.00000000000E+00 -0.20037812648E+04  0.20037812648E+04  0.50400001928E-02 0.  1.
    10030    2    1    2    0    0  0.00000000000E+00  0.00000000000E+00 -0.73425785044E+03  0.32733046792E+04  0.31898885454E+04 0.  0.
        3    1    3    3  502    0  0.10564231422E+04  0.78767283993E+03 -0.12891743133E+04  0.18434827850E+04  0.10100000352E+00 0.  1.
       -3    1    3    3    0  502 -0.10564231422E+04 -0.78767283993E+03  0.55491646288E+03  0.14298218942E+04  0.10100000352E+00 0. -1.
</event>
<event>
 5   0  0.4077370E-07  0.4095659E+04  0.7818609E-02  0.7985522E-01
        2   -1    0    0  501    0  0.00000000000E+00  0.00000000000E+00  0.13106223812E+04  0.13106223813E+04  0.25500000920E-02 0.  1.
       -2   -1    0    0    0  501  0.00000000000E+00  0.00000000000E+00 -0.31997054798E+04  0.31997054798E+04  0.25500000920E-02 0. -1.
    10030    2    1    2    0    0  0.00000000000E+00  0.00000000000E+00 -0.18890830986E+04  0.45103278611E+04  0.40956589776E+04 0.  0.
        3    1    3    3  502    0  0.15242636685E+04  0.10737900948E+03 -0.24459140680E+04  0.28839912657E+04  0.10100000352E+00 0. -1.
       -3    1    3    3    0  502 -0.15242636685E+04 -0.10737900948E+03  0.55683096937E+03  0.16263365954E+04  0.10100000352E+00 0.  1.
</event>
<event>
 5   0  0.4149487E-07  0.3175291E+04  0.7818609E-02  0.8195373E-01
        2   -1    0    0  501    0  0.00000000000E+00  0.00000000000E+00  0.15619982091E+04  0.15619982091E+04  0.25500000920E-02 0. -1.
       -2   -1    0    0    0  501  0.00000000000E+00  0.00000000000E+00 -0.16137137976E+04  0.16137137976E+04  0.25500000920E-02 0.  1.
    10030    2    1    2    0    0  0.00000000000E+00  0.00000000000E+00 -0.51715588536E+02  0.31757120067E+04  0.31752908918E+04 0.  0.
        2    1    3    3  502    0  0.31609831548E+03 -0.40135020175E+03 -0.15292597114E+04  0.16123384863E+04  0.25500000920E-02 0.  1.
       -2    1    3    3    0  502 -0.31609831548E+03  0.40135020175E+03  0.14775441228E+04  0.15633735205E+04  0.25500000920E-02 0. -1.
</event>
<event>
 5   0  0.4047916E-07  0.4092761E+04  0.7818609E-02  0.7986091E-01
        2   -1    0    0  501    0  0.00000000000E+00  0.00000000000E+00  0.27785963903E+04  0.27785963903E+04  0.25500000920E-02 0.  1.
       -2   -1    0    0    0  501  0.00000000000E+00  0.00000000000E+00 -0.15071183147E+04  0.15071183147E+04  0.25500000920E-02 0. -1.
    10030    2    1    2    0    0  0.00000000000E+00  0.00000000000E+00  0.12714780756E+04  0.42857147051E+04  0.40927611751E+04 0.  0.
        5    1    3    3  502    0 -0.37285135977E+03  0.54650488047E+03 -0.13920394050E+04  0.15412597172E+04  0.46999998093E+01 0. -1.
       -5    1    3    3    0  502  0.37285135977E+03 -0.54650488047E+03  0.26635174806E+04  0.27444549879E+04  0.46999998093E+01 0.  1.
</event>
<event>
 5   0  0.1421304E-07  0.4065701E+04  0.7818609E-02  0.7991422E-01
       -1   -1    0    0    0  501  0.00000000000E+00  0.00000000000E+00  0.17444538077E+04  0.17444538077E+04  0.50400001928E-02 0.  1.
        1   -1    0    0  501    0  0.00000000000E+00  0.00000000000E+00 -0.23689256041E+04  0.23689256041E+04  0.50400001928E-02 0. -1.
    10030    2    1    2    0    0  0.00000000000E+00  0.00000000000E+00 -0.62447179644E+03  0.41133794119E+04  0.40657010664E+04 0.  0.
        2    1    3    3  502    0 -0.63886044794E+03 -0.58389374870E+03  0.15487386324E+04  0.17741662643E+04  0.25500000920E-02 0.  1.
       -2    1    3    3    0  502  0.63886044794E+03  0.58389374870E+03 -0.21732104289E+04  0.23392131476E+04  0.25500000920E-02 0. -1.
</event>
<event>
 5   0  0.4079777E-07  0.3979206E+04  0.7818609E-02  0.8008754E-01
       -2   -1    0    0    0  501  0.00000000000E+00  0.00000000000E+00  0.13414225963E+04  0.13414225963E+04  0.25500000920E-02 0. -1.
        2   -1    0    0  501    0  0.00000000000E+00  0.00000000000E+00 -0.29509871040E+04  0.29509871040E+04  0.25500000920E-02 0.  1.
    10030    2    1    2    0    0  0.00000000000E+00  0.00000000000E+00 -0.16095645078E+04  0.42924097003E+04  0.39792063443E+04 0.  0.
        4    1    3    3  502    0 -0.44931857897E+02  0.26180873619E+02  0.13406889311E+04  0.13416977055E+04  0.12699999809E+01 0. -1.
       -4    1    3    3    0  502  0.44931857897E+02 -0.26180873619E+02 -0.29502534389E+04  0.29507119948E+04  0.12699999809E+01 0.  1.
</event>
<event>
 5   0  0.1351000E-07  0.2639447E+04  0.7818609E-02  0.8354924E-01
       -1   -1    0    0    0  501  0.00000000000E+00  0.00000000000E+00  0.94640843306E+03  0.94640843307E+03  0.50400001928E-02 0.  1.
        1   -1    0    0  501    0  0.00000000000E+00  0.00000000000E+00 -0.18402944052E+04  0.18402944052E+04  0.50400001928E-02 0. -1.
    10030    2    1    2    0    0  0.00000000000E+00  0.00000000000E+00 -0.89388597211E+03  0.27867028382E+04  0.26394470212E+04 0.  0.
        3    1    3    3  502    0 -0.11245224919E+03  0.50932939253E+02  0.94029909938E+03  0.94836811373E+03  0.10100000352E+00 0.  1.
       -3    1    3    3    0  502  0.11245224919E+03 -0.50932939253E+02 -0.18341850715E+04  0.18383347245E+04  0.10100000352E+00 0. -1.
</event>
<event>
 5   0  0.4301754E-07  0.3971422E+04  0.7818609E-02  0.8010337E-01
       -2   -1    0    0    0  501  0.00000000000E+00  0.00000000000E+00  0.15251487349E+04  0.15251487349E+04  0.25500000920E-02 0. -1.
        2   -1    0    0  501    0  0.00000000000E+00  0.00000000000E+00 -0.25853533669E+04  0.25853533669E+04  0.25500000920E-02 0.  1.
    10030    2    1    2    0    0  0.00000000000E+00  0.00000000000E+00 -0.10602046320E+04  0.41105021018E+04  0.39714221215E+04 0.  0.
        1    1    3    3  502    0  0.18157606924E+04  0.27360266683E+03 -0.13123496720E+04  0.22570128429E+04  0.50400001928E-02 0.  1.
       -1    1    3    3    0  502 -0.18157606924E+04 -0.27360266683E+03  0.25214503996E+03  0.18534892589E+04  0.50400001928E-02 0. -1.
</event>
<event>
 5   0  0.1351000E-07  0.3912211E+04  0.7818609E-02  0.8022494E-01
        4   -1    0    0  501    0  0.00000000000E+00  0.00000000000E+00  0.18727519484E+04  0.18727523790E+04  0.12699999809E+01 0. -1.
       -4   -1    0    0    0  501  0.00000000000E+00  0.00000000000E+00 -0.20431679788E+04  0.20431683735E+04  0.12699999809E+01 0.  1.
    10030    2    1    2    0    0  0.00000000000E+00  0.00000000000E+00 -0.17041603043E+03  0.39159207526E+04  0.39122108477E+04 0.  0.
        5    1    3    3  502    0 -0.14282793572E+04  0.24982962204E+00  0.12526013512E+04  0.18997405664E+04  0.46999998093E+01 0. -1.
       -5    1    3    3    0  502  0.14282793572E+04 -0.24982962204E+00 -0.14230173816E+04  0.20161801862E+04  0.46999998093E+01 0.  1.
</event>
<event>
 5   0  0.1351000E-07  0.4006321E+04  0.7818609E-02  0.8003273E-01
       -1   -1    0    0    0  501  0.00000000000E+00  0.00000000000E+00  0.17824051151E+04  0.17824051151E+04  0.50400001928E-02 0. -1.
        1   -1    0    0  501    0  0.00000000000E+00  0.00000000000E+00 -0.22512568946E+04  0.22512568946E+04  0.50400001928E-02 0.  1.
    10030    2    1    2    0    0  0.00000000000E+00  0.00000000000E+00 -0.46885177950E+03  0.40336620097E+04  0.40063209079E+04 0.  0.
        4    1    3    3  502    0  0.97803692936E+03  0.66039886654E+03 -0.18641035273E+04  0.22062562116E+04  0.12699999809E+01 0.  1.
       -4    1    3    3    0  502 -0.97803692936E+03 -0.66039886654E+03  0.13952517478E+04  0.18274057980E+04  0.12699999809E+01 0. -1.
</event>
<event>
 5   0  0.4079777E-07  0.3377670E+04  0.7818609E-02  0.8143409E-01
       -2   -1    0    0    0  501  0.00000000000E+00  0.00000000000E+00  0.15387468444E+04  0.15387468444E+04  0.25500000920E-02 0. -1.
        2   -1    0    0  501    0  0.00000000000E+00  0.00000000000E+00 -0.18535628283E+04  0.18535628284E+04  0.25500000920E-02 0.  1.
    10030    2    1    2    0    0  0.00000000000E+00  0.00000000000E+00 -0.31481598395E+03  0.33923096728E+04  0.33776701752E+04 0.  0.
        4    1    3    3  502    0 -0.45773266711E+03 -0.10694238869E+04 -0.13870410978E+04  0.18102682852E+04  0.12699999809E+01 0.  1.
       -4    1    3    3    0  502  0.45773266711E+03  0.10694238869E+04  0.10722251139E+04  0.15820413876E+04  0.12699999809E+01 0. -1.
</event>
<event>
 5   0  0.4149487E-07  0.3722428E+04  0.7818609E-02  0.8063010E-01
        2   -1    0    0  501    0  0.00000000000E+00  0.00000000000E+00  0.25693382983E+04  0.25693382983E+04  0.25500000920E-02 0. -1.
       -2   -1    0    0    0  501  0.00000000000E+00  0.00000000000E+00 -0.13482525987E+04  0.13482525987E+04  0.25500000920E-02 0.  1.
    10030    2    1    2    0    0  0.00000000000E+00  0.00000000000E+00  0.12210856995E+04  0.39175908970E+04  0.37224277227E+04 0.  0.
        2    1    3    3  502    0 -0.18382256227E+04 -0.21340110651E+03  0.40136728202E+03  0.18935968861E+04  0.25500000920E-02 0.  1.
       -2    1    3    3    0  502  0.18382256227E+04  0.21340110651E+03  0.81971841751E+03  0.20239940109E+04  0.25500000920E-02 0. -1.
</event>
<event>
 5   0  0.1368865E-07  0.2887492E+04  0.7818609E-02  0.8276609E-01
        1   -1    0    0  501    0  0.00000000000E+00  0.00000000000E+00  0.25811574832E+04  0.25811574832E+04  0.50400001928E-02 0. -1.
       -1   -1    0    0    0  501  0.00000000000E+00  0.00000000000E+00 -0.80754578586E+03  0.80754578587E+03  0.50400001928E-02 0.  1.
    10030    2    1    2    0    0  0.00000000000E+00  0.00000000000E+00  0.17736116973E+04  0.33887032691E+04  0.28874922325E+04 0.  0.
        5    1    3    3  502    0  0.25975762230E+03  0.55415808087E+03  0.24213781293E+04  0.24975306476E+04  0.46999998093E+01 0. -1.
       -5    1    3    3    0  502 -0.25975762230E+03 -0.55415808087E+03 -0.64776643191E+03  0.89117262146E+03  0.46999998093E+01 0.  1.
</event>
<event>
 5   0  0.4047916E-07  0.4009944E+04  0.7818609E-02  0.8002544E-01
        2   -1    0    0  501    0  0.00000000000E+00  0.00000000000E+00  0.27239684992E+04  0.27239684992E+04  0.25500000920E-02 0.  1.
       -2   -1    0    0    0  501  0.00000000000E+00  0.00000000000E+00 -0.14757558468E+04  0.14757558468E+04  0.25500000920E-02 0. -1.
    10030    2    1    2    0    0  0.00000000000E+00  0.00000000000E+00  0.12482126524E+04  0.41997243459E+04  0.40099438595E+04 0.  0.
        5    1    3    3  502    0  0.59353712701E+03  0.55832956657E+03 -0.12944970096E+04  0.15296283287E+04  0.46999998093E+01 0. -1.
       -5    1    3    3    0  502 -0.59353712701E+03 -0.55832956657E+03  0.25427096620E+04  0.26700960172E+04  0.46999998093E+01 0.  1.
</event>
<event>
 5   0  0.4149487E-07  0.3921567E+04  0.7818609E-02  0.8020559E-01
       -2   -1    0    0    0  501  0.00000000000E+00  0.00000000000E+00  0.13754736183E+04  0.13754736183E+04  0.25500000920E-02 0. -1.
        2   -1    0    0  501    0  0.00000000000E+00  0.00000000000E+00 -0.27951627700E+04  0.27951627700E+04  0.25500000920E-02 0.  1.
    10030    2    1    2    0    0  0.00000000000E+00  0.00000000000E+00 -0.14196891518E+04  0.41706363883E+04  0.39215673647E+04 0.  0.
        2    1    3    3  502    0 -0.13890251643E+04  0.35767954446E+03 -0.21316726873E+04  0.25693100260E+04  0.25500000920E-02 0.  1.
       -2    1    3    3    0  502  0.13890251643E+04 -0.35767954446E+03  0.71198353555E+03  0.16013263623E+04  0.25500000920E-02 0. -1.
</event>
<event>
 5   0  0.4047916E-07  0.3966201E+04  0.7818609E-02  0.8011400E-01
       -2   -1    0    0    0  501  0.00000000000E+00  0.00000000000E+00  0.21903429696E+04  0.21903429696E+04  0.25500000920E-02 0.  1.
        2   -1    0    0  501    0  0.00000000000E+00  0.00000000000E+00 -0.17954665358E+04  0.17954665358E+04  0.25500000920E-02 0. -1.
    10030    2    1    2    0    0  0.00000000000E+00  0.00000000000E+00  0.39487643381E+03  0.39858095054E+04  0.39662009550E+04 0.  0.
        5    1    3    3  502    0 -0.19185497750E+04  0.44487553132E+01 -0.30685179397E+03  0.19429444521E+04  0.46999998093E+01 0.  1.
       -5    1    3    3    0  502  0.19185497750E+04 -0.44487553132E+01  0.70172822778E+03  0.20428650533E+04  0.46999998093E+01 0. -1.
</event>
<event>
 5   0  0.1351000E-07  0.4003197E+04  0.7818609E-02  0.8003902E-01
       -1   -1    0    0    0  501  0.00000000000E+00  0.00000000000E+00  0.17300466917E+04  0.17300466917E+04  0.50400001928E-02 0. -1.
        1   -1    0    0  501    0  0.00000000000E+00  0.00000000000E+00 -0.23157732875E+04  0.23157732875E+04  0.50400001928E-02 0.  1.
    10030    2    1    2    0    0  0.00000000000E+00  0.00000000000E+00 -0.58572659579E+03  0.40458199793E+04  0.40031966801E+04 0.  0.
        3    1    3    3  502    0 -0.20396742740E+03  0.44425282063E+03 -0.22545171436E+04  0.23069050351E+04  0.10100000352E+00 0.  1.
       -3    1    3    3    0  502  0.20396742740E+03 -0.44425282063E+03  0.16687905478E+04  0.17389149441E+04  0.10100000352E+00 0. -1.
</event>
<event>
 5   0  0.4301754E-07  0.4130668E+04  0.7818609E-02  0.7978693E-01
        2   -1    0    0  501    0  0.00000000000E+00  0.00000000000E+00  0.15733622561E+04  0.15733622561E+04  0.25500000920E-02 0. -1.
       -2   -1    0    0    0  501  0.00000000000E+00  0.00000000000E+00 -0.27111400429E+04  0.27111400429E+04  0.25500000920E-02 0.  1.
    10030    2    1    2    0    0  0.00000000000E+00  0.00000000000E+00 -0.11377777868E+04  0.42845022990E+04  0.41306684275E+04 0.  0.
        1    1    3    3  502    0 -0.62966511321E+03 -0.12826326618E+04 -0.21157294613E+04  0.25530248438E+04  0.50400001928E-02 0.  1.
       -1    1    3    3    0  502  0.62966511321E+03  0.12826326618E+04  0.97795167451E+03  0.17314774551E+04  0.50400001928E-02 0. -1.
</event>
<event>
 5   0  0.1351000E-07  0.3912975E+04  0.7818609E-02  0.8022336E-01
       -1   -1    0    0    0  501  0.00000000000E+00  0.00000000000E+00  0.15996563595E+04  0.15996563596E+04  0.50400001928E-02 0. -1.
        1   -1    0    0  501    0  0.00000000000E+00  0.00000000000E+00 -0.23929155198E+04  0.23929155198E+04  0.50400001928E-02 0.  1.
    10030    2    1    2    0    0  0.00000000000E+00  0.00000000000E+00 -0.79325916022E+03  0.39925718793E+04  0.39129745867E+04 0.  0.
        3    1    3    3  502    0 -0.15492988039E+03 -0.19341903087E+04 -0.65221880943E+03  0.20470673667E+04  0.10100000352E+00 0.  1.
       -3    1    3    3    0  502  0.15492988039E+03  0.19341903087E+04 -0.14104035079E+03  0.19455045127E+04  0.10100000352E+00 0. -1.
</event>
<event>
 5   0  0.4149487E-07  0.4058581E+04  0.7818609E-02  0.7992832E-01
        2   -1    0    0  501    0  0.00000000000E+00  0.00000000000E+00  0.27861525966E+04  0.27861525966E+04  0.25500000920E-02 0. -1.
       -2   -1    0    0    0  501  0.00000000000E+00  0.00000000000E+00 -0.14780308914E+04  0.14780308914E+04  0.25500000920E-02 0.  1.
    10030    2    1    2    0    0  0.00000000000E+00  0.00000000000E+00  0.13081217052E+04  0.42641834881E+04  0.40585808387E+04 0.  0.
        2    1    3    3  502    0  0.93747497708E+03  0.10929876037E+04 -0.84824831112E+03  0.16712290184E+04  0.25500000920E-02 0.  1.
       -2    1    3    3    0  502 -0.93747497708E+03 -0.10929876037E+04  0.21563700163E+04  0.25929544697E+04  0.25500000920E-02 0. -1.
</event>
<event>
 5   0  0.4077370E-07  0.2916285E+04  0.7818609E-02  0.8268049E-01
       -2   -1    0    0    0  501  0.00000000000E+00  0.00000000000E+00  0.68255135767E+03  0.68255135768E+03  0.25500000920E-02 0. -1.
        2   -1    0    0  501    0  0.00000000000E+00  0.00000000000E+00 -0.31150465944E+04  0.31150465944E+04  0.25500000920E-02 0.  1.
    10030    2    1    2    0    0  0.00000000000E+00  0.00000000000E+00 -0.24324952368E+04  0.37975979521E+04  0.29162848162E+04 0.  0.
        3    1    3    3  502    0 -0.61567298941E+03 -0.13089716176E+04 -0.14553691161E+04  0.20519647170E+04  0.10100000352E+00 0. -1.
       -3    1    3    3    0  502  0.61567298941E+03  0.13089716176E+04 -0.97712612068E+03  0.17456332351E+04  0.10100000352E+00 0.  1.
</event>
<event>
 5   0  0.4301754E-07  0.3884023E+04  0.7818609E-02  0.8028360E-01
       -2   -1    0    0    0  501  0.00000000000E+00  0.00000000000E+00  0.21270052296E+04  0.21270052296E+04  0.25500000920E-02 0.  1.
        2   -1    0    0  501    0  0.00000000000E+00  0.00000000000E+00 -0.17731078346E+04  0.17731078346E+04  0.25500000920E-02 0. -1.
    10030    2    1    2    0    0  0.00000000000E+00  0.00000000000E+00  0.35389739503E+03  0.39001130642E+04  0.38840234998E+04 0.  0.
        1    1    3    3  502    0 -0.19300381332E+04  0.52293770986E+02 -0.32789252826E+02  0.19310248494E+04  0.50400001928E-02 0. -1.
       -1    1    3    3    0  502  0.19300381332E+04 -0.52293770986E+02  0.38668664786E+03  0.19690882148E+04  0.50400001928E-02 0.  1.
</event>
<event>
 5   0  0.4047916E-07  0.3924895E+04  0.7818609E-02  0.8019871E-01
        2   -1    0    0  501    0  0.00000000000E+00  0.00000000000E+00  0.21356099209E+04  0.21356099209E+04  0.25500000920E-02 0.  1.
       -2   -1    0    0    0  501  0.00000000000E+00  0.00000000000E+00 -0.18033254168E+04  0.18033254168E+04  0.25500000920E-02 0. -1.
    10030    2    1    2    0    0  0.00000000000E+00  0.00000000000E+00  0.33228450412E+03  0.39389353377E+04  0.39248947251E+04 0.  0.
        5    1    3    3  502    0  0.93498953093E+03 -0.15067493526E+04  0.10097912331E+04  0.20406370228E+04  0.46999998093E+01 0.  1.
       -5    1    3    3    0  502 -0.93498953093E+03  0.15067493526E+04 -0.67750672902E+03  0.18982983149E+04  0.46999998093E+01 0. -1.
</event>
<event>
 5   0  0.1351000E-07  0.3963120E+04  0.7818609E-02  0.8012028E-01
        1   -1    0    0  501    0  0.00000000000E+00  0.00000000000E+00  0.24427623805E+04  0.24427623805E+04  0.50400001928E-02 0. -1.
       -1   -1    0    0    0  501  0.00000000000E+00  0.00000000000E+00 -0.16074342938E+04  0.16074342938E+04  0.50400001928E-02 0.  1.
    10030    2    1    2    0    0  0.00000000000E+00  0.00000000000E+00  0.83532808675E+03  0.40501966743E+04  0.39631199941E+04 0.  0.
        4    1    3    3  502    0  0.10329523950E+04 -0.42000842861E+03  0.20916964065E+04  0.23703571884E+04  0.12699999809E+01 0. -1.
       -4    1    3    3    0  502 -0.10329523950E+04  0.42000842861E+03 -0.12563683198E+04  0.16798394859E+04  0.12699999809E+01 0.  1.
</event>
<event>
 5   0  0.1368865E-07  0.3934964E+04  0.7818609E-02  0.8017796E-01
        1   -1    0    0  501    0  0.00000000000E+00  0.00000000000E+00  0.23711880452E+04  0.23711880452E+04  0.50400001928E-02 0. -1.
       -1   -1    0    0    0  501  0.00000000000E+00  0.00000000000E+00 -0.16325091311E+04  0.16325091311E+04  0.50400001928E-02 0.  1.
    10030    2    1    2    0    0  0.00000000000E+00  0.00000000000E+00  0.73867891414E+03  0.40036971763E+04  0.39349643634E+04 0.  0.
        5    1    3    3  502    0 -0.81452994536E+03  0.14091424282E+04 -0.75532896287E+03  0.17943481677E+04  0.46999998093E+01 0.  1.
       -5    1    3    3    0  502  0.81452994536E+03 -0.14091424282E+04  0.14940078770E+04  0.22093490085E+04  0.46999998093E+01 0. -1.
</event>
<event>
 5   0  0.4079777E-07  0.4011916E+04  0.7818609E-02  0.8002147E-01
        2   -1    0    0  501    0  0.00000000000E+00  0.00000000000E+00  0.20991275125E+04  0.20991275125E+04  0.25500000920E-02 0. -1.
       -2   -1    0    0    0  501  0.00000000000E+00  0.00000000000E+00 -0.19169238151E+04  0.19169238151E+04  0.25500000920E-02 0.  1.
    10030    2    1    2    0    0  0.00000000000E+00  0.00000000000E+00  0.18220369743E+03  0.40160513276E+04  0.40119160109E+04 0.  0.
        4    1    3    3  502    0 -0.21156543912E+03 -0.29209137638E+03  0.20664043188E+04  0.20976428983E+04  0.12699999809E+01 0. -1.
       -4    1    3    3    0  502  0.21156543912E+03  0.29209137638E+03 -0.18842006213E+04  0.19184084293E+04  0.12699999809E+01 0.  1.
</event>
<event>
 5   0  0.1351000E-07  0.3987708E+04  0.7818609E-02  0.8007031E-01
        1   -1    0    0  501    0  0.00000000000E+00  0.00000000000E+00  0.13343799238E+04  0.13343799238E+04  0.50400001928E-02 0. -1.
       -1   -1    0    0    0  501  0.00000000000E+00  0.00000000000E+00 -0.29792523373E+04  0.29792523373E+04  0.50400001928E-02 0.  1.
    10030    2    1    2    0    0  0.00000000000E+00  0.00000000000E+00 -0.16448724135E+04  0.43136322611E+04  0.39877083679E+04 0.  0.
        4    1    3    3  502    0  0.13845930374E+04  0.27762745542E+03  0.70018697879E+03  0.15762101070E+04  0.12699999809E+01 0. -1.
       -4    1    3    3    0  502 -0.13845930374E+04 -0.27762745542E+03 -0.23450593923E+04  0.27374221541E+04  0.12699999809E+01 0.  1.
</event>
<event>
 5   0  0.1372952E-07  0.2487402E+04  0.7818609E-02  0.8407487E-01
        1   -1    0    0  501    0  0.00000000000E+00  0.00000000000E+00  0.10983822421E+04  0.10983822421E+04  0.50400001928E-02 0. -1.
       -1   -1    0    0    0  501  0.00000000000E+00  0.00000000000E+00 -0.14082458426E+04  0.14082458426E+04  0.50400001928E-02 0.  1.
    10030    2    1    2    0    0  0.00000000000E+00  0.00000000000E+00 -0.30986360052E+03  0.25066280847E+04  0.24874020391E+04 0.  0.
        1    1    3    3  502    0 -0.63833878630E+03 -0.12626919434E+03  0.91315290329E+03  0.11212798671E+04  0.50400001928E-02 0. -1.
       -1    1    3    3    0  502  0.63833878630E+03  0.12626919434E+03 -0.12230165038E+04  0.13853482177E+04  0.50400001928E-02 0.  1.
</event>
<event>
 5   0  0.4301754E-07  0.4050974E+04  0.7818609E-02  0.7994342E-01
       -2   -1    0    0    0  501  0.00000000000E+00  0.00000000000E+00  0.15477220931E+04  0.15477220931E+04  0.25500000920E-02 0.  1.
        2   -1    0    0  501    0  0.00000000000E+00  0.00000000000E+00 -0.26507328749E+04  0.26507328749E+04  0.25500000920E-02 0. -1.
    10030    2    1    2    0    0  0.00000000000E+00  0.00000000000E+00 -0.11030107818E+04  0.41984549680E+04  0.40509741216E+04 0.  0.
        1    1    3    3  502    0 -0.19091341279E+04  0.39833383929E+02  0.14852395540E+03  0.19153169926E+04  0.50400001928E-02 0. -1.
       -1    1    3    3    0  502  0.19091341279E+04 -0.39833383929E+02 -0.12515347372E+04  0.22831379755E+04  0.50400001928E-02 0.  1.
</event>
<event>
 5   0  0.1368865E-07  0.3979443E+04  0.7818609E-02  0.8008706E-01
       -1   -1    0    0    0  501  0.00000000000E+00  0.00000000000E+00  0.15401722828E+04  0.15401722828E+04  0.50400001928E-02 0.  1.
        1   -1    0    0  501    0  0.00000000000E+00  0.00000000000E+00 -0.25704866132E+04  0.25704866132E+04  0.50400001928E-02 0. -1.
    10030    2    1    2    0    0  0.00000000000E+00  0.00000000000E+00 -0.10303143304E+04  0.41106588960E+04  0.39794432952E+04 0.  0.
        5    1    3    3  502    0  0.11785793696E+03  0.18272383848E+04  0.28915673601E+03  0.18537325363E+04  0.46999998093E+01 0.  1.
       -5    1    3    3    0  502 -0.11785793696E+03 -0.18272383848E+04 -0.13194710664E+04  0.22569263597E+04  0.46999998093E+01 0. -1.
</event>
<event>
 5   0  0.4079777E-07  0.4029206E+04  0.7818609E-02  0.7998681E-01
        2   -1    0    0  501    0  0.00000000000E+00  0.00000000000E+00  0.17267413839E+04  0.17267413839E+04  0.25500000920E-02 0. -1.
       -2   -1    0    0    0  501  0.00000000000E+00  0.00000000000E+00 -0.23504535419E+04  0.23504535419E+04  0.25500000920E-02 0.  1.
    10030    2    1    2    0    0  0.00000000000E+00  0.00000000000E+00 -0.62371215803E+03  0.40771949259E+04  0.40292060766E+04 0.  0.
        4    1    3    3  502    0 -0.67464102874E+03  0.84171603788E+02  0.16071479804E+04  0.17450362806E+04  0.12699999809E+01 0. -1.
       -4    1    3    3    0  502  0.67464102874E+03 -0.84171603788E+02 -0.22308601385E+04  0.23321586453E+04  0.12699999809E+01 0.  1.
</event>
<event>
 5   0  0.4301754E-07  0.4036937E+04  0.7818609E-02  0.7997136E-01
       -2   -1    0    0    0  501  0.00000000000E+00  0.00000000000E+00  0.24957224781E+04  0.24957224781E+04  0.25500000920E-02 0. -1.
        2   -1    0    0  501    0  0.00000000000E+00  0.00000000000E+00 -0.16324789415E+04  0.16324789415E+04  0.25500000920E-02 0.  1.
    10030    2    1    2    0    0  0.00000000000E+00  0.00000000000E+00  0.86324353657E+03  0.41282014196E+04  0.40369366551E+04 0.  0.
        1    1    3    3  502    0 -0.12545307125E+04 -0.51042924056E+03  0.19620620312E+04  0.23841293447E+04  0.50400001928E-02 0. -1.
       -1    1    3    3    0  502  0.12545307125E+04  0.51042924056E+03 -0.10988184946E+04  0.17440720749E+04  0.50400001928E-02 0.  1.
</event>
<event>
 5   0  0.4077370E-07  0.2902813E+04  0.7818609E-02  0.8272041E-01
        2   -1    0    0  501    0  0.00000000000E+00  0.00000000000E+00  0.32255128166E+04  0.32255128166E+04  0.25500000920E-02 0.  1.
       -2   -1    0    0    0  501  0.00000000000E+00  0.00000000000E+00 -0.65309930612E+03  0.65309930613E+03  0.25500000920E-02 0. -1.
    10030    2    1    2    0    0  0.00000000000E+00  0.00000000000E+00  0.25724135105E+04  0.38786121227E+04  0.29028125550E+04 0.  0.
        3    1    3    3  502    0 -0.48983070733E+03  0.51636308469E+03 -0.40392053386E+03  0.81836224555E+03  0.10100000352E+00 0. -1.
       -3    1    3    3    0  502  0.48983070733E+03 -0.51636308469E+03  0.29763340443E+04  0.30602498772E+04  0.10100000352E+00 0.  1.
</event>
<event>
 5   0  0.4149487E-07  0.3896652E+04  0.7818609E-02  0.8025726E-01
        2   -1    0    0  501    0  0.00000000000E+00  0.00000000000E+00  0.26004660281E+04  0.26004660281E+04  0.25500000920E-02 0.  1.
       -2   -1    0    0    0  501  0.00000000000E+00  0.00000000000E+00 -0.14597281776E+04  0.14597281776E+04  0.25500000920E-02 0. -1.
    10030    2    1    2    0    0  0.00000000000E+00  0.00000000000E+00  0.11407378505E+04  0.40601942058E+04  0.38966516582E+04 0.  0.
        2    1    3    3  502    0  0.12679133423E+04 -0.64619445353E+02  0.21102982542E+04  0.24627502184E+04  0.25500000920E-02 0.  1.
       -2    1    3    3    0  502 -0.12679133423E+04  0.64619445353E+02 -0.96956040375E+03  0.15974439874E+04  0.25500000920E-02 0. -1.
</event>
<event>
 5   0  0.4301754E-07  0.4064797E+04  0.7818609E-02  0.7991601E-01
        2   -1    0    0  501    0  0.00000000000E+00  0.00000000000E+00  0.24298913132E+04  0.24298913132E+04  0.25500000920E-02 0.  1.
       -2   -1    0    0    0  501  0.00000000000E+00  0.00000000000E+00 -0.16999295221E+04  0.16999295221E+04  0.25500000920E-02 0. -1.
    10030    2    1    2    0    0  0.00000000000E+00  0.00000000000E+00  0.72996179108E+03  0.41298208353E+04  0.40647971555E+04 0.  0.
        1    1    3    3  502    0 -0.78080911240E+03 -0.95078729550E+03  0.20085687328E+04  0.23554209190E+04  0.50400001928E-02 0.  1.
       -1    1    3    3    0  502  0.78080911240E+03  0.95078729550E+03 -0.12786069417E+04  0.17743999162E+04  0.50400001928E-02 0. -1.
</event>
<event>
 5   0  0.4077370E-07  0.3702585E+04  0.7818609E-02  0.8067389E-01
        2   -1    0    0  501    0  0.00000000000E+00  0.00000000000E+00  0.21117307563E+04  0.21117307563E+04  0.25500000920E-02 0. -1.
       -2   -1    0    0    0  501  0.00000000000E+00  0.00000000000E+00 -0.16229735637E+04  0.16229735637E+04  0.25500000920E-02 0.  1.
    10030    2    1    2    0    0  0.00000000000E+00  0.00000000000E+00  0.48875719257E+03  0.37347043200E+04  0.37025846060E+04 0.  0.
        3    1    3    3  502    0 -0.11861547321E+04 -0.14087557305E+04  0.43503530297E+03  0.18923032214E+04  0.10100000352E+00 0.  1.
       -3    1    3    3    0  502  0.11861547321E+04  0.14087557305E+04  0.53721889610E+02  0.18424010986E+04  0.10100000352E+00 0. -1.
</event>
<event>
 5   0  0.4149487E-07  0.3211067E+04  0.7818609E-02  0.8185901E-01
        2   -1    0    0  501    0  0.00000000000E+00  0.00000000000E+00  0.25204821143E+04  0.25204821143E+04  0.25500000920E-02 0.  1.
       -2   -1    0    0    0  501  0.00000000000E+00  0.00000000000E+00 -0.10227160702E+04  0.10227160702E+04  0.25500000920E-02 0. -1.
    10030    2    1    2    0    0  0.00000000000E+00  0.00000000000E+00  0.14977660441E+04  0.35431981845E+04  0.32110668401E+04 0.  0.
        2    1    3    3  502    0 -0.31298207657E+03 -0.11041626948E+03  0.24822177025E+04  0.25043071408E+04  0.25500000920E-02 0.  1.
       -2    1    3    3    0  502  0.31298207657E+03  0.11041626948E+03 -0.98445165842E+03  0.10388910437E+04  0.25500000920E-02 0. -1.
</event>
<event>
 5   0  0.1351000E-07  0.3773968E+04  0.7818609E-02  0.8051764E-01
       -1   -1    0    0    0  501  0.00000000000E+00  0.00000000000E+00  0.17465690374E+04  0.17465690374E+04  0.50400001928E-02 0. -1.
        1   -1    0    0  501    0  0.00000000000E+00  0.00000000000E+00 -0.20386875870E+04  0.20386875870E+04  0.50400001928E-02 0.  1.
    10030    2    1    2    0    0  0.00000000000E+00  0.00000000000E+00 -0.29211854963E+03  0.37852566244E+04  0.37739680000E+04 0.  0.
        3    1    3    3  502    0 -0.74295291795E+03  0.15658407414E+04 -0.89453020649E+03  0.19503898498E+04  0.10100000352E+00 0.  1.
       -3    1    3    3    0  502  0.74295291795E+03 -0.15658407414E+04  0.60241165686E+03  0.18348667745E+04  0.10100000352E+00 0. -1.
</event>
<event>
 5   0  0.1372952E-07  0.3958935E+04  0.7818609E-02  0.8012882E-01
        1   -1    0    0  501    0  0.00000000000E+00  0.00000000000E+00  0.14571417357E+04  0.14571417357E+04  0.50400001928E-02 0. -1.
       -1   -1    0    0    0  501  0.00000000000E+00  0.00000000000E+00 -0.26890261888E+04  0.26890261888E+04  0.50400001928E-02 0.  1.
    10030    2    1    2    0    0  0.00000000000E+00  0.00000000000E+00 -0.12318844531E+04  0.41461679245E+04  0.39589353559E+04 0.  0.
        1    1    3    3  502    0 -0.14057624443E+04 -0.13105061696E+04 -0.11950092620E+03  0.19255843117E+04  0.50400001928E-02 0. -1.
       -1    1    3    3    0  502  0.14057624443E+04  0.13105061696E+04 -0.11123835269E+04  0.22205836127E+04  0.50400001928E-02 0.  1.
</event>
<event>
 5   0  0.4149487E-07  0.3459236E+04  0.7818609E-02  0.8123519E-01
        2   -1    0    0  501    0  0.00000000000E+00  0.00000000000E+00  0.25290388192E+04  0.25290388192E+04  0.25500000920E-02 0.  1.
       -2   -1    0    0    0  501  0.00000000000E+00  0.00000000000E+00 -0.11828915829E+04  0.11828915829E+04  0.25500000920E-02 0. -1.
    10030    2    1    2    0    0  0.00000000000E+00  0.00000000000E+00  0.13461472363E+04  0.37119304020E+04  0.34592361769E+04 0.  0.
        2    1    3    3  502    0  0.93857357008E+03  0.13172951656E+04  0.15624692493E+02  0.16175385716E+04  0.25500000920E-02 0. -1.
       -2    1    3    3    0  502 -0.93857357008E+03 -0.13172951656E+04  0.13305225438E+04  0.20943918304E+04  0.25500000920E-02 0.  1.
</event>
<event>
 5   0  0.4047916E-07  0.4044849E+04  0.7818609E-02  0.7995560E-01
       -2   -1    0    0    0  501  0.00000000000E+00  0.00000000000E+00  0.17048741041E+04  0.17048741041E+04  0.25500000920E-02 0. -1.
        2   -1    0    0  501    0  0.00000000000E+00  0.00000000000E+00 -0.23991213508E+04  0.23991213508E+04  0.25500000920E-02 0.  1.
    10030    2    1    2    0    0  0.00000000000E+00  0.00000000000E+00 -0.69424724668E+03  0.41039954550E+04  0.40448485083E+04 0.  0.
        5    1    3    3  502    0 -0.13703885869E+04 -0.87623920016E+03  0.87228993682E+03  0.18457171611E+04  0.46999998093E+01 0. -1.
       -5    1    3    3    0  502  0.13703885869E+04  0.87623920016E+03 -0.15665371835E+04  0.22582782938E+04  0.46999998093E+01 0.  1.
</event>
<event>
 5   0  0.4047916E-07  0.2773027E+04  0.7818609E-02  0.8311691E-01
       -2   -1    0    0    0  501  0.00000000000E+00  0.00000000000E+00  0.16022370795E+04  0.16022370795E+04  0.25500000920E-02 0. -1.
        2   -1    0    0  501    0  0.00000000000E+00  0.00000000000E+00 -0.11998351210E+04  0.11998351210E+04  0.25500000920E-02 0.  1.
    10030    2    1    2    0    0  0.00000000000E+00  0.00000000000E+00  0.40240195857E+03  0.28020722005E+04  0.27730274576E+04 0.  0.
        5    1    3    3  502    0 -0.65724369962E+03 -0.88956000581E+03 -0.64368579746E+03  0.12797030048E+04  0.46999998093E+01 0. -1.
       -5    1    3    3    0  502  0.65724369962E+03  0.88956000581E+03  0.10460877560E+04  0.15223691957E+04  0.46999998093E+01 0.  1.
</event>
<event>
 5   0  0.1351000E-07  0.3266911E+04  0.7818609E-02  0.8171366E-01
       -1   -1    0    0    0  501  0.00000000000E+00  0.00000000000E+00  0.12723092607E+04  0.12723092607E+04  0.50400001928E-02 0.  1.
        1   -1    0    0  501    0  0.00000000000E+00  0.00000000000E+00 -0.20971134019E+04  0.20971134019E+04  0.50400001928E-02 0. -1.
    10030    2    1    2    0    0  0.00000000000E+00  0.00000000000E+00 -0.82480414113E+03  0.33694226626E+04  0.32669109581E+04 0.  0.
        4    1    3    3  502    0  0.16746474062E+03 -0.17592784673E+03  0.12535796320E+04  0.12768941042E+04  0.12699999809E+01 0.  1.
       -4    1    3    3    0  502 -0.16746474062E+03  0.17592784673E+03 -0.20783837731E+04  0.20925285584E+04  0.12699999809E+01 0. -1.
</event>
<event>
 5   0  0.1368865E-07  0.4022469E+04  0.7818609E-02  0.8000029E-01
       -1   -1    0    0    0  501  0.00000000000E+00  0.00000000000E+00  0.19721074925E+04  0.19721074925E+04  0.50400001928E-02 0. -1.
        1   -1    0    0  501    0  0.00000000000E+00  0.00000000000E+00 -0.20511373706E+04  0.20511373706E+04  0.50400001928E-02 0.  1.
    10030    2    1    2    0    0  0.00000000000E+00  0.00000000000E+00 -0.79029878122E+02  0.40232448631E+04  0.40224685837E+04 0.  0.
        5    1    3    3  502    0 -0.13067929578E+04  0.41999611511E+03 -0.15098111188E+04  0.20405039269E+04  0.46999998093E+01 0.  1.
       -5    1    3    3    0  502  0.13067929578E+04 -0.41999611511E+03  0.14307812406E+04  0.19827409362E+04  0.46999998093E+01 0. -1.
</event>
<event>
 5   0  0.4301754E-07  0.3416172E+04  0.7818609E-02  0.8133949E-01
       -2   -1    0    0    0  501  0.00000000000E+00  0.00000000000E+00  0.18484687517E+04  0.18484687517E+04  0.25500000920E-02 0.  1.
        2   -1    0    0  501    0  0.00000000000E+00  0.00000000000E+00 -0.15783645009E+04  0.15783645009E+04  0.25500000920E-02 0. -1.
    10030    2    1    2    0    0  0.00000000000E+00  0.00000000000E+00  0.27010425080E+03  0.34268332526E+04  0.34161718099E+04 0.  0.
        1    1    3    3  502    0 -0.11042719198E+04 -0.58657737706E+03 -0.10322237232E+04  0.16214115168E+04  0.50400001928E-02 0. -1.
       -1    1    3    3    0  502  0.11042719198E+04  0.58657737706E+03  0.13023279740E+04  0.18054217358E+04  0.50400001928E-02 0.  1.
</event>
<event>
 5   0  0.4079777E-07  0.3998854E+04  0.7818609E-02  0.8004778E-01
       -2   -1    0    0    0  501  0.00000000000E+00  0.00000000000E+00  0.12820733189E+04  0.12820733190E+04  0.25500000920E-02 0.  1.
        2   -1    0    0  501    0  0.00000000000E+00  0.00000000000E+00 -0.31181591595E+04  0.31181591595E+04  0.25500000920E-02 0. -1.
    10030    2    1    2    0    0  0.00000000000E+00  0.00000000000E+00 -0.18360858406E+04  0.44002324785E+04  0.39988541672E+04 0.  0.
        4    1    3    3  502    0 -0.18023476750E+04 -0.13307919532E+03 -0.18591933530E+04  0.25928302587E+04  0.12699999809E+01 0. -1.
       -4    1    3    3    0  502  0.18023476750E+04  0.13307919532E+03  0.23107512383E+02  0.18074022198E+04  0.12699999809E+01 0.  1.
</event>
<event>
 5   0  0.4149487E-07  0.2497448E+04  0.7818609E-02  0.8403895E-01
       -2   -1    0    0    0  501  0.00000000000E+00  0.00000000000E+00  0.80922577466E+03  0.80922577466E+03  0.25500000920E-02 0. -1.
        2   -1    0    0  501    0  0.00000000000E+00  0.00000000000E+00 -0.19269177270E+04  0.19269177270E+04  0.25500000920E-02 0.  1.
    10030    2    1    2    0    0  0.00000000000E+00  0.00000000000E+00 -0.11176919524E+04  0.27361435017E+04  0.24974478896E+04 0.  0.
        2    1    3    3  502    0  0.47940014078E+03  0.10748735561E+04 -0.10166935192E+03  0.11813188874E+04  0.25500000920E-02 0. -1.
       -2    1    3    3    0  502 -0.47940014078E+03 -0.10748735561E+04 -0.10160226004E+04  0.15548246143E+04  0.25500000920E-02 0.  1.
</event>
<event>
 5   0  0.4149487E-07  0.4142655E+04  0.7818609E-02  0.7976371E-01
       -2   -1    0    0    0  501  0.00000000000E+00  0.00000000000E+00  0.14024369816E+04  0.14024369816E+04  0.25500000920E-02 0.  1.
        2   -1    0    0  501    0  0.00000000000E+00  0.00000000000E+00 -0.30592437882E+04  0.30592437882E+04  0.25500000920E-02 0. -1.
    10030    2    1    2    0    0  0.00000000000E+00  0.00000000000E+00 -0.16568068066E+04  0.44616807698E+04  0.41426545230E+04 0.  0.
        2    1    3    3  502    0 -0.11306756970E+04  0.16223796891E+03  0.10325653199E+04  0.15397856442E+04  0.25500000920E-02 0.  1.
       -2    1    3    3    0  502  0.11306756970E+04 -0.16223796891E+03 -0.26893721264E+04  0.29218951256E+04  0.25500000920E-02 0. -1.
</event>
<event>
 5   0  0.4047916E-07  0.3657485E+04  0.7818609E-02  0.8077449E-01
       -2   -1    0    0    0  501  0.00000000000E+00  0.00000000000E+00  0.19021465055E+04  0.19021465055E+04  0.25500000920E-02 0. -1.
        2   -1    0    0  501    0  0.00000000000E+00  0.00000000000E+00 -0.17581716286E+04  0.17581716286E+04  0.25500000920E-02 0.  1.
    10030    2    1    2    0    0  0.00000000000E+00  0.00000000000E+00  0.14397487687E+03  0.36603181341E+04  0.36574854857E+04 0.  0.
        5    1    3    3  502    0  0.94374528769E+03  0.13068248374E+04  0.93627171805E+03  0.18641548068E+04  0.46999998093E+01 0. -1.
       -5    1    3    3    0  502 -0.94374528769E+03 -0.13068248374E+04 -0.79229684117E+03  0.17961633273E+04  0.46999998093E+01 0.  1.
</event>
<event>
 5   0  0.1351000E-07  0.3529988E+04  0.7818609E-02  0.8106720E-01
       -1   -1    0    0    0  501  0.00000000000E+00  0.00000000000E+00  0.16849933395E+04  0.16849933395E+04  0.50400001928E-02 0.  1.
        1   -1    0    0  501    0  0.00000000000E+00  0.00000000000E+00 -0.18487927588E+04  0.18487927588E+04  0.50400001928E-02 0. -1.
    10030    2    1    2    0    0  0.00000000000E+00  0.00000000000E+00 -0.16379941932E+03  0.35337860983E+04  0.35299878101E+04 0.  0.
        3    1    3    3  502    0 -0.11775756443E+04 -0.13054597844E+04 -0.23793219547E+03  0.17741255273E+04  0.10100000352E+00 0. -1.
       -3    1    3    3    0  502  0.11775756443E+04  0.13054597844E+04  0.74132776147E+02  0.17596605711E+04  0.10100000352E+00 0.  1.
</event>
<event>
 5   0  0.4047916E-07  0.3886790E+04  0.7818609E-02  0.8027782E-01
       -2   -1    0    0    0  501  0.00000000000E+00  0.00000000000E+00  0.22638373170E+04  0.22638373170E+04  0.25500000920E-02 0.  1.
        2   -1    0    0  501    0  0.00000000000E+00  0.00000000000E+00 -0.16683106529E+04  0.16683106529E+04  0.25500000920E-02 0. -1.
    10030    2    1    2    0    0  0.00000000000E+00  0.00000000000E+00  0.59552666419E+03  0.39321479699E+04  0.38867898901E+04 0.  0.
        5    1    3    3  502    0 -0.71259102131E+03  0.18008970239E+04  0.46009068784E+03  0.19906585808E+04  0.46999998093E+01 0.  1.
       -5    1    3    3    0  502  0.71259102131E+03 -0.18008970239E+04  0.13543597635E+03  0.19414893891E+04  0.46999998093E+01 0. -1.
</event>
<event>
 5   0  0.4301754E-07  0.4061279E+04  0.7818609E-02  0.7992298E-01
       -2   -1    0    0    0  501  0.00000000000E+00  0.00000000000E+00  0.18209531805E+04  0.18209531805E+04  0.25500000920E-02 0. -1.
        2   -1    0    0  501    0  0.00000000000E+00  0.00000000000E+00 -0.22644713692E+04  0.22644713692E+04  0.25500000920E-02 0.  1.
    10030    2    1    2    0    0  0.00000000000E+00  0.00000000000E+00 -0.44351818876E+03  0.40854245497E+04  0.40612787848E+04 0.  0.
        1    1    3    3  502    0 -0.13037365197E+04  0.15349413137E+04  0.40023748608E+02  0.20142928411E+04  0.50400001928E-02 0. -1.
       -1    1    3    3    0  502  0.13037365197E+04 -0.15349413137E+04 -0.48354193737E+03  0.20711317086E+04  0.50400001928E-02 0.  1.
</event>
<event>
 5   0  0.1351000E-07  0.3989766E+04  0.7818609E-02  0.8006614E-01
       -1   -1    0    0    0  501  0.00000000000E+00  0.00000000000E+00  0.17210119355E+04  0.17210119355E+04  0.50400001928E-02 0. -1.
        1   -1    0    0  501    0  0.00000000000E+00  0.00000000000E+00 -0.23123357102E+04  0.23123357102E+04  0.50400001928E-02 0.  1.
    10030    2    1    2    0    0  0.00000000000E+00  0.00000000000E+00 -0.59132377466E+03  0.40333476457E+04  0.39897655851E+04 0.  0.
        4    1    3    3  502    0  0.27414723841E+02 -0.19272680932E+04 -0.81551828046E+03  0.20928892825E+04  0.12699999809E+01 0.  1.
       -4    1    3    3    0  502 -0.27414723841E+02  0.19272680932E+04  0.22419450580E+03  0.19404583632E+04  0.12699999809E+01 0. -1.
</event>
<event>
 5   0  0.1351000E-07  0.4091180E+04  0.7818609E-02  0.7986401E-01
        1   -1    0    0  501    0  0.00000000000E+00  0.00000000000E+00  0.15999416143E+04  0.15999416143E+04  0.50400001928E-02 0.  1.
       -1   -1    0    0    0  501  0.00000000000E+00  0.00000000000E+00 -0.26153690760E+04  0.26153690760E+04  0.50400001928E-02 0. -1.
    10030    2    1    2    0    0  0.00000000000E+00  0.00000000000E+00 -0.10154274617E+04  0.42153106903E+04  0.40911796936E+04 0.  0.
        3    1    3    3  502    0  0.17189050607E+04  0.32356398772E+03  0.58518127194E+03  0.18443875388E+04  0.10100000352E+00 0.  1.
       -3    1    3    3    0  502 -0.17189050607E+04 -0.32356398772E+03 -0.16006087337E+04  0.23709231515E+04  0.10100000352E+00 0. -1.
</event>
<event>
 5   0  0.4047916E-07  0.3877326E+04  0.7818609E-02  0.8029762E-01
        2   -1    0    0  501    0  0.00000000000E+00  0.00000000000E+00  0.21889589778E+04  0.21889589778E+04  0.25500000920E-02 0.  1.
       -2   -1    0    0    0  501  0.00000000000E+00  0.00000000000E+00 -0.17169869673E+04  0.17169869673E+04  0.25500000920E-02 0. -1.
    10030    2    1    2    0    0  0.00000000000E+00  0.00000000000E+00  0.47197201049E+03  0.39059459451E+04  0.38773259017E+04 0.  0.
        5    1    3    3  502    0 -0.15101348399E+04  0.11909009616E+04 -0.10028847303E+02  0.19232459548E+04  0.46999998093E+01 0.  1.
       -5    1    3    3    0  502  0.15101348399E+04 -0.11909009616E+04  0.48200085779E+03  0.19826999904E+04  0.46999998093E+01 0. -1.
</event>
<event>
 5   0  0.4047916E-07  0.3662131E+04  0.7818609E-02  0.8076406E-01
       -2   -1    0    0    0  501  0.00000000000E+00  0.00000000000E+00  0.15085193877E+04  0.15085193877E+04  0.25500000920E-02 0. -1.
        2   -1    0    0  501    0  0.00000000000E+00  0.00000000000E+00 -0.22225770483E+04  0.22225770483E+04  0.25500000920E-02 0.  1.
    10030    2    1    2    0    0  0.00000000000E+00  0.00000000000E+00 -0.71405766057E+03  0.37310964360E+04  0.36621308376E+04 0.  0.
        5    1    3    3  502    0  0.60927208790E+03 -0.13680922804E+04  0.71632396539E+03  0.16601298378E+04  0.46999998093E+01 0. -1.
       -5    1    3    3    0  502 -0.60927208790E+03  0.13680922804E+04 -0.14303816260E+04  0.20709665982E+04  0.46999998093E+01 0.  1.
</event>
<event>
 5   0  0.4149487E-07  0.3092859E+04  0.7818609E-02  0.8217700E-01
        2   -1    0    0  501    0  0.00000000000E+00  0.00000000000E+00  0.12881243437E+04  0.12881243437E+04  0.25500000920E-02 0.  1.
       -2   -1    0    0    0  501  0.00000000000E+00  0.00000000000E+00 -0.18565326606E+04  0.18565326606E+04  0.25500000920E-02 0. -1.
    10030    2    1    2    0    0  0.00000000000E+00  0.00000000000E+00 -0.56840831693E+03  0.31446570043E+04  0.30928594634E+04 0.  0.
        2    1    3    3  502    0 -0.85050718291E+03 -0.71283922510E+03 -0.13792476333E+04  0.17702616369E+04  0.25500000920E-02 0. -1.
       -2    1    3    3    0  502  0.85050718291E+03  0.71283922510E+03  0.81083931640E+03  0.13743953674E+04  0.25500000920E-02 0.  1.
</event>
<event>
 5   0  0.4079777E-07  0.3989613E+04  0.7818609E-02  0.8006645E-01
       -2   -1    0    0    0  501  0.00000000000E+00  0.00000000000E+00  0.26685623911E+04  0.26685623911E+04  0.25500000920E-02 0.  1.
        2   -1    0    0  501    0  0.00000000000E+00  0.00000000000E+00 -0.14911598516E+04  0.14911598516E+04  0.25500000920E-02 0. -1.
    10030    2    1    2    0    0  0.00000000000E+00  0.00000000000E+00  0.11774025395E+04  0.41597222427E+04  0.39896130635E+04 0.  0.
        4    1    3    3  502    0 -0.12841100287E+04 -0.76627802166E+03  0.19652720846E+04  0.24694972265E+04  0.12699999809E+01 0.  1.
       -4    1    3    3    0  502  0.12841100287E+04  0.76627802166E+03 -0.78786954513E+03  0.16902250162E+04  0.12699999809E+01 0. -1.
</event>
<event>
 5   0  0.1372952E-07  0.3991857E+04  0.7818609E-02  0.8006191E-01
        1   -1    0    0  501    0  0.00000000000E+00  0.00000000000E+00  0.25853483427E+04  0.25853483427E+04  0.50400001928E-02 0. -1.
       -1   -1    0    0    0  501  0.00000000000E+00  0.00000000000E+00 -0.15408870514E+04  0.15408870514E+04  0.50400001928E-02 0.  1.
    10030    2    1    2    0    0  0.00000000000E+00  0.00000000000E+00  0.10444612913E+04  0.41262353940E+04  0.39918566029E+04 0.  0.
        1    1    3    3  502    0  0.12632140538E+04  0.15090434820E+04  0.86631446526E+03  0.21502145774E+04  0.50400001928E-02 0. -1.
       -1    1    3    3    0  502 -0.12632140538E+04 -0.15090434820E+04  0.17814682606E+03  0.19760208166E+04  0.50400001928E-02 0.  1.
</event>
<event>
 5   0  0.1372952E-07  0.3304602E+04  0.7818609E-02  0.8161725E-01
        1   -1    0    0  501    0  0.00000000000E+00  0.00000000000E+00  0.92734981661E+03  0.92734981662E+03  0.50400001928E-02 0.  1.
       -1   -1    0    0    0  501  0.00000000000E+00  0.00000000000E+00 -0.29439796738E+04  0.29439796738E+04  0.50400001928E-02 0. -1.
    10030    2    1    2    0    0  0.00000000000E+00  0.00000000000E+00 -0.20166298572E+04  0.38713294904E+04  0.33046022518E+04 0.  0.
        1    1    3    3  502    0 -0.68001866587E+02 -0.13225477464E+04 -0.21658708351E+04  0.25386518607E+04  0.50400001928E-02 0. -1.
       -1    1    3    3    0  502  0.68001866587E+02  0.13225477464E+04  0.14924097794E+03  0.13326776297E+04  0.50400001928E-02 0.  1.
</event>
<event>
 5   0  0.1351000E-07  0.3105305E+04  0.7818609E-02  0.8214284E-01
       -1   -1    0    0    0  501  0.00000000000E+00  0.00000000000E+00  0.97672170979E+03  0.97672170980E+03  0.50400001928E-02 0. -1.
        1   -1    0    0  501    0  0.00000000000E+00  0.00000000000E+00 -0.24681844209E+04  0.24681844209E+04  0.50400001928E-02 0.  1.
    10030    2    1    2    0    0  0.00000000000E+00  0.00000000000E+00 -0.14914627111E+04  0.34449061307E+04  0.31053046921E+04 0.  0.
        3    1    3    3  502    0  0.68067435772E+03  0.13582126357E+04 -0.39026763986E+03  0.15685560194E+04  0.10100000352E+00 0.  1.
       -3    1    3    3    0  502 -0.68067435772E+03 -0.13582126357E+04 -0.11011950713E+04  0.18763501113E+04  0.10100000352E+00 0. -1.
</event>
<event>
 5   0  0.4301754E-07  0.3877178E+04  0.7818609E-02  0.8029793E-01
        2   -1    0    0  501    0  0.00000000000E+00  0.00000000000E+00  0.32899564507E+04  0.32899564507E+04  0.25500000920E-02 0.  1.
       -2   -1    0    0    0  501  0.00000000000E+00  0.00000000000E+00 -0.11423029204E+04  0.11423029204E+04  0.25500000920E-02 0. -1.
    10030    2    1    2    0    0  0.00000000000E+00  0.00000000000E+00  0.21476535304E+04  0.44322593711E+04  0.38771777682E+04 0.  0.
        1    1    3    3  502    0  0.70162973465E+03  0.17823199314E+04  0.73244611650E+03  0.20507135188E+04  0.50400001928E-02 0. -1.
       -1    1    3    3    0  502 -0.70162973465E+03 -0.17823199314E+04  0.14152074139E+04  0.23815458523E+04  0.50400001928E-02 0.  1.
</event>
<event>
 5   0  0.4149487E-07  0.2599598E+04  0.7818609E-02  0.8368338E-01
       -2   -1    0    0    0  501  0.00000000000E+00  0.00000000000E+00  0.49655693409E+03  0.49655693410E+03  0.25500000920E-02 0. -1.
        2   -1    0    0  501    0  0.00000000000E+00  0.00000000000E+00 -0.34023844244E+04  0.34023844244E+04  0.25500000920E-02 0.  1.
    10030    2    1    2    0    0  0.00000000000E+00  0.00000000000E+00 -0.29058274903E+04  0.38989413585E+04  0.25995981062E+04 0.  0.
        2    1    3    3  502    0  0.26547706044E+03  0.12612888850E+04 -0.17045531154E+04  0.21370140487E+04  0.25500000920E-02 0.  1.
       -2    1    3    3    0  502 -0.26547706044E+03 -0.12612888850E+04 -0.12012743749E+04  0.17619273098E+04  0.25500000920E-02 0. -1.
</event>
<event>
 5   0  0.1351000E-07  0.2722801E+04  0.7818609E-02  0.8327645E-01
       -1   -1    0    0    0  501  0.00000000000E+00  0.00000000000E+00  0.10093833979E+04  0.10093833979E+04  0.50400001928E-02 0.  1.
        1   -1    0    0  501    0  0.00000000000E+00  0.00000000000E+00 -0.18361814554E+04  0.18361814554E+04  0.50400001928E-02 0. -1.
    10030    2    1    2    0    0  0.00000000000E+00  0.00000000000E+00 -0.82679805757E+03  0.28455648533E+04  0.27228008202E+04 0.  0.
        4    1    3    3  502    0  0.91666595375E+03 -0.70500932958E+03 -0.11641871159E+04  0.16409289684E+04  0.12699999809E+01 0. -1.
       -4    1    3    3    0  502 -0.91666595375E+03  0.70500932958E+03  0.33738905837E+03  0.12046358849E+04  0.12699999809E+01 0.  1.
</event>
<event>
 5   0  0.1368865E-07  0.2860186E+04  0.7818609E-02  0.8284823E-01
       -1   -1    0    0    0  501  0.00000000000E+00  0.00000000000E+00  0.83443395133E+03  0.83443395134E+03  0.50400001928E-02 0. -1.
        1   -1    0    0  501    0  0.00000000000E+00  0.00000000000E+00 -0.24509623238E+04  0.24509623238E+04  0.50400001928E-02 0.  1.
    10030    2    1    2    0    0  0.00000000000E+00  0.00000000000E+00 -0.16165283725E+04  0.32853962752E+04  0.28601861313E+04 0.  0.
        5    1    3    3  502    0 -0.12736153745E+04 -0.10400303468E+03 -0.15457674783E+04  0.20055752144E+04  0.46999998093E+01 0.  1.
       -5    1    3    3    0  502  0.12736153745E+04  0.10400303468E+03 -0.70760894178E+02  0.12798210608E+04  0.46999998093E+01 0. -1.
</event>
<event>
 5   0  0.4301754E-07  0.3957180E+04  0.7818609E-02  0.8013241E-01
       -2   -1    0    0    0  501  0.00000000000E+00  0.00000000000E+00  0.28638726001E+04  0.28638726001E+04  0.25500000920E-02 0. -1.
        2   -1    0    0  501    0  0.00000000000E+00  0.00000000000E+00 -0.13669666023E+04  0.13669666023E+04  0.25500000920E-02 0.  1.
    10030    2    1    2    0    0  0.00000000000E+00  0.00000000000E+00  0.14969059978E+04  0.42308392024E+04  0.39571799037E+04 0.  0.
        1    1    3    3  502    0  0.82564745539E+03  0.18438689588E+03 -0.11638486268E+04  0.14388314266E+04  0.50400001928E-02 0.  1.
       -1    1    3    3    0  502 -0.82564745539E+03 -0.18438689588E+03  0.26607546246E+04  0.27920077759E+04  0.50400001928E-02 0. -1.
</event>
<event>
 5   0  0.1351000E-07  0.3976772E+04  0.7818609E-02  0.8009249E-01
       -1   -1    0    0    0  501  0.00000000000E+00  0.00000000000E+00  0.19373299751E+04  0.19373299751E+04  0.50400001928E-02 0. -1.
        1   -1    0    0  501    0  0.00000000000E+00  0.00000000000E+00 -0.20407871509E+04  0.20407871509E+04  0.50400001928E-02 0.  1.
    10030    2    1    2    0    0  0.00000000000E+00  0.00000000000E+00 -0.10345717576E+03  0.39781171260E+04  0.39767716154E+04 0.  0.
        3    1    3    3  502    0  0.19398659670E+04  0.30089498500E+03 -0.36815878383E+03  0.19972878266E+04  0.10100000352E+00 0. -1.
       -3    1    3    3    0  502 -0.19398659670E+04 -0.30089498500E+03  0.26470160807E+03  0.19808292994E+04  0.10100000352E+00 0.  1.
</event>
<event>
 5   0  0.4149487E-07  0.3983002E+04  0.7818609E-02  0.8007984E-01
       -2   -1    0    0    0  501  0.00000000000E+00  0.00000000000E+00  0.18654974731E+04  0.18654974731E+04  0.25500000920E-02 0. -1.
        2   -1    0    0  501    0  0.00000000000E+00  0.00000000000E+00 -0.21260152930E+04  0.21260152930E+04  0.25500000920E-02 0.  1.
    10030    2    1    2    0    0  0.00000000000E+00  0.00000000000E+00 -0.26051781997E+03  0.39915127661E+04  0.39830019618E+04 0.  0.
        2    1    3    3  502    0  0.60003999149E+03 -0.50415132642E+03 -0.19649794042E+04  0.21155048121E+04  0.25500000920E-02 0.  1.
       -2    1    3    3    0  502 -0.60003999149E+03  0.50415132642E+03  0.17044615842E+04  0.18760079540E+04  0.25500000920E-02 0. -1.
</event>
<event>
 5   0  0.4149487E-07  0.3183971E+04  0.7818609E-02  0.8193063E-01
        2   -1    0    0  501    0  0.00000000000E+00  0.00000000000E+00  0.29468953223E+04  0.29468953223E+04  0.25500000920E-02 0.  1.
       -2   -1    0    0    0  501  0.00000000000E+00  0.00000000000E+00 -0.86002962954E+03  0.86002962954E+03  0.25500000920E-02 0. -1.
    10030    2    1    2    0    0  0.00000000000E+00  0.00000000000E+00  0.20868656928E+04  0.38069249519E+04  0.31839706609E+04 0.  0.
        2    1    3    3  502    0  0.11138876578E+04  0.10910218857E+04  0.14277992485E+04  0.21141629936E+04  0.25500000920E-02 0.  1.
       -2    1    3    3    0  502 -0.11138876578E+04 -0.10910218857E+04  0.65906644431E+03  0.16927619583E+04  0.25500000920E-02 0. -1.
</event>
<event>
 5   0  0.4079777E-07  0.4211596E+04  0.7818609E-02  0.7963170E-01
        2   -1    0    0  501    0  0.00000000000E+00  0.00000000000E+00  0.21258756265E+04  0.21258756265E+04  0.25500000920E-02 0.  1.
       -2   -1    0    0    0  501  0.00000000000E+00  0.00000000000E+00 -0.20859103624E+04  0.20859103624E+04  0.25500000920E-02 0. -1.
    10030    2    1    2    0    0  0.00000000000E+00  0.00000000000E+00  0.39965264084E+02  0.42117859889E+04  0.42115963712E+04 0.  0.
        4    1    3    3  502    0 -0.97846572764E+03  0.18336667781E+04  0.35860583972E+03  0.21091061601E+04  0.12699999809E+01 0.  1.
       -4    1    3    3    0  502  0.97846572764E+03 -0.18336667781E+04 -0.31864057563E+03  0.21026798288E+04  0.12699999809E+01 0. -1.
</event>
<event>
 5   0  0.4077370E-07  0.4073984E+04  0.7818609E-02  0.7989786E-01
        2   -1    0    0  501    0  0.00000000000E+00  0.00000000000E+00  0.21177599623E+04  0.21177599623E+04  0.25500000920E-02 0. -1.
       -2   -1    0    0    0  501  0.00000000000E+00  0.00000000000E+00 -0.19593040295E+04  0.19593040295E+04  0.25500000920E-02 0.  1.
    10030    2    1    2    0    0  0.00000000000E+00  0.00000000000E+00  0.15845593285E+03  0.40770639918E+04  0.40739836169E+04 0.  0.
        3    1    3    3  502    0 -0.12396871715E+04 -0.15331873694E+04 -0.43286962703E+03  0.20186292173E+04  0.10100000352E+00 0.  1.
       -3    1    3    3    0  502  0.12396871715E+04  0.15331873694E+04  0.59132555988E+03  0.20584347745E+04  0.10100000352E+00 0. -1.
</event>
<event>
 5   0  0.4301754E-07  0.3846818E+04  0.7818609E-02  0.8036182E-01
        2   -1    0    0  501    0  0.00000000000E+00  0.00000000000E+00  0.12568165130E+04  0.12568165130E+04  0.25500000920E-02 0. -1.
       -2   -1    0    0    0  501  0.00000000000E+00  0.00000000000E+00 -0.29435493717E+04  0.29435493717E+04  0.25500000920E-02 0.  1.
    10030    2    1    2    0    0  0.00000000000E+00  0.00000000000E+00 -0.16867328587E+04  0.42003658847E+04  0.38468176235E+04 0.  0.
        1    1    3    3  502    0  0.37134307873E+03 -0.71204829658E+03  0.10650019039E+04  0.13338431370E+04  0.50400001928E-02 0. -1.
       -1    1    3    3    0  502 -0.37134307873E+03  0.71204829658E+03 -0.27517347627E+04  0.28665227477E+04  0.50400001928E-02 0.  1.
</event>
<event>
 5   0  0.4047916E-07  0.3893608E+04  0.7818609E-02  0.8026360E-01
       -2   -1    0    0    0  501  0.00000000000E+00  0.00000000000E+00  0.13352956326E+04  0.13352956326E+04  0.25500000920E-02 0. -1.
        2   -1    0    0  501    0  0.00000000000E+00  0.00000000000E+00 -0.28383575664E+04  0.28383575664E+04  0.25500000920E-02 0.  1.
    10030    2    1    2    0    0  0.00000000000E+00  0.00000000000E+00 -0.15030619337E+04  0.41736531990E+04  0.38936083327E+04 0.  0.
        5    1    3    3  502    0  0.17556467610E+03  0.19340812634E+04 -0.89745085859E+03  0.21393768772E+04  0.46999998093E+01 0. -1.
       -5    1    3    3    0  502 -0.17556467610E+03 -0.19340812634E+04 -0.60561107516E+03  0.20342763218E+04  0.46999998093E+01 0.  1.
</event>
<event>
 5   0  0.1351000E-07  0.3993230E+04  0.7818609E-02  0.8005914E-01
       -1   -1    0    0    0  501  0.00000000000E+00  0.00000000000E+00  0.21558695748E+04  0.21558695748E+04  0.50400001928E-02 0.  1.
        1   -1    0    0  501    0  0.00000000000E+00  0.00000000000E+00 -0.18491249620E+04  0.18491249620E+04  0.50400001928E-02 0. -1.
    10030    2    1    2    0    0  0.00000000000E+00  0.00000000000E+00  0.30674461280E+03  0.40049945367E+04  0.39932303943E+04 0.  0.
        4    1    3    3  502    0  0.17107545177E+04 -0.22123574895E+03  0.11617418158E+04  0.20797288131E+04  0.12699999809E+01 0.  1.
       -4    1    3    3    0  502 -0.17107545177E+04  0.22123574895E+03 -0.85499720298E+03  0.19252657236E+04  0.12699999809E+01 0. -1.
</event>
<event>
 5   0  0.1368865E-07  0.4014853E+04  0.7818609E-02  0.8001557E-01
        1   -1    0    0  501    0  0.00000000000E+00  0.00000000000E+00  0.14156828471E+04  0.14156828471E+04  0.50400001928E-02 0. -1.
       -1   -1    0    0    0  501  0.00000000000E+00  0.00000000000E+00 -0.28465144594E+04  0.28465144594E+04  0.50400001928E-02 0.  1.
    10030    2    1    2    0    0  0.00000000000E+00  0.00000000000E+00 -0.14308316122E+04  0.42621973065E+04  0.40148532697E+04 0.  0.
        5    1    3    3  502    0 -0.14087914529E+04 -0.12833942603E+04 -0.45723009699E+02  0.19062808997E+04  0.46999998093E+01 0. -1.
       -5    1    3    3    0  502  0.14087914529E+04  0.12833942603E+04 -0.13851086025E+04  0.23559164068E+04  0.46999998093E+01 0.  1.
</event>
<event>
 5   0  0.4079777E-07  0.3839108E+04  0.7818609E-02  0.8037814E-01
        2   -1    0    0  501    0  0.00000000000E+00  0.00000000000E+00  0.20173325136E+04  0.20173325136E+04  0.25500000920E-02 0.  1.
       -2   -1    0    0    0  501  0.00000000000E+00  0.00000000000E+00 -0.18265149464E+04  0.18265149464E+04  0.25500000920E-02 0. -1.
    10030    2    1    2    0    0  0.00000000000E+00  0.00000000000E+00  0.19081756721E+03  0.38438474599E+04  0.38391082234E+04 0.  0.
        4    1    3    3  502    0 -0.58765729753E+03  0.15656001185E+04 -0.84822032813E+03  0.18750797765E+04  0.12699999809E+01 0. -1.
       -4    1    3    3    0  502  0.58765729753E+03 -0.15656001185E+04  0.10390378953E+04  0.19687676834E+04  0.12699999809E+01 0.  1.
</event>
<event>
 5   0  0.4149487E-07  0.3906902E+04  0.7818609E-02  0.8023595E-01
       -2   -1    0    0    0  501  0.00000000000E+00  0.00000000000E+00  0.15836202959E+04  0.15836202959E+04  0.25500000920E-02 0. -1.
        2   -1    0    0  501    0  0.00000000000E+00  0.00000000000E+00 -0.24096506812E+04  0.24096506812E+04  0.25500000920E-02 0.  1.
    10030    2    1    2    0    0  0.00000000000E+00  0.00000000000E+00 -0.82603038527E+03  0.39932709771E+04  0.39069024686E+04 0.  0.
        2    1    3    3  502    0  0.43234094861E+03 -0.90472076472E+03 -0.21265407441E+04  0.23510878109E+04  0.25500000920E-02 0.  1.
       -2    1    3    3    0  502 -0.43234094861E+03  0.90472076472E+03  0.13005103588E+04  0.16421831662E+04  0.25500000920E-02 0. -1.
</event>
<event>
 5   0  0.1368865E-07  0.3999432E+04  0.7818609E-02  0.8004661E-01
        1   -1    0    0  501    0  0.00000000000E+00  0.00000000000E+00  0.17572546818E+04  0.17572546818E+04  0.50400001928E-02 0.  1.
       -1   -1    0    0    0  501  0.00000000000E+00  0.00000000000E+00 -0.22756310180E+04  0.22756310180E+04  0.50400001928E-02 0. -1.
    10030    2    1    2    0    0  0.00000000000E+00  0.00000000000E+00 -0.51837633620E+03  0.40328856997E+04  0.39994315898E+04 0.  0.
        5    1    3    3  502    0  0.79370370127E+03  0.11256266048E+04 -0.17210876208E+04  0.22043514936E+04  0.46999998093E+01 0. -1.
       -5    1    3    3    0  502 -0.79370370127E+03 -0.11256266048E+04  0.12027112846E+04  0.18285342061E+04  0.46999998093E+01 0.  1.
</event>
<event>
 5   0  0.1421304E-07  0.3954946E+04  0.7818609E-02  0.8013698E-01
       -1   -1    0    0    0  501  0.00000000000E+00  0.00000000000E+00  0.31698362469E+04  0.31698362469E+04  0.50400001928E-02 0. -1.
        1   -1    0    0  501    0  0.00000000000E+00  0.00000000000E+00 -0.12336281767E+04  0.12336281767E+04  0.50400001928E-02 0.  1.
    10030    2    1    2    0    0  0.00000000000E+00  0.00000000000E+00  0.19362080702E+04  0.44034644237E+04  0.39549459212E+04 0.  0.
        2    1    3    3  502    0  0.79218731327E+02  0.19659466496E+04  0.11884840229E+04  0.22986335308E+04  0.25500000920E-02 0.  1.
       -2    1    3    3    0  502 -0.79218731327E+02 -0.19659466496E+04  0.74772404733E+03  0.21048308928E+04  0.25500000920E-02 0. -1.
</event>
<event>
 5   0  0.4047916E-07  0.3610001E+04  0.7818609E-02  0.8088205E-01
        2   -1    0    0  501    0  0.00000000000E+00  0.00000000000E+00  0.32988592156E+04  0.32988592156E+04  0.25500000920E-02 0.  1.
       -2   -1    0    0    0  501  0.00000000000E+00  0.00000000000E+00 -0.98762201241E+03  0.98762201241E+03  0.25500000920E-02 0. -1.
    10030    2    1    2    0    0  0.00000000000E+00  0.00000000000E+00  0.23112372032E+04  0.42864812280E+04  0.36100005413E+04 0.  0.
        5    1    3    3  502    0 -0.24221130480E+03 -0.25808091760E+02 -0.96800958202E+03  0.99819688171E+03  0.46999998093E+01 0. -1.
       -5    1    3    3    0  502  0.24221130480E+03  0.25808091760E+02  0.32792467852E+04  0.32882843463E+04  0.46999998093E+01 0.  1.
</event>
<event>
 5   0  0.1421304E-07  0.3724547E+04  0.7818609E-02  0.8062544E-01
       -1   -1    0    0    0  501  0.00000000000E+00  0.00000000000E+00  0.18882615808E+04  0.18882615808E+04  0.50400001928E-02 0. -1.
        1   -1    0    0  501    0  0.00000000000E+00  0.00000000000E+00 -0.18366428961E+04  0.18366428961E+04  0.50400001928E-02 0.  1.
    10030    2    1    2    0    0  0.00000000000E+00  0.00000000000E+00  0.51618684683E+02  0.37249044770E+04  0.37245468011E+04 0.  0.
        2    1    3    3  502    0 -0.12186362242E+04  0.78827693113E+03  0.11928007647E+04  0.18786240793E+04  0.25500000920E-02 0. -1.
       -2    1    3    3    0  502  0.12186362242E+04 -0.78827693113E+03 -0.11411820800E+04  0.18462803977E+04  0.25500000920E-02 0.  1.
</event>
<event>
 5   0  0.1351000E-07  0.4019758E+04  0.7818609E-02  0.8000573E-01
       -1   -1    0    0    0  501  0.00000000000E+00  0.00000000000E+00  0.24518626701E+04  0.24518626701E+04  0.50400001928E-02 0.  1.
        1   -1    0    0  501    0  0.00000000000E+00  0.00000000000E+00 -0.16475691986E+04  0.16475691986E+04  0.50400001928E-02 0. -1.
    10030    2    1    2    0    0  0.00000000000E+00  0.00000000000E+00  0.80429347145E+03  0.40994318687E+04  0.40197579103E+04 0.  0.
        3    1    3    3  502    0 -0.73278284578E+03 -0.35473531371E+03  0.22761778697E+04  0.24173939577E+04  0.10100000352E+00 0.  1.
       -3    1    3    3    0  502  0.73278284578E+03  0.35473531371E+03 -0.14718843983E+04  0.16820379110E+04  0.10100000352E+00 0. -1.
</event>
<event>
 5   0  0.1372952E-07  0.3979829E+04  0.7818609E-02  0.8008628E-01
        1   -1    0    0  501    0  0.00000000000E+00  0.00000000000E+00  0.16525511183E+04  0.16525511183E+04  0.50400001928E-02 0.  1.
       -1   -1    0    0    0  501  0.00000000000E+00  0.00000000000E+00 -0.23961498361E+04  0.23961498361E+04  0.50400001928E-02 0. -1.
    10030    2    1    2    0    0  0.00000000000E+00  0.00000000000E+00 -0.74359871774E+03  0.40487009544E+04  0.39798291880E+04 0.  0.
        1    1    3    3  502    0  0.18050184405E+04 -0.82367199408E+03 -0.21673799303E+03  0.19958713591E+04  0.50400001928E-02 0.  1.
       -1    1    3    3    0  502 -0.18050184405E+04  0.82367199408E+03 -0.52686072471E+03  0.20528295954E+04  0.50400001928E-02 0. -1.
</event>
<event>
 5   0  0.4301754E-07  0.3997730E+04  0.7818609E-02  0.8005005E-01
       -2   -1    0    0    0  501  0.00000000000E+00  0.00000000000E+00  0.16426759528E+04  0.16426759529E+04  0.25500000920E-02 0.  1.
        2   -1    0    0  501    0  0.00000000000E+00  0.00000000000E+00 -0.24322885503E+04  0.24322885503E+04  0.25500000920E-02 0. -1.
    10030    2    1    2    0    0  0.00000000000E+00  0.00000000000E+00 -0.78961259746E+03  0.40749645032E+04  0.39977303121E+04 0.  0.
        1    1    3    3  502    0 -0.12723362295E+04 -0.15303318457E+04 -0.20490930863E+03  0.20006855984E+04  0.50400001928E-02 0.  1.
       -1    1    3    3    0  502  0.12723362295E+04  0.15303318457E+04 -0.58470328883E+03  0.20742789048E+04  0.50400001928E-02 0. -1.
</event>
<event>
 5   0  0.4077370E-07  0.3340682E+04  0.7818609E-02  0.8152620E-01
        2   -1    0    0  501    0  0.00000000000E+00  0.00000000000E+00  0.17010775709E+04  0.17010775709E+04  0.25500000920E-02 0. -1.
       -2   -1    0    0    0  501  0.00000000000E+00  0.00000000000E+00 -0.16401598600E+04  0.16401598600E+04  0.25500000920E-02 0.  1.
    10030    2    1    2    0    0  0.00000000000E+00  0.00000000000E+00  0.60917710927E+02  0.33412374309E+04  0.33406820564E+04 0.  0.
        3    1    3    3  502    0  0.69444856884E+03 -0.12222041109E+04 -0.87190919950E+03  0.16541666681E+04  0.10100000352E+00 0.  1.
       -3    1    3    3    0  502 -0.69444856884E+03  0.12222041109E+04  0.93282691042E+03  0.16870707628E+04  0.10100000352E+00 0. -1.
</event>
<event>
 5   0  0.4047916E-07  0.4014655E+04  0.7818609E-02  0.8001597E-01
       -2   -1    0    0    0  501  0.00000000000E+00  0.00000000000E+00  0.26467974982E+04  0.26467974982E+04  0.25500000920E-02 0. -1.
        2   -1    0    0  501    0  0.00000000000E+00  0.00000000000E+00 -0.15223544358E+04  0.15223544358E+04  0.25500000920E-02 0.  1.
    10030    2    1    2    0    0  0.00000000000E+00  0.00000000000E+00  0.11244430624E+04  0.41691519340E+04  0.40146551095E+04 0.  0.
        5    1    3    3  502    0  0.82755253378E+03  0.18067274401E+04  0.85637927153E+03  0.21639119172E+04  0.46999998093E+01 0. -1.
       -5    1    3    3    0  502 -0.82755253378E+03 -0.18067274401E+04  0.26806379085E+03  0.20052400168E+04  0.46999998093E+01 0.  1.
</event>
<event>
 5   0  0.4079777E-07  0.3997767E+04  0.7818609E-02  0.8004997E-01
        2   -1    0    0  501    0  0.00000000000E+00  0.00000000000E+00  0.14853047511E+04  0.14853047511E+04  0.25500000920E-02 0. -1.
       -2   -1    0    0    0  501  0.00000000000E+00  0.00000000000E+00 -0.26900438498E+04  0.26900438498E+04  0.25500000920E-02 0.  1.
    10030    2    1    2    0    0  0.00000000000E+00  0.00000000000E+00 -0.12047390987E+04  0.41753486008E+04  0.39977668319E+04 0.  0.
        4    1    3    3  502    0 -0.11599257784E+04 -0.76759031198E+03 -0.21017258763E+04  0.25202928343E+04  0.12699999809E+01 0.  1.
       -4    1    3    3    0  502  0.11599257784E+04  0.76759031198E+03  0.89698677763E+03  0.16550557666E+04  0.12699999809E+01 0. -1.
</event>
<event>
 5   0  0.4301754E-07  0.4017403E+04  0.7818609E-02  0.8001045E-01
        2   -1    0    0  501    0  0.00000000000E+00  0.00000000000E+00  0.16121224128E+04  0.16121224128E+04  0.25500000920E-02 0. -1.
       -2   -1    0    0    0  501  0.00000000000E+00  0.00000000000E+00 -0.25028384640E+04  0.25028384640E+04  0.25500000920E-02 0.  1.
    10030    2    1    2    0    0  0.00000000000E+00  0.00000000000E+00 -0.89071605121E+03  0.41149608767E+04  0.40174031330E+04 0.  0.
        1    1    3    3  502    0  0.73505976816E+03  0.16325265715E+03 -0.23528147214E+04  0.24703646302E+04  0.50400001928E-02 0.  1.
       -1    1    3    3    0  502 -0.73505976816E+03 -0.16325265715E+03  0.14620986702E+04  0.16445962466E+04  0.50400001928E-02 0. -1.
</event>
<event>
 5   0  0.1421304E-07  0.3261771E+04  0.7818609E-02  0.8172692E-01
       -1   -1    0    0    0  501  0.00000000000E+00  0.00000000000E+00  0.82915927063E+03  0.82915927065E+03  0.50400001928E-02 0.  1.
        1   -1    0    0  501    0  0.00000000000E+00  0.00000000000E+00 -0.32078117169E+04  0.32078117170E+04  0.50400001928E-02 0. -1.
    10030    2    1    2    0    0  0.00000000000E+00  0.00000000000E+00 -0.23786524463E+04  0.40369709876E+04  0.32617705766E+04 0.  0.
        2    1    3    3  502    0 -0.47009192257E+03  0.13853028423E+04 -0.29706133667E+03  0.14927477410E+04  0.25500000920E-02 0.  1.
       -2    1    3    3    0  502  0.47009192257E+03 -0.13853028423E+04 -0.20815911096E+04  0.25442232466E+04  0.25500000920E-02 0. -1.
</event>
<event>
 5   0  0.1351000E-07  0.4111682E+04  0.7818609E-02  0.7982388E-01
        1   -1    0    0  501    0  0.00000000000E+00  0.00000000000E+00  0.22127010376E+04  0.22127010376E+04  0.50400001928E-02 0.  1.
       -1   -1    0    0    0  501  0.00000000000E+00  0.00000000000E+00 -0.19101009117E+04  0.19101009117E+04  0.50400001928E-02 0. -1.
    10030    2    1    2    0    0  0.00000000000E+00  0.00000000000E+00  0.30260012585E+03  0.41228019493E+04  0.41116820252E+04 0.  0.
        3    1    3    3  502    0  0.11194907353E+04  0.97135185619E+03 -0.12772277420E+04  0.19565517243E+04  0.10100000352E+00 0. -1.
       -3    1    3    3    0  502 -0.11194907353E+04 -0.97135185619E+03  0.15798278678E+04  0.21662502249E+04  0.10100000352E+00 0.  1.
</event>
<event>
 5   0  0.4077370E-07  0.2511133E+04  0.7818609E-02  0.8399030E-01
        2   -1    0    0  501    0  0.00000000000E+00  0.00000000000E+00  0.18364540195E+04  0.18364540195E+04  0.25500000920E-02 0.  1.
       -2   -1    0    0    0  501  0.00000000000E+00  0.00000000000E+00 -0.85841912095E+03  0.85841912095E+03  0.25500000920E-02 0. -1.
    10030    2    1    2    0    0  0.00000000000E+00  0.00000000000E+00  0.97803489851E+03  0.26948731404E+04  0.25111330073E+04 0.  0.
        3    1    3    3  502    0  0.20324464358E+03 -0.96158577507E+02 -0.83663769368E+03  0.86632412980E+03  0.10100000352E+00 0. -1.
       -3    1    3    3    0  502 -0.20324464358E+03  0.96158577507E+02  0.18146725922E+04  0.18285490106E+04  0.10100000352E+00 0.  1.
</event>
<event>
 5   0  0.4077370E-07  0.4001813E+04  0.7818609E-02  0.8004181E-01
       -2   -1    0    0    0  501  0.00000000000E+00  0.00000000000E+00  0.24317700663E+04  0.24317700663E+04  0.25500000920E-02 0.  1.
        2   -1    0    0  501    0  0.00000000000E+00  0.00000000000E+00 -0.16463834635E+04  0.16463834635E+04  0.25500000920E-02 0. -1.
    10030    2    1    2    0    0  0.00000000000E+00  0.00000000000E+00  0.78538660280E+03  0.40781535298E+04  0.40018126014E+04 0.  0.
        3    1    3    3  502    0  0.44071397678E+03  0.18919895951E+04 -0.95796972701E+02  0.19450014158E+04  0.10100000352E+00 0. -1.
       -3    1    3    3    0  502 -0.44071397678E+03 -0.18919895951E+04  0.88118357550E+03  0.21331521140E+04  0.10100000352E+00 0.  1.
</event>
<event>
 5   0  0.1421304E-07  0.3991206E+04  0.7818609E-02  0.8006323E-01
        1   -1    0    0  501    0  0.00000000000E+00  0.00000000000E+00  0.20948703071E+04  0.20948703071E+04  0.50400001928E-02 0.  1.
       -1   -1    0    0    0  501  0.00000000000E+00  0.00000000000E+00 -0.19010391669E+04  0.19010391669E+04  0.50400001928E-02 0. -1.
    10030    2    1    2    0    0  0.00000000000E+00  0.00000000000E+00  0.19383114020E+03  0.39959094740E+04  0.39912055840E+04 0.  0.
        2    1    3    3  502    0 -0.23428351506E+03 -0.18438508846E+04 -0.63040854870E+03  0.19626741421E+04  0.25500000920E-02 0. -1.
       -2    1    3    3    0  502  0.23428351506E+03  0.18438508846E+04  0.82423968890E+03  0.20332353319E+04  0.25500000920E-02 0.  1.
</event>
<event>
 5   0  0.1372952E-07  0.3983933E+04  0.7818609E-02  0.8007796E-01
       -1   -1    0    0    0  501  0.00000000000E+00  0.00000000000E+00  0.16483780869E+04  0.16483780869E+04  0.50400001928E-02 0.  1.
        1   -1    0    0  501    0  0.00000000000E+00  0.00000000000E+00 -0.24071728300E+04  0.24071728300E+04  0.50400001928E-02 0. -1.
    10030    2    1    2    0    0  0.00000000000E+00  0.00000000000E+00 -0.75879474305E+03  0.40555509169E+04  0.39839332044E+04 0.  0.
        1    1    3    3  502    0 -0.18849343314E+04 -0.64005389604E+03 -0.45339888796E+03  0.20416211635E+04  0.50400001928E-02 0. -1.
       -1    1    3    3    0  502  0.18849343314E+04  0.64005389604E+03 -0.30539585509E+03  0.20139297534E+04  0.50400001928E-02 0.  1.
</event>
<event>
 5   0  0.4047916E-07  0.2707699E+04  0.7818609E-02  0.8332511E-01
       -2   -1    0    0    0  501  0.00000000000E+00  0.00000000000E+00  0.19677396110E+04  0.19677396110E+04  0.25500000920E-02 0.  1.
        2   -1    0    0  501    0  0.00000000000E+00  0.00000000000E+00 -0.93147907965E+03  0.93147907966E+03  0.25500000920E-02 0. -1.
    10030    2    1    2    0    0  0.00000000000E+00  0.00000000000E+00  0.10362605313E+04  0.28992186907E+04  0.27076988620E+04 0.  0.
        5    1    3    3  502    0 -0.21199712464E+03  0.88923349010E+03 -0.55110510897E+03  0.10674352027E+04  0.46999998093E+01 0. -1.
       -5    1    3    3    0  502  0.21199712464E+03 -0.88923349010E+03  0.15873656403E+04  0.18317834880E+04  0.46999998093E+01 0.  1.
</event>
<event>
 5   0  0.1351000E-07  0.4015589E+04  0.7818609E-02  0.8001409E-01
        1   -1    0    0  501    0  0.00000000000E+00  0.00000000000E+00  0.28656026469E+04  0.28656026469E+04  0.50400001928E-02 0. -1.
       -1   -1    0    0    0  501  0.00000000000E+00  0.00000000000E+00 -0.14067684451E+04  0.14067684451E+04  0.50400001928E-02 0.  1.
    10030    2    1    2    0    0  0.00000000000E+00  0.00000000000E+00  0.14588342018E+04  0.42723710919E+04  0.40155893115E+04 0.  0.
        4    1    3    3  502    0 -0.11874958156E+04 -0.96775526206E+03  0.21103115946E+04  0.26077026668E+04  0.12699999809E+01 0. -1.
       -4    1    3    3    0  502  0.11874958156E+04  0.96775526206E+03 -0.65147739279E+03  0.16646684251E+04  0.12699999809E+01 0.  1.
</event>
<event>
 5   0  0.1372952E-07  0.3946068E+04  0.7818609E-02  0.8015516E-01
        1   -1    0    0  501    0  0.00000000000E+00  0.00000000000E+00  0.19019737001E+04  0.19019737001E+04  0.50400001928E-02 0.  1.
       -1   -1    0    0    0  501  0.00000000000E+00  0.00000000000E+00 -0.20467487837E+04  0.20467487837E+04  0.50400001928E-02 0. -1.
    10030    2    1    2    0    0  0.00000000000E+00  0.00000000000E+00 -0.14477508355E+03  0.39487224838E+04  0.39460675906E+04 0.  0.
        1    1    3    3  502    0 -0.18718868854E+04  0.62354080774E+03 -0.62445730061E+02  0.19739967375E+04  0.50400001928E-02 0.  1.
       -1    1    3    3    0  502  0.18718868854E+04 -0.62354080774E+03 -0.82329353485E+02  0.19747257463E+04  0.50400001928E-02 0. -1.
</event>
<event>
 5   0  0.4079777E-07  0.4088837E+04  0.7818609E-02  0.7986861E-01
       -2   -1    0    0    0  501  0.00000000000E+00  0.00000000000E+00  0.25292168473E+04  0.25292168473E+04  0.25500000920E-02 0.  1.
        2   -1    0    0  501    0  0.00000000000E+00  0.00000000000E+00 -0.16525461649E+04  0.16525461649E+04  0.25500000920E-02 0. -1.
    10030    2    1    2    0    0  0.00000000000E+00  0.00000000000E+00  0.87667068236E+03  0.41817630122E+04  0.40888372926E+04 0.  0.
        4    1    3    3  502    0  0.17450147522E+03  0.96214498156E+03  0.22745419934E+04  0.24758264526E+04  0.12699999809E+01 0.  1.
       -4    1    3    3    0  502 -0.17450147522E+03 -0.96214498156E+03 -0.13978713111E+04  0.17059365597E+04  0.12699999809E+01 0. -1.
</event>
<event>
 5   0  0.1351000E-07  0.4045887E+04  0.7818609E-02  0.7995353E-01
       -1   -1    0    0    0  501  0.00000000000E+00  0.00000000000E+00  0.20954916297E+04  0.20954916297E+04  0.50400001928E-02 0. -1.
        1   -1    0    0  501    0  0.00000000000E+00  0.00000000000E+00 -0.19529073466E+04  0.19529073466E+04  0.50400001928E-02 0.  1.
    10030    2    1    2    0    0  0.00000000000E+00  0.00000000000E+00  0.14258428317E+03  0.40483989763E+04  0.40458872937E+04 0.  0.
        3    1    3    3  502    0 -0.10210880602E+04  0.18207236193E+03  0.18091863547E+04  0.20854079812E+04  0.10100000352E+00 0. -1.
       -3    1    3    3    0  502  0.10210880602E+04 -0.18207236193E+03 -0.16666020716E+04  0.19629909951E+04  0.10100000352E+00 0.  1.
</event>
<event>
 5   0  0.1372952E-07  0.3970460E+04  0.7818609E-02  0.8010532E-01
        1   -1    0    0  501    0  0.00000000000E+00  0.00000000000E+00  0.22717078573E+04  0.22717078573E+04  0.50400001928E-02 0.  1.
       -1   -1    0    0    0  501  0.00000000000E+00  0.00000000000E+00 -0.17348790220E+04  0.17348790220E+04  0.50400001928E-02 0. -1.
    10030    2    1    2    0    0  0.00000000000E+00  0.00000000000E+00  0.53682883532E+03  0.40065868793E+04  0.39704600770E+04 0.  0.
        1    1    3    3  502    0  0.95651391333E+03 -0.15831560793E+04  0.99597140998E+03  0.21007763059E+04  0.50400001928E-02 0.  1.
       -1    1    3    3    0  502 -0.95651391333E+03  0.15831560793E+04 -0.45914257466E+03  0.19058105734E+04  0.50400001928E-02 0. -1.
</event>
<event>
 5   0  0.1372952E-07  0.4032907E+04  0.7818609E-02  0.7997941E-01
       -1   -1    0    0    0  501  0.00000000000E+00  0.00000000000E+00  0.20046312261E+04  0.20046312261E+04  0.50400001928E-02 0. -1.
        1   -1    0    0  501    0  0.00000000000E+00  0.00000000000E+00 -0.20283452134E+04  0.20283452134E+04  0.50400001928E-02 0.  1.
    10030    2    1    2    0    0  0.00000000000E+00  0.00000000000E+00 -0.23713987281E+02  0.40329764395E+04  0.40329067195E+04 0.  0.
        1    1    3    3  502    0  0.46285408788E+03 -0.69909574426E+02  0.19495445228E+04  0.20049551371E+04  0.50400001928E-02 0. -1.
       -1    1    3    3    0  502 -0.46285408788E+03  0.69909574426E+02 -0.19732585101E+04  0.20280213024E+04  0.50400001928E-02 0.  1.
</event>
<event>
 5   0  0.1368865E-07  0.4021239E+04  0.7818609E-02  0.8000276E-01
        1   -1    0    0  501    0  0.00000000000E+00  0.00000000000E+00  0.20235006638E+04  0.20235006638E+04  0.50400001928E-02 0.  1.
       -1   -1    0    0    0  501  0.00000000000E+00  0.00000000000E+00 -0.19978199271E+04  0.19978199271E+04  0.50400001928E-02 0. -1.
    10030    2    1    2    0    0  0.00000000000E+00  0.00000000000E+00  0.25680736715E+02  0.40213205910E+04  0.40212385897E+04 0.  0.
        5    1    3    3  502    0 -0.98045035656E+03  0.67914753347E+03 -0.16058475083E+04  0.20003231199E+04  0.46999998093E+01 0. -1.
       -5    1    3    3    0  502  0.98045035656E+03 -0.67914753347E+03  0.16315282450E+04  0.20209974711E+04  0.46999998093E+01 0.  1.
</event>
<event>
 5   0  0.1368865E-07  0.3357058E+04  0.7818609E-02  0.8148527E-01
       -1   -1    0    0    0  501  0.00000000000E+00  0.00000000000E+00  0.12037159918E+04  0.12037159918E+04  0.50400001928E-02 0. -1.
        1   -1    0    0  501    0  0.00000000000E+00  0.00000000000E+00 -0.23406354159E+04  0.23406354159E+04  0.50400001928E-02 0.  1.
    10030    2    1    2    0    0  0.00000000000E+00  0.00000000000E+00 -0.11369194241E+04  0.35443514077E+04  0.33570584035E+04 0.  0.
        5    1    3    3  502    0 -0.15282111546E+04  0.71189293396E+02  0.16067903867E+03  0.15382903146E+04  0.46999998093E+01 0. -1.
       -5    1    3    3    0  502  0.15282111546E+04 -0.71189293396E+02 -0.12975984628E+04  0.20060610931E+04  0.46999998093E+01 0.  1.
</event>
<event>
 5   0  0.1421304E-07  0.3913756E+04  0.7818609E-02  0.8022174E-01
       -1   -1    0    0    0  501  0.00000000000E+00  0.00000000000E+00  0.18929393395E+04  0.18929393396E+04  0.50400001928E-02 0.  1.
        1   -1    0    0  501    0  0.00000000000E+00  0.00000000000E+00 -0.20229759623E+04  0.20229759623E+04  0.50400001928E-02 0. -1.
    10030    2    1    2    0    0  0.00000000000E+00  0.00000000000E+00 -0.13003662272E+03  0.39159153018E+04  0.39137556295E+04 0.  0.
        2    1    3    3  502    0  0.44148216976E+03  0.18944026269E+04 -0.27891879335E+03  0.19650606892E+04  0.25500000920E-02 0. -1.
       -2    1    3    3    0  502 -0.44148216976E+03 -0.18944026269E+04  0.14888217063E+03  0.19508546126E+04  0.25500000920E-02 0.  1.
</event>
<event>
 5   0  0.1421304E-07  0.3792591E+04  0.7818609E-02  0.8047747E-01
       -1   -1    0    0    0  501  0.00000000000E+00  0.00000000000E+00  0.22578270332E+04  0.22578270332E+04  0.50400001928E-02 0. -1.
        1   -1    0    0  501    0  0.00000000000E+00  0.00000000000E+00 -0.15926540545E+04  0.15926540545E+04  0.50400001928E-02 0.  1.
    10030    2    1    2    0    0  0.00000000000E+00  0.00000000000E+00  0.66517297877E+03  0.38504810877E+04  0.37925913984E+04 0.  0.
        2    1    3    3  502    0  0.13024069725E+03 -0.13191033489E+04 -0.10441881194E+04  0.16874018825E+04  0.25500000920E-02 0.  1.
       -2    1    3    3    0  502 -0.13024069725E+03  0.13191033489E+04  0.17093610982E+04  0.21630792052E+04  0.25500000920E-02 0. -1.
</event>
<event>
 5   0  0.1421304E-07  0.2946035E+04  0.7818609E-02  0.8259311E-01
       -1   -1    0    0    0  501  0.00000000000E+00  0.00000000000E+00  0.22124352494E+04  0.22124352494E+04  0.50400001928E-02 0. -1.
        1   -1    0    0  501    0  0.00000000000E+00  0.00000000000E+00 -0.98072066002E+03  0.98072066004E+03  0.50400001928E-02 0.  1.
    10030    2    1    2    0    0  0.00000000000E+00  0.00000000000E+00  0.12317145894E+04  0.31931559094E+04  0.29460352734E+04 0.  0.
        2    1    3    3  502    0  0.13443188858E+01 -0.14064753763E+04  0.14141114896E+03  0.14135670852E+04  0.25500000920E-02 0.  1.
       -2    1    3    3    0  502 -0.13443188858E+01  0.14064753763E+04  0.10903034404E+04  0.17795888243E+04  0.25500000920E-02 0. -1.
</event>
<event>
 5   0  0.4077370E-07  0.3949477E+04  0.7818609E-02  0.8014817E-01
       -2   -1    0    0    0  501  0.00000000000E+00  0.00000000000E+00  0.17515299755E+04  0.17515299755E+04  0.25500000920E-02 0. -1.
        2   -1    0    0  501    0  0.00000000000E+00  0.00000000000E+00 -0.22263920340E+04  0.22263920340E+04  0.25500000920E-02 0.  1.
    10030    2    1    2    0    0  0.00000000000E+00  0.00000000000E+00 -0.47486205848E+03  0.39779220095E+04  0.39494771222E+04 0.  0.
        3    1    3    3  502    0 -0.15534425694E+04 -0.11209267919E+04 -0.72039648960E+03  0.20466147175E+04  0.10100000352E+00 0. -1.
       -3    1    3    3    0  502  0.15534425694E+04  0.11209267919E+04  0.24553443111E+03  0.19313072921E+04  0.10100000352E+00 0.  1.
</event>
<event>
 5   0  0.1372952E-07  0.3884070E+04  0.7818609E-02  0.8028351E-01
       -1   -1    0    0    0  501  0.00000000000E+00  0.00000000000E+00  0.18703200908E+04  0.18703200908E+04  0.50400001928E-02 0. -1.
        1   -1    0    0  501    0  0.00000000000E+00  0.00000000000E+00 -0.20164993812E+04  0.20164993813E+04  0.50400001928E-02 0.  1.
    10030    2    1    2    0    0  0.00000000000E+00  0.00000000000E+00 -0.14617929045E+03  0.38868194721E+04  0.38840696728E+04 0.  0.
        1    1    3    3  502    0  0.48832918603E+03  0.43030051500E+02  0.18073847706E+04  0.18726870236E+04  0.50400001928E-02 0. -1.
       -1    1    3    3    0  502 -0.48832918603E+03 -0.43030051500E+02 -0.19535640611E+04  0.20141324485E+04  0.50400001928E-02 0.  1.
</event>
<event>
 5   0  0.1351000E-07  0.3912289E+04  0.7818609E-02  0.8022478E-01
       -3   -1    0    0    0  501  0.00000000000E+00  0.00000000000E+00  0.13836030812E+04  0.13836030849E+04  0.10100000352E+00 0.  1.
        3   -1    0    0  501    0  0.00000000000E+00  0.00000000000E+00 -0.27656068953E+04  0.27656068971E+04  0.10100000352E+00 0. -1.
    10030    2    1    2    0    0  0.00000000000E+00  0.00000000000E+00 -0.13820038140E+04  0.41492099821E+04  0.39122894746E+04 0.  0.
        3    1    3    3  502    0 -0.66889948110E+03 -0.36157345114E+02 -0.26401703163E+04  0.27238269363E+04  0.10100000352E+00 0. -1.
       -3    1    3    3    0  502  0.66889948110E+03  0.36157345114E+02  0.12581665023E+04  0.14253830458E+04  0.10100000352E+00 0.  1.
</event>
<event>
 5   0  0.4077370E-07  0.3876641E+04  0.7818609E-02  0.8029905E-01
        2   -1    0    0  501    0  0.00000000000E+00  0.00000000000E+00  0.20532386064E+04  0.20532386064E+04  0.25500000920E-02 0. -1.
       -2   -1    0    0    0  501  0.00000000000E+00  0.00000000000E+00 -0.18298342257E+04  0.18298342257E+04  0.25500000920E-02 0.  1.
    10030    2    1    2    0    0  0.00000000000E+00  0.00000000000E+00  0.22340438072E+03  0.38830728321E+04  0.38766409561E+04 0.  0.
        3    1    3    3  502    0 -0.11174107593E+04  0.76495555433E+03  0.15008421629E+04  0.20214576457E+04  0.10100000352E+00 0. -1.
       -3    1    3    3    0  502  0.11174107593E+04 -0.76495555433E+03 -0.12774377822E+04  0.18616151865E+04  0.10100000352E+00 0.  1.
</event>
<event>
 5   0  0.1351000E-07  0.3877944E+04  0.7818609E-02  0.8029632E-01
        1   -1    0    0  501    0  0.00000000000E+00  0.00000000000E+00  0.13206593244E+04  0.13206593245E+04  0.50400001928E-02 0. -1.
       -1   -1    0    0    0  501  0.00000000000E+00  0.00000000000E+00 -0.28467693589E+04  0.28467693589E+04  0.50400001928E-02 0.  1.
    10030    2    1    2    0    0  0.00000000000E+00  0.00000000000E+00 -0.15261100345E+04  0.41674286834E+04  0.38779440421E+04 0.  0.
        4    1    3    3  502    0 -0.18499213758E+04 -0.57877392936E+03 -0.71016167651E+03  0.20643448301E+04  0.12699999809E+01 0. -1.
       -4    1    3    3    0  502  0.18499213758E+04  0.57877392936E+03 -0.81594835796E+03  0.21030838532E+04  0.12699999809E+01 0.  1.
</event>
<event>
 5   0  0.4079777E-07  0.3914509E+04  0.7818609E-02  0.8022018E-01
        2   -1    0    0  501    0  0.00000000000E+00  0.00000000000E+00  0.21750191165E+04  0.21750191165E+04  0.25500000920E-02 0.  1.
       -2   -1    0    0    0  501  0.00000000000E+00  0.00000000000E+00 -0.17612928801E+04  0.17612928801E+04  0.25500000920E-02 0. -1.
    10030    2    1    2    0    0  0.00000000000E+00  0.00000000000E+00  0.41372623638E+03  0.39363119966E+04  0.39145092586E+04 0.  0.
        4    1    3    3  502    0  0.11867728953E+04  0.71251683424E+03  0.15983092746E+04  0.21144040045E+04  0.12699999809E+01 0.  1.
       -4    1    3    3    0  502 -0.11867728953E+04 -0.71251683424E+03 -0.11845830382E+04  0.18219079920E+04  0.12699999809E+01 0. -1.
</event>
<event>
 5   0  0.4301754E-07  0.3165699E+04  0.7818609E-02  0.8197935E-01
        2   -1    0    0  501    0  0.00000000000E+00  0.00000000000E+00  0.19498861981E+04  0.19498861981E+04  0.25500000920E-02 0. -1.
       -2   -1    0    0    0  501  0.00000000000E+00  0.00000000000E+00 -0.12849023336E+04  0.12849023336E+04  0.25500000920E-02 0.  1.
    10030    2    1    2    0    0  0.00000000000E+00  0.00000000000E+00  0.66498386452E+03  0.32347885317E+04  0.31656994969E+04 0.  0.
        1    1    3    3  502    0 -0.46118924800E+03 -0.14615946261E+04  0.73667341889E+03  0.17004829019E+04  0.50400001928E-02 0. -1.
       -1    1    3    3    0  502  0.46118924800E+03  0.14615946261E+04 -0.71689554374E+02  0.15343056298E+04  0.50400001928E-02 0.  1.
</event>
<event>
 5   0  0.1351000E-07  0.3461074E+04  0.7818609E-02  0.8123077E-01
       -1   -1    0    0    0  501  0.00000000000E+00  0.00000000000E+00  0.10723325915E+04  0.10723325915E+04  0.50400001928E-02 0.  1.
        1   -1    0    0  501    0  0.00000000000E+00  0.00000000000E+00 -0.27927509394E+04  0.27927509394E+04  0.50400001928E-02 0. -1.
    10030    2    1    2    0    0  0.00000000000E+00  0.00000000000E+00 -0.17204183479E+04  0.38650835310E+04  0.34610737365E+04 0.  0.
        3    1    3    3  502    0  0.46576439160E+03 -0.43389084780E+03  0.93684442375E+03  0.11326408172E+04  0.10100000352E+00 0.  1.
       -3    1    3    3    0  502 -0.46576439160E+03  0.43389084780E+03 -0.26572627716E+04  0.27324427138E+04  0.10100000352E+00 0. -1.
</event>
<event>
 5   0  0.4077370E-07  0.2453767E+04  0.7818609E-02  0.8419644E-01
       -2   -1    0    0    0  501  0.00000000000E+00  0.00000000000E+00  0.15784433205E+04  0.15784433205E+04  0.25500000920E-02 0. -1.
        2   -1    0    0  501    0  0.00000000000E+00  0.00000000000E+00 -0.95362490901E+03  0.95362490902E+03  0.25500000920E-02 0.  1.
    10030    2    1    2    0    0  0.00000000000E+00  0.00000000000E+00  0.62481841144E+03  0.25320682295E+04  0.24537667924E+04 0.  0.
        3    1    3    3  502    0  0.26690610145E+03 -0.20949613737E+03  0.15290644718E+04  0.15662584933E+04  0.10100000352E+00 0. -1.
       -3    1    3    3    0  502 -0.26690610145E+03  0.20949613737E+03 -0.90424606039E+03  0.96580973618E+03  0.10100000352E+00 0.  1.
</event>
<event>
 5   0  0.1351000E-07  0.4127516E+04  0.7818609E-02  0.7979305E-01
       -1   -1    0    0    0  501  0.00000000000E+00  0.00000000000E+00  0.23353213593E+04  0.23353213593E+04  0.50400001928E-02 0. -1.
        1   -1    0    0  501    0  0.00000000000E+00  0.00000000000E+00 -0.18237737292E+04  0.18237737292E+04  0.50400001928E-02 0.  1.
    10030    2    1    2    0    0  0.00000000000E+00  0.00000000000E+00  0.51154763013E+03  0.41590950885E+04  0.41275163206E+04 0.  0.
        4    1    3    3  502    0 -0.17415026494E+04  0.61012784116E+03 -0.67542237531E+03  0.19650151293E+04  0.12699999809E+01 0.  1.
       -4    1    3    3    0  502  0.17415026494E+04 -0.61012784116E+03  0.11869700054E+04  0.21940799592E+04  0.12699999809E+01 0. -1.
</event>
<event>
 5   0  0.4149487E-07  0.3347881E+04  0.7818609E-02  0.8150818E-01
        2   -1    0    0  501    0  0.00000000000E+00  0.00000000000E+00  0.21815982270E+04  0.21815982270E+04  0.25500000920E-02 0.  1.
       -2   -1    0    0    0  501  0.00000000000E+00  0.00000000000E+00 -0.12844148405E+04  0.12844148405E+04  0.25500000920E-02 0. -1.
    10030    2    1    2    0    0  0.00000000000E+00  0.00000000000E+00  0.89718338657E+03  0.34660130675E+04  0.33478812038E+04 0.  0.
        2    1    3    3  502    0  0.16393251154E+04 -0.54239483584E+02  0.10250828394E+03  0.16434222537E+04  0.25500000920E-02 0. -1.
       -2    1    3    3    0  502 -0.16393251154E+04  0.54239483584E+02  0.79467510263E+03  0.18225908138E+04  0.25500000920E-02 0.  1.
</event>
<event>
 5   0  0.1351000E-07  0.4005267E+04  0.7818609E-02  0.8003485E-01
       -1   -1    0    0    0  501  0.00000000000E+00  0.00000000000E+00  0.20910619085E+04  0.20910619085E+04  0.50400001928E-02 0.  1.
        1   -1    0    0  501    0  0.00000000000E+00  0.00000000000E+00 -0.19179445619E+04  0.19179445619E+04  0.50400001928E-02 0. -1.
    10030    2    1    2    0    0  0.00000000000E+00  0.00000000000E+00  0.17311734663E+03  0.40090064705E+04  0.40052669405E+04 0.  0.
        4    1    3    3  502    0  0.98490381562E+03  0.11620114385E+04  0.13878621545E+04  0.20606962615E+04  0.12699999809E+01 0.  1.
       -4    1    3    3    0  502 -0.98490381562E+03 -0.11620114385E+04 -0.12147448079E+04  0.19483102090E+04  0.12699999809E+01 0. -1.
</event>
<event>
 5   0  0.1351000E-07  0.3971975E+04  0.7818609E-02  0.8010224E-01
       -1   -1    0    0    0  501  0.00000000000E+00  0.00000000000E+00  0.19378399242E+04  0.19378399242E+04  0.50400001928E-02 0. -1.
        1   -1    0    0  501    0  0.00000000000E+00  0.00000000000E+00 -0.20353312929E+04  0.20353312929E+04  0.50400001928E-02 0.  1.
    10030    2    1    2    0    0  0.00000000000E+00  0.00000000000E+00 -0.97491368699E+02  0.39731712170E+04  0.39719749436E+04 0.  0.
        4    1    3    3  502    0  0.10347778727E+04 -0.13827644711E+04 -0.10295213749E+04  0.20106513130E+04  0.12699999809E+01 0.  1.
       -4    1    3    3    0  502 -0.10347778727E+04  0.13827644711E+04  0.93203000615E+03  0.19625199040E+04  0.12699999809E+01 0. -1.
</event>
<event>
 5   0  0.1421304E-07  0.4072100E+04  0.7818609E-02  0.7990158E-01
        1   -1    0    0  501    0  0.00000000000E+00  0.00000000000E+00  0.18095280470E+04  0.18095280470E+04  0.50400001928E-02 0.  1.
       -1   -1    0    0    0  501  0.00000000000E+00  0.00000000000E+00 -0.22909283295E+04  0.22909283295E+04  0.50400001928E-02 0. -1.
    10030    2    1    2    0    0  0.00000000000E+00  0.00000000000E+00 -0.48140028246E+03  0.41004563765E+04  0.40720997364E+04 0.  0.
        2    1    3    3  502    0 -0.16930334022E+04 -0.10568262411E+04 -0.64631437174E+03  0.20978479620E+04  0.25500000920E-02 0. -1.
       -2    1    3    3    0  502  0.16930334022E+04  0.10568262411E+04  0.16491408928E+03  0.20026084144E+04  0.25500000920E-02 0.  1.
</event>
<event>
 5   0  0.4149487E-07  0.3958740E+04  0.7818609E-02  0.8012922E-01
       -2   -1    0    0    0  501  0.00000000000E+00  0.00000000000E+00  0.17561821205E+04  0.17561821205E+04  0.25500000920E-02 0.  1.
        2   -1    0    0  501    0  0.00000000000E+00  0.00000000000E+00 -0.22309217019E+04  0.22309217019E+04  0.25500000920E-02 0. -1.
    10030    2    1    2    0    0  0.00000000000E+00  0.00000000000E+00 -0.47473958140E+03  0.39871038223E+04  0.39587395999E+04 0.  0.
        2    1    3    3  502    0  0.14012903833E+04  0.13978949576E+04 -0.25087309530E+03  0.19951597332E+04  0.25500000920E-02 0. -1.
       -2    1    3    3    0  502 -0.14012903833E+04 -0.13978949576E+04 -0.22386648610E+03  0.19919440892E+04  0.25500000920E-02 0.  1.
</event>
<event>
 5   0  0.4301754E-07  0.3373044E+04  0.7818609E-02  0.8144554E-01
       -2   -1    0    0    0  501  0.00000000000E+00  0.00000000000E+00  0.16297596143E+04  0.16297596143E+04  0.25500000920E-02 0. -1.
        2   -1    0    0  501    0  0.00000000000E+00  0.00000000000E+00 -0.17452618320E+04  0.17452618320E+04  0.25500000920E-02 0.  1.
    10030    2    1    2    0    0  0.00000000000E+00  0.00000000000E+00 -0.11550221773E+03  0.33750214463E+04  0.33730444706E+04 0.  0.
        1    1    3    3  502    0 -0.11881848720E+04 -0.11660851587E+04 -0.32775990133E+03  0.16967511428E+04  0.50400001928E-02 0. -1.
       -1    1    3    3    0  502  0.11881848720E+04  0.11660851587E+04  0.21225768359E+03  0.16782703036E+04  0.50400001928E-02 0.  1.
</event>
<event>
 5   0  0.4047916E-07  0.4056243E+04  0.7818609E-02  0.7993296E-01
       -2   -1    0    0    0  501  0.00000000000E+00  0.00000000000E+00  0.27751268467E+04  0.27751268467E+04  0.25500000920E-02 0.  1.
        2   -1    0    0  501    0  0.00000000000E+00  0.00000000000E+00 -0.14821945179E+04  0.14821945179E+04  0.25500000920E-02 0. -1.
    10030    2    1    2    0    0  0.00000000000E+00  0.00000000000E+00  0.12929323288E+04  0.42573213646E+04  0.40562434832E+04 0.  0.
        5    1    3    3  502    0 -0.16559393001E+04 -0.97640418715E+02  0.18711814282E+04  0.25006020564E+04  0.46999998093E+01 0.  1.
       -5    1    3    3    0  502  0.16559393001E+04  0.97640418715E+02 -0.57824909941E+03  0.17567193082E+04  0.46999998093E+01 0. -1.
</event>
<event>
 5   0  0.4301754E-07  0.4021148E+04  0.7818609E-02  0.8000294E-01
       -2   -1    0    0    0  501  0.00000000000E+00  0.00000000000E+00  0.23730848128E+04  0.23730848128E+04  0.25500000920E-02 0. -1.
        2   -1    0    0  501    0  0.00000000000E+00  0.00000000000E+00 -0.17034403674E+04  0.17034403674E+04  0.25500000920E-02 0.  1.
    10030    2    1    2    0    0  0.00000000000E+00  0.00000000000E+00  0.66964444536E+03  0.40765251802E+04  0.40211483262E+04 0.  0.
        1    1    3    3  502    0 -0.15266696837E+04 -0.13081539354E+04  0.31401091061E+03  0.20348439483E+04  0.50400001928E-02 0. -1.
       -1    1    3    3    0  502  0.15266696837E+04  0.13081539354E+04  0.35563353475E+03  0.20416812319E+04  0.50400001928E-02 0.  1.
</event>
<event>
 5   0  0.1372952E-07  0.3774644E+04  0.7818609E-02  0.8051618E-01
        1   -1    0    0  501    0  0.00000000000E+00  0.00000000000E+00  0.18114702289E+04  0.18114702289E+04  0.50400001928E-02 0.  1.
       -1   -1    0    0    0  501  0.00000000000E+00  0.00000000000E+00 -0.19663504213E+04  0.19663504213E+04  0.50400001928E-02 0. -1.
    10030    2    1    2    0    0  0.00000000000E+00  0.00000000000E+00 -0.15488019236E+03  0.37778206502E+04  0.37746444853E+04 0.  0.
        1    1    3    3  502    0 -0.75951325459E+03  0.43294621216E+03  0.15965947384E+04  0.18202795294E+04  0.50400001928E-02 0.  1.
       -1    1    3    3    0  502  0.75951325459E+03 -0.43294621216E+03 -0.17514749307E+04  0.19575411208E+04  0.50400001928E-02 0. -1.
</event>
<event>
 5   0  0.4047916E-07  0.3279190E+04  0.7818609E-02  0.8168211E-01
       -2   -1    0    0    0  501  0.00000000000E+00  0.00000000000E+00  0.21807321416E+04  0.21807321416E+04  0.25500000920E-02 0. -1.
        2   -1    0    0  501    0  0.00000000000E+00  0.00000000000E+00 -0.12327383449E+04  0.12327383449E+04  0.25500000920E-02 0.  1.
    10030    2    1    2    0    0  0.00000000000E+00  0.00000000000E+00  0.94799379669E+03  0.34134704864E+04  0.32791902237E+04 0.  0.
        5    1    3    3  502    0 -0.25662754492E+03  0.11863275788E+04 -0.67341966720E+03  0.13880731102E+04  0.46999998093E+01 0.  1.
       -5    1    3    3    0  502  0.25662754492E+03 -0.11863275788E+04  0.16214134639E+04  0.20253973763E+04  0.46999998093E+01 0. -1.
</event>
<event>
 5   0  0.4079777E-07  0.3059490E+04  0.7818609E-02  0.8226944E-01
       -2   -1    0    0    0  501  0.00000000000E+00  0.00000000000E+00  0.17564374750E+04  0.17564374750E+04  0.25500000920E-02 0. -1.
        2   -1    0    0  501    0  0.00000000000E+00  0.00000000000E+00 -0.13323099192E+04  0.13323099192E+04  0.25500000920E-02 0.  1.
    10030    2    1    2    0    0  0.00000000000E+00  0.00000000000E+00  0.42412755578E+03  0.30887473942E+04  0.30594895459E+04 0.  0.
        4    1    3    3  502    0 -0.21472778145E+02  0.12830272320E+04 -0.62866491219E+03  0.14289300693E+04  0.12699999809E+01 0.  1.
       -4    1    3    3    0  502  0.21472778145E+02 -0.12830272320E+04  0.10527924680E+04  0.16598173248E+04  0.12699999809E+01 0. -1.
</event>
<event>
 5   0  0.4079777E-07  0.4042618E+04  0.7818609E-02  0.7996004E-01
       -2   -1    0    0    0  501  0.00000000000E+00  0.00000000000E+00  0.20099551661E+04  0.20099551661E+04  0.25500000920E-02 0.  1.
        2   -1    0    0  501    0  0.00000000000E+00  0.00000000000E+00 -0.20327269580E+04  0.20327269580E+04  0.25500000920E-02 0. -1.
    10030    2    1    2    0    0  0.00000000000E+00  0.00000000000E+00 -0.22771791878E+02  0.40426821240E+04  0.40426179886E+04 0.  0.
        4    1    3    3  502    0 -0.86080859665E+01  0.16079339430E+04  0.12134448570E+04  0.20144417832E+04  0.12699999809E+01 0.  1.
       -4    1    3    3    0  502  0.86080859665E+01 -0.16079339430E+04 -0.12362166488E+04  0.20282403408E+04  0.12699999809E+01 0. -1.
</event>
<event>
 5   0  0.1542508E-07  0.2591267E+04  0.7818609E-02  0.8371174E-01
       -1   -1    0    0    0  501  0.00000000000E+00  0.00000000000E+00  0.90593931791E+03  0.90593931792E+03  0.50400001928E-02 0. -1.
        1   -1    0    0  501    0  0.00000000000E+00  0.00000000000E+00 -0.18529565752E+04  0.18529565752E+04  0.50400001928E-02 0.  1.
    10030    2    1    2    0    0  0.00000000000E+00  0.00000000000E+00 -0.94701725730E+03  0.27588958931E+04  0.25912670383E+04 0.  0.
        2    1    3    3  502    0  0.57822633142E+03  0.28732830277E+03 -0.16694558969E+04  0.17899682220E+04  0.25500000920E-02 0.  1.
       -2    1    3    3    0  502 -0.57822633142E+03 -0.28732830277E+03  0.72243863962E+03  0.96892767116E+03  0.25500000920E-02 0. -1.
</event>
<event>
 5   0  0.1351000E-07  0.4052477E+04  0.7818609E-02  0.7994043E-01
        1   -1    0    0  501    0  0.00000000000E+00  0.00000000000E+00  0.23045425454E+04  0.23045425454E+04  0.50400001928E-02 0. -1.
       -1   -1    0    0    0  501  0.00000000000E+00  0.00000000000E+00 -0.17815429371E+04  0.17815429371E+04  0.50400001928E-02 0.  1.
    10030    2    1    2    0    0  0.00000000000E+00  0.00000000000E+00  0.52299960835E+03  0.40860854825E+04  0.40524765243E+04 0.  0.
        3    1    3    3  502    0  0.13288323590E+04  0.39133051919E+03 -0.12295157892E+04  0.18521998001E+04  0.10100000352E+00 0.  1.
       -3    1    3    3    0  502 -0.13288323590E+04 -0.39133051919E+03  0.17525153975E+04  0.22338856824E+04  0.10100000352E+00 0. -1.
</event>
<event>
 5   0  0.1368865E-07  0.3913664E+04  0.7818609E-02  0.8022193E-01
        1   -1    0    0  501    0  0.00000000000E+00  0.00000000000E+00  0.23180282030E+04  0.23180282030E+04  0.50400001928E-02 0. -1.
       -1   -1    0    0    0  501  0.00000000000E+00  0.00000000000E+00 -0.16519173826E+04  0.16519173826E+04  0.50400001928E-02 0.  1.
    10030    2    1    2    0    0  0.00000000000E+00  0.00000000000E+00  0.66611082044E+03  0.39699455856E+04  0.39136637985E+04 0.  0.
        5    1    3    3  502    0  0.10647857927E+04 -0.13522566062E+04 -0.61135564264E+03  0.18265115727E+04  0.46999998093E+01 0.  1.
       -5    1    3    3    0  502 -0.10647857927E+04  0.13522566062E+04  0.12774664631E+04  0.21434340129E+04  0.46999998093E+01 0. -1.
</event>
<event>
 5   0  0.4079777E-07  0.3858180E+04  0.7818609E-02  0.8033784E-01
       -2   -1    0    0    0  501  0.00000000000E+00  0.00000000000E+00  0.14289379573E+04  0.14289379573E+04  0.25500000920E-02 0. -1.
        2   -1    0    0  501    0  0.00000000000E+00  0.00000000000E+00 -0.26043037697E+04  0.26043037697E+04  0.25500000920E-02 0.  1.
    10030    2    1    2    0    0  0.00000000000E+00  0.00000000000E+00 -0.11753658125E+04  0.40332417270E+04  0.38581801456E+04 0.  0.
        4    1    3    3  502    0 -0.44132650539E+03 -0.12726594265E+04  0.85590110364E+03  0.15959321453E+04  0.12699999809E+01 0. -1.
       -4    1    3    3    0  502  0.44132650539E+03  0.12726594265E+04 -0.20312669161E+04  0.24373095818E+04  0.12699999809E+01 0.  1.
</event>
<event>
 5   0  0.4047916E-07  0.3931685E+04  0.7818609E-02  0.8018471E-01
        2   -1    0    0  501    0  0.00000000000E+00  0.00000000000E+00  0.12346186791E+04  0.12346186791E+04  0.25500000920E-02 0.  1.
       -2   -1    0    0    0  501  0.00000000000E+00  0.00000000000E+00 -0.31301458556E+04  0.31301458556E+04  0.25500000920E-02 0. -1.
    10030    2    1    2    0    0  0.00000000000E+00  0.00000000000E+00 -0.18955271765E+04  0.43647645347E+04  0.39316849017E+04 0.  0.
        5    1    3    3  502    0 -0.16318752687E+04  0.10929433142E+04 -0.85506449714E+03  0.21421249648E+04  0.46999998093E+01 0.  1.
       -5    1    3    3    0  502  0.16318752687E+04 -0.10929433142E+04 -0.10404626794E+04  0.22226395699E+04  0.46999998093E+01 0. -1.
</event>
<event>
 5   0  0.4301754E-07  0.3758693E+04  0.7818609E-02  0.8055078E-01
       -2   -1    0    0    0  501  0.00000000000E+00  0.00000000000E+00  0.13043958840E+04  0.13043958840E+04  0.25500000920E-02 0. -1.
        2   -1    0    0  501    0  0.00000000000E+00  0.00000000000E+00 -0.27077228021E+04  0.27077228021E+04  0.25500000920E-02 0.  1.
    10030    2    1    2    0    0  0.00000000000E+00  0.00000000000E+00 -0.14033269180E+04  0.40121186861E+04  0.37586925802E+04 0.  0.
        1    1    3    3  502    0 -0.18403938501E+04 -0.24388870749E+03 -0.38970661946E+03  0.18969455644E+04  0.50400001928E-02 0. -1.
       -1    1    3    3    0  502  0.18403938501E+04  0.24388870749E+03 -0.10136202986E+04  0.21151731217E+04  0.50400001928E-02 0.  1.
</event>
<event>
 5   0  0.4301754E-07  0.4114818E+04  0.7818609E-02  0.7981776E-01
        2   -1    0    0  501    0  0.00000000000E+00  0.00000000000E+00  0.22467507626E+04  0.22467507626E+04  0.25500000920E-02 0. -1.
       -2   -1    0    0    0  501  0.00000000000E+00  0.00000000000E+00 -0.18840240375E+04  0.18840240375E+04  0.25500000920E-02 0.  1.
    10030    2    1    2    0    0  0.00000000000E+00  0.00000000000E+00  0.36272672513E+03  0.41307748001E+04  0.41148183158E+04 0.  0.
        1    1    3    3  502    0  0.37475681918E+03 -0.40501717999E+03 -0.18083545824E+04  0.18906686345E+04  0.50400001928E-02 0.  1.
       -1    1    3    3    0  502 -0.37475681918E+03  0.40501717999E+03  0.21710813075E+04  0.22401061657E+04  0.50400001928E-02 0. -1.
</event>
<event>
 5   0  0.1351000E-07  0.2455411E+04  0.7818609E-02  0.8419045E-01
        3   -1    0    0  501    0  0.00000000000E+00  0.00000000000E+00  0.51878699204E+03  0.51878700187E+03  0.10100000352E+00 0. -1.
       -3   -1    0    0    0  501  0.00000000000E+00  0.00000000000E+00 -0.29053549385E+04  0.29053549403E+04  0.10100000352E+00 0.  1.
    10030    2    1    2    0    0  0.00000000000E+00  0.00000000000E+00 -0.23865679465E+04  0.34241419422E+04  0.24554106534E+04 0.  0.
        2    1    3    3  502    0  0.41839758951E+03 -0.92843585142E+03 -0.21495393179E+04  0.23785644731E+04  0.25500000920E-02 0.  1.
       -2    1    3    3    0  502 -0.41839758951E+03  0.92843585142E+03 -0.23702862855E+03  0.10455774691E+04  0.25500000920E-02 0. -1.
</event>
<event>
 5   0  0.1351000E-07  0.3838196E+04  0.7818609E-02  0.8038007E-01
       -3   -1    0    0    0  501  0.00000000000E+00  0.00000000000E+00  0.12038039509E+04  0.12038039551E+04  0.10100000352E+00 0. -1.
        3   -1    0    0  501    0  0.00000000000E+00  0.00000000000E+00 -0.30594163971E+04  0.30594163987E+04  0.10100000352E+00 0.  1.
    10030    2    1    2    0    0  0.00000000000E+00  0.00000000000E+00 -0.18556124461E+04  0.42632203539E+04  0.38381962216E+04 0.  0.
        4    1    3    3  502    0 -0.10583307130E+04  0.11041172702E+04 -0.22153958140E+04  0.26920473751E+04  0.12699999809E+01 0.  1.
       -4    1    3    3    0  502  0.10583307130E+04 -0.11041172702E+04  0.35978336785E+03  0.15711729787E+04  0.12699999809E+01 0. -1.
</event>
<event>
 5   0  0.4079777E-07  0.3989986E+04  0.7818609E-02  0.8006570E-01
       -2   -1    0    0    0  501  0.00000000000E+00  0.00000000000E+00  0.18482667239E+04  0.18482667239E+04  0.25500000920E-02 0.  1.
        2   -1    0    0  501    0  0.00000000000E+00  0.00000000000E+00 -0.21533671887E+04  0.21533671887E+04  0.25500000920E-02 0. -1.
    10030    2    1    2    0    0  0.00000000000E+00  0.00000000000E+00 -0.30510046483E+03  0.40016339126E+04  0.39899859244E+04 0.  0.
        4    1    3    3  502    0 -0.70169083758E+03 -0.12039191195E+04  0.12792743656E+04  0.18916489614E+04  0.12699999809E+01 0.  1.
       -4    1    3    3    0  502  0.70169083758E+03  0.12039191195E+04 -0.15843748304E+04  0.21099849512E+04  0.12699999809E+01 0. -1.
</event>
<event>
 5   0  0.1351000E-07  0.3892862E+04  0.7818609E-02  0.8026516E-01
        1   -1    0    0  501    0  0.00000000000E+00  0.00000000000E+00  0.26691700777E+04  0.26691700777E+04  0.50400001928E-02 0.  1.
       -1   -1    0    0    0  501  0.00000000000E+00  0.00000000000E+00 -0.14193897977E+04  0.14193897977E+04  0.50400001928E-02 0. -1.
    10030    2    1    2    0    0  0.00000000000E+00  0.00000000000E+00  0.12497802800E+04  0.40885598754E+04  0.38928615576E+04 0.  0.
        4    1    3    3  502    0 -0.14474763404E+04 -0.78348135164E+03 -0.46636140529E+03  0.17107090219E+04  0.12699999809E+01 0. -1.
       -4    1    3    3    0  502  0.14474763404E+04  0.78348135164E+03  0.17161416853E+04  0.23778508535E+04  0.12699999809E+01 0.  1.
</event>
<event>
 5   0  0.4079777E-07  0.3980859E+04  0.7818609E-02  0.8008419E-01
        2   -1    0    0  501    0  0.00000000000E+00  0.00000000000E+00  0.20165661999E+04  0.20165661999E+04  0.25500000920E-02 0. -1.
       -2   -1    0    0    0  501  0.00000000000E+00  0.00000000000E+00 -0.19646313587E+04  0.19646313587E+04  0.25500000920E-02 0.  1.
    10030    2    1    2    0    0  0.00000000000E+00  0.00000000000E+00  0.51934841235E+02  0.39811975586E+04  0.39808587984E+04 0.  0.
        4    1    3    3  502    0 -0.59648272759E+03 -0.12711775528E+04  0.14368048626E+04  0.20090031959E+04  0.12699999809E+01 0. -1.
       -4    1    3    3    0  502  0.59648272759E+03  0.12711775528E+04 -0.13848700213E+04  0.19721943627E+04  0.12699999809E+01 0.  1.
</event>
<event>
 5   0  0.1351000E-07  0.3916248E+04  0.7818609E-02  0.8021658E-01
       -1   -1    0    0    0  501  0.00000000000E+00  0.00000000000E+00  0.22161561687E+04  0.22161561687E+04  0.50400001928E-02 0.  1.
        1   -1    0    0  501    0  0.00000000000E+00  0.00000000000E+00 -0.17301355501E+04  0.17301355501E+04  0.50400001928E-02 0. -1.
    10030    2    1    2    0    0  0.00000000000E+00  0.00000000000E+00  0.48602061854E+03  0.39462917188E+04  0.39162484967E+04 0.  0.
        3    1    3    3  502    0 -0.68664894404E+03 -0.17778558923E+04 -0.20987294388E+03  0.19173692938E+04  0.10100000352E+00 0.  1.
       -3    1    3    3    0  502  0.68664894404E+03  0.17778558923E+04  0.69589356242E+03  0.20289224250E+04  0.10100000352E+00 0. -1.
</event>
<event>
 5   0  0.1351000E-07  0.2837714E+04  0.7818609E-02  0.8291654E-01
       -1   -1    0    0    0  501  0.00000000000E+00  0.00000000000E+00  0.92734048438E+03  0.92734048439E+03  0.50400001928E-02 0.  1.
        1   -1    0    0  501    0  0.00000000000E+00  0.00000000000E+00 -0.21708913041E+04  0.21708913041E+04  0.50400001928E-02 0. -1.
    10030    2    1    2    0    0  0.00000000000E+00  0.00000000000E+00 -0.12435508197E+04  0.30982317885E+04  0.28377141459E+04 0.  0.
        4    1    3    3  502    0  0.49429332925E+01 -0.19799459536E+03 -0.21557241882E+04  0.21648036126E+04  0.12699999809E+01 0. -1.
       -4    1    3    3    0  502 -0.49429332925E+01  0.19799459536E+03  0.91217336854E+03  0.93342817589E+03  0.12699999809E+01 0.  1.
</event>
<event>
 5   0  0.1421304E-07  0.4036159E+04  0.7818609E-02  0.7997292E-01
        1   -1    0    0  501    0  0.00000000000E+00  0.00000000000E+00  0.26177137228E+04  0.26177137228E+04  0.50400001928E-02 0.  1.
       -1   -1    0    0    0  501  0.00000000000E+00  0.00000000000E+00 -0.15558020062E+04  0.15558020062E+04  0.50400001928E-02 0. -1.
    10030    2    1    2    0    0  0.00000000000E+00  0.00000000000E+00  0.10619117166E+04  0.41735157290E+04  0.40361586993E+04 0.  0.
        2    1    3    3  502    0  0.15162679314E+04  0.59390383909E+03  0.17635172374E+04  0.24003714831E+04  0.25500000920E-02 0.  1.
       -2    1    3    3    0  502 -0.15162679314E+04 -0.59390383909E+03 -0.70160552080E+03  0.17731442459E+04  0.25500000920E-02 0. -1.
</event>
<event>
 5   0  0.4301754E-07  0.3365067E+04  0.7818609E-02  0.8146534E-01
       -2   -1    0    0    0  501  0.00000000000E+00  0.00000000000E+00  0.11736018042E+04  0.11736018042E+04  0.25500000920E-02 0.  1.
        2   -1    0    0  501    0  0.00000000000E+00  0.00000000000E+00 -0.24121636343E+04  0.24121636343E+04  0.25500000920E-02 0. -1.
    10030    2    1    2    0    0  0.00000000000E+00  0.00000000000E+00 -0.12385618301E+04  0.35857654385E+04  0.33650673653E+04 0.  0.
        1    1    3    3  502    0  0.60479307117E+03 -0.93132745563E+03  0.72765149558E+03  0.13276378224E+04  0.50400001928E-02 0.  1.
       -1    1    3    3    0  502 -0.60479307117E+03  0.93132745563E+03 -0.19662133257E+04  0.22581276161E+04  0.50400001928E-02 0. -1.
</event>
<event>
 5   0  0.1372952E-07  0.3912697E+04  0.7818609E-02  0.8022394E-01
        1   -1    0    0  501    0  0.00000000000E+00  0.00000000000E+00  0.28252683297E+04  0.28252683298E+04  0.50400001928E-02 0. -1.
       -1   -1    0    0    0  501  0.00000000000E+00  0.00000000000E+00 -0.13546672993E+04  0.13546672993E+04  0.50400001928E-02 0.  1.
    10030    2    1    2    0    0  0.00000000000E+00  0.00000000000E+00  0.14706010305E+04  0.41799356290E+04  0.39126965730E+04 0.  0.
        1    1    3    3  502    0  0.12661639218E+04 -0.88979921135E+03  0.20138669278E+04  0.25397979676E+04  0.50400001928E-02 0. -1.
       -1    1    3    3    0  502 -0.12661639218E+04  0.88979921135E+03 -0.54326589731E+03  0.16401376615E+04  0.50400001928E-02 0.  1.
</event>
<event>
 5   0  0.4301754E-07  0.3869904E+04  0.7818609E-02  0.8031318E-01
        2   -1    0    0  501    0  0.00000000000E+00  0.00000000000E+00  0.23295284871E+04  0.23295284871E+04  0.25500000920E-02 0. -1.
       -2   -1    0    0    0  501  0.00000000000E+00  0.00000000000E+00 -0.16072094429E+04  0.16072094429E+04  0.25500000920E-02 0.  1.
    10030    2    1    2    0    0  0.00000000000E+00  0.00000000000E+00  0.72231904427E+03  0.39367379300E+04  0.38699044856E+04 0.  0.
        1    1    3    3  502    0  0.15557225465E+04  0.11175732933E+04  0.82945045029E+02  0.19173217226E+04  0.50400001928E-02 0. -1.
       -1    1    3    3    0  502 -0.15557225465E+04 -0.11175732933E+04  0.63937399924E+03  0.20194162073E+04  0.50400001928E-02 0.  1.
</event>
<event>
 5   0  0.4149487E-07  0.4555128E+04  0.7818609E-02  0.7901056E-01
        2   -1    0    0  501    0  0.00000000000E+00  0.00000000000E+00  0.17618560188E+04  0.17618560188E+04  0.25500000920E-02 0.  1.
       -2   -1    0    0    0  501  0.00000000000E+00  0.00000000000E+00 -0.29442228026E+04  0.29442228026E+04  0.25500000920E-02 0. -1.
    10030    2    1    2    0    0  0.00000000000E+00  0.00000000000E+00 -0.11823667838E+04  0.47060788214E+04  0.45551275132E+04 0.  0.
        2    1    3    3  502    0 -0.81936616447E+03  0.93549290676E+03 -0.25625000861E+04  0.28483178512E+04  0.25500000920E-02 0. -1.
       -2    1    3    3    0  502  0.81936616447E+03 -0.93549290676E+03  0.13801333024E+04  0.18577609702E+04  0.25500000920E-02 0.  1.
</event>
<event>
 5   0  0.4079777E-07  0.3576692E+04  0.7818609E-02  0.8095852E-01
       -2   -1    0    0    0  501  0.00000000000E+00  0.00000000000E+00  0.12406636382E+04  0.12406636382E+04  0.25500000920E-02 0.  1.
        2   -1    0    0  501    0  0.00000000000E+00  0.00000000000E+00 -0.25777985872E+04  0.25777985872E+04  0.25500000920E-02 0. -1.
    10030    2    1    2    0    0  0.00000000000E+00  0.00000000000E+00 -0.13371349489E+04  0.38184622254E+04  0.35766917528E+04 0.  0.
        4    1    3    3  502    0  0.30321581842E+03 -0.16441008142E+04  0.93115393065E+01  0.16718539522E+04  0.12699999809E+01 0.  1.
       -4    1    3    3    0  502 -0.30321581842E+03  0.16441008142E+04 -0.13464464882E+04  0.21466082732E+04  0.12699999809E+01 0. -1.
</event>
<event>
 5   0  0.1421304E-07  0.4062351E+04  0.7818609E-02  0.7992085E-01
       -1   -1    0    0    0  501  0.00000000000E+00  0.00000000000E+00  0.31969221408E+04  0.31969221408E+04  0.50400001928E-02 0.  1.
        1   -1    0    0  501    0  0.00000000000E+00  0.00000000000E+00 -0.12905143551E+04  0.12905143551E+04  0.50400001928E-02 0. -1.
    10030    2    1    2    0    0  0.00000000000E+00  0.00000000000E+00  0.19064077857E+04  0.44874364959E+04  0.40623510015E+04 0.  0.
        2    1    3    3  502    0  0.20121243973E+02 -0.99492409901E+03  0.29091955912E+04  0.30746866206E+04  0.25500000920E-02 0.  1.
       -2    1    3    3    0  502 -0.20121243973E+02  0.99492409901E+03 -0.10027878055E+04  0.14127498753E+04  0.25500000920E-02 0. -1.
</event>
<event>
 5   0  0.1372952E-07  0.2928056E+04  0.7818609E-02  0.8264578E-01
       -1   -1    0    0    0  501  0.00000000000E+00  0.00000000000E+00  0.14015640632E+04  0.14015640632E+04  0.50400001928E-02 0.  1.
        1   -1    0    0  501    0  0.00000000000E+00  0.00000000000E+00 -0.15292762558E+04  0.15292762558E+04  0.50400001928E-02 0. -1.
    10030    2    1    2    0    0  0.00000000000E+00  0.00000000000E+00 -0.12771219259E+03  0.29308403190E+04  0.29280564494E+04 0.  0.
        1    1    3    3  502    0 -0.11051017877E+04  0.85689898468E+03 -0.49768807533E+03  0.14843245102E+04  0.50400001928E-02 0. -1.
       -1    1    3    3    0  502  0.11051017877E+04 -0.85689898468E+03  0.36997588275E+03  0.14465158088E+04  0.50400001928E-02 0.  1.
</event>
<event>
 5   0  0.4079777E-07  0.4038098E+04  0.7818609E-02  0.7996905E-01
        2   -1    0    0  501    0  0.00000000000E+00  0.00000000000E+00  0.27641956009E+04  0.27641956009E+04  0.25500000920E-02 0.  1.
       -2   -1    0    0    0  501  0.00000000000E+00  0.00000000000E+00 -0.14747718796E+04  0.14747718796E+04  0.25500000920E-02 0. -1.
    10030    2    1    2    0    0  0.00000000000E+00  0.00000000000E+00  0.12894237212E+04  0.42389674805E+04  0.40380975431E+04 0.  0.
        4    1    3    3  502    0  0.18940340870E+04 -0.51634529775E+03  0.11399625844E+04  0.22701308104E+04  0.12699999809E+01 0.  1.
       -4    1    3    3    0  502 -0.18940340870E+04  0.51634529775E+03  0.14946113679E+03  0.19688366701E+04  0.12699999809E+01 0. -1.
</event>
<event>
 5   0  0.4077370E-07  0.3959648E+04  0.7818609E-02  0.8012737E-01
       -2   -1    0    0    0  501  0.00000000000E+00  0.00000000000E+00  0.24526506856E+04  0.24526506856E+04  0.25500000920E-02 0. -1.
        2   -1    0    0  501    0  0.00000000000E+00  0.00000000000E+00 -0.15981493487E+04  0.15981493487E+04  0.25500000920E-02 0.  1.
    10030    2    1    2    0    0  0.00000000000E+00  0.00000000000E+00  0.85450133694E+03  0.40508000342E+04  0.39596475074E+04 0.  0.
        3    1    3    3  502    0 -0.10613275311E+04 -0.44408499460E+03  0.20755756940E+04  0.23731081059E+04  0.10100000352E+00 0. -1.
       -3    1    3    3    0  502  0.10613275311E+04  0.44408499460E+03 -0.12210743571E+04  0.16776919283E+04  0.10100000352E+00 0.  1.
</event>
<event>
 5   0  0.1421304E-07  0.4068191E+04  0.7818609E-02  0.7990930E-01
        1   -1    0    0  501    0  0.00000000000E+00  0.00000000000E+00  0.18545596152E+04  0.18545596152E+04  0.50400001928E-02 0. -1.
       -1   -1    0    0    0  501  0.00000000000E+00  0.00000000000E+00 -0.22310124078E+04  0.22310124078E+04  0.50400001928E-02 0.  1.
    10030    2    1    2    0    0  0.00000000000E+00  0.00000000000E+00 -0.37645279261E+03  0.40855720230E+04  0.40681914962E+04 0.  0.
        2    1    3    3  502    0 -0.57325894572E+03 -0.29569607110E+03 -0.21255828497E+04  0.22212979171E+04  0.25500000920E-02 0.  1.
       -2    1    3    3    0  502  0.57325894572E+03  0.29569607110E+03  0.17491300571E+04  0.18642741059E+04  0.25500000920E-02 0. -1.
</event>
<event>
 5   0  0.1351000E-07  0.3921615E+04  0.7818609E-02  0.8020549E-01
        1   -1    0    0  501    0  0.00000000000E+00  0.00000000000E+00  0.21052557993E+04  0.21052557993E+04  0.50400001928E-02 0.  1.
       -1   -1    0    0    0  501  0.00000000000E+00  0.00000000000E+00 -0.18262704742E+04  0.18262704743E+04  0.50400001928E-02 0. -1.
    10030    2    1    2    0    0  0.00000000000E+00  0.00000000000E+00  0.27898532503E+03  0.39315262735E+04  0.39216152320E+04 0.  0.
        3    1    3    3  502    0  0.27634131738E+03 -0.89463325549E+03 -0.15876594454E+04  0.18432025690E+04  0.10100000352E+00 0. -1.
       -3    1    3    3    0  502 -0.27634131738E+03  0.89463325549E+03  0.18666447705E+04  0.20883237045E+04  0.10100000352E+00 0.  1.
</event>
<event>
 5   0  0.4149487E-07  0.2470826E+04  0.7818609E-02  0.8413453E-01
       -2   -1    0    0    0  501  0.00000000000E+00  0.00000000000E+00  0.95235896384E+03  0.95235896385E+03  0.25500000920E-02 0. -1.
        2   -1    0    0  501    0  0.00000000000E+00  0.00000000000E+00 -0.16025941576E+04  0.16025941576E+04  0.25500000920E-02 0.  1.
    10030    2    1    2    0    0  0.00000000000E+00  0.00000000000E+00 -0.65023519375E+03  0.25549531214E+04  0.24708257012E+04 0.  0.
        2    1    3    3  502    0 -0.29235349876E+03 -0.11422540758E+04 -0.70649778292E+03  0.13745377620E+04  0.25500000920E-02 0.  1.
       -2    1    3    3    0  502  0.29235349876E+03  0.11422540758E+04  0.56262589170E+02  0.11804153594E+04  0.25500000920E-02 0. -1.
</event>
<event>
 5   0  0.4079777E-07  0.2768311E+04  0.7818609E-02  0.8313175E-01
        2   -1    0    0  501    0  0.00000000000E+00  0.00000000000E+00  0.18319968582E+04  0.18319968582E+04  0.25500000920E-02 0. -1.
       -2   -1    0    0    0  501  0.00000000000E+00  0.00000000000E+00 -0.10457910689E+04  0.10457910689E+04  0.25500000920E-02 0.  1.
    10030    2    1    2    0    0  0.00000000000E+00  0.00000000000E+00  0.78620578934E+03  0.28777879271E+04  0.27683106419E+04 0.  0.
        4    1    3    3  502    0 -0.50924857300E+03  0.51357397717E+03  0.16199405461E+04  0.17740635065E+04  0.12699999809E+01 0. -1.
       -4    1    3    3    0  502  0.50924857300E+03 -0.51357397717E+03 -0.83373475678E+03  0.11037244206E+04  0.12699999809E+01 0.  1.
</event>
<event>
 5   0  0.1372952E-07  0.3975239E+04  0.7818609E-02  0.8009560E-01
       -1   -1    0    0    0  501  0.00000000000E+00  0.00000000000E+00  0.17768729319E+04  0.17768729319E+04  0.50400001928E-02 0.  1.
        1   -1    0    0  501    0  0.00000000000E+00  0.00000000000E+00 -0.22233612537E+04  0.22233612537E+04  0.50400001928E-02 0. -1.
    10030    2    1    2    0    0  0.00000000000E+00  0.00000000000E+00 -0.44648832177E+03  0.40002341856E+04  0.39752385737E+04 0.  0.
        1    1    3    3  502    0 -0.10307262903E+04  0.12498502471E+04  0.93556436953E+03  0.18707760462E+04  0.50400001928E-02 0.  1.
       -1    1    3    3    0  502  0.10307262903E+04 -0.12498502471E+04 -0.13820526913E+04  0.21294581393E+04  0.50400001928E-02 0. -1.
</event>
<event>
 5   0  0.1372952E-07  0.4033676E+04  0.7818609E-02  0.7997787E-01
       -1   -1    0    0    0  501  0.00000000000E+00  0.00000000000E+00  0.25196828092E+04  0.25196828092E+04  0.50400001928E-02 0. -1.
        1   -1    0    0  501    0  0.00000000000E+00  0.00000000000E+00 -0.16143445973E+04  0.16143445973E+04  0.50400001928E-02 0.  1.
    10030    2    1    2    0    0  0.00000000000E+00  0.00000000000E+00  0.90533821183E+03  0.41340274065E+04  0.40336764025E+04 0.  0.
        1    1    3    3  502    0  0.17349903839E+04  0.53225655730E+03  0.13544150514E+04  0.22644930573E+04  0.50400001928E-02 0. -1.
       -1    1    3    3    0  502 -0.17349903839E+04 -0.53225655730E+03 -0.44907683953E+03  0.18695343492E+04  0.50400001928E-02 0.  1.
</event>
<event>
 5   0  0.4077370E-07  0.3803727E+04  0.7818609E-02  0.8045356E-01
        2   -1    0    0  501    0  0.00000000000E+00  0.00000000000E+00  0.23640538937E+04  0.23640538937E+04  0.25500000920E-02 0. -1.
       -2   -1    0    0    0  501  0.00000000000E+00  0.00000000000E+00 -0.15300345553E+04  0.15300345553E+04  0.25500000920E-02 0.  1.
    10030    2    1    2    0    0  0.00000000000E+00  0.00000000000E+00  0.83401933841E+03  0.38940884489E+04  0.38037266715E+04 0.  0.
        3    1    3    3  502    0  0.53975588939E+03  0.17572445868E+04  0.91628281665E+03  0.20539764284E+04  0.10100000352E+00 0. -1.
       -3    1    3    3    0  502 -0.53975588939E+03 -0.17572445868E+04 -0.82263478232E+02  0.18401120205E+04  0.10100000352E+00 0.  1.
</event>
<event>
 5   0  0.1351000E-07  0.3118306E+04  0.7818609E-02  0.8210732E-01
        1   -1    0    0  501    0  0.00000000000E+00  0.00000000000E+00  0.18643395556E+04  0.18643395556E+04  0.50400001928E-02 0.  1.
       -1   -1    0    0    0  501  0.00000000000E+00  0.00000000000E+00 -0.13039245854E+04  0.13039245854E+04  0.50400001928E-02 0. -1.
    10030    2    1    2    0    0  0.00000000000E+00  0.00000000000E+00  0.56041497018E+03  0.31682641410E+04  0.31183060671E+04 0.  0.
        4    1    3    3  502    0 -0.70707455809E+03 -0.71313798980E+02  0.16902148042E+04  0.18335396876E+04  0.12699999809E+01 0.  1.
       -4    1    3    3    0  502  0.70707455809E+03  0.71313798980E+02 -0.11297998340E+04  0.13347244534E+04  0.12699999809E+01 0. -1.
</event>
<event>
 5   0  0.1372952E-07  0.3989113E+04  0.7818609E-02  0.8006746E-01
        1   -1    0    0  501    0  0.00000000000E+00  0.00000000000E+00  0.20067242722E+04  0.20067242722E+04  0.50400001928E-02 0.  1.
       -1   -1    0    0    0  501  0.00000000000E+00  0.00000000000E+00 -0.19824623335E+04  0.19824623335E+04  0.50400001928E-02 0. -1.
    10030    2    1    2    0    0  0.00000000000E+00  0.00000000000E+00  0.24261938710E+02  0.39891866057E+04  0.39891128254E+04 0.  0.
        1    1    3    3  502    0 -0.37042856379E+03  0.16347156796E+04 -0.10689730231E+04  0.19880181081E+04  0.50400001928E-02 0. -1.
       -1    1    3    3    0  502  0.37042856379E+03 -0.16347156796E+04  0.10932349618E+04  0.20011684976E+04  0.50400001928E-02 0.  1.
</event>
<event>
 5   0  0.1372952E-07  0.4057113E+04  0.7818609E-02  0.7993123E-01
       -1   -1    0    0    0  501  0.00000000000E+00  0.00000000000E+00  0.17412457973E+04  0.17412457973E+04  0.50400001928E-02 0. -1.
        1   -1    0    0  501    0  0.00000000000E+00  0.00000000000E+00 -0.23632748632E+04  0.23632748632E+04  0.50400001928E-02 0.  1.
    10030    2    1    2    0    0  0.00000000000E+00  0.00000000000E+00 -0.62202906587E+03  0.41045206605E+04  0.40571134682E+04 0.  0.
        1    1    3    3  502    0 -0.15069399824E+04 -0.11472620692E+04 -0.10461163070E+04  0.21636630269E+04  0.50400001928E-02 0. -1.
       -1    1    3    3    0  502  0.15069399824E+04  0.11472620692E+04  0.42408724115E+03  0.19408576337E+04  0.50400001928E-02 0.  1.
</event>
<event>
 5   0  0.1351000E-07  0.2552724E+04  0.7818609E-02  0.8384440E-01
        1   -1    0    0  501    0  0.00000000000E+00  0.00000000000E+00  0.16910419519E+04  0.16910419519E+04  0.50400001928E-02 0.  1.
       -1   -1    0    0    0  501  0.00000000000E+00  0.00000000000E+00 -0.96337015190E+03  0.96337015191E+03  0.50400001928E-02 0. -1.
    10030    2    1    2    0    0  0.00000000000E+00  0.00000000000E+00  0.72767179999E+03  0.26544121038E+04  0.25527235198E+04 0.  0.
        3    1    3    3  502    0 -0.11010243964E+03 -0.31697987311E+03 -0.91668259207E+03  0.97616892594E+03  0.10100000352E+00 0. -1.
       -3    1    3    3    0  502  0.11010243964E+03  0.31697987311E+03  0.16443543921E+04  0.16782431779E+04  0.10100000352E+00 0.  1.
</event>
<event>
 5   0  0.4047916E-07  0.3970409E+04  0.7818609E-02  0.8010543E-01
       -2   -1    0    0    0  501  0.00000000000E+00  0.00000000000E+00  0.17354755364E+04  0.17354755364E+04  0.25500000920E-02 0. -1.
        2   -1    0    0  501    0  0.00000000000E+00  0.00000000000E+00 -0.22708691026E+04  0.22708691026E+04  0.25500000920E-02 0.  1.
    10030    2    1    2    0    0  0.00000000000E+00  0.00000000000E+00 -0.53539356624E+03  0.40063446390E+04  0.39704094367E+04 0.  0.
        5    1    3    3  502    0  0.10891891586E+04  0.95065242917E+03  0.11051102307E+04  0.18197153009E+04  0.46999998093E+01 0. -1.
       -5    1    3    3    0  502 -0.10891891586E+04 -0.95065242917E+03 -0.16405037969E+04  0.21866293381E+04  0.46999998093E+01 0.  1.
</event>
<event>
 5   0  0.1351000E-07  0.4052238E+04  0.7818609E-02  0.7994091E-01
       -1   -1    0    0    0  501  0.00000000000E+00  0.00000000000E+00  0.20610739196E+04  0.20610739196E+04  0.50400001928E-02 0.  1.
        1   -1    0    0  501    0  0.00000000000E+00  0.00000000000E+00 -0.19917571921E+04  0.19917571921E+04  0.50400001928E-02 0. -1.
    10030    2    1    2    0    0  0.00000000000E+00  0.00000000000E+00  0.69316727544E+02  0.40528311117E+04  0.40522382964E+04 0.  0.
        4    1    3    3  502    0  0.12325611256E+04 -0.15990740937E+04  0.20471942451E+03  0.20293241587E+04  0.12699999809E+01 0.  1.
       -4    1    3    3    0  502 -0.12325611256E+04  0.15990740937E+04 -0.13540269697E+03  0.20235069530E+04  0.12699999809E+01 0. -1.
</event>
<event>
 5   0  0.1372952E-07  0.4122086E+04  0.7818609E-02  0.7980361E-01
       -1   -1    0    0    0  501  0.00000000000E+00  0.00000000000E+00  0.32652029219E+04  0.32652029219E+04  0.50400001928E-02 0. -1.
        1   -1    0    0  501    0  0.00000000000E+00  0.00000000000E+00 -0.13009596512E+04  0.13009596512E+04  0.50400001928E-02 0.  1.
    10030    2    1    2    0    0  0.00000000000E+00  0.00000000000E+00  0.19642432707E+04  0.45661625732E+04  0.41220855180E+04 0.  0.
        1    1    3    3  502    0  0.19124644352E+04 -0.55175780456E+03  0.38978021112E+03  0.20282715557E+04  0.50400001928E-02 0. -1.
       -1    1    3    3    0  502 -0.19124644352E+04  0.55175780456E+03  0.15744630596E+04  0.25378910175E+04  0.50400001928E-02 0.  1.
</event>
<event>
 5   0  0.1372952E-07  0.4013586E+04  0.7818609E-02  0.8001811E-01
       -1   -1    0    0    0  501  0.00000000000E+00  0.00000000000E+00  0.15757388652E+04  0.15757388652E+04  0.50400001928E-02 0.  1.
        1   -1    0    0  501    0  0.00000000000E+00  0.00000000000E+00 -0.25557650434E+04  0.25557650434E+04  0.50400001928E-02 0. -1.
    10030    2    1    2    0    0  0.00000000000E+00  0.00000000000E+00 -0.98002617817E+03  0.41315039086E+04  0.40135860819E+04 0.  0.
        1    1    3    3  502    0  0.78933721004E+03 -0.97981236545E+03  0.11192905234E+04  0.16840121076E+04  0.50400001928E-02 0.  1.
       -1    1    3    3    0  502 -0.78933721004E+03  0.97981236545E+03 -0.20993167016E+04  0.24474918010E+04  0.50400001928E-02 0. -1.
</event>
<event>
 5   0  0.4047916E-07  0.3957908E+04  0.7818609E-02  0.8013092E-01
        2   -1    0    0  501    0  0.00000000000E+00  0.00000000000E+00  0.13747710843E+04  0.13747710843E+04  0.25500000920E-02 0.  1.
       -2   -1    0    0    0  501  0.00000000000E+00  0.00000000000E+00 -0.28486630002E+04  0.28486630002E+04  0.25500000920E-02 0. -1.
    10030    2    1    2    0    0  0.00000000000E+00  0.00000000000E+00 -0.14738919159E+04  0.42234340846E+04  0.39579082970E+04 0.  0.
        5    1    3    3  502    0  0.14760698738E+04  0.13170596294E+04 -0.68038939975E+03  0.20919799629E+04  0.46999998093E+01 0.  1.
       -5    1    3    3    0  502 -0.14760698738E+04 -0.13170596294E+04 -0.79350251614E+03  0.21314541217E+04  0.46999998093E+01 0. -1.
</event>
<event>
 5   0  0.4079777E-07  0.2470581E+04  0.7818609E-02  0.8413542E-01
        2   -1    0    0  501    0  0.00000000000E+00  0.00000000000E+00  0.15173344945E+04  0.15173344945E+04  0.25500000920E-02 0. -1.
       -2   -1    0    0    0  501  0.00000000000E+00  0.00000000000E+00 -0.10056734040E+04  0.10056734040E+04  0.25500000920E-02 0.  1.
    10030    2    1    2    0    0  0.00000000000E+00  0.00000000000E+00  0.51166109050E+03  0.25230078985E+04  0.24705812645E+04 0.  0.
        4    1    3    3  502    0  0.37821863652E+03 -0.49497847072E+03  0.13451851770E+04  0.14824229480E+04  0.12699999809E+01 0. -1.
       -4    1    3    3    0  502 -0.37821863652E+03  0.49497847072E+03 -0.83352408653E+03  0.10405849505E+04  0.12699999809E+01 0.  1.
</event>
<event>
 5   0  0.1368865E-07  0.4135493E+04  0.7818609E-02  0.7977757E-01
        1   -1    0    0  501    0  0.00000000000E+00  0.00000000000E+00  0.21003248122E+04  0.21003248122E+04  0.50400001928E-02 0.  1.
       -1   -1    0    0    0  501  0.00000000000E+00  0.00000000000E+00 -0.20356737534E+04  0.20356737534E+04  0.50400001928E-02 0. -1.
    10030    2    1    2    0    0  0.00000000000E+00  0.00000000000E+00  0.64651058859E+02  0.41359985656E+04  0.41354932445E+04 0.  0.
        5    1    3    3  502    0  0.20597720798E+04 -0.28036574656E+02 -0.14688044249E+03  0.20651980594E+04  0.46999998093E+01 0.  1.
       -5    1    3    3    0  502 -0.20597720798E+04  0.28036574656E+02  0.21153150135E+03  0.20708005062E+04  0.46999998093E+01 0. -1.
</event>
<event>
 5   0  0.4079777E-07  0.3095057E+04  0.7818609E-02  0.8217096E-01
       -2   -1    0    0    0  501  0.00000000000E+00  0.00000000000E+00  0.10695870022E+04  0.10695870022E+04  0.25500000920E-02 0. -1.
        2   -1    0    0  501    0  0.00000000000E+00  0.00000000000E+00 -0.22390366203E+04  0.22390366203E+04  0.25500000920E-02 0.  1.
    10030    2    1    2    0    0  0.00000000000E+00  0.00000000000E+00 -0.11694496181E+04  0.33086236225E+04  0.30950570053E+04 0.  0.
        4    1    3    3  502    0  0.31478489619E+03 -0.36659447451E+03  0.98687674987E+03  0.10988213558E+04  0.12699999809E+01 0. -1.
       -4    1    3    3    0  502 -0.31478489619E+03  0.36659447451E+03 -0.21563263680E+04  0.22098022667E+04  0.12699999809E+01 0.  1.
</event>
<event>
 5   0  0.1351000E-07  0.3844459E+04  0.7818609E-02  0.8036681E-01
        1   -1    0    0  501    0  0.00000000000E+00  0.00000000000E+00  0.26651620670E+04  0.26651620670E+04  0.50400001928E-02 0.  1.
       -1   -1    0    0    0  501  0.00000000000E+00  0.00000000000E+00 -0.13863942292E+04  0.13863942292E+04  0.50400001928E-02 0. -1.
    10030    2    1    2    0    0  0.00000000000E+00  0.00000000000E+00  0.12787678377E+04  0.40515562962E+04  0.38444585104E+04 0.  0.
        3    1    3    3  502    0  0.10721413938E+04  0.11217290286E+04 -0.55628261081E+03  0.16483972626E+04  0.10100000352E+00 0. -1.
       -3    1    3    3    0  502 -0.10721413938E+04 -0.11217290286E+04  0.18350504485E+04  0.24031590336E+04  0.10100000352E+00 0.  1.
</event>
<event>
 5   0  0.4149487E-07  0.2845764E+04  0.7818609E-02  0.8289200E-01
       -2   -1    0    0    0  501  0.00000000000E+00  0.00000000000E+00  0.13243634341E+04  0.13243634341E+04  0.25500000920E-02 0.  1.
        2   -1    0    0  501    0  0.00000000000E+00  0.00000000000E+00 -0.15287292616E+04  0.15287292616E+04  0.25500000920E-02 0. -1.
    10030    2    1    2    0    0  0.00000000000E+00  0.00000000000E+00 -0.20436582744E+03  0.28530926957E+04  0.28457639640E+04 0.  0.
        2    1    3    3  502    0  0.39578047418E+03  0.51496173445E+03 -0.13714469668E+04  0.15174631971E+04  0.25500000920E-02 0. -1.
       -2    1    3    3    0  502 -0.39578047418E+03 -0.51496173445E+03  0.11670811394E+04  0.13356294986E+04  0.25500000920E-02 0.  1.
</event>
<event>
 5   0  0.4301754E-07  0.3923578E+04  0.7818609E-02  0.8020143E-01
       -2   -1    0    0    0  501  0.00000000000E+00  0.00000000000E+00  0.12293606121E+04  0.12293606121E+04  0.25500000920E-02 0. -1.
        2   -1    0    0  501    0  0.00000000000E+00  0.00000000000E+00 -0.31305836230E+04  0.31305836230E+04  0.25500000920E-02 0.  1.
    10030    2    1    2    0    0  0.00000000000E+00  0.00000000000E+00 -0.19012230109E+04  0.43599442351E+04  0.39235780604E+04 0.  0.
        1    1    3    3  502    0 -0.17341420041E+04 -0.70705001446E+03 -0.30128831372E+03  0.18968244150E+04  0.50400001928E-02 0. -1.
       -1    1    3    3    0  502  0.17341420041E+04  0.70705001446E+03 -0.15999346972E+04  0.24631198202E+04  0.50400001928E-02 0.  1.
</event>
<event>
 5   0  0.1484799E-07  0.2579891E+04  0.7818609E-02  0.8375064E-01
       -1   -1    0    0    0  501  0.00000000000E+00  0.00000000000E+00  0.84546866692E+03  0.84546866694E+03  0.50400001928E-02 0. -1.
        1   -1    0    0  501    0  0.00000000000E+00  0.00000000000E+00 -0.19680909443E+04  0.19680909444E+04  0.50400001928E-02 0.  1.
    10030    2    1    2    0    0  0.00000000000E+00  0.00000000000E+00 -0.11226222774E+04  0.28135596113E+04  0.25798908714E+04 0.  0.
        4    1    3    3  502    0  0.17045119378E+03 -0.26975076432E+03  0.80174755593E+03  0.86291357658E+03  0.12699999809E+01 0. -1.
       -4    1    3    3    0  502 -0.17045119378E+03  0.26975076432E+03 -0.19243698334E+04  0.19506460347E+04  0.12699999809E+01 0.  1.
</event>
<event>
 5   0  0.4301754E-07  0.3435630E+04  0.7818609E-02  0.8129216E-01
       -2   -1    0    0    0  501  0.00000000000E+00  0.00000000000E+00  0.24681071897E+04  0.24681071897E+04  0.25500000920E-02 0. -1.
        2   -1    0    0  501    0  0.00000000000E+00  0.00000000000E+00 -0.11956079386E+04  0.11956079386E+04  0.25500000920E-02 0.  1.
    10030    2    1    2    0    0  0.00000000000E+00  0.00000000000E+00  0.12724992511E+04  0.36637151282E+04  0.34356301019E+04 0.  0.
        1    1    3    3  502    0  0.93466636407E+03 -0.72371586858E+03  0.19653999369E+04  0.22935044762E+04  0.50400001928E-02 0. -1.
       -1    1    3    3    0  502 -0.93466636407E+03  0.72371586858E+03 -0.69290068576E+03  0.13702106520E+04  0.50400001928E-02 0.  1.
</event>
<event>
 5   0  0.4047916E-07  0.2859829E+04  0.7818609E-02  0.8284931E-01
       -2   -1    0    0    0  501  0.00000000000E+00  0.00000000000E+00  0.30097951746E+04  0.30097951746E+04  0.25500000920E-02 0.  1.
        2   -1    0    0  501    0  0.00000000000E+00  0.00000000000E+00 -0.67933395049E+03  0.67933395049E+03  0.25500000920E-02 0. -1.
    10030    2    1    2    0    0  0.00000000000E+00  0.00000000000E+00  0.23304612241E+04  0.36891291251E+04  0.28598293978E+04 0.  0.
        5    1    3    3  502    0 -0.94454709961E+03 -0.11990421559E+03 -0.21093783905E+03  0.97522464399E+03  0.46999998093E+01 0. -1.
       -5    1    3    3    0  502  0.94454709961E+03  0.11990421559E+03  0.25413990632E+04  0.27139044811E+04  0.46999998093E+01 0.  1.
</event>
<event>
 5   0  0.4079777E-07  0.3581685E+04  0.7818609E-02  0.8094700E-01
       -2   -1    0    0    0  501  0.00000000000E+00  0.00000000000E+00  0.12699689653E+04  0.12699689653E+04  0.25500000920E-02 0.  1.
        2   -1    0    0  501    0  0.00000000000E+00  0.00000000000E+00 -0.25253502648E+04  0.25253502648E+04  0.25500000920E-02 0. -1.
    10030    2    1    2    0    0  0.00000000000E+00  0.00000000000E+00 -0.12553812996E+04  0.37953192301E+04  0.35816847783E+04 0.  0.
        4    1    3    3  502    0  0.12404525941E+04 -0.93948595909E+03 -0.15669930900E+04  0.22083535637E+04  0.12699999809E+01 0. -1.
       -4    1    3    3    0  502 -0.12404525941E+04  0.93948595909E+03  0.31161179041E+03  0.15869656664E+04  0.12699999809E+01 0.  1.
</event>
<event>
 5   0  0.4077370E-07  0.4014858E+04  0.7818609E-02  0.8001556E-01
        2   -1    0    0  501    0  0.00000000000E+00  0.00000000000E+00  0.15533422467E+04  0.15533422467E+04  0.25500000920E-02 0.  1.
       -2   -1    0    0    0  501  0.00000000000E+00  0.00000000000E+00 -0.25942586898E+04  0.25942586898E+04  0.25500000920E-02 0. -1.
    10030    2    1    2    0    0  0.00000000000E+00  0.00000000000E+00 -0.10409164430E+04  0.41476009365E+04  0.40148582150E+04 0.  0.
        3    1    3    3  502    0 -0.17051529488E+04  0.10485545340E+04 -0.36461144508E+03  0.20346878644E+04  0.10100000352E+00 0.  1.
       -3    1    3    3    0  502  0.17051529488E+04 -0.10485545340E+04 -0.67630499796E+03  0.21129130721E+04  0.10100000352E+00 0. -1.
</event>
<event>
 5   0  0.1421304E-07  0.2653040E+04  0.7818609E-02  0.8350405E-01
       -1   -1    0    0    0  501  0.00000000000E+00  0.00000000000E+00  0.16031526026E+04  0.16031526026E+04  0.50400001928E-02 0.  1.
        1   -1    0    0  501    0  0.00000000000E+00  0.00000000000E+00 -0.10976221001E+04  0.10976221001E+04  0.50400001928E-02 0. -1.
    10030    2    1    2    0    0  0.00000000000E+00  0.00000000000E+00  0.50553050249E+03  0.27007747027E+04  0.26530403136E+04 0.  0.
        2    1    3    3  502    0  0.36241410680E+03  0.12733166843E+04  0.33779268000E+03  0.13663027695E+04  0.25500000920E-02 0.  1.
       -2    1    3    3    0  502 -0.36241410680E+03 -0.12733166843E+04  0.16773782249E+03  0.13344719332E+04  0.25500000920E-02 0. -1.
</event>
<event>
 5   0  0.1351000E-07  0.3333400E+04  0.7818609E-02  0.8154448E-01
        1   -1    0    0  501    0  0.00000000000E+00  0.00000000000E+00  0.21070495125E+04  0.21070495125E+04  0.50400001928E-02 0. -1.
       -1   -1    0    0    0  501  0.00000000000E+00  0.00000000000E+00 -0.13183787563E+04  0.13183787563E+04  0.50400001928E-02 0.  1.
    10030    2    1    2    0    0  0.00000000000E+00  0.00000000000E+00  0.78867075621E+03  0.34254282688E+04  0.33334002555E+04 0.  0.
        4    1    3    3  502    0 -0.42339266735E+03  0.52178515172E+03  0.19616871919E+04  0.20735812854E+04  0.12699999809E+01 0. -1.
       -4    1    3    3    0  502  0.42339266735E+03 -0.52178515172E+03 -0.11730164357E+04  0.13518469834E+04  0.12699999809E+01 0.  1.
</event>
<event>
 5   0  0.1351000E-07  0.2653921E+04  0.7818609E-02  0.8350113E-01
        1   -1    0    0  501    0  0.00000000000E+00  0.00000000000E+00  0.33592645648E+04  0.33592645648E+04  0.50400001928E-02 0.  1.
       -1   -1    0    0    0  501  0.00000000000E+00  0.00000000000E+00 -0.52416946047E+03  0.52416946049E+03  0.50400001928E-02 0. -1.
    10030    2    1    2    0    0  0.00000000000E+00  0.00000000000E+00  0.28350951043E+04  0.38834340252E+04  0.26539207935E+04 0.  0.
        3    1    3    3  502    0  0.63750871682E+03 -0.11440337296E+04  0.11050988636E+04  0.17136143227E+04  0.10100000352E+00 0. -1.
       -3    1    3    3    0  502 -0.63750871682E+03  0.11440337296E+04  0.17299962406E+04  0.21698197025E+04  0.10100000352E+00 0.  1.
</event>
<event>
 5   0  0.1351000E-07  0.4040181E+04  0.7818609E-02  0.7996489E-01
        1   -1    0    0  501    0  0.00000000000E+00  0.00000000000E+00  0.29700332039E+04  0.29700332039E+04  0.50400001928E-02 0. -1.
       -1   -1    0    0    0  501  0.00000000000E+00  0.00000000000E+00 -0.13739799245E+04  0.13739799245E+04  0.50400001928E-02 0.  1.
    10030    2    1    2    0    0  0.00000000000E+00  0.00000000000E+00  0.15960532794E+04  0.43440131284E+04  0.40401811827E+04 0.  0.
        3    1    3    3  502    0  0.16816964409E+02 -0.15776920922E+04 -0.55833652000E+03  0.16736591134E+04  0.10100000352E+00 0.  1.
       -3    1    3    3    0  502 -0.16816964409E+02  0.15776920922E+04  0.21543897994E+04  0.26703540151E+04  0.10100000352E+00 0. -1.
</event>
<event>
 5   0  0.4301754E-07  0.3983396E+04  0.7818609E-02  0.8007905E-01
       -2   -1    0    0    0  501  0.00000000000E+00  0.00000000000E+00  0.18577321008E+04  0.18577321009E+04  0.25500000920E-02 0.  1.
        2   -1    0    0  501    0  0.00000000000E+00  0.00000000000E+00 -0.21353243021E+04  0.21353243021E+04  0.25500000920E-02 0. -1.
    10030    2    1    2    0    0  0.00000000000E+00  0.00000000000E+00 -0.27759220129E+03  0.39930564030E+04  0.39833957884E+04 0.  0.
        1    1    3    3  502    0 -0.95338912384E+03  0.11561641235E+04 -0.14539207623E+04  0.20879539949E+04  0.50400001928E-02 0. -1.
       -1    1    3    3    0  502  0.95338912384E+03 -0.11561641235E+04  0.11763285610E+04  0.19051024081E+04  0.50400001928E-02 0.  1.
</event>
<event>
 5   0  0.4077370E-07  0.3319004E+04  0.7818609E-02  0.8158077E-01
       -2   -1    0    0    0  501  0.00000000000E+00  0.00000000000E+00  0.13940185017E+04  0.13940185017E+04  0.25500000920E-02 0.  1.
        2   -1    0    0  501    0  0.00000000000E+00  0.00000000000E+00 -0.19755458599E+04  0.19755458599E+04  0.25500000920E-02 0. -1.
    10030    2    1    2    0    0  0.00000000000E+00  0.00000000000E+00 -0.58152735817E+03  0.33695643616E+04  0.33190043566E+04 0.  0.
        3    1    3    3  502    0  0.98759095129E+03 -0.39778715516E+03  0.10015679204E+04  0.14617485479E+04  0.10100000352E+00 0.  1.
       -3    1    3    3    0  502 -0.98759095129E+03  0.39778715516E+03 -0.15830952786E+04  0.19078158137E+04  0.10100000352E+00 0. -1.
</event>
<event>
 5   0  0.4149487E-07  0.3783815E+04  0.7818609E-02  0.8049637E-01
       -2   -1    0    0    0  501  0.00000000000E+00  0.00000000000E+00  0.20466453350E+04  0.20466453350E+04  0.25500000920E-02 0.  1.
        2   -1    0    0  501    0  0.00000000000E+00  0.00000000000E+00 -0.17488682806E+04  0.17488682806E+04  0.25500000920E-02 0. -1.
    10030    2    1    2    0    0  0.00000000000E+00  0.00000000000E+00  0.29777705435E+03  0.37955136156E+04  0.37838145345E+04 0.  0.
        2    1    3    3  502    0  0.10425692110E+04 -0.93236018571E+03  0.14268240453E+04  0.19980172502E+04  0.25500000920E-02 0.  1.
       -2    1    3    3    0  502 -0.10425692110E+04  0.93236018571E+03 -0.11290469910E+04  0.17974963654E+04  0.25500000920E-02 0. -1.
</event>
<event>
 5   0  0.1372952E-07  0.4029918E+04  0.7818609E-02  0.7998538E-01
       -1   -1    0    0    0  501  0.00000000000E+00  0.00000000000E+00  0.33003732641E+04  0.33003732641E+04  0.50400001928E-02 0.  1.
        1   -1    0    0  501    0  0.00000000000E+00  0.00000000000E+00 -0.12301820428E+04  0.12301820428E+04  0.50400001928E-02 0. -1.
    10030    2    1    2    0    0  0.00000000000E+00  0.00000000000E+00  0.20701912214E+04  0.45305553069E+04  0.40299180756E+04 0.  0.
        1    1    3    3  502    0  0.12353798631E+04  0.13664150582E+04  0.19531218635E+04  0.26847604234E+04  0.50400001928E-02 0.  1.
       -1    1    3    3    0  502 -0.12353798631E+04 -0.13664150582E+04  0.11706935785E+03  0.18457948835E+04  0.50400001928E-02 0. -1.
</event>
<event>
 5   0  0.4149487E-07  0.4004878E+04  0.7818609E-02  0.8003563E-01
       -2   -1    0    0    0  501  0.00000000000E+00  0.00000000000E+00  0.20640946651E+04  0.20640946651E+04  0.25500000920E-02 0. -1.
        2   -1    0    0  501    0  0.00000000000E+00  0.00000000000E+00 -0.19426252733E+04  0.19426252733E+04  0.25500000920E-02 0.  1.
    10030    2    1    2    0    0  0.00000000000E+00  0.00000000000E+00  0.12146939177E+03  0.40067199383E+04  0.40048782567E+04 0.  0.
        2    1    3    3  502    0  0.82244171132E+03 -0.83016973935E+03 -0.15661035725E+04  0.19540400621E+04  0.25500000920E-02 0.  1.
       -2    1    3    3    0  502 -0.82244171132E+03  0.83016973935E+03  0.16875729642E+04  0.20526798762E+04  0.25500000920E-02 0. -1.
</event>
<event>
 5   0  0.1372952E-07  0.2478984E+04  0.7818609E-02  0.8410511E-01
        1   -1    0    0  501    0  0.00000000000E+00  0.00000000000E+00  0.14656968537E+04  0.14656968537E+04  0.50400001928E-02 0. -1.
       -1   -1    0    0    0  501  0.00000000000E+00  0.00000000000E+00 -0.10481982343E+04  0.10481982343E+04  0.50400001928E-02 0.  1.
    10030    2    1    2    0    0  0.00000000000E+00  0.00000000000E+00  0.41749861941E+03  0.25138950880E+04  0.24789843517E+04 0.  0.
        1    1    3    3  502    0  0.54315293086E+03 -0.11119817264E+04  0.13832794638E+03  0.12452522182E+04  0.50400001928E-02 0.  1.
       -1    1    3    3    0  502 -0.54315293086E+03  0.11119817264E+04  0.27917067302E+03  0.12686428697E+04  0.50400001928E-02 0. -1.
</event>
<event>
 5   0  0.1368865E-07  0.3994973E+04  0.7818609E-02  0.8005561E-01
       -1   -1    0    0    0  501  0.00000000000E+00  0.00000000000E+00  0.18983822825E+04  0.18983822825E+04  0.50400001928E-02 0.  1.
        1   -1    0    0  501    0  0.00000000000E+00  0.00000000000E+00 -0.21017644487E+04  0.21017644487E+04  0.50400001928E-02 0. -1.
    10030    2    1    2    0    0  0.00000000000E+00  0.00000000000E+00 -0.20338216618E+03  0.40001467313E+04  0.39949730370E+04 0.  0.
        5    1    3    3  502    0 -0.54830580927E+03  0.18136404881E+04  0.53158289447E+03  0.19678753884E+04  0.46999998093E+01 0.  1.
       -5    1    3    3    0  502  0.54830580927E+03 -0.18136404881E+04 -0.73496506064E+03  0.20322713429E+04  0.46999998093E+01 0. -1.
</event>
<event>
 5   0  0.4079777E-07  0.3211809E+04  0.7818609E-02  0.8185705E-01
        2   -1    0    0  501    0  0.00000000000E+00  0.00000000000E+00  0.22734833215E+04  0.22734833215E+04  0.25500000920E-02 0. -1.
       -2   -1    0    0    0  501  0.00000000000E+00  0.00000000000E+00 -0.11343515765E+04  0.11343515765E+04  0.25500000920E-02 0.  1.
    10030    2    1    2    0    0  0.00000000000E+00  0.00000000000E+00  0.11391317450E+04  0.34078348980E+04  0.32118090789E+04 0.  0.
        4    1    3    3  502    0 -0.70969359576E+02  0.12869840925E+04  0.15859240555E+04  0.20436539401E+04  0.12699999809E+01 0. -1.
       -4    1    3    3    0  502  0.70969359576E+02 -0.12869840925E+04 -0.44679231047E+03  0.13641809579E+04  0.12699999809E+01 0.  1.
</event>
<event>
 5   0  0.1351000E-07  0.3475720E+04  0.7818609E-02  0.8119568E-01
        1   -1    0    0  501    0  0.00000000000E+00  0.00000000000E+00  0.13096823706E+04  0.13096823706E+04  0.50400001928E-02 0.  1.
       -1   -1    0    0    0  501  0.00000000000E+00  0.00000000000E+00 -0.23060225040E+04  0.23060225040E+04  0.50400001928E-02 0. -1.
    10030    2    1    2    0    0  0.00000000000E+00  0.00000000000E+00 -0.99634013334E+03  0.36157048746E+04  0.34757197929E+04 0.  0.
        3    1    3    3  502    0 -0.64050954444E+02 -0.87279698615E+03  0.10637260230E+04  0.13774578636E+04  0.10100000352E+00 0.  1.
       -3    1    3    3    0  502  0.64050954444E+02  0.87279698615E+03 -0.20600661563E+04  0.22382470110E+04  0.10100000352E+00 0. -1.
</event>
<event>
 5   0  0.1351000E-07  0.3882950E+04  0.7818609E-02  0.8028585E-01
        3   -1    0    0  501    0  0.00000000000E+00  0.00000000000E+00  0.27675169561E+04  0.27675169579E+04  0.10100000352E+00 0.  1.
       -3   -1    0    0    0  501  0.00000000000E+00  0.00000000000E+00 -0.13619883547E+04  0.13619883585E+04  0.10100000352E+00 0. -1.
    10030    2    1    2    0    0  0.00000000000E+00  0.00000000000E+00  0.14055286014E+04  0.41295053164E+04  0.38829503614E+04 0.  0.
        5    1    3    3  502    0  0.12411067851E+03  0.63988904455E+03 -0.12421391514E+04  0.14027805285E+04  0.46999998093E+01 0. -1.
       -5    1    3    3    0  502 -0.12411067851E+03 -0.63988904455E+03  0.26476677527E+04  0.27267247879E+04  0.46999998093E+01 0.  1.
</event>
<event>
 5   0  0.1372952E-07  0.4040506E+04  0.7818609E-02  0.7996425E-01
        1   -1    0    0  501    0  0.00000000000E+00  0.00000000000E+00  0.14305122600E+04  0.14305122600E+04  0.50400001928E-02 0. -1.
       -1   -1    0    0    0  501  0.00000000000E+00  0.00000000000E+00 -0.28531194956E+04  0.28531194956E+04  0.50400001928E-02 0.  1.
    10030    2    1    2    0    0  0.00000000000E+00  0.00000000000E+00 -0.14226072356E+04  0.42836317556E+04  0.40405061157E+04 0.  0.
        1    1    3    3  502    0  0.16249358712E+03 -0.47345741496E+03  0.13637259680E+04  0.14526921923E+04  0.50400001928E-02 0. -1.
       -1    1    3    3    0  502 -0.16249358712E+03  0.47345741496E+03 -0.27863332036E+04  0.28309395633E+04  0.50400001928E-02 0.  1.
</event>
<event>
 5   0  0.1421304E-07  0.4148376E+04  0.7818609E-02  0.7975265E-01
       -1   -1    0    0    0  501  0.00000000000E+00  0.00000000000E+00  0.31418699229E+04  0.31418699229E+04  0.50400001928E-02 0.  1.
        1   -1    0    0  501    0  0.00000000000E+00  0.00000000000E+00 -0.13693296280E+04  0.13693296280E+04  0.50400001928E-02 0. -1.
    10030    2    1    2    0    0  0.00000000000E+00  0.00000000000E+00  0.17725402950E+04  0.45111995509E+04  0.41483758618E+04 0.  0.
        2    1    3    3  502    0 -0.10148430652E+04 -0.73994257342E+03 -0.90881053648E+03  0.15502767656E+04  0.25500000920E-02 0. -1.
       -2    1    3    3    0  502  0.10148430652E+04  0.73994257342E+03  0.26813508315E+04  0.29609227852E+04  0.25500000920E-02 0.  1.
</event>
<event>
 5   0  0.1351000E-07  0.3971476E+04  0.7818609E-02  0.8010326E-01
        1   -1    0    0  501    0  0.00000000000E+00  0.00000000000E+00  0.22217523234E+04  0.22217523234E+04  0.50400001928E-02 0.  1.
       -1   -1    0    0    0  501  0.00000000000E+00  0.00000000000E+00 -0.17747952241E+04  0.17747952241E+04  0.50400001928E-02 0. -1.
    10030    2    1    2    0    0  0.00000000000E+00  0.00000000000E+00  0.44695709929E+03  0.39965475475E+04  0.39714760040E+04 0.  0.
        4    1    3    3  502    0 -0.87330848058E+02 -0.16191996850E+04 -0.92993318351E+03  0.18692810478E+04  0.12699999809E+01 0. -1.
       -4    1    3    3    0  502  0.87330848058E+02  0.16191996850E+04  0.13768902828E+04  0.21272664997E+04  0.12699999809E+01 0.  1.
</event>
<event>
 5   0  0.1351000E-07  0.2637905E+04  0.7818609E-02  0.8355438E-01
        3   -1    0    0  501    0  0.00000000000E+00  0.00000000000E+00  0.78229950902E+03  0.78229951554E+03  0.10100000352E+00 0. -1.
       -3   -1    0    0    0  501  0.00000000000E+00  0.00000000000E+00 -0.22237471521E+04  0.22237471544E+04  0.10100000352E+00 0.  1.
    10030    2    1    2    0    0  0.00000000000E+00  0.00000000000E+00 -0.14414476431E+04  0.30060466699E+04  0.26379054710E+04 0.  0.
        2    1    3    3  502    0 -0.57220064402E+03  0.71908584112E+03  0.35743206581E+03  0.98603027620E+03  0.25500000920E-02 0. -1.
       -2    1    3    3    0  502  0.57220064402E+03 -0.71908584112E+03 -0.17988797089E+04  0.20200163937E+04  0.25500000920E-02 0.  1.
</event>
<event>
 5   0  0.4301754E-07  0.4019866E+04  0.7818609E-02  0.8000551E-01
       -2   -1    0    0    0  501  0.00000000000E+00  0.00000000000E+00  0.20062102869E+04  0.20062102870E+04  0.25500000920E-02 0.  1.
        2   -1    0    0  501    0  0.00000000000E+00  0.00000000000E+00 -0.20136624171E+04  0.20136624171E+04  0.25500000920E-02 0. -1.
    10030    2    1    2    0    0  0.00000000000E+00  0.00000000000E+00 -0.74521301326E+01  0.40198727040E+04  0.40198657966E+04 0.  0.
        1    1    3    3  502    0 -0.31750363631E+03 -0.87177150607E+03  0.17792621747E+04  0.20066310084E+04  0.50400001928E-02 0.  1.
       -1    1    3    3    0  502  0.31750363631E+03  0.87177150607E+03 -0.17867143048E+04  0.20132416956E+04  0.50400001928E-02 0. -1.
</event>
<event>
 5   0  0.1421304E-07  0.3974208E+04  0.7818609E-02  0.8009770E-01
        1   -1    0    0  501    0  0.00000000000E+00  0.00000000000E+00  0.14862792746E+04  0.14862792746E+04  0.50400001928E-02 0.  1.
       -1   -1    0    0    0  501  0.00000000000E+00  0.00000000000E+00 -0.26566897646E+04  0.26566897646E+04  0.50400001928E-02 0. -1.
    10030    2    1    2    0    0  0.00000000000E+00  0.00000000000E+00 -0.11704104900E+04  0.41429690392E+04  0.39742083168E+04 0.  0.
        2    1    3    3  502    0 -0.92413598549E+03  0.17528513471E+04 -0.74006561750E+03  0.21152333873E+04  0.25500000920E-02 0. -1.
       -2    1    3    3    0  502  0.92413598549E+03 -0.17528513471E+04 -0.43034487250E+03  0.20277356519E+04  0.25500000920E-02 0.  1.
</event>
<event>
 5   0  0.4077370E-07  0.3987503E+04  0.7818609E-02  0.8007072E-01
       -2   -1    0    0    0  501  0.00000000000E+00  0.00000000000E+00  0.18806257477E+04  0.18806257477E+04  0.25500000920E-02 0.  1.
        2   -1    0    0  501    0  0.00000000000E+00  0.00000000000E+00 -0.21136824374E+04  0.21136824374E+04  0.25500000920E-02 0. -1.
    10030    2    1    2    0    0  0.00000000000E+00  0.00000000000E+00 -0.23305668978E+03  0.39943081851E+04  0.39875032861E+04 0.  0.
        3    1    3    3  502    0 -0.12176586224E+04  0.13379137761E+04 -0.95601570129E+03  0.20461358274E+04  0.10100000352E+00 0. -1.
       -3    1    3    3    0  502  0.12176586224E+04 -0.13379137761E+04  0.72295901151E+03  0.19481723577E+04  0.10100000352E+00 0.  1.
</event>
<event>
 5   0  0.1351000E-07  0.4037125E+04  0.7818609E-02  0.7997099E-01
        1   -1    0    0  501    0  0.00000000000E+00  0.00000000000E+00  0.24026274997E+04  0.24026274997E+04  0.50400001928E-02 0.  1.
       -1   -1    0    0    0  501  0.00000000000E+00  0.00000000000E+00 -0.16958907858E+04  0.16958907858E+04  0.50400001928E-02 0. -1.
    10030    2    1    2    0    0  0.00000000000E+00  0.00000000000E+00  0.70673671382E+03  0.40985182855E+04  0.40371246394E+04 0.  0.
        4    1    3    3  502    0  0.93545735081E+03  0.15151458087E+04  0.13185336288E+04  0.22156894683E+04  0.12699999809E+01 0.  1.
       -4    1    3    3    0  502 -0.93545735081E+03 -0.15151458087E+04 -0.61179691502E+03  0.18828288172E+04  0.12699999809E+01 0. -1.
</event>
<event>
 5   0  0.4301754E-07  0.2863290E+04  0.7818609E-02  0.8283884E-01
       -2   -1    0    0    0  501  0.00000000000E+00  0.00000000000E+00  0.87098469919E+03  0.87098469919E+03  0.25500000920E-02 0. -1.
        2   -1    0    0  501    0  0.00000000000E+00  0.00000000000E+00 -0.23532074160E+04  0.23532074160E+04  0.25500000920E-02 0.  1.
    10030    2    1    2    0    0  0.00000000000E+00  0.00000000000E+00 -0.14822227168E+04  0.32241921152E+04  0.28632901728E+04 0.  0.
        1    1    3    3  502    0 -0.10323351957E+04  0.44029502731E+03  0.25975913562E+03  0.11519767688E+04  0.50400001928E-02 0. -1.
       -1    1    3    3    0  502  0.10323351957E+04 -0.44029502731E+03 -0.17419818524E+04  0.20722153463E+04  0.50400001928E-02 0.  1.
</event>
<event>
 5   0  0.1351000E-07  0.3949146E+04  0.7818609E-02  0.8014885E-01
        1   -1    0    0  501    0  0.00000000000E+00  0.00000000000E+00  0.28395581015E+04  0.28395581015E+04  0.50400001928E-02 0. -1.
       -1   -1    0    0    0  501  0.00000000000E+00  0.00000000000E+00 -0.13730795844E+04  0.13730795844E+04  0.50400001928E-02 0.  1.
    10030    2    1    2    0    0  0.00000000000E+00  0.00000000000E+00  0.14664785172E+04  0.42126376859E+04  0.39491463674E+04 0.  0.
        3    1    3    3  502    0  0.60293723606E+03  0.13965233605E+04 -0.60978268115E+03  0.16387939881E+04  0.10100000352E+00 0.  1.
       -3    1    3    3    0  502 -0.60293723606E+03 -0.13965233605E+04  0.20762611983E+04  0.25738436978E+04  0.10100000352E+00 0. -1.
</event>
<event>
 5   0  0.4079777E-07  0.3251138E+04  0.7818609E-02  0.8175441E-01
        2   -1    0    0  501    0  0.00000000000E+00  0.00000000000E+00  0.19966790488E+04  0.19966790488E+04  0.25500000920E-02 0.  1.
       -2   -1    0    0    0  501  0.00000000000E+00  0.00000000000E+00 -0.13234345490E+04  0.13234345490E+04  0.25500000920E-02 0. -1.
    10030    2    1    2    0    0  0.00000000000E+00  0.00000000000E+00  0.67324449974E+03  0.33201135978E+04  0.32511376695E+04 0.  0.
        4    1    3    3  502    0 -0.66008488530E+03  0.13748509071E+04 -0.23793796876E+03  0.15435488857E+04  0.12699999809E+01 0. -1.
       -4    1    3    3    0  502  0.66008488530E+03 -0.13748509071E+04  0.91118246850E+03  0.17765647121E+04  0.12699999809E+01 0.  1.
</event>
<event>
 5   0  0.4149487E-07  0.4004996E+04  0.7818609E-02  0.8003540E-01
        2   -1    0    0  501    0  0.00000000000E+00  0.00000000000E+00  0.21450465587E+04  0.21450465587E+04  0.25500000920E-02 0.  1.
       -2   -1    0    0    0  501  0.00000000000E+00  0.00000000000E+00 -0.18694221596E+04  0.18694221596E+04  0.25500000920E-02 0. -1.
    10030    2    1    2    0    0  0.00000000000E+00  0.00000000000E+00  0.27562439909E+03  0.40144687184E+04  0.40049956656E+04 0.  0.
        2    1    3    3  502    0 -0.16874116491E+04  0.74734142952E+03 -0.64127799228E+03  0.19537437777E+04  0.25500000920E-02 0. -1.
       -2    1    3    3    0  502  0.16874116491E+04 -0.74734142952E+03  0.91690239136E+03  0.20607249406E+04  0.25500000920E-02 0.  1.
</event>
<event>
 5   0  0.4047916E-07  0.2926498E+04  0.7818609E-02  0.8265037E-01
        2   -1    0    0  501    0  0.00000000000E+00  0.00000000000E+00  0.14877255642E+04  0.14877255642E+04  0.25500000920E-02 0. -1.
       -2   -1    0    0    0  501  0.00000000000E+00  0.00000000000E+00 -0.14391750604E+04  0.14391750604E+04  0.25500000920E-02 0.  1.
    10030    2    1    2    0    0  0.00000000000E+00  0.00000000000E+00  0.48550503819E+02  0.29269006246E+04  0.29264979267E+04 0.  0.
        5    1    3    3  502    0  0.14266788863E+04 -0.28132648214E+03  0.18714177075E+03  0.14661518907E+04  0.46999998093E+01 0. -1.
       -5    1    3    3    0  502 -0.14266788863E+04  0.28132648214E+03 -0.13859126693E+03  0.14607487339E+04  0.46999998093E+01 0.  1.
</event>
<event>
 5   0  0.4149487E-07  0.3900536E+04  0.7818609E-02  0.8024918E-01
        2   -1    0    0  501    0  0.00000000000E+00  0.00000000000E+00  0.26670003007E+04  0.26670003007E+04  0.25500000920E-02 0. -1.
       -2   -1    0    0    0  501  0.00000000000E+00  0.00000000000E+00 -0.14261507454E+04  0.14261507454E+04  0.25500000920E-02 0.  1.
    10030    2    1    2    0    0  0.00000000000E+00  0.00000000000E+00  0.12408495553E+04  0.40931510461E+04  0.39005355872E+04 0.  0.
        2    1    3    3  502    0  0.10351079401E+03  0.91766353401E+02  0.26618456712E+04  0.26654376612E+04  0.25500000920E-02 0. -1.
       -2    1    3    3    0  502 -0.10351079401E+03 -0.91766353401E+02 -0.14209961159E+04  0.14277133849E+04  0.25500000920E-02 0.  1.
</event>
<event>
 5   0  0.4077370E-07  0.3297420E+04  0.7818609E-02  0.8163552E-01
        2   -1    0    0  501    0  0.00000000000E+00  0.00000000000E+00  0.24003699032E+04  0.24003699032E+04  0.25500000920E-02 0. -1.
       -2   -1    0    0    0  501  0.00000000000E+00  0.00000000000E+00 -0.11324272087E+04  0.11324272087E+04  0.25500000920E-02 0.  1.
    10030    2    1    2    0    0  0.00000000000E+00  0.00000000000E+00  0.12679426944E+04  0.35327971119E+04  0.32974197121E+04 0.  0.
        3    1    3    3  502    0  0.68428485029E+03 -0.12896503505E+04  0.14546812357E+04  0.20609564019E+04  0.10100000352E+00 0. -1.
       -3    1    3    3    0  502 -0.68428485029E+03  0.12896503505E+04 -0.18673854124E+03  0.14718407100E+04  0.10100000352E+00 0.  1.
</event>
<event>
 5   0  0.4077370E-07  0.3943032E+04  0.7818609E-02  0.8016138E-01
        2   -1    0    0  501    0  0.00000000000E+00  0.00000000000E+00  0.24764707365E+04  0.24764707365E+04  0.25500000920E-02 0. -1.
       -2   -1    0    0    0  501  0.00000000000E+00  0.00000000000E+00 -0.15695221678E+04  0.15695221678E+04  0.25500000920E-02 0.  1.
    10030    2    1    2    0    0  0.00000000000E+00  0.00000000000E+00  0.90694856870E+03  0.40459929042E+04  0.39430321930E+04 0.  0.
        3    1    3    3  502    0 -0.94377225041E+01  0.18768017567E+04 -0.16594547190E+03  0.18841475034E+04  0.10100000352E+00 0.  1.
       -3    1    3    3    0  502  0.94377225041E+01 -0.18768017567E+04  0.10728940406E+04  0.21618454008E+04  0.10100000352E+00 0. -1.
</event>
<event>
 5   0  0.4149487E-07  0.3981229E+04  0.7818609E-02  0.8008344E-01
        2   -1    0    0  501    0  0.00000000000E+00  0.00000000000E+00  0.13737797535E+04  0.13737797535E+04  0.25500000920E-02 0.  1.
       -2   -1    0    0    0  501  0.00000000000E+00  0.00000000000E+00 -0.28844111505E+04  0.28844111505E+04  0.25500000920E-02 0. -1.
    10030    2    1    2    0    0  0.00000000000E+00  0.00000000000E+00 -0.15106313971E+04  0.42581909040E+04  0.39812287747E+04 0.  0.
        2    1    3    3  502    0 -0.13528523941E+03 -0.18332380865E+04 -0.15723148379E+04  0.24189332209E+04  0.25500000920E-02 0. -1.
       -2    1    3    3    0  502  0.13528523941E+03  0.18332380865E+04  0.61683440866E+02  0.18392576830E+04  0.25500000920E-02 0.  1.
</event>
<event>
 5   0  0.4047916E-07  0.3633562E+04  0.7818609E-02  0.8082847E-01
        2   -1    0    0  501    0  0.00000000000E+00  0.00000000000E+00  0.19385236806E+04  0.19385236806E+04  0.25500000920E-02 0. -1.
       -2   -1    0    0    0  501  0.00000000000E+00  0.00000000000E+00 -0.17026835280E+04  0.17026835280E+04  0.25500000920E-02 0.  1.
    10030    2    1    2    0    0  0.00000000000E+00  0.00000000000E+00  0.23584015261E+03  0.36412072086E+04  0.36335615253E+04 0.  0.
        5    1    3    3  502    0  0.13892407751E+04  0.95410450206E+03 -0.56200958274E+03  0.17765647168E+04  0.46999998093E+01 0.  1.
       -5    1    3    3    0  502 -0.13892407751E+04 -0.95410450206E+03  0.79784973535E+03  0.18646424918E+04  0.46999998093E+01 0. -1.
</event>
<event>
 5   0  0.4077370E-07  0.4009534E+04  0.7818609E-02  0.8002626E-01
        2   -1    0    0  501    0  0.00000000000E+00  0.00000000000E+00  0.15937788835E+04  0.15937788835E+04  0.25500000920E-02 0.  1.
       -2   -1    0    0    0  501  0.00000000000E+00  0.00000000000E+00 -0.25217372837E+04  0.25217372837E+04  0.25500000920E-02 0. -1.
    10030    2    1    2    0    0  0.00000000000E+00  0.00000000000E+00 -0.92795840014E+03  0.41155161672E+04  0.40095344530E+04 0.  0.
        3    1    3    3  502    0  0.46396064266E+03  0.17398053257E+04  0.44074373263E+03  0.18537629561E+04  0.10100000352E+00 0.  1.
       -3    1    3    3    0  502 -0.46396064266E+03 -0.17398053257E+04 -0.13687021328E+04  0.22617532111E+04  0.10100000352E+00 0. -1.
</event>
<event>
 5   0  0.1382052E-07  0.2496859E+04  0.7818609E-02  0.8404105E-01
       -1   -1    0    0    0  501  0.00000000000E+00  0.00000000000E+00  0.11517132756E+04  0.11517132757E+04  0.50400001928E-02 0.  1.
        1   -1    0    0  501    0  0.00000000000E+00  0.00000000000E+00 -0.13532676761E+04  0.13532676761E+04  0.50400001928E-02 0. -1.
    10030    2    1    2    0    0  0.00000000000E+00  0.00000000000E+00 -0.20155440049E+03  0.25049809518E+04  0.24968591054E+04 0.  0.
        4    1    3    3  502    0  0.88324589698E+03  0.62354941232E+03 -0.72701718580E+03  0.13028786534E+04  0.12699999809E+01 0. -1.
       -4    1    3    3    0  502 -0.88324589698E+03 -0.62354941232E+03  0.52546278531E+03  0.12021022984E+04  0.12699999809E+01 0.  1.
</event>
<event>
 5   0  0.4301754E-07  0.3939401E+04  0.7818609E-02  0.8016884E-01
        2   -1    0    0  501    0  0.00000000000E+00  0.00000000000E+00  0.24598601554E+04  0.24598601554E+04  0.25500000920E-02 0.  1.
       -2   -1    0    0    0  501  0.00000000000E+00  0.00000000000E+00 -0.15772118508E+04  0.15772118509E+04  0.25500000920E-02 0. -1.
    10030    2    1    2    0    0  0.00000000000E+00  0.00000000000E+00  0.88264830458E+03  0.40370720063E+04  0.39394012685E+04 0.  0.
        1    1    3    3  502    0 -0.92087532596E+03  0.51799644615E+03  0.21448835474E+04  0.23909950055E+04  0.50400001928E-02 0.  1.
       -1    1    3    3    0  502  0.92087532596E+03 -0.51799644615E+03 -0.12622352429E+04  0.16460770008E+04  0.50400001928E-02 0. -1.
</event>
<event>
 5   0  0.4149487E-07  0.4030989E+04  0.7818609E-02  0.7998324E-01
        2   -1    0    0  501    0  0.00000000000E+00  0.00000000000E+00  0.13369365382E+04  0.13369365382E+04  0.25500000920E-02 0. -1.
       -2   -1    0    0    0  501  0.00000000000E+00  0.00000000000E+00 -0.30384525779E+04  0.30384525779E+04  0.25500000920E-02 0.  1.
    10030    2    1    2    0    0  0.00000000000E+00  0.00000000000E+00 -0.17015160398E+04  0.43753891161E+04  0.40309890950E+04 0.  0.
        2    1    3    3  502    0  0.79626730989E+03 -0.13024627371E+04 -0.22791580361E+04  0.27431755620E+04  0.25500000920E-02 0.  1.
       -2    1    3    3    0  502 -0.79626730989E+03  0.13024627371E+04  0.57764199636E+03  0.16322135541E+04  0.25500000920E-02 0. -1.
</event>
<event>
 5   0  0.1421304E-07  0.2992529E+04  0.7818609E-02  0.8245867E-01
       -1   -1    0    0    0  501  0.00000000000E+00  0.00000000000E+00  0.92596175028E+03  0.92596175029E+03  0.50400001928E-02 0. -1.
        1   -1    0    0  501    0  0.00000000000E+00  0.00000000000E+00 -0.24178190812E+04  0.24178190813E+04  0.50400001928E-02 0.  1.
    10030    2    1    2    0    0  0.00000000000E+00  0.00000000000E+00 -0.14918573310E+04  0.33437808315E+04  0.29925293572E+04 0.  0.
        2    1    3    3  502    0  0.46467027108E+02  0.83347345699E+03  0.64158560685E+03  0.10528386766E+04  0.25500000920E-02 0. -1.
       -2    1    3    3    0  502 -0.46467027108E+02 -0.83347345699E+03 -0.21334429378E+04  0.22909421549E+04  0.25500000920E-02 0.  1.
</event>
<event>
 5   0  0.4047916E-07  0.2521555E+04  0.7818609E-02  0.8395347E-01
       -2   -1    0    0    0  501  0.00000000000E+00  0.00000000000E+00  0.11766143874E+04  0.11766143874E+04  0.25500000920E-02 0.  1.
        2   -1    0    0  501    0  0.00000000000E+00  0.00000000000E+00 -0.13509603482E+04  0.13509603483E+04  0.25500000920E-02 0. -1.
    10030    2    1    2    0    0  0.00000000000E+00  0.00000000000E+00 -0.17434596082E+03  0.25275747357E+04  0.25215545861E+04 0.  0.
        5    1    3    3  502    0 -0.12069720761E+04  0.34315371299E+03 -0.20994490310E+03  0.12722558766E+04  0.46999998093E+01 0. -1.
       -5    1    3    3    0  502  0.12069720761E+04 -0.34315371299E+03  0.35598942285E+02  0.12553188591E+04  0.46999998093E+01 0.  1.
</event>
<event>
 5   0  0.1351000E-07  0.3829391E+04  0.7818609E-02  0.8039877E-01
       -1   -1    0    0    0  501  0.00000000000E+00  0.00000000000E+00  0.15025368476E+04  0.15025368476E+04  0.50400001928E-02 0.  1.
        1   -1    0    0  501    0  0.00000000000E+00  0.00000000000E+00 -0.24399130114E+04  0.24399130115E+04  0.50400001928E-02 0. -1.
    10030    2    1    2    0    0  0.00000000000E+00  0.00000000000E+00 -0.93737616384E+03  0.39424498591E+04  0.38293911812E+04 0.  0.
        3    1    3    3  502    0 -0.12611463047E+04  0.89522049232E+03  0.69342029968E+03  0.16949163560E+04  0.10100000352E+00 0.  1.
       -3    1    3    3    0  502  0.12611463047E+04 -0.89522049232E+03 -0.16307964635E+04  0.22475335030E+04  0.10100000352E+00 0. -1.
</event>
<event>
 5   0  0.1351000E-07  0.2513217E+04  0.7818609E-02  0.8398292E-01
       -1   -1    0    0    0  501  0.00000000000E+00  0.00000000000E+00  0.13220299654E+04  0.13220299654E+04  0.50400001928E-02 0. -1.
        1   -1    0    0  501    0  0.00000000000E+00  0.00000000000E+00 -0.11944243268E+04  0.11944243268E+04  0.50400001928E-02 0.  1.
    10030    2    1    2    0    0  0.00000000000E+00  0.00000000000E+00  0.12760563856E+03  0.25164542922E+04  0.25132168640E+04 0.  0.
        3    1    3    3  502    0  0.46501644887E+03 -0.57041291464E+03  0.10836695196E+04  0.13099430632E+04  0.10100000352E+00 0. -1.
       -3    1    3    3    0  502 -0.46501644887E+03  0.57041291464E+03 -0.95606388101E+03  0.12065112290E+04  0.10100000352E+00 0.  1.
</event>
<event>
 5   0  0.1742649E-07  0.2485842E+04  0.7818609E-02  0.8408047E-01
        1   -1    0    0  501    0  0.00000000000E+00  0.00000000000E+00  0.19260455878E+04  0.19260455878E+04  0.50400001928E-02 0.  1.
       -1   -1    0    0    0  501  0.00000000000E+00  0.00000000000E+00 -0.80208486721E+03  0.80208486723E+03  0.50400001928E-02 0. -1.
    10030    2    1    2    0    0  0.00000000000E+00  0.00000000000E+00  0.11239607206E+04  0.27281304550E+04  0.24858415232E+04 0.  0.
        4    1    3    3  502    0  0.48810189560E+03  0.24443802386E+03 -0.66348212062E+03  0.85918772411E+03  0.12699999809E+01 0. -1.
       -4    1    3    3    0  502 -0.48810189560E+03 -0.24443802386E+03  0.17874428412E+04  0.18689427309E+04  0.12699999809E+01 0.  1.
</event>
<event>
 5   0  0.4079777E-07  0.3395033E+04  0.7818609E-02  0.8139126E-01
       -2   -1    0    0    0  501  0.00000000000E+00  0.00000000000E+00  0.11368562026E+04  0.11368562026E+04  0.25500000920E-02 0. -1.
        2   -1    0    0  501    0  0.00000000000E+00  0.00000000000E+00 -0.25346765523E+04  0.25346765523E+04  0.25500000920E-02 0.  1.
    10030    2    1    2    0    0  0.00000000000E+00  0.00000000000E+00 -0.13978203497E+04  0.36715327550E+04  0.33950332901E+04 0.  0.
        4    1    3    3  502    0 -0.15771860802E+04  0.58562955351E+03 -0.94333346977E+03  0.19288228415E+04  0.12699999809E+01 0.  1.
       -4    1    3    3    0  502  0.15771860802E+04 -0.58562955351E+03 -0.45448687992E+03  0.17427099135E+04  0.12699999809E+01 0. -1.
</event>
<event>
 5   0  0.4149487E-07  0.3991681E+04  0.7818609E-02  0.8006227E-01
        2   -1    0    0  501    0  0.00000000000E+00  0.00000000000E+00  0.27028000821E+04  0.27028000821E+04  0.25500000920E-02 0. -1.
       -2   -1    0    0    0  501  0.00000000000E+00  0.00000000000E+00 -0.14737972825E+04  0.14737972825E+04  0.25500000920E-02 0.  1.
    10030    2    1    2    0    0  0.00000000000E+00  0.00000000000E+00  0.12290027996E+04  0.41765973646E+04  0.39916810575E+04 0.  0.
        2    1    3    3  502    0  0.14992046483E+03 -0.59107228353E+03  0.26029428187E+04  0.26734161493E+04  0.25500000920E-02 0. -1.
       -2    1    3    3    0  502 -0.14992046483E+03  0.59107228353E+03 -0.13739400191E+04  0.15031812153E+04  0.25500000920E-02 0.  1.
</event>
<event>
 5   0  0.4079777E-07  0.4017785E+04  0.7818609E-02  0.8000968E-01
        2   -1    0    0  501    0  0.00000000000E+00  0.00000000000E+00  0.25359369893E+04  0.25359369893E+04  0.25500000920E-02 0.  1.
       -2   -1    0    0    0  501  0.00000000000E+00  0.00000000000E+00 -0.15913837581E+04  0.15913837581E+04  0.25500000920E-02 0. -1.
    10030    2    1    2    0    0  0.00000000000E+00  0.00000000000E+00  0.94455323118E+03  0.41273207473E+04  0.40177849301E+04 0.  0.
        4    1    3    3  502    0  0.91201592612E+03  0.13926355880E+03  0.23054383937E+04  0.24831864989E+04  0.12699999809E+01 0.  1.
       -4    1    3    3    0  502 -0.91201592612E+03 -0.13926355880E+03 -0.13608851625E+04  0.16441342484E+04  0.12699999809E+01 0. -1.
</event>
<event>
 5   0  0.4301754E-07  0.3953419E+04  0.7818609E-02  0.8014010E-01
        2   -1    0    0  501    0  0.00000000000E+00  0.00000000000E+00  0.18865743947E+04  0.18865743947E+04  0.25500000920E-02 0. -1.
       -2   -1    0    0    0  501  0.00000000000E+00  0.00000000000E+00 -0.20711508481E+04  0.20711508481E+04  0.25500000920E-02 0.  1.
    10030    2    1    2    0    0  0.00000000000E+00  0.00000000000E+00 -0.18457645335E+03  0.39577252428E+04  0.39534188534E+04 0.  0.
        1    1    3    3  502    0 -0.17406073770E+04 -0.90975697077E+03  0.13158087972E+03  0.19684220367E+04  0.50400001928E-02 0.  1.
       -1    1    3    3    0  502  0.17406073770E+04  0.90975697077E+03 -0.31615733307E+03  0.19893032061E+04  0.50400001928E-02 0. -1.
</event>
<event>
 5   0  0.4077370E-07  0.3694466E+04  0.7818609E-02  0.8069189E-01
        2   -1    0    0  501    0  0.00000000000E+00  0.00000000000E+00  0.28424640896E+04  0.28424640896E+04  0.25500000920E-02 0.  1.
       -2   -1    0    0    0  501  0.00000000000E+00  0.00000000000E+00 -0.12004619018E+04  0.12004619018E+04  0.25500000920E-02 0. -1.
    10030    2    1    2    0    0  0.00000000000E+00  0.00000000000E+00  0.16420021878E+04  0.40429259913E+04  0.36944660489E+04 0.  0.
        3    1    3    3  502    0 -0.59991488754E+03  0.16485449074E+04  0.14540737787E+04  0.22785804239E+04  0.10100000352E+00 0.  1.
       -3    1    3    3    0  502  0.59991488754E+03 -0.16485449074E+04  0.18792840908E+03  0.17643455674E+04  0.10100000352E+00 0. -1.
</event>
<event>
 5   0  0.1372952E-07  0.4156750E+04  0.7818609E-02  0.7973651E-01
        1   -1    0    0  501    0  0.00000000000E+00  0.00000000000E+00  0.23029680463E+04  0.23029680463E+04  0.50400001928E-02 0. -1.
       -1   -1    0    0    0  501  0.00000000000E+00  0.00000000000E+00 -0.18756848802E+04  0.18756848802E+04  0.50400001928E-02 0.  1.
    10030    2    1    2    0    0  0.00000000000E+00  0.00000000000E+00  0.42728316615E+03  0.41786529265E+04  0.41567498573E+04 0.  0.
        1    1    3    3  502    0  0.94714227718E+03  0.13643050997E+04 -0.10424364240E+04  0.19608877062E+04  0.50400001928E-02 0.  1.
       -1    1    3    3    0  502 -0.94714227718E+03 -0.13643050997E+04  0.14697195902E+04  0.22177652202E+04  0.50400001928E-02 0. -1.
</event>
<event>
 5   0  0.4149487E-07  0.3712638E+04  0.7818609E-02  0.8065167E-01
        2   -1    0    0  501    0  0.00000000000E+00  0.00000000000E+00  0.18605546788E+04  0.18605546788E+04  0.25500000920E-02 0.  1.
       -2   -1    0    0    0  501  0.00000000000E+00  0.00000000000E+00 -0.18520930041E+04  0.18520930041E+04  0.25500000920E-02 0. -1.
    10030    2    1    2    0    0  0.00000000000E+00  0.00000000000E+00  0.84616747841E+01  0.37126476829E+04  0.37126380402E+04 0.  0.
        2    1    3    3  502    0 -0.87390891851E+03 -0.97016659561E+03  0.13236963833E+04  0.18593310992E+04  0.25500000920E-02 0. -1.
       -2    1    3    3    0  502  0.87390891851E+03  0.97016659561E+03 -0.13152347085E+04  0.18533165838E+04  0.25500000920E-02 0.  1.
</event>
<event>
 5   0  0.1421304E-07  0.3950330E+04  0.7818609E-02  0.8014642E-01
        1   -1    0    0  501    0  0.00000000000E+00  0.00000000000E+00  0.15775643620E+04  0.15775643620E+04  0.50400001928E-02 0. -1.
       -1   -1    0    0    0  501  0.00000000000E+00  0.00000000000E+00 -0.24729748520E+04  0.24729748521E+04  0.50400001928E-02 0.  1.
    10030    2    1    2    0    0  0.00000000000E+00  0.00000000000E+00 -0.89541049003E+03  0.40505392141E+04  0.39503301101E+04 0.  0.
        2    1    3    3  502    0 -0.14587960936E+04 -0.13260590155E+04 -0.57227128979E+03  0.20528061244E+04  0.25500000920E-02 0. -1.
       -2    1    3    3    0  502  0.14587960936E+04  0.13260590155E+04 -0.32313920024E+03  0.19977330897E+04  0.25500000920E-02 0.  1.
</event>
<event>
 5   0  0.4149487E-07  0.4030222E+04  0.7818609E-02  0.7998477E-01
        2   -1    0    0  501    0  0.00000000000E+00  0.00000000000E+00  0.26678286890E+04  0.26678286890E+04  0.25500000920E-02 0. -1.
       -2   -1    0    0    0  501  0.00000000000E+00  0.00000000000E+00 -0.15220886209E+04  0.15220886209E+04  0.25500000920E-02 0.  1.
    10030    2    1    2    0    0  0.00000000000E+00  0.00000000000E+00  0.11457400681E+04  0.41899173098E+04  0.40302216762E+04 0.  0.
        2    1    3    3  502    0 -0.16044133856E+04  0.10362725087E+04  0.12407174723E+04  0.22775826813E+04  0.25500000920E-02 0. -1.
       -2    1    3    3    0  502  0.16044133856E+04 -0.10362725087E+04 -0.94977404145E+02  0.19123346285E+04  0.25500000920E-02 0.  1.
</event>
<event>
 5   0  0.4079777E-07  0.3914305E+04  0.7818609E-02  0.8022061E-01
       -2   -1    0    0    0  501  0.00000000000E+00  0.00000000000E+00  0.29437862557E+04  0.29437862557E+04  0.25500000920E-02 0.  1.
        2   -1    0    0  501    0  0.00000000000E+00  0.00000000000E+00 -0.13011971309E+04  0.13011971310E+04  0.25500000920E-02 0. -1.
    10030    2    1    2    0    0  0.00000000000E+00  0.00000000000E+00  0.16425891247E+04  0.42449833866E+04  0.39143051644E+04 0.  0.
        4    1    3    3  502    0 -0.51917797816E+01  0.35039285574E+03 -0.12668965380E+04  0.13144696873E+04  0.12699999809E+01 0. -1.
       -4    1    3    3    0  502  0.51917797816E+01 -0.35039285574E+03  0.29094856627E+04  0.29305136993E+04  0.12699999809E+01 0.  1.
</event>
<event>
 5   0  0.1372952E-07  0.4047250E+04  0.7818609E-02  0.7995082E-01
       -1   -1    0    0    0  501  0.00000000000E+00  0.00000000000E+00  0.22257899636E+04  0.22257899636E+04  0.50400001928E-02 0.  1.
        1   -1    0    0  501    0  0.00000000000E+00  0.00000000000E+00 -0.18398219696E+04  0.18398219696E+04  0.50400001928E-02 0. -1.
    10030    2    1    2    0    0  0.00000000000E+00  0.00000000000E+00  0.38596799407E+03  0.40656119332E+04  0.40472495721E+04 0.  0.
        1    1    3    3  502    0 -0.13077686722E+03 -0.19783410900E+04  0.59994078935E+03  0.20714403221E+04  0.50400001928E-02 0. -1.
       -1    1    3    3    0  502  0.13077686722E+03  0.19783410900E+04 -0.21397279528E+03  0.19941716111E+04  0.50400001928E-02 0.  1.
</event>
<event>
 5   0  0.1351000E-07  0.3126875E+04  0.7818609E-02  0.8208401E-01
        1   -1    0    0  501    0  0.00000000000E+00  0.00000000000E+00  0.20769675434E+04  0.20769675434E+04  0.50400001928E-02 0.  1.
       -1   -1    0    0    0  501  0.00000000000E+00  0.00000000000E+00 -0.11768778363E+04  0.11768778363E+04  0.50400001928E-02 0. -1.
    10030    2    1    2    0    0  0.00000000000E+00  0.00000000000E+00  0.90008970712E+03  0.32538453797E+04  0.31268751612E+04 0.  0.
        3    1    3    3  502    0 -0.10071799349E+03 -0.10117012421E+04 -0.78589276385E+03  0.12850334486E+04  0.10100000352E+00 0. -1.
       -3    1    3    3    0  502  0.10071799349E+03  0.10117012421E+04  0.16859824710E+04  0.19688119311E+04  0.10100000352E+00 0.  1.
</event>
<event>
 5   0  0.4077370E-07  0.4048579E+04  0.7818609E-02  0.7994818E-01
        2   -1    0    0  501    0  0.00000000000E+00  0.00000000000E+00  0.22434797480E+04  0.22434797480E+04  0.25500000920E-02 0. -1.
       -2   -1    0    0    0  501  0.00000000000E+00  0.00000000000E+00 -0.18265147336E+04  0.18265147336E+04  0.25500000920E-02 0.  1.
    10030    2    1    2    0    0  0.00000000000E+00  0.00000000000E+00  0.41696501443E+03  0.40699944816E+04  0.40485794122E+04 0.  0.
        3    1    3    3  502    0 -0.20699008824E+03 -0.19691155150E+04 -0.21503917718E+03  0.19916080603E+04  0.10100000352E+00 0. -1.
       -3    1    3    3    0  502  0.20699008824E+03  0.19691155150E+04  0.63200419160E+03  0.20783864213E+04  0.10100000352E+00 0.  1.
</event>
<event>
 5   0  0.1368865E-07  0.3917260E+04  0.7818609E-02  0.8021449E-01
       -1   -1    0    0    0  501  0.00000000000E+00  0.00000000000E+00  0.10991165949E+04  0.10991165949E+04  0.50400001928E-02 0. -1.
        1   -1    0    0  501    0  0.00000000000E+00  0.00000000000E+00 -0.34902863831E+04  0.34902863831E+04  0.50400001928E-02 0.  1.
    10030    2    1    2    0    0  0.00000000000E+00  0.00000000000E+00 -0.23911697883E+04  0.45894029780E+04  0.39172601060E+04 0.  0.
        5    1    3    3  502    0  0.14176545309E+04 -0.31740793941E+03 -0.27346557900E+04  0.30965878881E+04  0.46999998093E+01 0.  1.
       -5    1    3    3    0  502 -0.14176545309E+04  0.31740793941E+03  0.34348600175E+03  0.14928150899E+04  0.46999998093E+01 0. -1.
</event>
<event>
 5   0  0.1351000E-07  0.3865775E+04  0.7818609E-02  0.8032185E-01
        1   -1    0    0  501    0  0.00000000000E+00  0.00000000000E+00  0.19635065802E+04  0.19635065803E+04  0.50400001928E-02 0.  1.
       -1   -1    0    0    0  501  0.00000000000E+00  0.00000000000E+00 -0.19027460236E+04  0.19027460236E+04  0.50400001928E-02 0. -1.
    10030    2    1    2    0    0  0.00000000000E+00  0.00000000000E+00  0.60760556643E+02  0.38662526039E+04  0.38657751295E+04 0.  0.
        4    1    3    3  502    0 -0.65227067220E+03 -0.48190419445E+03  0.17851237145E+04  0.19607031829E+04  0.12699999809E+01 0.  1.
       -4    1    3    3    0  502  0.65227067220E+03  0.48190419445E+03 -0.17243631579E+04  0.19055494209E+04  0.12699999809E+01 0. -1.
</event>
<event>
 5   0  0.4079777E-07  0.3984436E+04  0.7818609E-02  0.8007694E-01
       -2   -1    0    0    0  501  0.00000000000E+00  0.00000000000E+00  0.17823017145E+04  0.17823017145E+04  0.25500000920E-02 0.  1.
        2   -1    0    0  501    0  0.00000000000E+00  0.00000000000E+00 -0.22268574777E+04  0.22268574777E+04  0.25500000920E-02 0. -1.
    10030    2    1    2    0    0  0.00000000000E+00  0.00000000000E+00 -0.44455576317E+03  0.40091591922E+04  0.39844356692E+04 0.  0.
        4    1    3    3  502    0  0.94753852444E+03  0.67137586097E+03 -0.18510734851E+04  0.21851886560E+04  0.12699999809E+01 0. -1.
       -4    1    3    3    0  502 -0.94753852444E+03 -0.67137586097E+03  0.14065177220E+04  0.18239705362E+04  0.12699999809E+01 0.  1.
</event>
<event>
 5   0  0.4301754E-07  0.4214581E+04  0.7818609E-02  0.7962604E-01
        2   -1    0    0  501    0  0.00000000000E+00  0.00000000000E+00  0.15959503263E+04  0.15959503263E+04  0.25500000920E-02 0.  1.
       -2   -1    0    0    0  501  0.00000000000E+00  0.00000000000E+00 -0.27824628960E+04  0.27824628960E+04  0.25500000920E-02 0. -1.
    10030    2    1    2    0    0  0.00000000000E+00  0.00000000000E+00 -0.11865125697E+04  0.43784132223E+04  0.42145806751E+04 0.  0.
        1    1    3    3  502    0  0.14380597732E+04  0.52013480001E+03 -0.20994844355E+04  0.25973815693E+04  0.50400001928E-02 0. -1.
       -1    1    3    3    0  502 -0.14380597732E+04 -0.52013480001E+03  0.91297186576E+03  0.17810316531E+04  0.50400001928E-02 0.  1.
</event>
<event>
 5   0  0.1421304E-07  0.4004279E+04  0.7818609E-02  0.8003684E-01
        1   -1    0    0  501    0  0.00000000000E+00  0.00000000000E+00  0.23055600591E+04  0.23055600591E+04  0.50400001928E-02 0.  1.
       -1   -1    0    0    0  501  0.00000000000E+00  0.00000000000E+00 -0.17386501874E+04  0.17386501874E+04  0.50400001928E-02 0. -1.
    10030    2    1    2    0    0  0.00000000000E+00  0.00000000000E+00  0.56690987166E+03  0.40442102465E+04  0.40042789257E+04 0.  0.
        2    1    3    3  502    0  0.48992976688E+03 -0.15964789233E+04 -0.83199807301E+03  0.18657429948E+04  0.25500000920E-02 0. -1.
       -2    1    3    3    0  502 -0.48992976688E+03  0.15964789233E+04  0.13989079447E+04  0.21784672517E+04  0.25500000920E-02 0.  1.
</event>
<event>
 5   0  0.4149487E-07  0.3945817E+04  0.7818609E-02  0.8015567E-01
       -2   -1    0    0    0  501  0.00000000000E+00  0.00000000000E+00  0.17274375689E+04  0.17274375689E+04  0.25500000920E-02 0. -1.
        2   -1    0    0  501    0  0.00000000000E+00  0.00000000000E+00 -0.22532607061E+04  0.22532607061E+04  0.25500000920E-02 0.  1.
    10030    2    1    2    0    0  0.00000000000E+00  0.00000000000E+00 -0.52582313725E+03  0.39806982750E+04  0.39458166183E+04 0.  0.
        2    1    3    3  502    0 -0.70875753821E+03 -0.11265662937E+04 -0.17321092722E+04  0.21844201503E+04  0.25500000920E-02 0.  1.
       -2    1    3    3    0  502  0.70875753821E+03  0.11265662937E+04  0.12062861350E+04  0.17962781248E+04  0.25500000920E-02 0. -1.
</event>
<event>
 5   0  0.4301754E-07  0.3992930E+04  0.7818609E-02  0.8005974E-01
       -2   -1    0    0    0  501  0.00000000000E+00  0.00000000000E+00  0.23848097595E+04  0.23848097595E+04  0.25500000920E-02 0.  1.
        2   -1    0    0  501    0  0.00000000000E+00  0.00000000000E+00 -0.16713590973E+04  0.16713590973E+04  0.25500000920E-02 0. -1.
    10030    2    1    2    0    0  0.00000000000E+00  0.00000000000E+00  0.71345066219E+03  0.40561688568E+04  0.39929304962E+04 0.  0.
        1    1    3    3  502    0  0.99046930498E+03 -0.72181518042E+03  0.19577017592E+04  0.23096845622E+04  0.50400001928E-02 0.  1.
       -1    1    3    3    0  502 -0.99046930498E+03  0.72181518042E+03 -0.12442510970E+04  0.17464842946E+04  0.50400001928E-02 0. -1.
</event>
<event>
 5   0  0.4077370E-07  0.2806878E+04  0.7818609E-02  0.8301136E-01
       -2   -1    0    0    0  501  0.00000000000E+00  0.00000000000E+00  0.86420070914E+03  0.86420070914E+03  0.25500000920E-02 0. -1.
        2   -1    0    0  501    0  0.00000000000E+00  0.00000000000E+00 -0.22791480807E+04  0.22791480807E+04  0.25500000920E-02 0.  1.
    10030    2    1    2    0    0  0.00000000000E+00  0.00000000000E+00 -0.14149473716E+04  0.31433487898E+04  0.28068782571E+04 0.  0.
        3    1    3    3  502    0 -0.97081880897E+03  0.90182747928E+02  0.42299932854E+03  0.10628031474E+04  0.10100000352E+00 0. -1.
       -3    1    3    3    0  502  0.97081880897E+03 -0.90182747928E+02 -0.18379467001E+04  0.20805456425E+04  0.10100000352E+00 0.  1.
</event>
<event>
 5   0  0.4149487E-07  0.4064485E+04  0.7818609E-02  0.7991663E-01
        2   -1    0    0  501    0  0.00000000000E+00  0.00000000000E+00  0.29102535925E+04  0.29102535925E+04  0.25500000920E-02 0. -1.
       -2   -1    0    0    0  501  0.00000000000E+00  0.00000000000E+00 -0.14191239282E+04  0.14191239282E+04  0.25500000920E-02 0.  1.
    10030    2    1    2    0    0  0.00000000000E+00  0.00000000000E+00  0.14911296643E+04  0.43293775207E+04  0.40644854584E+04 0.  0.
        2    1    3    3  502    0 -0.10180331356E+04 -0.14918562695E+04  0.17379396212E+04  0.25064837364E+04  0.25500000920E-02 0. -1.
       -2    1    3    3    0  502  0.10180331356E+04  0.14918562695E+04 -0.24680995692E+03  0.18228937843E+04  0.25500000920E-02 0.  1.
</event>
<event>
 5   0  0.1368865E-07  0.3691519E+04  0.7818609E-02  0.8069844E-01
        1   -1    0    0  501    0  0.00000000000E+00  0.00000000000E+00  0.13780265158E+04  0.13780265158E+04  0.50400001928E-02 0.  1.
       -1   -1    0    0    0  501  0.00000000000E+00  0.00000000000E+00 -0.24722509624E+04  0.24722509624E+04  0.50400001928E-02 0. -1.
    10030    2    1    2    0    0  0.00000000000E+00  0.00000000000E+00 -0.10942244466E+04  0.38502774782E+04  0.36915185926E+04 0.  0.
        5    1    3    3  502    0  0.16102917795E+04  0.30891278014E+03  0.33688634455E+03  0.16739119511E+04  0.46999998093E+01 0.  1.
       -5    1    3    3    0  502 -0.16102917795E+04 -0.30891278014E+03 -0.14311107912E+04  0.21763655271E+04  0.46999998093E+01 0. -1.
</event>
<event>
 5   0  0.4079777E-07  0.3947966E+04  0.7818609E-02  0.8015126E-01
       -2   -1    0    0    0  501  0.00000000000E+00  0.00000000000E+00  0.15084618409E+04  0.15084618409E+04  0.25500000920E-02 0. -1.
        2   -1    0    0  501    0  0.00000000000E+00  0.00000000000E+00 -0.25831671929E+04  0.25831671929E+04  0.25500000920E-02 0.  1.
    10030    2    1    2    0    0  0.00000000000E+00  0.00000000000E+00 -0.10747053520E+04  0.40916290338E+04  0.39479661291E+04 0.  0.
        4    1    3    3  502    0 -0.19979744228E+03  0.19605678290E+04 -0.65489170175E+03  0.20766872619E+04  0.12699999809E+01 0. -1.
       -4    1    3    3    0  502  0.19979744228E+03 -0.19605678290E+04 -0.41981365023E+03  0.20149417718E+04  0.12699999809E+01 0.  1.
</event>
<event>
 5   0  0.1351000E-07  0.2800437E+04  0.7818609E-02  0.8303133E-01
        1   -1    0    0  501    0  0.00000000000E+00  0.00000000000E+00  0.15387167785E+04  0.15387167785E+04  0.50400001928E-02 0. -1.
       -1   -1    0    0    0  501  0.00000000000E+00  0.00000000000E+00 -0.12741862362E+04  0.12741862362E+04  0.50400001928E-02 0.  1.
    10030    2    1    2    0    0  0.00000000000E+00  0.00000000000E+00  0.26453054235E+03  0.28129030147E+04  0.28004369234E+04 0.  0.
        3    1    3    3  502    0 -0.45109522230E+03 -0.53662015302E+03 -0.10852209350E+04  0.12919568786E+04  0.10100000352E+00 0.  1.
       -3    1    3    3    0  502  0.45109522230E+03  0.53662015302E+03  0.13497514773E+04  0.15209461361E+04  0.10100000352E+00 0. -1.
</event>
<event>
 5   0  0.1372952E-07  0.3967716E+04  0.7818609E-02  0.8011091E-01
       -1   -1    0    0    0  501  0.00000000000E+00  0.00000000000E+00  0.15270285600E+04  0.15270285600E+04  0.50400001928E-02 0.  1.
        1   -1    0    0  501    0  0.00000000000E+00  0.00000000000E+00 -0.25773533975E+04  0.25773533975E+04  0.50400001928E-02 0. -1.
    10030    2    1    2    0    0  0.00000000000E+00  0.00000000000E+00 -0.10503248375E+04  0.41043819576E+04  0.39677158403E+04 0.  0.
        1    1    3    3  502    0 -0.14590541199E+04  0.84344327045E+03  0.55752933932E+03  0.17751265982E+04  0.50400001928E-02 0.  1.
       -1    1    3    3    0  502  0.14590541199E+04 -0.84344327045E+03 -0.16078541768E+04  0.23292553594E+04  0.50400001928E-02 0. -1.
</event>
<event>
 5   0  0.4077370E-07  0.3973032E+04  0.7818609E-02  0.8010009E-01
       -2   -1    0    0    0  501  0.00000000000E+00  0.00000000000E+00  0.13830659589E+04  0.13830659589E+04  0.25500000920E-02 0.  1.
        2   -1    0    0  501    0  0.00000000000E+00  0.00000000000E+00 -0.28532600085E+04  0.28532600085E+04  0.25500000920E-02 0. -1.
    10030    2    1    2    0    0  0.00000000000E+00  0.00000000000E+00 -0.14701940496E+04  0.42363259674E+04  0.39730324891E+04 0.  0.
        3    1    3    3  502    0  0.10508064832E+04 -0.14305139873E+04 -0.16862209086E+04  0.24482453912E+04  0.10100000352E+00 0. -1.
       -3    1    3    3    0  502 -0.10508064832E+04  0.14305139873E+04  0.21602685900E+03  0.17880805762E+04  0.10100000352E+00 0.  1.
</event>
<event>
 5   0  0.1351000E-07  0.2450061E+04  0.7818609E-02  0.8420996E-01
        3   -1    0    0  501    0  0.00000000000E+00  0.00000000000E+00  0.58745310588E+03  0.58745311456E+03  0.10100000352E+00 0.  1.
       -3   -1    0    0    0  501  0.00000000000E+00  0.00000000000E+00 -0.25545855178E+04  0.25545855197E+04  0.10100000352E+00 0. -1.
    10030    2    1    2    0    0  0.00000000000E+00  0.00000000000E+00 -0.19671324119E+04  0.31420386343E+04  0.24500605816E+04 0.  0.
        3    1    3    3  502    0 -0.19444745198E+03  0.82446886565E+03  0.15132579369E+03  0.86049882512E+03  0.10100000352E+00 0.  1.
       -3    1    3    3    0  502  0.19444745198E+03 -0.82446886565E+03 -0.21184582056E+04  0.22815398092E+04  0.10100000352E+00 0. -1.
</event>
<event>
 5   0  0.1351000E-07  0.3986692E+04  0.7818609E-02  0.8007237E-01
        1   -1    0    0  501    0  0.00000000000E+00  0.00000000000E+00  0.23704745237E+04  0.23704745237E+04  0.50400001928E-02 0. -1.
       -1   -1    0    0    0  501  0.00000000000E+00  0.00000000000E+00 -0.16762167509E+04  0.16762167509E+04  0.50400001928E-02 0.  1.
    10030    2    1    2    0    0  0.00000000000E+00  0.00000000000E+00  0.69425777274E+03  0.40466912746E+04  0.39866924157E+04 0.  0.
        3    1    3    3  502    0  0.36366969542E+02  0.12918993356E+04 -0.11933082858E+04  0.17590654124E+04  0.10100000352E+00 0.  1.
       -3    1    3    3    0  502 -0.36366969542E+02 -0.12918993356E+04  0.18875660586E+04  0.22876258622E+04  0.10100000352E+00 0. -1.
</event>
<event>
 5   0  0.1351000E-07  0.2641130E+04  0.7818609E-02  0.8354363E-01
        1   -1    0    0  501    0  0.00000000000E+00  0.00000000000E+00  0.14172135470E+04  0.14172135470E+04  0.50400001928E-02 0.  1.
       -1   -1    0    0    0  501  0.00000000000E+00  0.00000000000E+00 -0.12305079603E+04  0.12305079603E+04  0.50400001928E-02 0. -1.
    10030    2    1    2    0    0  0.00000000000E+00  0.00000000000E+00  0.18670558666E+03  0.26477215073E+04  0.26411304785E+04 0.  0.
        4    1    3    3  502    0 -0.41763180606E+03 -0.43444410608E+03  0.12713310869E+04  0.14069265624E+04  0.12699999809E+01 0.  1.
       -4    1    3    3    0  502  0.41763180606E+03  0.43444410608E+03 -0.10846255002E+04  0.12407949449E+04  0.12699999809E+01 0. -1.
</event>
<event>
 5   0  0.1368865E-07  0.3768725E+04  0.7818609E-02  0.8052900E-01
        1   -1    0    0  501    0  0.00000000000E+00  0.00000000000E+00  0.10871312918E+04  0.10871312919E+04  0.50400001928E-02 0. -1.
       -1   -1    0    0    0  501  0.00000000000E+00  0.00000000000E+00 -0.32662303730E+04  0.32662303730E+04  0.50400001928E-02 0.  1.
    10030    2    1    2    0    0  0.00000000000E+00  0.00000000000E+00 -0.21790990811E+04  0.43533616648E+04  0.37687245826E+04 0.  0.
        5    1    3    3  502    0  0.73420900100E+03  0.15063526479E+03  0.90753567994E+03  0.11770288614E+04  0.46999998093E+01 0. -1.
       -5    1    3    3    0  502 -0.73420900100E+03 -0.15063526479E+03 -0.30866347611E+04  0.31763328034E+04  0.46999998093E+01 0.  1.
</event>
<event>
 5   0  0.1351000E-07  0.3959002E+04  0.7818609E-02  0.8012869E-01
        1   -1    0    0  501    0  0.00000000000E+00  0.00000000000E+00  0.13138723237E+04  0.13138723237E+04  0.50400001928E-02 0. -1.
       -1   -1    0    0    0  501  0.00000000000E+00  0.00000000000E+00 -0.29823471393E+04  0.29823471393E+04  0.50400001928E-02 0.  1.
    10030    2    1    2    0    0  0.00000000000E+00  0.00000000000E+00 -0.16684748156E+04  0.42962194630E+04  0.39590015741E+04 0.  0.
        4    1    3    3  502    0 -0.15308490483E+04 -0.50659814865E+03 -0.20801994820E+04  0.26319901198E+04  0.12699999809E+01 0.  1.
       -4    1    3    3    0  502  0.15308490483E+04  0.50659814865E+03  0.41172466641E+03  0.16642293432E+04  0.12699999809E+01 0. -1.
</event>
<event>
 5   0  0.4301754E-07  0.4134825E+04  0.7818609E-02  0.7977887E-01
       -2   -1    0    0    0  501  0.00000000000E+00  0.00000000000E+00  0.22180548700E+04  0.22180548700E+04  0.25500000920E-02 0.  1.
        2   -1    0    0  501    0  0.00000000000E+00  0.00000000000E+00 -0.19270009147E+04  0.19270009147E+04  0.25500000920E-02 0. -1.
    10030    2    1    2    0    0  0.00000000000E+00  0.00000000000E+00  0.29105395533E+03  0.41450557847E+04  0.41348246702E+04 0.  0.
        1    1    3    3  502    0 -0.79860508389E+03 -0.10603332699E+04 -0.14433607682E+04  0.19609607417E+04  0.50400001928E-02 0. -1.
       -1    1    3    3    0  502  0.79860508389E+03  0.10603332699E+04  0.17344147236E+04  0.21840950430E+04  0.50400001928E-02 0.  1.
</event>
<event>
 5   0  0.1372952E-07  0.4080943E+04  0.7818609E-02  0.7988414E-01
       -1   -1    0    0    0  501  0.00000000000E+00  0.00000000000E+00  0.20756671553E+04  0.20756671553E+04  0.50400001928E-02 0. -1.
        1   -1    0    0  501    0  0.00000000000E+00  0.00000000000E+00 -0.20058723474E+04  0.20058723474E+04  0.50400001928E-02 0.  1.
    10030    2    1    2    0    0  0.00000000000E+00  0.00000000000E+00  0.69794807871E+02  0.40815395027E+04  0.40809427093E+04 0.  0.
        1    1    3    3  502    0  0.66728940823E+03 -0.93389640010E+03 -0.16523838967E+04  0.20119170417E+04  0.50400001928E-02 0.  1.
       -1    1    3    3    0  502 -0.66728940823E+03  0.93389640010E+03  0.17221787046E+04  0.20696224610E+04  0.50400001928E-02 0. -1.
</event>
<event>
 5   0  0.4077370E-07  0.4019918E+04  0.7818609E-02  0.8000540E-01
       -2   -1    0    0    0  501  0.00000000000E+00  0.00000000000E+00  0.15826797905E+04  0.15826797905E+04  0.25500000920E-02 0.  1.
        2   -1    0    0  501    0  0.00000000000E+00  0.00000000000E+00 -0.25525921762E+04  0.25525921762E+04  0.25500000920E-02 0. -1.
    10030    2    1    2    0    0  0.00000000000E+00  0.00000000000E+00 -0.96991238573E+03  0.41352719667E+04  0.40199184323E+04 0.  0.
        3    1    3    3  502    0  0.30857695756E+03 -0.85708319822E+03  0.13581390896E+04  0.16353449619E+04  0.10100000352E+00 0.  1.
       -3    1    3    3    0  502 -0.30857695756E+03  0.85708319822E+03 -0.23280514753E+04  0.24999270048E+04  0.10100000352E+00 0. -1.
</event>
<event>
 5   0  0.4079777E-07  0.2842682E+04  0.7818609E-02  0.8290138E-01
       -2   -1    0    0    0  501  0.00000000000E+00  0.00000000000E+00  0.83339782017E+03  0.83339782017E+03  0.25500000920E-02 0.  1.
        2   -1    0    0  501    0  0.00000000000E+00  0.00000000000E+00 -0.24240649203E+04  0.24240649203E+04  0.25500000920E-02 0. -1.
    10030    2    1    2    0    0  0.00000000000E+00  0.00000000000E+00 -0.15906671002E+04  0.32574627405E+04  0.28426821283E+04 0.  0.
        4    1    3    3  502    0 -0.72342350917E+03  0.78176974471E+03  0.28310471533E+03  0.11021140595E+04  0.12699999809E+01 0.  1.
       -4    1    3    3    0  502  0.72342350917E+03 -0.78176974471E+03 -0.18737718155E+04  0.21553486810E+04  0.12699999809E+01 0. -1.
</event>
<event>
 5   0  0.1351000E-07  0.4037290E+04  0.7818609E-02  0.7997066E-01
        1   -1    0    0  501    0  0.00000000000E+00  0.00000000000E+00  0.22868091395E+04  0.22868091395E+04  0.50400001928E-02 0.  1.
       -1   -1    0    0    0  501  0.00000000000E+00  0.00000000000E+00 -0.17819272632E+04  0.17819272632E+04  0.50400001928E-02 0. -1.
    10030    2    1    2    0    0  0.00000000000E+00  0.00000000000E+00  0.50488187635E+03  0.40687364027E+04  0.40372899581E+04 0.  0.
        4    1    3    3  502    0 -0.18430856189E+04 -0.68795183521E+03 -0.20350268873E+03  0.19777910110E+04  0.12699999809E+01 0. -1.
       -4    1    3    3    0  502  0.18430856189E+04  0.68795183521E+03  0.70838456508E+03  0.20909453917E+04  0.12699999809E+01 0.  1.
</event>
<event>
 5   0  0.1372952E-07  0.3965788E+04  0.7818609E-02  0.8011484E-01
       -1   -1    0    0    0  501  0.00000000000E+00  0.00000000000E+00  0.21427512424E+04  0.21427512424E+04  0.50400001928E-02 0.  1.
        1   -1    0    0  501    0  0.00000000000E+00  0.00000000000E+00 -0.18349626972E+04  0.18349626972E+04  0.50400001928E-02 0. -1.
    10030    2    1    2    0    0  0.00000000000E+00  0.00000000000E+00  0.30778854513E+03  0.39777139396E+04  0.39657879919E+04 0.  0.
        1    1    3    3  502    0  0.88826632129E+02 -0.12366271821E+03 -0.18290907925E+04  0.18354170550E+04  0.50400001928E-02 0. -1.
       -1    1    3    3    0  502 -0.88826632129E+02  0.12366271821E+03  0.21368793376E+04  0.21422968847E+04  0.50400001928E-02 0.  1.
</event>
<event>
 5   0  0.4149487E-07  0.3950215E+04  0.7818609E-02  0.8014666E-01
        2   -1    0    0  501    0  0.00000000000E+00  0.00000000000E+00  0.26330253680E+04  0.26330253680E+04  0.25500000920E-02 0. -1.
       -2   -1    0    0    0  501  0.00000000000E+00  0.00000000000E+00 -0.14815842072E+04  0.14815842072E+04  0.25500000920E-02 0.  1.
    10030    2    1    2    0    0  0.00000000000E+00  0.00000000000E+00  0.11514411609E+04  0.41146095752E+04  0.39502145776E+04 0.  0.
        2    1    3    3  502    0  0.79667442898E+03  0.46474639489E+03 -0.12434949968E+04  0.15482116020E+04  0.25500000920E-02 0.  1.
       -2    1    3    3    0  502 -0.79667442898E+03 -0.46474639489E+03  0.23949361577E+04  0.25663979732E+04  0.25500000920E-02 0. -1.
</event>
<event>
 5   0  0.4077370E-07  0.3697813E+04  0.7818609E-02  0.8068447E-01
       -2   -1    0    0    0  501  0.00000000000E+00  0.00000000000E+00  0.15535967257E+04  0.15535967257E+04  0.25500000920E-02 0. -1.
        2   -1    0    0  501    0  0.00000000000E+00  0.00000000000E+00 -0.22003488222E+04  0.22003488222E+04  0.25500000920E-02 0.  1.
    10030    2    1    2    0    0  0.00000000000E+00  0.00000000000E+00 -0.64675209653E+03  0.37539455479E+04  0.36978127187E+04 0.  0.
        3    1    3    3  502    0  0.11809270491E+04  0.14202914563E+04 -0.24066410902E+03  0.18627226685E+04  0.10100000352E+00 0. -1.
       -3    1    3    3    0  502 -0.11809270491E+04 -0.14202914563E+04 -0.40608798751E+03  0.18912228795E+04  0.10100000352E+00 0.  1.
</event>
<event>
 5   0  0.1351000E-07  0.3778209E+04  0.7818609E-02  0.8050847E-01
       -1   -1    0    0    0  501  0.00000000000E+00  0.00000000000E+00  0.21516856667E+04  0.21516856667E+04  0.50400001928E-02 0.  1.
        1   -1    0    0  501    0  0.00000000000E+00  0.00000000000E+00 -0.16585674463E+04  0.16585674463E+04  0.50400001928E-02 0. -1.
    10030    2    1    2    0    0  0.00000000000E+00  0.00000000000E+00  0.49311822037E+03  0.38102531130E+04  0.37782089945E+04 0.  0.
        4    1    3    3  502    0  0.65296923588E+03  0.13324805437E+04  0.14255945037E+04  0.20577158512E+04  0.12699999809E+01 0.  1.
       -4    1    3    3    0  502 -0.65296923588E+03 -0.13324805437E+04 -0.93247628333E+03  0.17525372619E+04  0.12699999809E+01 0. -1.
</event>
<event>
 5   0  0.1421304E-07  0.4107252E+04  0.7818609E-02  0.7983253E-01
       -1   -1    0    0    0  501  0.00000000000E+00  0.00000000000E+00  0.13463539154E+04  0.13463539154E+04  0.50400001928E-02 0. -1.
        1   -1    0    0  501    0  0.00000000000E+00  0.00000000000E+00 -0.31324450054E+04  0.31324450054E+04  0.50400001928E-02 0.  1.
    10030    2    1    2    0    0  0.00000000000E+00  0.00000000000E+00 -0.17860910900E+04  0.44787989208E+04  0.41072519269E+04 0.  0.
        2    1    3    3  502    0 -0.17753038088E+04 -0.21997346094E+03  0.20680104141E+03  0.18007938826E+04  0.25500000920E-02 0. -1.
       -2    1    3    3    0  502  0.17753038088E+04  0.21997346094E+03 -0.19928921314E+04  0.26780050382E+04  0.25500000920E-02 0.  1.
</event>
<event>
 5   0  0.1372952E-07  0.3884620E+04  0.7818609E-02  0.8028236E-01
       -1   -1    0    0    0  501  0.00000000000E+00  0.00000000000E+00  0.17391744592E+04  0.17391744592E+04  0.50400001928E-02 0.  1.
        1   -1    0    0  501    0  0.00000000000E+00  0.00000000000E+00 -0.21691714238E+04  0.21691714238E+04  0.50400001928E-02 0. -1.
    10030    2    1    2    0    0  0.00000000000E+00  0.00000000000E+00 -0.42999696465E+03  0.39083458830E+04  0.38846196920E+04 0.  0.
        1    1    3    3  502    0 -0.37576915778E+02  0.13366743713E+04  0.12023131300E+04  0.17982400457E+04  0.50400001928E-02 0.  1.
       -1    1    3    3    0  502  0.37576915778E+02 -0.13366743713E+04 -0.16323100946E+04  0.21101058373E+04  0.50400001928E-02 0. -1.
</event>
<event>
 5   0  0.4149487E-07  0.2759812E+04  0.7818609E-02  0.8315855E-01
       -2   -1    0    0    0  501  0.00000000000E+00  0.00000000000E+00  0.10005478282E+04  0.10005478282E+04  0.25500000920E-02 0. -1.
        2   -1    0    0  501    0  0.00000000000E+00  0.00000000000E+00 -0.19030973561E+04  0.19030973561E+04  0.25500000920E-02 0.  1.
    10030    2    1    2    0    0  0.00000000000E+00  0.00000000000E+00 -0.90254952788E+03  0.29036451844E+04  0.27598115346E+04 0.  0.
        2    1    3    3  502    0 -0.10055847104E+02 -0.92734018682E+03  0.62378051881E+03  0.11176596431E+04  0.25500000920E-02 0. -1.
       -2    1    3    3    0  502  0.10055847104E+02  0.92734018682E+03 -0.15263300467E+04  0.17859855413E+04  0.25500000920E-02 0.  1.
</event>
<event>
 5   0  0.1368865E-07  0.3963057E+04  0.7818609E-02  0.8012041E-01
       -1   -1    0    0    0  501  0.00000000000E+00  0.00000000000E+00  0.32020584413E+04  0.32020584413E+04  0.50400001928E-02 0. -1.
        1   -1    0    0  501    0  0.00000000000E+00  0.00000000000E+00 -0.12262284950E+04  0.12262284950E+04  0.50400001928E-02 0.  1.
    10030    2    1    2    0    0  0.00000000000E+00  0.00000000000E+00  0.19758299463E+04  0.44282869363E+04  0.39630570541E+04 0.  0.
        5    1    3    3  502    0  0.14704997940E+03 -0.16236925331E+04 -0.27054392783E+03  0.16526394784E+04  0.46999998093E+01 0.  1.
       -5    1    3    3    0  502 -0.14704997940E+03  0.16236925331E+04  0.22463738741E+04  0.27756474580E+04  0.46999998093E+01 0. -1.
</event>
<event>
 5   0  0.1351000E-07  0.2700059E+04  0.7818609E-02  0.8334986E-01
       -1   -1    0    0    0  501  0.00000000000E+00  0.00000000000E+00  0.10459949454E+04  0.10459949455E+04  0.50400001928E-02 0.  1.
        1   -1    0    0  501    0  0.00000000000E+00  0.00000000000E+00 -0.17424364034E+04  0.17424364034E+04  0.50400001928E-02 0. -1.
    10030    2    1    2    0    0  0.00000000000E+00  0.00000000000E+00 -0.69644145795E+03  0.27884313489E+04  0.27000590147E+04 0.  0.
        3    1    3    3  502    0 -0.11632338688E+04  0.46681602034E+03  0.16974183153E+03  0.12648488170E+04  0.10100000352E+00 0.  1.
       -3    1    3    3    0  502  0.11632338688E+04 -0.46681602034E+03 -0.86618328949E+03  0.15235825319E+04  0.10100000352E+00 0. -1.
</event>
<event>
 5   0  0.4077370E-07  0.3959847E+04  0.7818609E-02  0.8012696E-01
       -2   -1    0    0    0  501  0.00000000000E+00  0.00000000000E+00  0.13110627302E+04  0.13110627302E+04  0.25500000920E-02 0.  1.
        2   -1    0    0  501    0  0.00000000000E+00  0.00000000000E+00 -0.29900141979E+04  0.29900141979E+04  0.25500000920E-02 0. -1.
    10030    2    1    2    0    0  0.00000000000E+00  0.00000000000E+00 -0.16789514677E+04  0.43010769282E+04  0.39598465515E+04 0.  0.
        3    1    3    3  502    0  0.63705293260E+03  0.17047041996E+04  0.76298172140E+01  0.18198656740E+04  0.10100000352E+00 0.  1.
       -3    1    3    3    0  502 -0.63705293260E+03 -0.17047041996E+04 -0.16865812849E+04  0.24812112542E+04  0.10100000352E+00 0. -1.
</event>
<event>
 5   0  0.4077370E-07  0.4003367E+04  0.7818609E-02  0.8003868E-01
        2   -1    0    0  501    0  0.00000000000E+00  0.00000000000E+00  0.31273349128E+04  0.31273349128E+04  0.25500000920E-02 0.  1.
       -2   -1    0    0    0  501  0.00000000000E+00  0.00000000000E+00 -0.12811986350E+04  0.12811986350E+04  0.25500000920E-02 0. -1.
    10030    2    1    2    0    0  0.00000000000E+00  0.00000000000E+00  0.18461362778E+04  0.44085335477E+04  0.40033671934E+04 0.  0.
        3    1    3    3  502    0 -0.14527696620E+04 -0.29121385865E+02 -0.59298132996E+03  0.15693994437E+04  0.10100000352E+00 0. -1.
       -3    1    3    3    0  502  0.14527696620E+04  0.29121385865E+02  0.24391176078E+04  0.28391341040E+04  0.10100000352E+00 0.  1.
</event>
<event>
 5   0  0.1372952E-07  0.4008598E+04  0.7818609E-02  0.8002814E-01
       -1   -1    0    0    0  501  0.00000000000E+00  0.00000000000E+00  0.20508606211E+04  0.20508606211E+04  0.50400001928E-02 0. -1.
        1   -1    0    0  501    0  0.00000000000E+00  0.00000000000E+00 -0.19587945576E+04  0.19587945576E+04  0.50400001928E-02 0.  1.
    10030    2    1    2    0    0  0.00000000000E+00  0.00000000000E+00  0.92066063508E+02  0.40096551788E+04  0.40085980707E+04 0.  0.
        1    1    3    3  502    0 -0.10654590218E+03 -0.90822350983E+03 -0.17379710578E+04  0.19638649064E+04  0.50400001928E-02 0.  1.
       -1    1    3    3    0  502  0.10654590218E+03  0.90822350983E+03  0.18300371213E+04  0.20457902723E+04  0.50400001928E-02 0. -1.
</event>
<event>
 5   0  0.4301754E-07  0.2976078E+04  0.7818609E-02  0.8250595E-01
        2   -1    0    0  501    0  0.00000000000E+00  0.00000000000E+00  0.12925236895E+04  0.12925236895E+04  0.25500000920E-02 0.  1.
       -2   -1    0    0    0  501  0.00000000000E+00  0.00000000000E+00 -0.17131291471E+04  0.17131291471E+04  0.25500000920E-02 0. -1.
    10030    2    1    2    0    0  0.00000000000E+00  0.00000000000E+00 -0.42060545762E+03  0.30056528367E+04  0.29760779599E+04 0.  0.
        1    1    3    3  502    0  0.35947514320E+03 -0.67911883832E+03  0.10766585870E+04  0.13227314497E+04  0.50400001928E-02 0.  1.
       -1    1    3    3    0  502 -0.35947514320E+03  0.67911883832E+03 -0.14972640446E+04  0.16829213869E+04  0.50400001928E-02 0. -1.
</event>
<event>
 5   0  0.1421304E-07  0.2963302E+04  0.7818609E-02  0.8254288E-01
       -1   -1    0    0    0  501  0.00000000000E+00  0.00000000000E+00  0.83224381373E+03  0.83224381374E+03  0.50400001928E-02 0. -1.
        1   -1    0    0  501    0  0.00000000000E+00  0.00000000000E+00 -0.26377967192E+04  0.26377967192E+04  0.50400001928E-02 0.  1.
    10030    2    1    2    0    0  0.00000000000E+00  0.00000000000E+00 -0.18055529055E+04  0.34700405330E+04  0.29633022130E+04 0.  0.
        2    1    3    3  502    0 -0.63606636626E+02  0.13552875958E+04 -0.15999321822E+04  0.20977686381E+04  0.25500000920E-02 0.  1.
       -2    1    3    3    0  502  0.63606636626E+02 -0.13552875958E+04 -0.20562072332E+03  0.13722718948E+04  0.25500000920E-02 0. -1.
</event>
<event>
 5   0  0.1372952E-07  0.4004933E+04  0.7818609E-02  0.8003552E-01
        1   -1    0    0  501    0  0.00000000000E+00  0.00000000000E+00  0.22963972990E+04  0.22963972991E+04  0.50400001928E-02 0. -1.
       -1   -1    0    0    0  501  0.00000000000E+00  0.00000000000E+00 -0.17461574201E+04  0.17461574201E+04  0.50400001928E-02 0.  1.
    10030    2    1    2    0    0  0.00000000000E+00  0.00000000000E+00  0.55023987896E+03  0.40425547192E+04  0.40049325504E+04 0.  0.
        1    1    3    3  502    0 -0.89810281201E+03 -0.32248288425E+03  0.20521370928E+04  0.22631505737E+04  0.50400001928E-02 0. -1.
       -1    1    3    3    0  502  0.89810281201E+03  0.32248288425E+03 -0.15018972139E+04  0.17794041454E+04  0.50400001928E-02 0.  1.
</event>
<event>
 5   0  0.4047916E-07  0.3731960E+04  0.7818609E-02  0.8060916E-01
       -2   -1    0    0    0  501  0.00000000000E+00  0.00000000000E+00  0.12949230241E+04  0.12949230241E+04  0.25500000920E-02 0. -1.
        2   -1    0    0  501    0  0.00000000000E+00  0.00000000000E+00 -0.26888709311E+04  0.26888709311E+04  0.25500000920E-02 0.  1.
    10030    2    1    2    0    0  0.00000000000E+00  0.00000000000E+00 -0.13939479070E+04  0.39837939552E+04  0.37319597412E+04 0.  0.
        5    1    3    3  502    0 -0.16402345199E+04  0.87857649144E+03 -0.84639397308E+03  0.20441797326E+04  0.46999998093E+01 0. -1.
       -5    1    3    3    0  502  0.16402345199E+04 -0.87857649144E+03 -0.54755393394E+03  0.19396142225E+04  0.46999998093E+01 0.  1.
</event>
<event>
 5   0  0.4301754E-07  0.3940047E+04  0.7818609E-02  0.8016751E-01
        2   -1    0    0  501    0  0.00000000000E+00  0.00000000000E+00  0.17201722932E+04  0.17201722933E+04  0.25500000920E-02 0.  1.
       -2   -1    0    0    0  501  0.00000000000E+00  0.00000000000E+00 -0.22561647575E+04  0.22561647575E+04  0.25500000920E-02 0. -1.
    10030    2    1    2    0    0  0.00000000000E+00  0.00000000000E+00 -0.53599246423E+03  0.39763370507E+04  0.39400467534E+04 0.  0.
        1    1    3    3  502    0 -0.10442846497E+04 -0.15136520802E+04  0.44513734424E+03  0.18920413063E+04  0.50400001928E-02 0. -1.
       -1    1    3    3    0  502  0.10442846497E+04  0.15136520802E+04 -0.98112980847E+03  0.20842957445E+04  0.50400001928E-02 0.  1.
</event>
<event>
 5   0  0.1421304E-07  0.3973904E+04  0.7818609E-02  0.8009832E-01
        1   -1    0    0  501    0  0.00000000000E+00  0.00000000000E+00  0.27131850990E+04  0.27131850990E+04  0.50400001928E-02 0.  1.
       -1   -1    0    0    0  501  0.00000000000E+00  0.00000000000E+00 -0.14551081570E+04  0.14551081570E+04  0.50400001928E-02 0. -1.
    10030    2    1    2    0    0  0.00000000000E+00  0.00000000000E+00  0.12580769420E+04  0.41682932560E+04  0.39739037578E+04 0.  0.
        2    1    3    3  502    0  0.91786866869E+03 -0.12017168588E+04  0.19810310088E+04  0.24922058823E+04  0.25500000920E-02 0.  1.
       -2    1    3    3    0  502 -0.91786866869E+03  0.12017168588E+04 -0.72295406685E+03  0.16760873737E+04  0.25500000920E-02 0. -1.
</event>
<event>
 5   0  0.1421304E-07  0.3918701E+04  0.7818609E-02  0.8021151E-01
        1   -1    0    0  501    0  0.00000000000E+00  0.00000000000E+00  0.17595978613E+04  0.17595978613E+04  0.50400001928E-02 0.  1.
       -1   -1    0    0    0  501  0.00000000000E+00  0.00000000000E+00 -0.21817789462E+04  0.21817789462E+04  0.50400001928E-02 0. -1.
    10030    2    1    2    0    0  0.00000000000E+00  0.00000000000E+00 -0.42218108485E+03  0.39413768075E+04  0.39187005844E+04 0.  0.
        2    1    3    3  502    0  0.14824161944E+04  0.21368023304E+03 -0.14816648792E+04  0.21067861376E+04  0.25500000920E-02 0. -1.
       -2    1    3    3    0  502 -0.14824161944E+04 -0.21368023304E+03  0.10594837944E+04  0.18345906699E+04  0.25500000920E-02 0.  1.
</event>
<event>
 5   0  0.4149487E-07  0.3966716E+04  0.7818609E-02  0.8011295E-01
       -2   -1    0    0    0  501  0.00000000000E+00  0.00000000000E+00  0.18184189429E+04  0.18184189429E+04  0.25500000920E-02 0.  1.
        2   -1    0    0  501    0  0.00000000000E+00  0.00000000000E+00 -0.21632577115E+04  0.21632577115E+04  0.25500000920E-02 0. -1.
    10030    2    1    2    0    0  0.00000000000E+00  0.00000000000E+00 -0.34483876863E+03  0.39816766544E+04  0.39667159218E+04 0.  0.
        2    1    3    3  502    0 -0.12395976391E+04 -0.12039797927E+04 -0.11495069163E+04  0.20754603823E+04  0.25500000920E-02 0. -1.
       -2    1    3    3    0  502  0.12395976391E+04  0.12039797927E+04  0.80466814768E+03  0.19062162721E+04  0.25500000920E-02 0.  1.
</event>
<event>
 5   0  0.1351000E-07  0.4450665E+04  0.7818609E-02  0.7919331E-01
        1   -1    0    0  501    0  0.00000000000E+00  0.00000000000E+00  0.24794648885E+04  0.24794648886E+04  0.50400001928E-02 0.  1.
       -1   -1    0    0    0  501  0.00000000000E+00  0.00000000000E+00 -0.19972475062E+04  0.19972475062E+04  0.50400001928E-02 0. -1.
    10030    2    1    2    0    0  0.00000000000E+00  0.00000000000E+00  0.48221738236E+03  0.44767123947E+04  0.44506651482E+04 0.  0.
        3    1    3    3  502    0 -0.21154555822E+04 -0.46851293146E+03  0.75147188293E+03  0.22933309156E+04  0.10100000352E+00 0. -1.
       -3    1    3    3    0  502  0.21154555822E+04  0.46851293146E+03 -0.26925450056E+03  0.21833814792E+04  0.10100000352E+00 0.  1.
</event>
<event>
 5   0  0.4047916E-07  0.3855935E+04  0.7818609E-02  0.8034257E-01
        2   -1    0    0  501    0  0.00000000000E+00  0.00000000000E+00  0.11262185990E+04  0.11262185990E+04  0.25500000920E-02 0. -1.
       -2   -1    0    0    0  501  0.00000000000E+00  0.00000000000E+00 -0.33004773976E+04  0.33004773976E+04  0.25500000920E-02 0.  1.
    10030    2    1    2    0    0  0.00000000000E+00  0.00000000000E+00 -0.21742587986E+04  0.44266959966E+04  0.38559351814E+04 0.  0.
        5    1    3    3  502    0 -0.12087465043E+04  0.58071943467E+03  0.50309104437E+03  0.14322799525E+04  0.46999998093E+01 0. -1.
       -5    1    3    3    0  502  0.12087465043E+04 -0.58071943467E+03 -0.26773498430E+04  0.29944160441E+04  0.46999998093E+01 0.  1.
</event>
<event>
 5   0  0.1351000E-07  0.3956394E+04  0.7818609E-02  0.8013402E-01
       -1   -1    0    0    0  501  0.00000000000E+00  0.00000000000E+00  0.17531380421E+04  0.17531380421E+04  0.50400001928E-02 0.  1.
        1   -1    0    0  501    0  0.00000000000E+00  0.00000000000E+00 -0.22321476850E+04  0.22321476850E+04  0.50400001928E-02 0. -1.
    10030    2    1    2    0    0  0.00000000000E+00  0.00000000000E+00 -0.47900964290E+03  0.39852857271E+04  0.39563938238E+04 0.  0.
        3    1    3    3  502    0  0.13745554361E+04 -0.12273010550E+04  0.48518795070E+03  0.19055387386E+04  0.10100000352E+00 0.  1.
       -3    1    3    3    0  502 -0.13745554361E+04  0.12273010550E+04 -0.96419759360E+03  0.20797469885E+04  0.10100000352E+00 0. -1.
</event>
<event>
 5   0  0.4149487E-07  0.3991139E+04  0.7818609E-02  0.8006337E-01
        2   -1    0    0  501    0  0.00000000000E+00  0.00000000000E+00  0.17342429571E+04  0.17342429571E+04  0.25500000920E-02 0. -1.
       -2   -1    0    0    0  501  0.00000000000E+00  0.00000000000E+00 -0.22962737874E+04  0.22962737874E+04  0.25500000920E-02 0.  1.
    10030    2    1    2    0    0  0.00000000000E+00  0.00000000000E+00 -0.56203083032E+03  0.40305167445E+04  0.39911385059E+04 0.  0.
        2    1    3    3  502    0 -0.10466749867E+04 -0.44182619862E+03 -0.19377989867E+04  0.22462866759E+04  0.25500000920E-02 0.  1.
       -2    1    3    3    0  502  0.10466749867E+04  0.44182619862E+03  0.13757681564E+04  0.17842300686E+04  0.25500000920E-02 0. -1.
</event>
<event>
 5   0  0.4149487E-07  0.3995403E+04  0.7818609E-02  0.8005475E-01
       -2   -1    0    0    0  501  0.00000000000E+00  0.00000000000E+00  0.13002672649E+04  0.13002672649E+04  0.25500000920E-02 0. -1.
        2   -1    0    0  501    0  0.00000000000E+00  0.00000000000E+00 -0.30692241982E+04  0.30692241982E+04  0.25500000920E-02 0.  1.
    10030    2    1    2    0    0  0.00000000000E+00  0.00000000000E+00 -0.17689569333E+04  0.43694914631E+04  0.39954032355E+04 0.  0.
        2    1    3    3  502    0  0.18006766263E+04  0.83710325920E+03 -0.64579251131E+03  0.20881154534E+04  0.25500000920E-02 0.  1.
       -2    1    3    3    0  502 -0.18006766263E+04 -0.83710325920E+03 -0.11231644220E+04  0.22813760097E+04  0.25500000920E-02 0. -1.
</event>
<event>
 5   0  0.1372952E-07  0.3848202E+04  0.7818609E-02  0.8035889E-01
       -1   -1    0    0    0  501  0.00000000000E+00  0.00000000000E+00  0.13334482878E+04  0.13334482878E+04  0.50400001928E-02 0.  1.
        1   -1    0    0  501    0  0.00000000000E+00  0.00000000000E+00 -0.27763834083E+04  0.27763834083E+04  0.50400001928E-02 0. -1.
    10030    2    1    2    0    0  0.00000000000E+00  0.00000000000E+00 -0.14429351205E+04  0.41098316961E+04  0.38482015031E+04 0.  0.
        1    1    3    3  502    0  0.87582313682E+03  0.14013923578E+04  0.33102709040E+03  0.16853918364E+04  0.50400001928E-02 0.  1.
       -1    1    3    3    0  502 -0.87582313682E+03 -0.14013923578E+04 -0.17739622109E+04  0.24244398597E+04  0.50400001928E-02 0. -1.
</event>
<event>
 5   0  0.4077370E-07  0.4143178E+04  0.7818609E-02  0.7976270E-01
       -2   -1    0    0    0  501  0.00000000000E+00  0.00000000000E+00  0.17543790829E+04  0.17543790829E+04  0.25500000920E-02 0. -1.
        2   -1    0    0  501    0  0.00000000000E+00  0.00000000000E+00 -0.24461534728E+04  0.24461534728E+04  0.25500000920E-02 0.  1.
    10030    2    1    2    0    0  0.00000000000E+00  0.00000000000E+00 -0.69177438990E+03  0.42005325556E+04  0.41431777592E+04 0.  0.
        3    1    3    3  502    0  0.18177307883E+04 -0.80449148377E+03 -0.93716616682E+03  0.21976424187E+04  0.10100000352E+00 0. -1.
       -3    1    3    3    0  502 -0.18177307883E+04  0.80449148377E+03  0.24539177693E+03  0.20028901369E+04  0.10100000352E+00 0.  1.
</event>
<event>
 5   0  0.4149487E-07  0.3001408E+04  0.7818609E-02  0.8243329E-01
       -2   -1    0    0    0  501  0.00000000000E+00  0.00000000000E+00  0.12310963474E+04  0.12310963474E+04  0.25500000920E-02 0.  1.
        2   -1    0    0  501    0  0.00000000000E+00  0.00000000000E+00 -0.18293550909E+04  0.18293550909E+04  0.25500000920E-02 0. -1.
    10030    2    1    2    0    0  0.00000000000E+00  0.00000000000E+00 -0.59825874351E+03  0.30604514384E+04  0.30014079167E+04 0.  0.
        2    1    3    3  502    0  0.97810168635E+03 -0.31715004390E+03 -0.14137223709E+04  0.17481069764E+04  0.25500000920E-02 0. -1.
       -2    1    3    3    0  502 -0.97810168635E+03  0.31715004390E+03  0.81546362735E+03  0.13123444619E+04  0.25500000920E-02 0.  1.
</event>
<event>
 5   0  0.1351000E-07  0.2928835E+04  0.7818609E-02  0.8264350E-01
        1   -1    0    0  501    0  0.00000000000E+00  0.00000000000E+00  0.12713292190E+04  0.12713292190E+04  0.50400001928E-02 0.  1.
       -1   -1    0    0    0  501  0.00000000000E+00  0.00000000000E+00 -0.16868318026E+04  0.16868318026E+04  0.50400001928E-02 0. -1.
    10030    2    1    2    0    0  0.00000000000E+00  0.00000000000E+00 -0.41550258358E+03  0.29581610216E+04  0.29288349616E+04 0.  0.
        3    1    3    3  502    0  0.11666157177E+04  0.61455014342E+03  0.43569463935E+03  0.13887022505E+04  0.10100000352E+00 0.  1.
       -3    1    3    3    0  502 -0.11666157177E+04 -0.61455014342E+03 -0.85119722293E+03  0.15694587711E+04  0.10100000352E+00 0. -1.
</event>
<event>
 5   0  0.1351000E-07  0.3870957E+04  0.7818609E-02  0.8031097E-01
       -1   -1    0    0    0  501  0.00000000000E+00  0.00000000000E+00  0.18239772351E+04  0.18239772351E+04  0.50400001928E-02 0.  1.
        1   -1    0    0  501    0  0.00000000000E+00  0.00000000000E+00 -0.20537960616E+04  0.20537960616E+04  0.50400001928E-02 0. -1.
    10030    2    1    2    0    0  0.00000000000E+00  0.00000000000E+00 -0.22981882642E+03  0.38777732967E+04  0.38709571230E+04 0.  0.
        3    1    3    3  502    0  0.14510866013E+04 -0.93249885668E+03 -0.99444791431E+03  0.19910130855E+04  0.10100000352E+00 0. -1.
       -3    1    3    3    0  502 -0.14510866013E+04  0.93249885668E+03  0.76462908788E+03  0.18867602112E+04  0.10100000352E+00 0.  1.
</event>
<event>
 5   0  0.1351000E-07  0.4015491E+04  0.7818609E-02  0.8001429E-01
       -1   -1    0    0    0  501  0.00000000000E+00  0.00000000000E+00  0.31653522223E+04  0.31653522223E+04  0.50400001928E-02 0. -1.
        1   -1    0    0  501    0  0.00000000000E+00  0.00000000000E+00 -0.12734893598E+04  0.12734893598E+04  0.50400001928E-02 0.  1.
    10030    2    1    2    0    0  0.00000000000E+00  0.00000000000E+00  0.18918628625E+04  0.44388415821E+04  0.40154911904E+04 0.  0.
        4    1    3    3  502    0 -0.43829344112E+03 -0.54982195577E+03  0.30247956082E+04  0.31054460883E+04  0.12699999809E+01 0. -1.
       -4    1    3    3    0  502  0.43829344112E+03  0.54982195577E+03 -0.11329327457E+04  0.13333954937E+04  0.12699999809E+01 0.  1.
</event>
<event>
 5   0  0.4077370E-07  0.2865485E+04  0.7818609E-02  0.8283221E-01
        2   -1    0    0  501    0  0.00000000000E+00  0.00000000000E+00  0.17687334338E+04  0.17687334338E+04  0.25500000920E-02 0. -1.
       -2   -1    0    0    0  501  0.00000000000E+00  0.00000000000E+00 -0.11605772252E+04  0.11605772252E+04  0.25500000920E-02 0.  1.
    10030    2    1    2    0    0  0.00000000000E+00  0.00000000000E+00  0.60815620858E+03  0.29293106590E+04  0.28654854673E+04 0.  0.
        3    1    3    3  502    0  0.94932766414E+03 -0.73353590652E+03  0.11047565710E+04  0.16308847388E+04  0.10100000352E+00 0. -1.
       -3    1    3    3    0  502 -0.94932766414E+03  0.73353590652E+03 -0.49660036240E+03  0.12984259202E+04  0.10100000352E+00 0.  1.
</event>
<event>
 5   0  0.4149487E-07  0.3839852E+04  0.7818609E-02  0.8037656E-01
       -2   -1    0    0    0  501  0.00000000000E+00  0.00000000000E+00  0.20428246756E+04  0.20428246756E+04  0.25500000920E-02 0.  1.
        2   -1    0    0  501    0  0.00000000000E+00  0.00000000000E+00 -0.18044211547E+04  0.18044211547E+04  0.25500000920E-02 0. -1.
    10030    2    1    2    0    0  0.00000000000E+00  0.00000000000E+00  0.23840352095E+03  0.38472458303E+04  0.38398521118E+04 0.  0.
        2    1    3    3  502    0 -0.12560723897E+03 -0.11535673246E+04  0.16517290740E+04  0.20185895286E+04  0.25500000920E-02 0.  1.
       -2    1    3    3    0  502  0.12560723897E+03  0.11535673246E+04 -0.14133255531E+04  0.18286563017E+04  0.25500000920E-02 0. -1.
</event>
<event>
 5   0  0.4079777E-07  0.3456556E+04  0.7818609E-02  0.8124164E-01
       -2   -1    0    0    0  501  0.00000000000E+00  0.00000000000E+00  0.16894240386E+04  0.16894240386E+04  0.25500000920E-02 0.  1.
        2   -1    0    0  501    0  0.00000000000E+00  0.00000000000E+00 -0.17680253462E+04  0.17680253462E+04  0.25500000920E-02 0. -1.
    10030    2    1    2    0    0  0.00000000000E+00  0.00000000000E+00 -0.78601307585E+02  0.34574493849E+04  0.34565558123E+04 0.  0.
        4    1    3    3  502    0  0.10928008023E+04  0.11520236332E+04 -0.72180457935E+03  0.17442406682E+04  0.12699999809E+01 0. -1.
       -4    1    3    3    0  502 -0.10928008023E+04 -0.11520236332E+04  0.64320327177E+03  0.17132087166E+04  0.12699999809E+01 0.  1.
</event>
<event>
 5   0  0.1421304E-07  0.3956593E+04  0.7818609E-02  0.8013361E-01
       -1   -1    0    0    0  501  0.00000000000E+00  0.00000000000E+00  0.26009105207E+04  0.26009105207E+04  0.50400001928E-02 0.  1.
        1   -1    0    0  501    0  0.00000000000E+00  0.00000000000E+00 -0.15047258283E+04  0.15047258283E+04  0.50400001928E-02 0. -1.
    10030    2    1    2    0    0  0.00000000000E+00  0.00000000000E+00  0.10961846924E+04  0.41056363490E+04  0.39565930990E+04 0.  0.
        2    1    3    3  502    0  0.10823193082E+04  0.67007493383E+03  0.21194824332E+04  0.24723715915E+04  0.25500000920E-02 0.  1.
       -2    1    3    3    0  502 -0.10823193082E+04 -0.67007493383E+03 -0.10232977408E+04  0.16332647575E+04  0.25500000920E-02 0. -1.
</event>
<event>
 5   0  0.4301754E-07  0.2621120E+04  0.7818609E-02  0.8361062E-01
        2   -1    0    0  501    0  0.00000000000E+00  0.00000000000E+00  0.17843944919E+04  0.17843944919E+04  0.25500000920E-02 0. -1.
       -2   -1    0    0    0  501  0.00000000000E+00  0.00000000000E+00 -0.96254955952E+03  0.96254955952E+03  0.25500000920E-02 0.  1.
    10030    2    1    2    0    0  0.00000000000E+00  0.00000000000E+00  0.82184493239E+03  0.27469440514E+04  0.26211204720E+04 0.  0.
        1    1    3    3  502    0  0.10895962398E+04 -0.71081231737E+03  0.57693769046E+03  0.14231413194E+04  0.50400001928E-02 0. -1.
       -1    1    3    3    0  502 -0.10895962398E+04  0.71081231737E+03  0.24490724193E+03  0.13238027321E+04  0.50400001928E-02 0.  1.
</event>
<event>
 5   0  0.4149487E-07  0.4048407E+04  0.7818609E-02  0.7994852E-01
       -2   -1    0    0    0  501  0.00000000000E+00  0.00000000000E+00  0.20622721381E+04  0.20622721381E+04  0.25500000920E-02 0.  1.
        2   -1    0    0  501    0  0.00000000000E+00  0.00000000000E+00 -0.19868378368E+04  0.19868378368E+04  0.25500000920E-02 0. -1.
    10030    2    1    2    0    0  0.00000000000E+00  0.00000000000E+00  0.75434301258E+02  0.40491099749E+04  0.40484072492E+04 0.  0.
        2    1    3    3  502    0  0.17235668727E+04 -0.29137610213E+03  0.10585889480E+04  0.20435736733E+04  0.25500000920E-02 0.  1.
       -2    1    3    3    0  502 -0.17235668727E+04  0.29137610213E+03 -0.98315464671E+03  0.20055363016E+04  0.25500000920E-02 0. -1.
</event>
<event>
 5   0  0.1372952E-07  0.3974333E+04  0.7818609E-02  0.8009744E-01
       -1   -1    0    0    0  501  0.00000000000E+00  0.00000000000E+00  0.16297959023E+04  0.16297959023E+04  0.50400001928E-02 0. -1.
        1   -1    0    0  501    0  0.00000000000E+00  0.00000000000E+00 -0.24228990142E+04  0.24228990142E+04  0.50400001928E-02 0.  1.
    10030    2    1    2    0    0  0.00000000000E+00  0.00000000000E+00 -0.79310311186E+03  0.40526949165E+04  0.39743330938E+04 0.  0.
        1    1    3    3  502    0 -0.80455588004E+03 -0.17173162156E+04 -0.10018424759E+04  0.21448015048E+04  0.50400001928E-02 0.  1.
       -1    1    3    3    0  502  0.80455588004E+03  0.17173162156E+04  0.20873936405E+03  0.19078934117E+04  0.50400001928E-02 0. -1.
</event>
<event>
 5   0  0.1351000E-07  0.4076840E+04  0.7818609E-02  0.7989222E-01
        1   -1    0    0  501    0  0.00000000000E+00  0.00000000000E+00  0.21681680953E+04  0.21681680953E+04  0.50400001928E-02 0.  1.
       -1   -1    0    0    0  501  0.00000000000E+00  0.00000000000E+00 -0.19164358925E+04  0.19164358925E+04  0.50400001928E-02 0. -1.
    10030    2    1    2    0    0  0.00000000000E+00  0.00000000000E+00  0.25173220285E+03  0.40846039878E+04  0.40768395401E+04 0.  0.
        3    1    3    3  502    0  0.20291604224E+04 -0.15811929337E+03  0.23860337008E+03  0.20492499382E+04  0.10100000352E+00 0.  1.
       -3    1    3    3    0  502 -0.20291604224E+04  0.15811929337E+03  0.13128832772E+02  0.20353540496E+04  0.10100000352E+00 0. -1.
</event>
<event>
 5   0  0.1351000E-07  0.4181913E+04  0.7818609E-02  0.7968822E-01
        1   -1    0    0  501    0  0.00000000000E+00  0.00000000000E+00  0.23718094810E+04  0.23718094810E+04  0.50400001928E-02 0. -1.
       -1   -1    0    0    0  501  0.00000000000E+00  0.00000000000E+00 -0.18433605260E+04  0.18433605260E+04  0.50400001928E-02 0.  1.
    10030    2    1    2    0    0  0.00000000000E+00  0.00000000000E+00  0.52844895500E+03  0.42151700070E+04  0.41819134245E+04 0.  0.
        4    1    3    3  502    0  0.12766246131E+04 -0.15611589412E+04 -0.29253650027E+03  0.20377847923E+04  0.12699999809E+01 0. -1.
       -4    1    3    3    0  502 -0.12766246131E+04  0.15611589412E+04  0.82098545527E+03  0.21773852147E+04  0.12699999809E+01 0.  1.
</event>
<event>
 5   0  0.1372952E-07  0.3952721E+04  0.7818609E-02  0.8014153E-01
        1   -1    0    0  501    0  0.00000000000E+00  0.00000000000E+00  0.20716816692E+04  0.20716816692E+04  0.50400001928E-02 0. -1.
       -1   -1    0    0    0  501  0.00000000000E+00  0.00000000000E+00 -0.18854247298E+04  0.18854247298E+04  0.50400001928E-02 0.  1.
    10030    2    1    2    0    0  0.00000000000E+00  0.00000000000E+00  0.18625693942E+03  0.39571063990E+04  0.39527205069E+04 0.  0.
        1    1    3    3  502    0 -0.31146435996E+02 -0.59722507021E+03  0.19789255834E+04  0.20673157354E+04  0.50400001928E-02 0. -1.
       -1    1    3    3    0  502  0.31146435996E+02  0.59722507021E+03 -0.17926686440E+04  0.18897906636E+04  0.50400001928E-02 0.  1.
</event>
<event>
 5   0  0.4077370E-07  0.3960357E+04  0.7818609E-02  0.8012592E-01
       -2   -1    0    0    0  501  0.00000000000E+00  0.00000000000E+00  0.17864555241E+04  0.17864555241E+04  0.25500000920E-02 0. -1.
        2   -1    0    0  501    0  0.00000000000E+00  0.00000000000E+00 -0.21949086492E+04  0.21949086492E+04  0.25500000920E-02 0.  1.
    10030    2    1    2    0    0  0.00000000000E+00  0.00000000000E+00 -0.40845312513E+03  0.39813641733E+04  0.39603568937E+04 0.  0.
        3    1    3    3  502    0  0.36550685195E+03  0.14059722205E+04  0.11485536722E+04  0.18518986721E+04  0.10100000352E+00 0. -1.
       -3    1    3    3    0  502 -0.36550685195E+03 -0.14059722205E+04 -0.15570067974E+04  0.21294655012E+04  0.10100000352E+00 0.  1.
</event>
<event>
 5   0  0.1421304E-07  0.3450878E+04  0.7818609E-02  0.8125531E-01
       -1   -1    0    0    0  501  0.00000000000E+00  0.00000000000E+00  0.12943413403E+04  0.12943413403E+04  0.50400001928E-02 0.  1.
        1   -1    0    0  501    0  0.00000000000E+00  0.00000000000E+00 -0.23001196815E+04  0.23001196815E+04  0.50400001928E-02 0. -1.
    10030    2    1    2    0    0  0.00000000000E+00  0.00000000000E+00 -0.10057783412E+04  0.35944610218E+04  0.34508781441E+04 0.  0.
        2    1    3    3  502    0 -0.36583875081E+03 -0.10816008043E+03  0.12498624077E+04  0.13067871414E+04  0.25500000920E-02 0.  1.
       -2    1    3    3    0  502  0.36583875081E+03  0.10816008043E+03 -0.22556407490E+04  0.22876738804E+04  0.25500000920E-02 0. -1.
</event>
<event>
 5   0  0.4301754E-07  0.3833520E+04  0.7818609E-02  0.8039000E-01
        2   -1    0    0  501    0  0.00000000000E+00  0.00000000000E+00  0.13342222929E+04  0.13342222929E+04  0.25500000920E-02 0. -1.
       -2   -1    0    0    0  501  0.00000000000E+00  0.00000000000E+00 -0.27536404847E+04  0.27536404847E+04  0.25500000920E-02 0.  1.
    10030    2    1    2    0    0  0.00000000000E+00  0.00000000000E+00 -0.14194181918E+04  0.40878627776E+04  0.38335198037E+04 0.  0.
        1    1    3    3  502    0  0.95106425461E+03  0.68228181546E+03  0.90886982920E+03  0.14819163467E+04  0.50400001928E-02 0. -1.
       -1    1    3    3    0  502 -0.95106425461E+03 -0.68228181546E+03 -0.23282880210E+04  0.26059464310E+04  0.50400001928E-02 0.  1.
</event>
<event>
 5   0  0.1421304E-07  0.3913843E+04  0.7818609E-02  0.8022156E-01
        1   -1    0    0  501    0  0.00000000000E+00  0.00000000000E+00  0.20521712191E+04  0.20521712191E+04  0.50400001928E-02 0. -1.
       -1   -1    0    0    0  501  0.00000000000E+00  0.00000000000E+00 -0.18660927246E+04  0.18660927246E+04  0.50400001928E-02 0.  1.
    10030    2    1    2    0    0  0.00000000000E+00  0.00000000000E+00  0.18607849455E+03  0.39182639437E+04  0.39138430125E+04 0.  0.
        2    1    3    3  502    0  0.12035704337E+03  0.40465611578E+03  0.20060376311E+04  0.20499803334E+04  0.25500000920E-02 0. -1.
       -2    1    3    3    0  502 -0.12035704337E+03 -0.40465611578E+03 -0.18199591366E+04  0.18682836103E+04  0.25500000920E-02 0.  1.
</event>
<event>
 5   0  0.1351000E-07  0.3982956E+04  0.7818609E-02  0.8007994E-01
       -1   -1    0    0    0  501  0.00000000000E+00  0.00000000000E+00  0.19582202014E+04  0.19582202014E+04  0.50400001928E-02 0.  1.
        1   -1    0    0  501    0  0.00000000000E+00  0.00000000000E+00 -0.20253007412E+04  0.20253007412E+04  0.50400001928E-02 0. -1.
    10030    2    1    2    0    0  0.00000000000E+00  0.00000000000E+00 -0.67080539861E+02  0.39835209426E+04  0.39829561009E+04 0.  0.
        3    1    3    3  502    0  0.10941681225E+04  0.93034254977E+02  0.16280578977E+04  0.19637799727E+04  0.10100000352E+00 0.  1.
       -3    1    3    3    0  502 -0.10941681225E+04 -0.93034254977E+02 -0.16951384376E+04  0.20197409699E+04  0.10100000352E+00 0. -1.
</event>
<event>
 5   0  0.4079777E-07  0.5307815E+04  0.7818609E-02  0.7782702E-01
        2   -1    0    0  501    0  0.00000000000E+00  0.00000000000E+00  0.21286678956E+04  0.21286678956E+04  0.25500000920E-02 0.  1.
       -2   -1    0    0    0  501  0.00000000000E+00  0.00000000000E+00 -0.33087472849E+04  0.33087472849E+04  0.25500000920E-02 0. -1.
    10030    2    1    2    0    0  0.00000000000E+00  0.00000000000E+00 -0.11800793893E+04  0.54374151805E+04  0.53078146614E+04 0.  0.
        4    1    3    3  502    0  0.19441585801E+04  0.26991079846E+03  0.12398046864E+04  0.23215774157E+04  0.12699999809E+01 0.  1.
       -4    1    3    3    0  502 -0.19441585801E+04 -0.26991079846E+03 -0.24198840757E+04  0.31158377648E+04  0.12699999809E+01 0. -1.
</event>
<event>
 5   0  0.1351000E-07  0.3961588E+04  0.7818609E-02  0.8012340E-01
        1   -1    0    0  501    0  0.00000000000E+00  0.00000000000E+00  0.16641431632E+04  0.16641431632E+04  0.50400001928E-02 0. -1.
       -1   -1    0    0    0  501  0.00000000000E+00  0.00000000000E+00 -0.23576973003E+04  0.23576973003E+04  0.50400001928E-02 0.  1.
    10030    2    1    2    0    0  0.00000000000E+00  0.00000000000E+00 -0.69355413708E+03  0.40218404635E+04  0.39615884911E+04 0.  0.
        4    1    3    3  502    0 -0.14906552130E+04  0.26987601023E+03  0.94882148275E+03  0.17874982081E+04  0.12699999809E+01 0. -1.
       -4    1    3    3    0  502  0.14906552130E+04 -0.26987601023E+03 -0.16423756198E+04  0.22343422554E+04  0.12699999809E+01 0.  1.
</event>
<event>
 5   0  0.4149487E-07  0.2904456E+04  0.7818609E-02  0.8271553E-01
        2   -1    0    0  501    0  0.00000000000E+00  0.00000000000E+00  0.16132561186E+04  0.16132561186E+04  0.25500000920E-02 0. -1.
       -2   -1    0    0    0  501  0.00000000000E+00  0.00000000000E+00 -0.13072725977E+04  0.13072725977E+04  0.25500000920E-02 0.  1.
    10030    2    1    2    0    0  0.00000000000E+00  0.00000000000E+00  0.30598352085E+03  0.29205287163E+04  0.29044555544E+04 0.  0.
        2    1    3    3  502    0 -0.12271712582E+04  0.42061115913E+03 -0.50338587202E+03  0.13914957349E+04  0.25500000920E-02 0.  1.
       -2    1    3    3    0  502  0.12271712582E+04 -0.42061115913E+03  0.80936939287E+03  0.15290329814E+04  0.25500000920E-02 0. -1.
</event>
<event>
 5   0  0.1368865E-07  0.3813962E+04  0.7818609E-02  0.8043165E-01
        1   -1    0    0  501    0  0.00000000000E+00  0.00000000000E+00  0.25259929097E+04  0.25259929097E+04  0.50400001928E-02 0. -1.
       -1   -1    0    0    0  501  0.00000000000E+00  0.00000000000E+00 -0.14396619516E+04  0.14396619516E+04  0.50400001928E-02 0.  1.
    10030    2    1    2    0    0  0.00000000000E+00  0.00000000000E+00  0.10863309581E+04  0.39656548613E+04  0.38139616579E+04 0.  0.
        5    1    3    3  502    0 -0.39600997014E+03  0.15792581200E+04  0.15754636851E+04  0.22656098558E+04  0.46999998093E+01 0. -1.
       -5    1    3    3    0  502  0.39600997014E+03 -0.15792581200E+04 -0.48913272694E+03  0.17000450054E+04  0.46999998093E+01 0.  1.
</event>
<event>
 5   0  0.4077370E-07  0.4001329E+04  0.7818609E-02  0.8004278E-01
       -2   -1    0    0    0  501  0.00000000000E+00  0.00000000000E+00  0.18164918693E+04  0.18164918694E+04  0.25500000920E-02 0.  1.
        2   -1    0    0  501    0  0.00000000000E+00  0.00000000000E+00 -0.22035106823E+04  0.22035106823E+04  0.25500000920E-02 0. -1.
    10030    2    1    2    0    0  0.00000000000E+00  0.00000000000E+00 -0.38701881290E+03  0.40200025516E+04  0.40013293983E+04 0.  0.
        3    1    3    3  502    0  0.45235347398E+03  0.18348451595E+04  0.46635001892E+03  0.19464744476E+04  0.10100000352E+00 0. -1.
       -3    1    3    3    0  502 -0.45235347398E+03 -0.18348451595E+04 -0.85336883182E+03  0.20735281040E+04  0.10100000352E+00 0.  1.
</event>
<event>
 5   0  0.1421304E-07  0.2963412E+04  0.7818609E-02  0.8254257E-01
       -1   -1    0    0    0  501  0.00000000000E+00  0.00000000000E+00  0.10134145225E+04  0.10134145226E+04  0.50400001928E-02 0.  1.
        1   -1    0    0  501    0  0.00000000000E+00  0.00000000000E+00 -0.21663918221E+04  0.21663918221E+04  0.50400001928E-02 0. -1.
    10030    2    1    2    0    0  0.00000000000E+00  0.00000000000E+00 -0.11529772996E+04  0.31798063447E+04  0.29634121779E+04 0.  0.
        2    1    3    3  502    0 -0.40069509929E+03 -0.11488518291E+04  0.33085649060E+03  0.12609056686E+04  0.25500000920E-02 0.  1.
       -2    1    3    3    0  502  0.40069509929E+03  0.11488518291E+04 -0.14838337902E+04  0.19189006761E+04  0.25500000920E-02 0. -1.
</event>
<event>
 5   0  0.4149487E-07  0.4032765E+04  0.7818609E-02  0.7997969E-01
        2   -1    0    0  501    0  0.00000000000E+00  0.00000000000E+00  0.18462564884E+04  0.18462564884E+04  0.25500000920E-02 0. -1.
       -2   -1    0    0    0  501  0.00000000000E+00  0.00000000000E+00 -0.22021853917E+04  0.22021853917E+04  0.25500000920E-02 0.  1.
    10030    2    1    2    0    0  0.00000000000E+00  0.00000000000E+00 -0.35592890334E+03  0.40484418801E+04  0.40327653381E+04 0.  0.
        2    1    3    3  502    0  0.16127886472E+04 -0.80245428024E+02 -0.13902482554E+04  0.21308019057E+04  0.25500000920E-02 0.  1.
       -2    1    3    3    0  502 -0.16127886472E+04  0.80245428024E+02  0.10343193521E+04  0.19176399744E+04  0.25500000920E-02 0. -1.
</event>
<event>
 5   0  0.4301754E-07  0.4034300E+04  0.7818609E-02  0.7997663E-01
        2   -1    0    0  501    0  0.00000000000E+00  0.00000000000E+00  0.28562077548E+04  0.28562077548E+04  0.25500000920E-02 0.  1.
       -2   -1    0    0    0  501  0.00000000000E+00  0.00000000000E+00 -0.14245795324E+04  0.14245795324E+04  0.25500000920E-02 0. -1.
    10030    2    1    2    0    0  0.00000000000E+00  0.00000000000E+00  0.14316282225E+04  0.42807872872E+04  0.40343004884E+04 0.  0.
        1    1    3    3  502    0 -0.62494217205E+03  0.19166876081E+04  0.64344909290E+03  0.21161925339E+04  0.50400001928E-02 0. -1.
       -1    1    3    3    0  502  0.62494217205E+03 -0.19166876081E+04  0.78817912959E+03  0.21645947533E+04  0.50400001928E-02 0.  1.
</event>
<event>
 5   0  0.1351000E-07  0.4023140E+04  0.7818609E-02  0.7999895E-01
        1   -1    0    0  501    0  0.00000000000E+00  0.00000000000E+00  0.27617711712E+04  0.27617711712E+04  0.50400001928E-02 0. -1.
       -1   -1    0    0    0  501  0.00000000000E+00  0.00000000000E+00 -0.14651514838E+04  0.14651514838E+04  0.50400001928E-02 0.  1.
    10030    2    1    2    0    0  0.00000000000E+00  0.00000000000E+00  0.12966196874E+04  0.42269226550E+04  0.40231396344E+04 0.  0.
        3    1    3    3  502    0 -0.96630452432E+03  0.28501148732E+03  0.24776037103E+04  0.26746020521E+04  0.10100000352E+00 0. -1.
       -3    1    3    3    0  502  0.96630452432E+03 -0.28501148732E+03 -0.11809840229E+04  0.15523206029E+04  0.10100000352E+00 0.  1.
</event>
<event>
 5   0  0.1351000E-07  0.4424727E+04  0.7818609E-02  0.7923949E-01
       -1   -1    0    0    0  501  0.00000000000E+00  0.00000000000E+00  0.15257667443E+04  0.15257667443E+04  0.50400001928E-02 0.  1.
        1   -1    0    0  501    0  0.00000000000E+00  0.00000000000E+00 -0.32079288911E+04  0.32079288911E+04  0.50400001928E-02 0. -1.
    10030    2    1    2    0    0  0.00000000000E+00  0.00000000000E+00 -0.16821621468E+04  0.47336956353E+04  0.44247265316E+04 0.  0.
        4    1    3    3  502    0  0.96824807251E+03 -0.18399732058E+04 -0.16498764966E+04  0.26542606871E+04  0.12699999809E+01 0. -1.
       -4    1    3    3    0  502 -0.96824807251E+03  0.18399732058E+04 -0.32285650267E+02  0.20794349483E+04  0.12699999809E+01 0.  1.
</event>
<event>
 5   0  0.4149487E-07  0.3920885E+04  0.7818609E-02  0.8020700E-01
        2   -1    0    0  501    0  0.00000000000E+00  0.00000000000E+00  0.20044288667E+04  0.20044288667E+04  0.25500000920E-02 0. -1.
       -2   -1    0    0    0  501  0.00000000000E+00  0.00000000000E+00 -0.19174210215E+04  0.19174210215E+04  0.25500000920E-02 0.  1.
    10030    2    1    2    0    0  0.00000000000E+00  0.00000000000E+00  0.87007845190E+02  0.39218498882E+04  0.39208846171E+04 0.  0.
        2    1    3    3  502    0  0.10347260454E+03  0.19576256234E+04  0.61657327468E+02  0.19613276848E+04  0.25500000920E-02 0.  1.
       -2    1    3    3    0  502 -0.10347260454E+03 -0.19576256234E+04  0.25350517722E+02  0.19605222034E+04  0.25500000920E-02 0. -1.
</event>
<event>
 5   0  0.4079777E-07  0.3981527E+04  0.7818609E-02  0.8008284E-01
       -2   -1    0    0    0  501  0.00000000000E+00  0.00000000000E+00  0.16765837400E+04  0.16765837400E+04  0.25500000920E-02 0.  1.
        2   -1    0    0  501    0  0.00000000000E+00  0.00000000000E+00 -0.23638177569E+04  0.23638177569E+04  0.25500000920E-02 0. -1.
    10030    2    1    2    0    0  0.00000000000E+00  0.00000000000E+00 -0.68723401684E+03  0.40404014969E+04  0.39815265492E+04 0.  0.
        4    1    3    3  502    0  0.15705202812E+04 -0.37377564668E+03  0.83846597840E+03  0.18191396312E+04  0.12699999809E+01 0.  1.
       -4    1    3    3    0  502 -0.15705202812E+04  0.37377564668E+03 -0.15256999952E+04  0.22212618657E+04  0.12699999809E+01 0. -1.
</event>
<event>
 5   0  0.4077370E-07  0.4040023E+04  0.7818609E-02  0.7996521E-01
       -2   -1    0    0    0  501  0.00000000000E+00  0.00000000000E+00  0.20822145398E+04  0.20822145398E+04  0.25500000920E-02 0.  1.
        2   -1    0    0  501    0  0.00000000000E+00  0.00000000000E+00 -0.19596666322E+04  0.19596666322E+04  0.25500000920E-02 0. -1.
    10030    2    1    2    0    0  0.00000000000E+00  0.00000000000E+00  0.12254790760E+03  0.40418811721E+04  0.40400229479E+04 0.  0.
        3    1    3    3  502    0 -0.88867810165E+03 -0.52393241274E+03 -0.16762437181E+04  0.19682598797E+04  0.10100000352E+00 0. -1.
       -3    1    3    3    0  502  0.88867810165E+03  0.52393241274E+03  0.17987916257E+04  0.20736212924E+04  0.10100000352E+00 0.  1.
</event>
<event>
 5   0  0.4047916E-07  0.2507050E+04  0.7818609E-02  0.8400478E-01
       -2   -1    0    0    0  501  0.00000000000E+00  0.00000000000E+00  0.64648963506E+03  0.64648963507E+03  0.25500000920E-02 0. -1.
        2   -1    0    0  501    0  0.00000000000E+00  0.00000000000E+00 -0.24305496184E+04  0.24305496184E+04  0.25500000920E-02 0.  1.
    10030    2    1    2    0    0  0.00000000000E+00  0.00000000000E+00 -0.17840599834E+04  0.30770392535E+04  0.25070501677E+04 0.  0.
        5    1    3    3  502    0  0.10476334418E+04  0.15684315834E+03 -0.69457567971E+02  0.10615941072E+04  0.46999998093E+01 0. -1.
       -5    1    3    3    0  502 -0.10476334418E+04 -0.15684315834E+03 -0.17146024154E+04  0.20154451463E+04  0.46999998093E+01 0.  1.
</event>
<event>
 5   0  0.1351000E-07  0.3968632E+04  0.7818609E-02  0.8010904E-01
       -1   -1    0    0    0  501  0.00000000000E+00  0.00000000000E+00  0.17466458327E+04  0.17466458327E+04  0.50400001928E-02 0.  1.
        1   -1    0    0  501    0  0.00000000000E+00  0.00000000000E+00 -0.22543267335E+04  0.22543267335E+04  0.50400001928E-02 0. -1.
    10030    2    1    2    0    0  0.00000000000E+00  0.00000000000E+00 -0.50768090078E+03  0.40009725663E+04  0.39686322050E+04 0.  0.
        4    1    3    3  502    0 -0.17228980369E+04  0.85308492392E+03 -0.74914565072E+03  0.20633352495E+04  0.12699999809E+01 0. -1.
       -4    1    3    3    0  502  0.17228980369E+04 -0.85308492392E+03  0.24146474994E+03  0.19376373168E+04  0.12699999809E+01 0.  1.
</event>
<event>
 5   0  0.1368865E-07  0.3997617E+04  0.7818609E-02  0.8005027E-01
        1   -1    0    0  501    0  0.00000000000E+00  0.00000000000E+00  0.22523752864E+04  0.22523752864E+04  0.50400001928E-02 0.  1.
       -1   -1    0    0    0  501  0.00000000000E+00  0.00000000000E+00 -0.17737877217E+04  0.17737877217E+04  0.50400001928E-02 0. -1.
    10030    2    1    2    0    0  0.00000000000E+00  0.00000000000E+00  0.47858756465E+03  0.40261630081E+04  0.39976171040E+04 0.  0.
        5    1    3    3  502    0  0.37327126763E+03 -0.67039122906E+03  0.20981322859E+04  0.22340405141E+04  0.46999998093E+01 0.  1.
       -5    1    3    3    0  502 -0.37327126763E+03  0.67039122906E+03 -0.16195447213E+04  0.17921224940E+04  0.46999998093E+01 0. -1.
</event>
<event>
 5   0  0.1372952E-07  0.3685077E+04  0.7818609E-02  0.8071277E-01
       -1   -1    0    0    0  501  0.00000000000E+00  0.00000000000E+00  0.14757765446E+04  0.14757765447E+04  0.50400001928E-02 0. -1.
        1   -1    0    0  501    0  0.00000000000E+00  0.00000000000E+00 -0.23004490437E+04  0.23004490437E+04  0.50400001928E-02 0.  1.
    10030    2    1    2    0    0  0.00000000000E+00  0.00000000000E+00 -0.82467249905E+03  0.37762255884E+04  0.36850773348E+04 0.  0.
        1    1    3    3  502    0 -0.85430195337E+03 -0.13846907017E+04 -0.12984492762E+04  0.20816269334E+04  0.50400001928E-02 0.  1.
       -1    1    3    3    0  502  0.85430195337E+03  0.13846907017E+04  0.47377677714E+03  0.16945986550E+04  0.50400001928E-02 0. -1.
</event>
<event>
 5   0  0.4079777E-07  0.4037971E+04  0.7818609E-02  0.7996930E-01
        2   -1    0    0  501    0  0.00000000000E+00  0.00000000000E+00  0.19940232408E+04  0.19940232408E+04  0.25500000920E-02 0. -1.
       -2   -1    0    0    0  501  0.00000000000E+00  0.00000000000E+00 -0.20442599988E+04  0.20442599988E+04  0.25500000920E-02 0.  1.
    10030    2    1    2    0    0  0.00000000000E+00  0.00000000000E+00 -0.50236758011E+02  0.40382832396E+04  0.40379707517E+04 0.  0.
        4    1    3    3  502    0  0.16330450399E+04 -0.83678004111E+03  0.81712456438E+03  0.20086640103E+04  0.12699999809E+01 0. -1.
       -4    1    3    3    0  502 -0.16330450399E+04  0.83678004111E+03 -0.86736132239E+03  0.20296192293E+04  0.12699999809E+01 0.  1.
</event>
<event>
 5   0  0.4079777E-07  0.3984928E+04  0.7818609E-02  0.8007594E-01
       -2   -1    0    0    0  501  0.00000000000E+00  0.00000000000E+00  0.23577126416E+04  0.23577126416E+04  0.25500000920E-02 0. -1.
        2   -1    0    0  501    0  0.00000000000E+00  0.00000000000E+00 -0.16837985860E+04  0.16837985860E+04  0.25500000920E-02 0.  1.
    10030    2    1    2    0    0  0.00000000000E+00  0.00000000000E+00  0.67391405562E+03  0.40415112275E+04  0.39849282111E+04 0.  0.
        4    1    3    3  502    0  0.86445417937E+03  0.49114970683E+03  0.20881483480E+04  0.23127633253E+04  0.12699999809E+01 0. -1.
       -4    1    3    3    0  502 -0.86445417937E+03 -0.49114970683E+03 -0.14142342924E+04  0.17287479022E+04  0.12699999809E+01 0.  1.
</event>
<event>
 5   0  0.1351000E-07  0.3834987E+04  0.7818609E-02  0.8038688E-01
       -3   -1    0    0    0  501  0.00000000000E+00  0.00000000000E+00  0.11055540618E+04  0.11055540664E+04  0.10100000352E+00 0.  1.
        3   -1    0    0  501    0  0.00000000000E+00  0.00000000000E+00 -0.33257363444E+04  0.33257363460E+04  0.10100000352E+00 0. -1.
    10030    2    1    2    0    0  0.00000000000E+00  0.00000000000E+00 -0.22201822827E+04  0.44312904123E+04  0.38349870078E+04 0.  0.
        4    1    3    3  502    0  0.18477525210E+04  0.30055965017E+02 -0.17011862665E+04  0.25117979748E+04  0.12699999809E+01 0.  1.
       -4    1    3    3    0  502 -0.18477525210E+04 -0.30055965017E+02 -0.51899601621E+03  0.19194924375E+04  0.12699999809E+01 0. -1.
</event>
<event>
 5   0  0.4149487E-07  0.4134119E+04  0.7818609E-02  0.7978024E-01
        2   -1    0    0  501    0  0.00000000000E+00  0.00000000000E+00  0.27223368323E+04  0.27223368323E+04  0.25500000920E-02 0.  1.
       -2   -1    0    0    0  501  0.00000000000E+00  0.00000000000E+00 -0.15695098917E+04  0.15695098917E+04  0.25500000920E-02 0. -1.
    10030    2    1    2    0    0  0.00000000000E+00  0.00000000000E+00  0.11528269406E+04  0.42918467239E+04  0.41341188114E+04 0.  0.
        2    1    3    3  502    0 -0.90354813400E+03  0.18192039248E+04  0.17860662508E+03  0.20390690221E+04  0.25500000920E-02 0. -1.
       -2    1    3    3    0  502  0.90354813400E+03 -0.18192039248E+04  0.97422031553E+03  0.22527777018E+04  0.25500000920E-02 0.  1.
</event>
<event>
 5   0  0.1421304E-07  0.4008648E+04  0.7818609E-02  0.8002804E-01
        1   -1    0    0  501    0  0.00000000000E+00  0.00000000000E+00  0.20818366458E+04  0.20818366458E+04  0.50400001928E-02 0.  1.
       -1   -1    0    0    0  501  0.00000000000E+00  0.00000000000E+00 -0.19296977692E+04  0.19296977693E+04  0.50400001928E-02 0. -1.
    10030    2    1    2    0    0  0.00000000000E+00  0.00000000000E+00  0.15213887659E+03  0.40115344151E+04  0.40086484163E+04 0.  0.
        2    1    3    3  502    0  0.95069207676E+03 -0.14863754328E+04 -0.87550324740E+03  0.19696784733E+04  0.25500000920E-02 0. -1.
       -2    1    3    3    0  502 -0.95069207676E+03  0.14863754328E+04  0.10276421240E+04  0.20418559418E+04  0.25500000920E-02 0.  1.
</event>
<event>
 5   0  0.1351000E-07  0.2763926E+04  0.7818609E-02  0.8314556E-01
       -1   -1    0    0    0  501  0.00000000000E+00  0.00000000000E+00  0.95809320692E+03  0.95809320693E+03  0.50400001928E-02 0.  1.
        1   -1    0    0  501    0  0.00000000000E+00  0.00000000000E+00 -0.19933573177E+04  0.19933573177E+04  0.50400001928E-02 0. -1.
    10030    2    1    2    0    0  0.00000000000E+00  0.00000000000E+00 -0.10352641108E+04  0.29514505247E+04  0.27639262690E+04 0.  0.
        3    1    3    3  502    0 -0.12246349595E+04 -0.38000176107E+02  0.16499479927E+03  0.12362839850E+04  0.10100000352E+00 0.  1.
       -3    1    3    3    0  502  0.12246349595E+04  0.38000176107E+02 -0.12002589101E+04  0.17151665397E+04  0.10100000352E+00 0. -1.
</event>
<event>
 5   0  0.4077370E-07  0.4016323E+04  0.7818609E-02  0.8001262E-01
        2   -1    0    0  501    0  0.00000000000E+00  0.00000000000E+00  0.19173742586E+04  0.19173742586E+04  0.25500000920E-02 0.  1.
       -2   -1    0    0    0  501  0.00000000000E+00  0.00000000000E+00 -0.21032479520E+04  0.21032479520E+04  0.25500000920E-02 0. -1.
    10030    2    1    2    0    0  0.00000000000E+00  0.00000000000E+00 -0.18587369338E+03  0.40206222107E+04  0.40163234346E+04 0.  0.
        3    1    3    3  502    0  0.93027085588E+02 -0.20051836572E+04 -0.15042596170E+03  0.20129688318E+04  0.10100000352E+00 0. -1.
       -3    1    3    3    0  502 -0.93027085588E+02  0.20051836572E+04 -0.35447731673E+02  0.20076533788E+04  0.10100000352E+00 0.  1.
</event>
<event>
 5   0  0.4301754E-07  0.2612275E+04  0.7818609E-02  0.8364044E-01
        2   -1    0    0  501    0  0.00000000000E+00  0.00000000000E+00  0.11227715744E+04  0.11227715744E+04  0.25500000920E-02 0. -1.
       -2   -1    0    0    0  501  0.00000000000E+00  0.00000000000E+00 -0.15194501169E+04  0.15194501169E+04  0.25500000920E-02 0.  1.
    10030    2    1    2    0    0  0.00000000000E+00  0.00000000000E+00 -0.39667854244E+03  0.26422216913E+04  0.26122751769E+04 0.  0.
        1    1    3    3  502    0 -0.12238064179E+03 -0.12233919182E+03  0.11111260747E+04  0.11245199212E+04  0.50400001928E-02 0. -1.
       -1    1    3    3    0  502  0.12238064179E+03  0.12233919182E+03 -0.15078046172E+04  0.15177017701E+04  0.50400001928E-02 0.  1.
</event>
<event>
 5   0  0.1351000E-07  0.4001828E+04  0.7818609E-02  0.8004178E-01
       -1   -1    0    0    0  501  0.00000000000E+00  0.00000000000E+00  0.23206572000E+04  0.23206572000E+04  0.50400001928E-02 0.  1.
        1   -1    0    0  501    0  0.00000000000E+00  0.00000000000E+00 -0.17252255684E+04  0.17252255684E+04  0.50400001928E-02 0. -1.
    10030    2    1    2    0    0  0.00000000000E+00  0.00000000000E+00  0.59543163164E+03  0.40458827684E+04  0.40018281507E+04 0.  0.
        4    1    3    3  502    0  0.70204522448E+03 -0.60253296136E+03  0.20914348973E+04  0.22869226067E+04  0.12699999809E+01 0.  1.
       -4    1    3    3    0  502 -0.70204522448E+03  0.60253296136E+03 -0.14960032656E+04  0.17589601617E+04  0.12699999809E+01 0. -1.
</event>
<event>
 5   0  0.1351000E-07  0.3685021E+04  0.7818609E-02  0.8071289E-01
        1   -1    0    0  501    0  0.00000000000E+00  0.00000000000E+00  0.12006577664E+04  0.12006577664E+04  0.50400001928E-02 0. -1.
       -1   -1    0    0    0  501  0.00000000000E+00  0.00000000000E+00 -0.28274876927E+04  0.28274876927E+04  0.50400001928E-02 0.  1.
    10030    2    1    2    0    0  0.00000000000E+00  0.00000000000E+00 -0.16268299263E+04  0.40281454592E+04  0.36850210625E+04 0.  0.
        4    1    3    3  502    0 -0.12747050125E+03 -0.16307023062E+04 -0.17405688156E+04  0.23885184016E+04  0.12699999809E+01 0.  1.
       -4    1    3    3    0  502  0.12747050125E+03  0.16307023062E+04  0.11373888932E+03  0.16396270576E+04  0.12699999809E+01 0. -1.
</event>
<event>
 5   0  0.1368865E-07  0.4022003E+04  0.7818609E-02  0.8000122E-01
        1   -1    0    0  501    0  0.00000000000E+00  0.00000000000E+00  0.21945779744E+04  0.21945779744E+04  0.50400001928E-02 0.  1.
       -1   -1    0    0    0  501  0.00000000000E+00  0.00000000000E+00 -0.18427815737E+04  0.18427815738E+04  0.50400001928E-02 0. -1.
    10030    2    1    2    0    0  0.00000000000E+00  0.00000000000E+00  0.35179640065E+03  0.40373595482E+04  0.40220034080E+04 0.  0.
        5    1    3    3  502    0  0.38172671728E+03  0.14045225369E+04 -0.12170985030E+04  0.18973006349E+04  0.46999998093E+01 0.  1.
       -5    1    3    3    0  502 -0.38172671728E+03 -0.14045225369E+04  0.15688949036E+04  0.21400589132E+04  0.46999998093E+01 0. -1.
</event>
<event>
 5   0  0.4079777E-07  0.3737773E+04  0.7818609E-02  0.8059642E-01
        2   -1    0    0  501    0  0.00000000000E+00  0.00000000000E+00  0.22264856079E+04  0.22264856079E+04  0.25500000920E-02 0. -1.
       -2   -1    0    0    0  501  0.00000000000E+00  0.00000000000E+00 -0.15687221300E+04  0.15687221300E+04  0.25500000920E-02 0.  1.
    10030    2    1    2    0    0  0.00000000000E+00  0.00000000000E+00  0.65776347793E+03  0.37952077380E+04  0.37377732651E+04 0.  0.
        4    1    3    3  502    0 -0.16580025831E+04 -0.58026095514E+03  0.97669818433E+03  0.20098796725E+04  0.12699999809E+01 0.  1.
       -4    1    3    3    0  502  0.16580025831E+04  0.58026095514E+03 -0.31893470640E+03  0.17853280655E+04  0.12699999809E+01 0. -1.
</event>
<event>
 5   0  0.1368865E-07  0.2721118E+04  0.7818609E-02  0.8328185E-01
        1   -1    0    0  501    0  0.00000000000E+00  0.00000000000E+00  0.16998351637E+04  0.16998351637E+04  0.50400001928E-02 0.  1.
       -1   -1    0    0    0  501  0.00000000000E+00  0.00000000000E+00 -0.10890002453E+04  0.10890002453E+04  0.50400001928E-02 0. -1.
    10030    2    1    2    0    0  0.00000000000E+00  0.00000000000E+00  0.61083491842E+03  0.27888354090E+04  0.27211180865E+04 0.  0.
        5    1    3    3  502    0  0.17678616112E+02 -0.86267210000E+03 -0.77270357285E+03  0.11582782857E+04  0.46999998093E+01 0. -1.
       -5    1    3    3    0  502 -0.17678616112E+02  0.86267210000E+03  0.13835384913E+04  0.16305571233E+04  0.46999998093E+01 0.  1.
</event>
<event>
 5   0  0.4077370E-07  0.3942770E+04  0.7818609E-02  0.8016192E-01
       -2   -1    0    0    0  501  0.00000000000E+00  0.00000000000E+00  0.14978674297E+04  0.14978674297E+04  0.25500000920E-02 0.  1.
        2   -1    0    0  501    0  0.00000000000E+00  0.00000000000E+00 -0.25945945507E+04  0.25945945507E+04  0.25500000920E-02 0. -1.
    10030    2    1    2    0    0  0.00000000000E+00  0.00000000000E+00 -0.10967271210E+04  0.40924619804E+04  0.39427699252E+04 0.  0.
        3    1    3    3  502    0 -0.30088359116E+03  0.17059963901E+04 -0.15250473249E+04  0.23079696644E+04  0.10100000352E+00 0. -1.
       -3    1    3    3    0  502  0.30088359116E+03 -0.17059963901E+04  0.42832020394E+03  0.17844923160E+04  0.10100000352E+00 0.  1.
</event>
<event>
 5   0  0.4077370E-07  0.4004872E+04  0.7818609E-02  0.8003564E-01
        2   -1    0    0  501    0  0.00000000000E+00  0.00000000000E+00  0.17389222381E+04  0.17389222381E+04  0.25500000920E-02 0. -1.
       -2   -1    0    0    0  501  0.00000000000E+00  0.00000000000E+00 -0.23058820990E+04  0.23058820990E+04  0.25500000920E-02 0.  1.
    10030    2    1    2    0    0  0.00000000000E+00  0.00000000000E+00 -0.56695986087E+03  0.40448043371E+04  0.40048718634E+04 0.  0.
        3    1    3    3  502    0 -0.13278293100E+04  0.37760674421E+03  0.11815114701E+04  0.18170544555E+04  0.10100000352E+00 0. -1.
       -3    1    3    3    0  502  0.13278293100E+04 -0.37760674421E+03 -0.17484713310E+04  0.22277498817E+04  0.10100000352E+00 0.  1.
</event>
<event>
 5   0  0.1351000E-07  0.4144878E+04  0.7818609E-02  0.7975941E-01
       -3   -1    0    0    0  501  0.00000000000E+00  0.00000000000E+00  0.24265412609E+04  0.24265412631E+04  0.10100000352E+00 0. -1.
        3   -1    0    0  501    0  0.00000000000E+00  0.00000000000E+00 -0.17700100561E+04  0.17700100590E+04  0.10100000352E+00 0.  1.
    10030    2    1    2    0    0  0.00000000000E+00  0.00000000000E+00  0.65653120480E+03  0.41965513221E+04  0.41448775345E+04 0.  0.
        5    1    3    3  502    0  0.13970969289E+04  0.61544212901E+02  0.18768147278E+04  0.23405390685E+04  0.46999998093E+01 0. -1.
       -5    1    3    3    0  502 -0.13970969289E+04 -0.61544212901E+02 -0.12202835230E+04  0.18560122536E+04  0.46999998093E+01 0.  1.
</event>
<event>
 5   0  0.1368865E-07  0.4042336E+04  0.7818609E-02  0.7996060E-01
        1   -1    0    0  501    0  0.00000000000E+00  0.00000000000E+00  0.24649908646E+04  0.24649908646E+04  0.50400001928E-02 0.  1.
       -1   -1    0    0    0  501  0.00000000000E+00  0.00000000000E+00 -0.16572554919E+04  0.16572554919E+04  0.50400001928E-02 0. -1.
    10030    2    1    2    0    0  0.00000000000E+00  0.00000000000E+00  0.80773537268E+03  0.41222463565E+04  0.40423357841E+04 0.  0.
        5    1    3    3  502    0  0.19027004156E+04 -0.51369901581E+03 -0.53259367878E+02  0.19715512168E+04  0.46999998093E+01 0.  1.
       -5    1    3    3    0  502 -0.19027004156E+04  0.51369901581E+03  0.86099474056E+03  0.21506951396E+04  0.46999998093E+01 0. -1.
</event>
<event>
 5   0  0.4077370E-07  0.3457536E+04  0.7818609E-02  0.8123928E-01
        2   -1    0    0  501    0  0.00000000000E+00  0.00000000000E+00  0.17020633740E+04  0.17020633740E+04  0.25500000920E-02 0.  1.
       -2   -1    0    0    0  501  0.00000000000E+00  0.00000000000E+00 -0.17558917931E+04  0.17558917931E+04  0.25500000920E-02 0. -1.
    10030    2    1    2    0    0  0.00000000000E+00  0.00000000000E+00 -0.53828419104E+02  0.34579551671E+04  0.34575361805E+04 0.  0.
        3    1    3    3  502    0 -0.15803546523E+04  0.54016973481E+03  0.41960929965E+03  0.17220267547E+04  0.10100000352E+00 0.  1.
       -3    1    3    3    0  502  0.15803546523E+04 -0.54016973481E+03 -0.47343771875E+03  0.17359284124E+04  0.10100000352E+00 0. -1.
</event>
<event>
 5   0  0.4149487E-07  0.3176507E+04  0.7818609E-02  0.8195049E-01
        2   -1    0    0  501    0  0.00000000000E+00  0.00000000000E+00  0.10063015150E+04  0.10063015150E+04  0.25500000920E-02 0. -1.
       -2   -1    0    0    0  501  0.00000000000E+00  0.00000000000E+00 -0.25067532679E+04  0.25067532679E+04  0.25500000920E-02 0.  1.
    10030    2    1    2    0    0  0.00000000000E+00  0.00000000000E+00 -0.15004517529E+04  0.35130547829E+04  0.31765072714E+04 0.  0.
        2    1    3    3  502    0 -0.12089228231E+03 -0.82442506970E+03 -0.22456135841E+04  0.23952185722E+04  0.25500000920E-02 0.  1.
       -2    1    3    3    0  502  0.12089228231E+03  0.82442506970E+03  0.74516183114E+03  0.11178362108E+04  0.25500000920E-02 0. -1.
</event>
<event>
 5   0  0.4301754E-07  0.4056790E+04  0.7818609E-02  0.7993187E-01
        2   -1    0    0  501    0  0.00000000000E+00  0.00000000000E+00  0.14875876273E+04  0.14875876273E+04  0.25500000920E-02 0.  1.
       -2   -1    0    0    0  501  0.00000000000E+00  0.00000000000E+00 -0.27658112556E+04  0.27658112556E+04  0.25500000920E-02 0. -1.
    10030    2    1    2    0    0  0.00000000000E+00  0.00000000000E+00 -0.12782236283E+04  0.42533988830E+04  0.40567901614E+04 0.  0.
        1    1    3    3  502    0  0.15764321562E+04 -0.11275533158E+04 -0.12663280550E+04  0.23151893154E+04  0.50400001928E-02 0. -1.
       -1    1    3    3    0  502 -0.15764321562E+04  0.11275533158E+04 -0.11895573273E+02  0.19382095676E+04  0.50400001928E-02 0.  1.
</event>
<event>
 5   0  0.1372952E-07  0.4006368E+04  0.7818609E-02  0.8003263E-01
       -1   -1    0    0    0  501  0.00000000000E+00  0.00000000000E+00  0.18340892206E+04  0.18340892206E+04  0.50400001928E-02 0. -1.
        1   -1    0    0  501    0  0.00000000000E+00  0.00000000000E+00 -0.21878687061E+04  0.21878687061E+04  0.50400001928E-02 0.  1.
    10030    2    1    2    0    0  0.00000000000E+00  0.00000000000E+00 -0.35377948547E+03  0.40219579267E+04  0.40063681359E+04 0.  0.
        1    1    3    3  502    0  0.14718881240E+04  0.11216654389E+04 -0.94678886290E+03  0.20787008341E+04  0.50400001928E-02 0.  1.
       -1    1    3    3    0  502 -0.14718881240E+04 -0.11216654389E+04  0.59300937743E+03  0.19432570927E+04  0.50400001928E-02 0. -1.
</event>
<event>
 5   0  0.4079777E-07  0.3982818E+04  0.7818609E-02  0.8008022E-01
       -2   -1    0    0    0  501  0.00000000000E+00  0.00000000000E+00  0.13807740679E+04  0.13807740679E+04  0.25500000920E-02 0.  1.
        2   -1    0    0  501    0  0.00000000000E+00  0.00000000000E+00 -0.28720913299E+04  0.28720913299E+04  0.25500000920E-02 0. -1.
    10030    2    1    2    0    0  0.00000000000E+00  0.00000000000E+00 -0.14913172620E+04  0.42528653977E+04  0.39828177105E+04 0.  0.
        4    1    3    3  502    0  0.11763705672E+04  0.10567468869E+04  0.54684463215E+03  0.16732012308E+04  0.12699999809E+01 0. -1.
       -4    1    3    3    0  502 -0.11763705672E+04 -0.10567468869E+04 -0.20381618942E+04  0.25796641669E+04  0.12699999809E+01 0.  1.
</event>
<event>
 5   0  0.4079777E-07  0.3815406E+04  0.7818609E-02  0.8042857E-01
       -2   -1    0    0    0  501  0.00000000000E+00  0.00000000000E+00  0.14258197857E+04  0.14258197857E+04  0.25500000920E-02 0. -1.
        2   -1    0    0  501    0  0.00000000000E+00  0.00000000000E+00 -0.25524475507E+04  0.25524475507E+04  0.25500000920E-02 0.  1.
    10030    2    1    2    0    0  0.00000000000E+00  0.00000000000E+00 -0.11266277651E+04  0.39782673364E+04  0.38154057293E+04 0.  0.
        4    1    3    3  502    0 -0.12825014298E+04  0.13602128155E+04 -0.95945166424E+03  0.21013181410E+04  0.12699999809E+01 0.  1.
       -4    1    3    3    0  502  0.12825014298E+04 -0.13602128155E+04 -0.16717610082E+03  0.18769491954E+04  0.12699999809E+01 0. -1.
</event>
<event>
 5   0  0.4077370E-07  0.3849377E+04  0.7818609E-02  0.8035641E-01
        2   -1    0    0  501    0  0.00000000000E+00  0.00000000000E+00  0.25579433423E+04  0.25579433423E+04  0.25500000920E-02 0.  1.
       -2   -1    0    0    0  501  0.00000000000E+00  0.00000000000E+00 -0.14482045244E+04  0.14482045244E+04  0.25500000920E-02 0. -1.
    10030    2    1    2    0    0  0.00000000000E+00  0.00000000000E+00  0.11097388179E+04  0.40061478667E+04  0.38493766361E+04 0.  0.
        3    1    3    3  502    0  0.68019201802E+03 -0.17839675196E+04  0.30159881246E+03  0.19329157111E+04  0.10100000352E+00 0. -1.
       -3    1    3    3    0  502 -0.68019201802E+03  0.17839675196E+04  0.80814000542E+03  0.20732321556E+04  0.10100000352E+00 0.  1.
</event>
<event>
 5   0  0.1351000E-07  0.3968563E+04  0.7818609E-02  0.8010919E-01
        1   -1    0    0  501    0  0.00000000000E+00  0.00000000000E+00  0.24697671929E+04  0.24697671929E+04  0.50400001928E-02 0. -1.
       -1   -1    0    0    0  501  0.00000000000E+00  0.00000000000E+00 -0.15942282576E+04  0.15942282576E+04  0.50400001928E-02 0.  1.
    10030    2    1    2    0    0  0.00000000000E+00  0.00000000000E+00  0.87553893528E+03  0.40639954504E+04  0.39685627870E+04 0.  0.
        4    1    3    3  502    0  0.54758574587E+03 -0.65879735826E+03 -0.13951052940E+04  0.16371269049E+04  0.12699999809E+01 0.  1.
       -4    1    3    3    0  502 -0.54758574587E+03  0.65879735826E+03  0.22706442293E+04  0.24268685456E+04  0.12699999809E+01 0. -1.
</event>
<event>
 5   0  0.1421304E-07  0.4102559E+04  0.7818609E-02  0.7984171E-01
       -1   -1    0    0    0  501  0.00000000000E+00  0.00000000000E+00  0.15372345715E+04  0.15372345715E+04  0.50400001928E-02 0.  1.
        1   -1    0    0  501    0  0.00000000000E+00  0.00000000000E+00 -0.27372188746E+04  0.27372188746E+04  0.50400001928E-02 0. -1.
    10030    2    1    2    0    0  0.00000000000E+00  0.00000000000E+00 -0.11999843030E+04  0.42744534461E+04  0.41025589496E+04 0.  0.
        2    1    3    3  502    0 -0.17784362079E+04 -0.45706932492E+03 -0.15526322117E+04  0.24046651530E+04  0.25500000920E-02 0. -1.
       -2    1    3    3    0  502  0.17784362079E+04  0.45706932492E+03  0.35264790870E+03  0.18697882931E+04  0.25500000920E-02 0.  1.
</event>
<event>
 5   0  0.4077370E-07  0.3915357E+04  0.7818609E-02  0.8021843E-01
       -2   -1    0    0    0  501  0.00000000000E+00  0.00000000000E+00  0.12572672428E+04  0.12572672428E+04  0.25500000920E-02 0.  1.
        2   -1    0    0  501    0  0.00000000000E+00  0.00000000000E+00 -0.30482826059E+04  0.30482826059E+04  0.25500000920E-02 0. -1.
    10030    2    1    2    0    0  0.00000000000E+00  0.00000000000E+00 -0.17910153631E+04  0.43055498487E+04  0.39153573871E+04 0.  0.
        3    1    3    3  502    0 -0.28369531790E+02  0.52415214863E+03  0.11784363947E+04  0.12900591660E+04  0.10100000352E+00 0.  1.
       -3    1    3    3    0  502  0.28369531790E+02 -0.52415214863E+03 -0.29694517578E+04  0.30154906827E+04  0.10100000352E+00 0. -1.
</event>
<event>
 5   0  0.4079777E-07  0.2685303E+04  0.7818609E-02  0.8339789E-01
       -2   -1    0    0    0  501  0.00000000000E+00  0.00000000000E+00  0.82904261610E+03  0.82904261610E+03  0.25500000920E-02 0.  1.
        2   -1    0    0  501    0  0.00000000000E+00  0.00000000000E+00 -0.21744518778E+04  0.21744518778E+04  0.25500000920E-02 0. -1.
    10030    2    1    2    0    0  0.00000000000E+00  0.00000000000E+00 -0.13454092617E+04  0.30034944939E+04  0.26853031660E+04 0.  0.
        4    1    3    3  502    0  0.19074366502E+03  0.35851446834E+03  0.75870325273E+03  0.86055099114E+03  0.12699999809E+01 0.  1.
       -4    1    3    3    0  502 -0.19074366502E+03 -0.35851446834E+03 -0.21041125144E+04  0.21429435027E+04  0.12699999809E+01 0. -1.
</event>
<event>
 5   0  0.4079777E-07  0.2806116E+04  0.7818609E-02  0.8301372E-01
        2   -1    0    0  501    0  0.00000000000E+00  0.00000000000E+00  0.20958741436E+04  0.20958741436E+04  0.25500000920E-02 0. -1.
       -2   -1    0    0    0  501  0.00000000000E+00  0.00000000000E+00 -0.93926033340E+03  0.93926033340E+03  0.25500000920E-02 0.  1.
    10030    2    1    2    0    0  0.00000000000E+00  0.00000000000E+00  0.11566138102E+04  0.30351344770E+04  0.28061157830E+04 0.  0.
        4    1    3    3  502    0  0.28945563296E+02  0.13724965127E+04  0.26485275885E+03  0.13981177060E+04  0.12699999809E+01 0.  1.
       -4    1    3    3    0  502 -0.28945563296E+02 -0.13724965127E+04  0.89176105136E+03  0.16370167710E+04  0.12699999809E+01 0. -1.
</event>
<event>
 5   0  0.1351000E-07  0.2979073E+04  0.7818609E-02  0.8249732E-01
        1   -1    0    0  501    0  0.00000000000E+00  0.00000000000E+00  0.64134518989E+03  0.64134518991E+03  0.50400001928E-02 0.  1.
       -1   -1    0    0    0  501  0.00000000000E+00  0.00000000000E+00 -0.34594779301E+04  0.34594779301E+04  0.50400001928E-02 0. -1.
    10030    2    1    2    0    0  0.00000000000E+00  0.00000000000E+00 -0.28181327402E+04  0.41008231200E+04  0.29790733660E+04 0.  0.
        3    1    3    3  502    0  0.46962668842E+03  0.11748056262E+04 -0.32692303043E+03  0.13067502301E+04  0.10100000352E+00 0.  1.
       -3    1    3    3    0  502 -0.46962668842E+03 -0.11748056262E+04 -0.24912097097E+04  0.27940728899E+04  0.10100000352E+00 0. -1.
</event>
<event>
 5   0  0.1372952E-07  0.3985014E+04  0.7818609E-02  0.8007576E-01
        1   -1    0    0  501    0  0.00000000000E+00  0.00000000000E+00  0.25313632975E+04  0.25313632975E+04  0.50400001928E-02 0. -1.
       -1   -1    0    0    0  501  0.00000000000E+00  0.00000000000E+00 -0.15683584197E+04  0.15683584197E+04  0.50400001928E-02 0.  1.
    10030    2    1    2    0    0  0.00000000000E+00  0.00000000000E+00  0.96300487781E+03  0.40997217172E+04  0.39850143995E+04 0.  0.
        1    1    3    3  502    0 -0.17809549722E+04  0.27566321147E+03 -0.39283992955E+03  0.18444820491E+04  0.50400001928E-02 0.  1.
       -1    1    3    3    0  502  0.17809549722E+04 -0.27566321147E+03  0.13558448074E+04  0.22552396681E+04  0.50400001928E-02 0. -1.
</event>
<event>
 5   0  0.1421304E-07  0.4189389E+04  0.7818609E-02  0.7967394E-01
        1   -1    0    0  501    0  0.00000000000E+00  0.00000000000E+00  0.15823654596E+04  0.15823654596E+04  0.50400001928E-02 0.  1.
       -1   -1    0    0    0  501  0.00000000000E+00  0.00000000000E+00 -0.27729025295E+04  0.27729025295E+04  0.50400001928E-02 0. -1.
    10030    2    1    2    0    0  0.00000000000E+00  0.00000000000E+00 -0.11905370699E+04  0.43552679891E+04  0.41893890654E+04 0.  0.
        2    1    3    3  502    0 -0.52244354204E+03  0.17223224774E+04  0.51879866530E+03  0.18730974416E+04  0.25500000920E-02 0.  1.
       -2    1    3    3    0  502  0.52244354204E+03 -0.17223224774E+04 -0.17093357352E+04  0.24821705474E+04  0.25500000920E-02 0. -1.
</event>
<event>
 5   0  0.4301754E-07  0.4051926E+04  0.7818609E-02  0.7994153E-01
       -2   -1    0    0    0  501  0.00000000000E+00  0.00000000000E+00  0.24832702908E+04  0.24832702908E+04  0.25500000920E-02 0.  1.
        2   -1    0    0  501    0  0.00000000000E+00  0.00000000000E+00 -0.16528714141E+04  0.16528714141E+04  0.25500000920E-02 0. -1.
    10030    2    1    2    0    0  0.00000000000E+00  0.00000000000E+00  0.83039887670E+03  0.41361417049E+04  0.40519261973E+04 0.  0.
        1    1    3    3  502    0 -0.67875909643E+03 -0.11244005898E+04  0.19898348420E+04  0.23842049609E+04  0.50400001928E-02 0.  1.
       -1    1    3    3    0  502  0.67875909643E+03  0.11244005898E+04 -0.11594359653E+04  0.17519367440E+04  0.50400001928E-02 0. -1.
</event>
<event>
 5   0  0.4079777E-07  0.4071471E+04  0.7818609E-02  0.7990282E-01
        2   -1    0    0  501    0  0.00000000000E+00  0.00000000000E+00  0.25906956258E+04  0.25906956258E+04  0.25500000920E-02 0.  1.
       -2   -1    0    0    0  501  0.00000000000E+00  0.00000000000E+00 -0.15996548203E+04  0.15996548203E+04  0.25500000920E-02 0. -1.
    10030    2    1    2    0    0  0.00000000000E+00  0.00000000000E+00  0.99104080542E+03  0.41903504461E+04  0.40714708624E+04 0.  0.
        4    1    3    3  502    0  0.19346630762E+04  0.60999802645E+03  0.67138481429E+03  0.21367681185E+04  0.12699999809E+01 0.  1.
       -4    1    3    3    0  502 -0.19346630762E+04 -0.60999802645E+03  0.31965599113E+03  0.20535823276E+04  0.12699999809E+01 0. -1.
</event>
<event>
 5   0  0.1368865E-07  0.3869695E+04  0.7818609E-02  0.8031362E-01
        1   -1    0    0  501    0  0.00000000000E+00  0.00000000000E+00  0.18747984169E+04  0.18747984169E+04  0.50400001928E-02 0. -1.
       -1   -1    0    0    0  501  0.00000000000E+00  0.00000000000E+00 -0.19968199837E+04  0.19968199837E+04  0.50400001928E-02 0.  1.
    10030    2    1    2    0    0  0.00000000000E+00  0.00000000000E+00 -0.12202156686E+03  0.38716184006E+04  0.38696950496E+04 0.  0.
        5    1    3    3  502    0 -0.25785813792E+03  0.50921548701E+03  0.17886432330E+04  0.18775137647E+04  0.46999998093E+01 0. -1.
       -5    1    3    3    0  502  0.25785813792E+03 -0.50921548701E+03 -0.19106647999E+04  0.19941046359E+04  0.46999998093E+01 0.  1.
</event>
<event>
 5   0  0.4079777E-07  0.3980485E+04  0.7818609E-02  0.8008495E-01
        2   -1    0    0  501    0  0.00000000000E+00  0.00000000000E+00  0.21049704173E+04  0.21049704173E+04  0.25500000920E-02 0. -1.
       -2   -1    0    0    0  501  0.00000000000E+00  0.00000000000E+00 -0.18817675831E+04  0.18817675831E+04  0.25500000920E-02 0.  1.
    10030    2    1    2    0    0  0.00000000000E+00  0.00000000000E+00  0.22320283422E+03  0.39867380004E+04  0.39804849426E+04 0.  0.
        4    1    3    3  502    0  0.18225936811E+04  0.23062930676E+03  0.87832727028E+03  0.20362951678E+04  0.12699999809E+01 0. -1.
       -4    1    3    3    0  502 -0.18225936811E+04 -0.23062930676E+03 -0.65512443606E+03  0.19504428326E+04  0.12699999809E+01 0.  1.
</event>
<event>
 5   0  0.1351000E-07  0.2706680E+04  0.7818609E-02  0.8332841E-01
       -1   -1    0    0    0  501  0.00000000000E+00  0.00000000000E+00  0.12898457797E+04  0.12898457797E+04  0.50400001928E-02 0. -1.
        1   -1    0    0  501    0  0.00000000000E+00  0.00000000000E+00 -0.14199602189E+04  0.14199602189E+04  0.50400001928E-02 0.  1.
    10030    2    1    2    0    0  0.00000000000E+00  0.00000000000E+00 -0.13011443926E+03  0.27098059986E+04  0.27066803991E+04 0.  0.
        3    1    3    3  502    0  0.32967361573E+03  0.21166133815E+03  0.12318322231E+04  0.12926313671E+04  0.10100000352E+00 0. -1.
       -3    1    3    3    0  502 -0.32967361573E+03 -0.21166133815E+03 -0.13619466624E+04  0.14171746316E+04  0.10100000352E+00 0.  1.
</event>
<event>
 5   0  0.1351000E-07  0.3965119E+04  0.7818609E-02  0.8011620E-01
        3   -1    0    0  501    0  0.00000000000E+00  0.00000000000E+00  0.16720669195E+04  0.16720669225E+04  0.10100000352E+00 0.  1.
       -3   -1    0    0    0  501  0.00000000000E+00  0.00000000000E+00 -0.23507083403E+04  0.23507083425E+04  0.10100000352E+00 0. -1.
    10030    2    1    2    0    0  0.00000000000E+00  0.00000000000E+00 -0.67864142083E+03  0.40227752650E+04  0.39651187441E+04 0.  0.
        2    1    3    3  502    0  0.54956266898E+03  0.14380102043E+04 -0.16067455630E+04  0.22252019637E+04  0.25500000920E-02 0. -1.
       -2    1    3    3    0  502 -0.54956266898E+03 -0.14380102043E+04  0.92810414222E+03  0.17975733013E+04  0.25500000920E-02 0.  1.
</event>
<event>
 5   0  0.1368865E-07  0.3946686E+04  0.7818609E-02  0.8015389E-01
       -1   -1    0    0    0  501  0.00000000000E+00  0.00000000000E+00  0.14631610578E+04  0.14631610578E+04  0.50400001928E-02 0. -1.
        1   -1    0    0  501    0  0.00000000000E+00  0.00000000000E+00 -0.26614174581E+04  0.26614174581E+04  0.50400001928E-02 0.  1.
    10030    2    1    2    0    0  0.00000000000E+00  0.00000000000E+00 -0.11982564003E+04  0.41245785159E+04  0.39466858924E+04 0.  0.
        5    1    3    3  502    0  0.52545124387E+03  0.39923760399E+03 -0.25426764911E+04  0.26269212973E+04  0.46999998093E+01 0.  1.
       -5    1    3    3    0  502 -0.52545124387E+03 -0.39923760399E+03  0.13444200907E+04  0.14976572186E+04  0.46999998093E+01 0. -1.
</event>
<event>
 5   0  0.4047916E-07  0.3678836E+04  0.7818609E-02  0.8072668E-01
        2   -1    0    0  501    0  0.00000000000E+00  0.00000000000E+00  0.29253636531E+04  0.29253636531E+04  0.25500000920E-02 0. -1.
       -2   -1    0    0    0  501  0.00000000000E+00  0.00000000000E+00 -0.11565939640E+04  0.11565939640E+04  0.25500000920E-02 0.  1.
    10030    2    1    2    0    0  0.00000000000E+00  0.00000000000E+00  0.17687696891E+04  0.40819576171E+04  0.36788356547E+04 0.  0.
        5    1    3    3  502    0 -0.17920749705E+04  0.38873140466E+03  0.10443761212E+04  0.21103052806E+04  0.46999998093E+01 0.  1.
       -5    1    3    3    0  502  0.17920749705E+04 -0.38873140466E+03  0.72439356786E+03  0.19716523365E+04  0.46999998093E+01 0. -1.
</event>
<event>
 5   0  0.4047916E-07  0.3602956E+04  0.7818609E-02  0.8089815E-01
       -2   -1    0    0    0  501  0.00000000000E+00  0.00000000000E+00  0.23912996312E+04  0.23912996312E+04  0.25500000920E-02 0.  1.
        2   -1    0    0  501    0  0.00000000000E+00  0.00000000000E+00 -0.13571376592E+04  0.13571376592E+04  0.25500000920E-02 0. -1.
    10030    2    1    2    0    0  0.00000000000E+00  0.00000000000E+00  0.10341619719E+04  0.37484372904E+04  0.36029558887E+04 0.  0.
        5    1    3    3  502    0  0.79222687357E+03 -0.85161899438E+03  0.19482810284E+04  0.22690745660E+04  0.46999998093E+01 0.  1.
       -5    1    3    3    0  502 -0.79222687357E+03  0.85161899438E+03 -0.91411905643E+03  0.14793627243E+04  0.46999998093E+01 0. -1.
</event>
<event>
 5   0  0.4149487E-07  0.3914599E+04  0.7818609E-02  0.8022000E-01
        2   -1    0    0  501    0  0.00000000000E+00  0.00000000000E+00  0.19509751816E+04  0.19509751816E+04  0.25500000920E-02 0.  1.
       -2   -1    0    0    0  501  0.00000000000E+00  0.00000000000E+00 -0.19636446467E+04  0.19636446467E+04  0.25500000920E-02 0. -1.
    10030    2    1    2    0    0  0.00000000000E+00  0.00000000000E+00 -0.12669465080E+02  0.39146198283E+04  0.39145993262E+04 0.  0.
        2    1    3    3  502    0 -0.12436797175E+04 -0.27321930129E+03  0.14801568046E+04  0.19524989610E+04  0.25500000920E-02 0.  1.
       -2    1    3    3    0  502  0.12436797175E+04  0.27321930129E+03 -0.14928262697E+04  0.19621208673E+04  0.25500000920E-02 0. -1.
</event>
<event>
 5   0  0.1372952E-07  0.4044057E+04  0.7818609E-02  0.7995717E-01
        1   -1    0    0  501    0  0.00000000000E+00  0.00000000000E+00  0.17765703371E+04  0.17765703372E+04  0.50400001928E-02 0. -1.
       -1   -1    0    0    0  501  0.00000000000E+00  0.00000000000E+00 -0.23014001674E+04  0.23014001674E+04  0.50400001928E-02 0.  1.
    10030    2    1    2    0    0  0.00000000000E+00  0.00000000000E+00 -0.52482983028E+03  0.40779705046E+04  0.40440570082E+04 0.  0.
        1    1    3    3  502    0  0.99883774011E+02 -0.10204158512E+04  0.14950066295E+04  0.18128072429E+04  0.50400001928E-02 0. -1.
       -1    1    3    3    0  502 -0.99883774011E+02  0.10204158512E+04 -0.20198364598E+04  0.22651632617E+04  0.50400001928E-02 0.  1.
</event>
<event>
 5   0  0.4047916E-07  0.2516124E+04  0.7818609E-02  0.8397264E-01
       -2   -1    0    0    0  501  0.00000000000E+00  0.00000000000E+00  0.87299555666E+03  0.87299555666E+03  0.25500000920E-02 0. -1.
        2   -1    0    0  501    0  0.00000000000E+00  0.00000000000E+00 -0.18129753339E+04  0.18129753340E+04  0.25500000920E-02 0.  1.
    10030    2    1    2    0    0  0.00000000000E+00  0.00000000000E+00 -0.93997977729E+03  0.26859708906E+04  0.25161235350E+04 0.  0.
        5    1    3    3  502    0 -0.12235418700E+04  0.95529085789E+02 -0.17470055404E+03  0.12396462751E+04  0.46999998093E+01 0.  1.
       -5    1    3    3    0  502  0.12235418700E+04 -0.95529085789E+02 -0.76527922325E+03  0.14463246155E+04  0.46999998093E+01 0. -1.
</event>
<event>
 5   0  0.1368865E-07  0.4004326E+04  0.7818609E-02  0.8003674E-01
        1   -1    0    0  501    0  0.00000000000E+00  0.00000000000E+00  0.20661492964E+04  0.20661492964E+04  0.50400001928E-02 0.  1.
       -1   -1    0    0    0  501  0.00000000000E+00  0.00000000000E+00 -0.19401582248E+04  0.19401582249E+04  0.50400001928E-02 0. -1.
    10030    2    1    2    0    0  0.00000000000E+00  0.00000000000E+00  0.12599107158E+03  0.40063075213E+04  0.40043259364E+04 0.  0.
        5    1    3    3  502    0  0.12814527884E+04 -0.12865197548E+04  0.90684645604E+03  0.20296913345E+04  0.46999998093E+01 0.  1.
       -5    1    3    3    0  502 -0.12814527884E+04  0.12865197548E+04 -0.78085538446E+03  0.19766161868E+04  0.46999998093E+01 0. -1.
</event>
<event>
 5   0  0.4077370E-07  0.2540287E+04  0.7818609E-02  0.8388772E-01
       -2   -1    0    0    0  501  0.00000000000E+00  0.00000000000E+00  0.11740920585E+04  0.11740920585E+04  0.25500000920E-02 0.  1.
        2   -1    0    0  501    0  0.00000000000E+00  0.00000000000E+00 -0.13740524845E+04  0.13740524845E+04  0.25500000920E-02 0. -1.
    10030    2    1    2    0    0  0.00000000000E+00  0.00000000000E+00 -0.19996042602E+03  0.25481445430E+04  0.25402866846E+04 0.  0.
        3    1    3    3  502    0 -0.53912373574E+03 -0.24160312054E+03 -0.12278414848E+04  0.13625788756E+04  0.10100000352E+00 0. -1.
       -3    1    3    3    0  502  0.53912373574E+03  0.24160312054E+03  0.10278810588E+04  0.11855656673E+04  0.10100000352E+00 0.  1.
</event>
<event>
 5   0  0.4047916E-07  0.3983435E+04  0.7818609E-02  0.8007897E-01
        2   -1    0    0  501    0  0.00000000000E+00  0.00000000000E+00  0.22778925970E+04  0.22778925970E+04  0.25500000920E-02 0.  1.
       -2   -1    0    0    0  501  0.00000000000E+00  0.00000000000E+00 -0.17414953869E+04  0.17414953869E+04  0.25500000920E-02 0. -1.
    10030    2    1    2    0    0  0.00000000000E+00  0.00000000000E+00  0.53639721001E+03  0.40193879839E+04  0.39834354266E+04 0.  0.
        5    1    3    3  502    0 -0.11650443298E+04 -0.50832505843E+03 -0.12790013561E+04  0.18032163526E+04  0.46999998093E+01 0. -1.
       -5    1    3    3    0  502  0.11650443298E+04  0.50832505843E+03  0.18153985661E+04  0.22161716313E+04  0.46999998093E+01 0.  1.
</event>
<event>
 5   0  0.1351000E-07  0.3844239E+04  0.7818609E-02  0.8036727E-01
        1   -1    0    0  501    0  0.00000000000E+00  0.00000000000E+00  0.19147666126E+04  0.19147666126E+04  0.50400001928E-02 0. -1.
       -1   -1    0    0    0  501  0.00000000000E+00  0.00000000000E+00 -0.19295009218E+04  0.19295009218E+04  0.50400001928E-02 0.  1.
    10030    2    1    2    0    0  0.00000000000E+00  0.00000000000E+00 -0.14734309210E+02  0.38442675345E+04  0.38442392975E+04 0.  0.
        4    1    3    3  502    0 -0.51640525480E+03 -0.17056826266E+04  0.71271779783E+03  0.19193738255E+04  0.12699999809E+01 0. -1.
       -4    1    3    3    0  502  0.51640525480E+03  0.17056826266E+04 -0.72745210704E+03  0.19248937089E+04  0.12699999809E+01 0.  1.
</event>
<event>
 5   0  0.4077370E-07  0.4130590E+04  0.7818609E-02  0.7978708E-01
       -2   -1    0    0    0  501  0.00000000000E+00  0.00000000000E+00  0.16079145815E+04  0.16079145815E+04  0.25500000920E-02 0. -1.
        2   -1    0    0  501    0  0.00000000000E+00  0.00000000000E+00 -0.26527792596E+04  0.26527792596E+04  0.25500000920E-02 0.  1.
    10030    2    1    2    0    0  0.00000000000E+00  0.00000000000E+00 -0.10448646782E+04  0.42606938411E+04  0.41305895236E+04 0.  0.
        3    1    3    3  502    0  0.39147479894E+02  0.15856514002E+04  0.84196260429E+03  0.17957516324E+04  0.10100000352E+00 0. -1.
       -3    1    3    3    0  502 -0.39147479894E+02 -0.15856514002E+04 -0.18868272824E+04  0.24649422087E+04  0.10100000352E+00 0.  1.
</event>
<event>
 5   0  0.4149487E-07  0.4012875E+04  0.7818609E-02  0.8001954E-01
        2   -1    0    0  501    0  0.00000000000E+00  0.00000000000E+00  0.30113819924E+04  0.30113819924E+04  0.25500000920E-02 0.  1.
       -2   -1    0    0    0  501  0.00000000000E+00  0.00000000000E+00 -0.13368582877E+04  0.13368582877E+04  0.25500000920E-02 0. -1.
    10030    2    1    2    0    0  0.00000000000E+00  0.00000000000E+00  0.16745237047E+04  0.43482402801E+04  0.40128747670E+04 0.  0.
        2    1    3    3  502    0  0.18484218649E+04  0.25472976709E+03  0.16366418712E+04  0.24819643953E+04  0.25500000920E-02 0.  1.
       -2    1    3    3    0  502 -0.18484218649E+04 -0.25472976709E+03  0.37881833481E+02  0.18662758848E+04  0.25500000920E-02 0. -1.
</event>
<event>
 5   0  0.4079777E-07  0.3979382E+04  0.7818609E-02  0.8008719E-01
       -2   -1    0    0    0  501  0.00000000000E+00  0.00000000000E+00  0.19229340456E+04  0.19229340456E+04  0.25500000920E-02 0. -1.
        2   -1    0    0  501    0  0.00000000000E+00  0.00000000000E+00 -0.20587660015E+04  0.20587660015E+04  0.25500000920E-02 0.  1.
    10030    2    1    2    0    0  0.00000000000E+00  0.00000000000E+00 -0.13583195595E+03  0.39817000471E+04  0.39793824828E+04 0.  0.
        4    1    3    3  502    0 -0.17751495005E+04  0.88913424797E+03 -0.19896615959E+03  0.19953206773E+04  0.12699999809E+01 0.  1.
       -4    1    3    3    0  502  0.17751495005E+04 -0.88913424797E+03  0.63134203645E+02  0.19863793697E+04  0.12699999809E+01 0. -1.
</event>
<event>
 5   0  0.4077370E-07  0.3837116E+04  0.7818609E-02  0.8038237E-01
       -2   -1    0    0    0  501  0.00000000000E+00  0.00000000000E+00  0.13691550227E+04  0.13691550227E+04  0.25500000920E-02 0. -1.
        2   -1    0    0  501    0  0.00000000000E+00  0.00000000000E+00 -0.26884204362E+04  0.26884204362E+04  0.25500000920E-02 0.  1.
    10030    2    1    2    0    0  0.00000000000E+00  0.00000000000E+00 -0.13192654135E+04  0.40575754589E+04  0.38371157624E+04 0.  0.
        3    1    3    3  502    0  0.18919510281E+04 -0.31371486685E+03 -0.71724819155E+03  0.20475206199E+04  0.10100000352E+00 0. -1.
       -3    1    3    3    0  502 -0.18919510281E+04  0.31371486685E+03 -0.60201722192E+03  0.20100548391E+04  0.10100000352E+00 0.  1.
</event>
<event>
 5   0  0.4301754E-07  0.2538152E+04  0.7818609E-02  0.8389518E-01
       -2   -1    0    0    0  501  0.00000000000E+00  0.00000000000E+00  0.11313103080E+04  0.11313103080E+04  0.25500000920E-02 0.  1.
        2   -1    0    0  501    0  0.00000000000E+00  0.00000000000E+00 -0.14236180380E+04  0.14236180380E+04  0.25500000920E-02 0. -1.
    10030    2    1    2    0    0  0.00000000000E+00  0.00000000000E+00 -0.29230772997E+03  0.25549283460E+04  0.25381518954E+04 0.  0.
        1    1    3    3  502    0  0.42849677500E+03 -0.96600297116E+03 -0.85349510284E+03  0.13583906349E+04  0.50400001928E-02 0. -1.
       -1    1    3    3    0  502 -0.42849677500E+03  0.96600297116E+03  0.56118737287E+03  0.11965377110E+04  0.50400001928E-02 0.  1.
</event>
<event>
 5   0  0.4301754E-07  0.3450185E+04  0.7818609E-02  0.8125698E-01
        2   -1    0    0  501    0  0.00000000000E+00  0.00000000000E+00  0.27972420355E+04  0.27972420355E+04  0.25500000920E-02 0. -1.
       -2   -1    0    0    0  501  0.00000000000E+00  0.00000000000E+00 -0.10638853226E+04  0.10638853226E+04  0.25500000920E-02 0.  1.
    10030    2    1    2    0    0  0.00000000000E+00  0.00000000000E+00  0.17333567129E+04  0.38611273581E+04  0.34501853547E+04 0.  0.
        1    1    3    3  502    0  0.93886905172E+02  0.57923961242E+03  0.26821212175E+04  0.27455614189E+04  0.50400001928E-02 0. -1.
       -1    1    3    3    0  502 -0.93886905172E+02 -0.57923961242E+03 -0.94876450460E+03  0.11155659392E+04  0.50400001928E-02 0.  1.
</event>
<event>
 5   0  0.1372952E-07  0.4005582E+04  0.7818609E-02  0.8003421E-01
        1   -1    0    0  501    0  0.00000000000E+00  0.00000000000E+00  0.22643648524E+04  0.22643648525E+04  0.50400001928E-02 0.  1.
       -1   -1    0    0    0  501  0.00000000000E+00  0.00000000000E+00 -0.17714337546E+04  0.17714337546E+04  0.50400001928E-02 0. -1.
    10030    2    1    2    0    0  0.00000000000E+00  0.00000000000E+00  0.49293109783E+03  0.40357986071E+04  0.40055822710E+04 0.  0.
        1    1    3    3  502    0  0.12059578558E+04  0.90290466157E+03  0.15761181330E+04  0.21803026273E+04  0.50400001928E-02 0.  1.
       -1    1    3    3    0  502 -0.12059578558E+04 -0.90290466157E+03 -0.10831870351E+04  0.18554959797E+04  0.50400001928E-02 0. -1.
</event>
<event>
 5   0  0.1421304E-07  0.3947994E+04  0.7818609E-02  0.8015121E-01
       -1   -1    0    0    0  501  0.00000000000E+00  0.00000000000E+00  0.20610950214E+04  0.20610950214E+04  0.50400001928E-02 0.  1.
        1   -1    0    0  501    0  0.00000000000E+00  0.00000000000E+00 -0.18905799186E+04  0.18905799186E+04  0.50400001928E-02 0. -1.
    10030    2    1    2    0    0  0.00000000000E+00  0.00000000000E+00  0.17051510279E+03  0.39516749401E+04  0.39479943556E+04 0.  0.
        2    1    3    3  502    0 -0.14749414976E+04 -0.79461892233E+03 -0.95964728070E+03  0.19307497395E+04  0.25500000920E-02 0. -1.
       -2    1    3    3    0  502  0.14749414976E+04  0.79461892233E+03  0.11301623835E+04  0.20209252006E+04  0.25500000920E-02 0.  1.
</event>
<event>
 5   0  0.4301754E-07  0.2844695E+04  0.7818609E-02  0.8289525E-01
        2   -1    0    0  501    0  0.00000000000E+00  0.00000000000E+00  0.13037043774E+04  0.13037043774E+04  0.25500000920E-02 0. -1.
       -2   -1    0    0    0  501  0.00000000000E+00  0.00000000000E+00 -0.15517875281E+04  0.15517875281E+04  0.25500000920E-02 0.  1.
    10030    2    1    2    0    0  0.00000000000E+00  0.00000000000E+00 -0.24808315076E+03  0.28554919055E+04  0.28446948470E+04 0.  0.
        1    1    3    3  502    0  0.71803852493E+02  0.60365457696E+03 -0.14148139201E+04  0.15398873563E+04  0.50400001928E-02 0.  1.
       -1    1    3    3    0  502 -0.71803852493E+02 -0.60365457696E+03  0.11667307694E+04  0.13156045492E+04  0.50400001928E-02 0. -1.
</event>
<event>
 5   0  0.1368865E-07  0.2788633E+04  0.7818609E-02  0.8306806E-01
        1   -1    0    0  501    0  0.00000000000E+00  0.00000000000E+00  0.22628352813E+04  0.22628352813E+04  0.50400001928E-02 0.  1.
       -1   -1    0    0    0  501  0.00000000000E+00  0.00000000000E+00 -0.85915171174E+03  0.85915171175E+03  0.50400001928E-02 0. -1.
    10030    2    1    2    0    0  0.00000000000E+00  0.00000000000E+00  0.14036835696E+04  0.31219869931E+04  0.27886332174E+04 0.  0.
        5    1    3    3  502    0 -0.11764062908E+04 -0.53077283265E+02  0.15376426602E+04  0.19367798015E+04  0.46999998093E+01 0.  1.
       -5    1    3    3    0  502  0.11764062908E+04  0.53077283265E+02 -0.13395909063E+03  0.11852071916E+04  0.46999998093E+01 0. -1.
</event>
<event>
 5   0  0.4047916E-07  0.3933882E+04  0.7818609E-02  0.8018019E-01
       -2   -1    0    0    0  501  0.00000000000E+00  0.00000000000E+00  0.19383508150E+04  0.19383508150E+04  0.25500000920E-02 0. -1.
        2   -1    0    0  501    0  0.00000000000E+00  0.00000000000E+00 -0.19959533415E+04  0.19959533415E+04  0.25500000920E-02 0.  1.
    10030    2    1    2    0    0  0.00000000000E+00  0.00000000000E+00 -0.57602526547E+02  0.39343041565E+04  0.39338824518E+04 0.  0.
        5    1    3    3  502    0  0.26069735655E+03  0.76520663016E+03 -0.18221280013E+04  0.19934083480E+04  0.46999998093E+01 0.  1.
       -5    1    3    3    0  502 -0.26069735655E+03 -0.76520663016E+03  0.17645254748E+04  0.19408958086E+04  0.46999998093E+01 0. -1.
</event>
<event>
 5   0  0.1351000E-07  0.2611187E+04  0.7818609E-02  0.8364411E-01
       -1   -1    0    0    0  501  0.00000000000E+00  0.00000000000E+00  0.10677570385E+04  0.10677570385E+04  0.50400001928E-02 0. -1.
        1   -1    0    0  501    0  0.00000000000E+00  0.00000000000E+00 -0.15964066629E+04  0.15964066629E+04  0.50400001928E-02 0.  1.
    10030    2    1    2    0    0  0.00000000000E+00  0.00000000000E+00 -0.52864962440E+03  0.26641637014E+04  0.26111870485E+04 0.  0.
        3    1    3    3  502    0  0.96665720292E+03 -0.47996495742E+03 -0.10139291578E+04  0.14808257344E+04  0.10100000352E+00 0.  1.
       -3    1    3    3    0  502 -0.96665720292E+03  0.47996495742E+03  0.48527953345E+03  0.11833379670E+04  0.10100000352E+00 0. -1.
</event>
<event>
 5   0  0.4149487E-07  0.3964420E+04  0.7818609E-02  0.8011763E-01
        2   -1    0    0  501    0  0.00000000000E+00  0.00000000000E+00  0.20334342603E+04  0.20334342603E+04  0.25500000920E-02 0.  1.
       -2   -1    0    0    0  501  0.00000000000E+00  0.00000000000E+00 -0.19322763130E+04  0.19322763130E+04  0.25500000920E-02 0. -1.
    10030    2    1    2    0    0  0.00000000000E+00  0.00000000000E+00  0.10115794733E+03  0.39657105733E+04  0.39644201873E+04 0.  0.
        2    1    3    3  502    0 -0.15451673418E+04 -0.11319056468E+04 -0.45988541728E+03  0.19698342835E+04  0.25500000920E-02 0. -1.
       -2    1    3    3    0  502  0.15451673418E+04  0.11319056468E+04  0.56104336461E+03  0.19958762898E+04  0.25500000920E-02 0.  1.
</event>
<event>
 5   0  0.1351000E-07  0.3999062E+04  0.7818609E-02  0.8004736E-01
       -1   -1    0    0    0  501  0.00000000000E+00  0.00000000000E+00  0.19571605761E+04  0.19571605761E+04  0.50400001928E-02 0. -1.
        1   -1    0    0  501    0  0.00000000000E+00  0.00000000000E+00 -0.20428189801E+04  0.20428189801E+04  0.50400001928E-02 0.  1.
    10030    2    1    2    0    0  0.00000000000E+00  0.00000000000E+00 -0.85658403969E+02  0.39999795563E+04  0.39990622761E+04 0.  0.
        4    1    3    3  502    0 -0.15980624622E+04  0.11902803753E+04 -0.20885569160E+03  0.20035451873E+04  0.12699999809E+01 0.  1.
       -4    1    3    3    0  502  0.15980624622E+04 -0.11902803753E+04  0.12319728763E+03  0.19964343689E+04  0.12699999809E+01 0. -1.
</event>
<event>
 5   0  0.1368865E-07  0.4046844E+04  0.7818609E-02  0.7995163E-01
       -1   -1    0    0    0  501  0.00000000000E+00  0.00000000000E+00  0.31505633458E+04  0.31505633458E+04  0.50400001928E-02 0.  1.
        1   -1    0    0  501    0  0.00000000000E+00  0.00000000000E+00 -0.12995251203E+04  0.12995251203E+04  0.50400001928E-02 0. -1.
    10030    2    1    2    0    0  0.00000000000E+00  0.00000000000E+00  0.18510382255E+04  0.44500884661E+04  0.40468438127E+04 0.  0.
        5    1    3    3  502    0  0.29107701333E+03  0.18468056294E+04  0.17764457206E+04  0.25789917310E+04  0.46999998093E+01 0.  1.
       -5    1    3    3    0  502 -0.29107701333E+03 -0.18468056294E+04  0.74592504869E+02  0.18710967351E+04  0.46999998093E+01 0. -1.
</event>
<event>
 5   0  0.1372952E-07  0.2682068E+04  0.7818609E-02  0.8340847E-01
        1   -1    0    0  501    0  0.00000000000E+00  0.00000000000E+00  0.12368424144E+04  0.12368424144E+04  0.50400001928E-02 0.  1.
       -1   -1    0    0    0  501  0.00000000000E+00  0.00000000000E+00 -0.14540028343E+04  0.14540028343E+04  0.50400001928E-02 0. -1.
    10030    2    1    2    0    0  0.00000000000E+00  0.00000000000E+00 -0.21716041984E+03  0.26908452487E+04  0.26820681394E+04 0.  0.
        1    1    3    3  502    0  0.52154060198E+02 -0.13398791661E+04 -0.12803827446E+03  0.13469929568E+04  0.50400001928E-02 0.  1.
       -1    1    3    3    0  502 -0.52154060198E+02  0.13398791661E+04 -0.89122145376E+02  0.13438522920E+04  0.50400001928E-02 0. -1.
</event>
<event>
 5   0  0.1421304E-07  0.3991629E+04  0.7818609E-02  0.8006237E-01
        1   -1    0    0  501    0  0.00000000000E+00  0.00000000000E+00  0.16826652019E+04  0.16826652019E+04  0.50400001928E-02 0. -1.
       -1   -1    0    0    0  501  0.00000000000E+00  0.00000000000E+00 -0.23672416358E+04  0.23672416358E+04  0.50400001928E-02 0.  1.
    10030    2    1    2    0    0  0.00000000000E+00  0.00000000000E+00 -0.68457643387E+03  0.40499068377E+04  0.39916288029E+04 0.  0.
        2    1    3    3  502    0  0.62842606902E+02  0.17891261490E+04  0.55283607223E+03  0.18736459893E+04  0.25500000920E-02 0. -1.
       -2    1    3    3    0  502 -0.62842606902E+02 -0.17891261490E+04 -0.12374125061E+04  0.21762608485E+04  0.25500000920E-02 0.  1.
</event>
<event>
 5   0  0.4077370E-07  0.3984926E+04  0.7818609E-02  0.8007594E-01
       -2   -1    0    0    0  501  0.00000000000E+00  0.00000000000E+00  0.17495419874E+04  0.17495419874E+04  0.25500000920E-02 0. -1.
        2   -1    0    0  501    0  0.00000000000E+00  0.00000000000E+00 -0.22691135752E+04  0.22691135752E+04  0.25500000920E-02 0.  1.
    10030    2    1    2    0    0  0.00000000000E+00  0.00000000000E+00 -0.51957158775E+03  0.40186555626E+04  0.39849263351E+04 0.  0.
        3    1    3    3  502    0 -0.11903833266E+04  0.13268788952E+04  0.63785464429E+03  0.18932719361E+04  0.10100000352E+00 0. -1.
       -3    1    3    3    0  502  0.11903833266E+04 -0.13268788952E+04 -0.11574262320E+04  0.21253836264E+04  0.10100000352E+00 0.  1.
</event>
<event>
 5   0  0.4301754E-07  0.2666349E+04  0.7818609E-02  0.8346007E-01
        2   -1    0    0  501    0  0.00000000000E+00  0.00000000000E+00  0.80912713627E+03  0.80912713628E+03  0.25500000920E-02 0. -1.
       -2   -1    0    0    0  501  0.00000000000E+00  0.00000000000E+00 -0.21966312311E+04  0.21966312311E+04  0.25500000920E-02 0.  1.
    10030    2    1    2    0    0  0.00000000000E+00  0.00000000000E+00 -0.13875040948E+04  0.30057583673E+04  0.26663487675E+04 0.  0.
        1    1    3    3  502    0 -0.63215751627E+03 -0.70736807753E+03 -0.17496606416E+04  0.19903027617E+04  0.50400001928E-02 0.  1.
       -1    1    3    3    0  502  0.63215751627E+03  0.70736807753E+03  0.36215654684E+03  0.10154556056E+04  0.50400001928E-02 0. -1.
</event>
<event>
 5   0  0.1421304E-07  0.3285135E+04  0.7818609E-02  0.8166688E-01
       -1   -1    0    0    0  501  0.00000000000E+00  0.00000000000E+00  0.19530547722E+04  0.19530547722E+04  0.50400001928E-02 0.  1.
        1   -1    0    0  501    0  0.00000000000E+00  0.00000000000E+00 -0.13814397628E+04  0.13814397628E+04  0.50400001928E-02 0. -1.
    10030    2    1    2    0    0  0.00000000000E+00  0.00000000000E+00  0.57161500940E+03  0.33344945350E+04  0.32851347134E+04 0.  0.
        2    1    3    3  502    0 -0.10635356059E+04  0.12278375987E+04  0.38561100226E+02  0.16248631057E+04  0.25500000920E-02 0. -1.
       -2    1    3    3    0  502  0.10635356059E+04 -0.12278375987E+04  0.53305390917E+03  0.17096314293E+04  0.25500000920E-02 0.  1.
</event>
<event>
 5   0  0.1351000E-07  0.2793091E+04  0.7818609E-02  0.8305417E-01
        1   -1    0    0  501    0  0.00000000000E+00  0.00000000000E+00  0.18347816093E+04  0.18347816093E+04  0.50400001928E-02 0. -1.
       -1   -1    0    0    0  501  0.00000000000E+00  0.00000000000E+00 -0.10629816593E+04  0.10629816593E+04  0.50400001928E-02 0.  1.
    10030    2    1    2    0    0  0.00000000000E+00  0.00000000000E+00  0.77179995007E+03  0.28977632686E+04  0.27930909040E+04 0.  0.
        4    1    3    3  502    0  0.44293751624E+03  0.51971602104E+03 -0.87796453583E+03  0.11122597381E+04  0.12699999809E+01 0.  1.
       -4    1    3    3    0  502 -0.44293751624E+03 -0.51971602104E+03  0.16497644859E+04  0.17855035306E+04  0.12699999809E+01 0. -1.
</event>
<event>
 5   0  0.1351000E-07  0.2720508E+04  0.7818609E-02  0.8328381E-01
       -1   -1    0    0    0  501  0.00000000000E+00  0.00000000000E+00  0.69482506392E+03  0.69482506393E+03  0.50400001928E-02 0. -1.
        1   -1    0    0  501    0  0.00000000000E+00  0.00000000000E+00 -0.26629595427E+04  0.26629595427E+04  0.50400001928E-02 0.  1.
    10030    2    1    2    0    0  0.00000000000E+00  0.00000000000E+00 -0.19681344787E+04  0.33577846066E+04  0.27205080661E+04 0.  0.
        3    1    3    3  502    0  0.32539110318E+03 -0.77620919079E+03 -0.23029886973E+04  0.24519659516E+04  0.10100000352E+00 0.  1.
       -3    1    3    3    0  502 -0.32539110318E+03  0.77620919079E+03  0.33485421851E+03  0.90581865500E+03  0.10100000352E+00 0. -1.
</event>
<event>
 5   0  0.1351000E-07  0.3891746E+04  0.7818609E-02  0.8026748E-01
       -1   -1    0    0    0  501  0.00000000000E+00  0.00000000000E+00  0.23208468025E+04  0.23208468025E+04  0.50400001928E-02 0. -1.
        1   -1    0    0  501    0  0.00000000000E+00  0.00000000000E+00 -0.16314829871E+04  0.16314829871E+04  0.50400001928E-02 0.  1.
    10030    2    1    2    0    0  0.00000000000E+00  0.00000000000E+00  0.68936381547E+03  0.39523297896E+04  0.38917461757E+04 0.  0.
        4    1    3    3  502    0 -0.18772660902E+04 -0.92962793290E+02  0.85615930887E+03  0.20653765830E+04  0.12699999809E+01 0. -1.
       -4    1    3    3    0  502  0.18772660902E+04  0.92962793290E+02 -0.16679549340E+03  0.18869532066E+04  0.12699999809E+01 0.  1.
</event>
<event>
 5   0  0.4149487E-07  0.3860605E+04  0.7818609E-02  0.8033273E-01
        2   -1    0    0  501    0  0.00000000000E+00  0.00000000000E+00  0.19662510022E+04  0.19662510022E+04  0.25500000920E-02 0. -1.
       -2   -1    0    0    0  501  0.00000000000E+00  0.00000000000E+00 -0.18950107699E+04  0.18950107699E+04  0.25500000920E-02 0.  1.
    10030    2    1    2    0    0  0.00000000000E+00  0.00000000000E+00  0.71240232264E+02  0.38612617721E+04  0.38606045255E+04 0.  0.
        2    1    3    3  502    0 -0.14366040630E+04  0.63290224237E+03  0.11590523414E+04  0.19513581968E+04  0.25500000920E-02 0. -1.
       -2    1    3    3    0  502  0.14366040630E+04 -0.63290224237E+03 -0.10878121091E+04  0.19099035753E+04  0.25500000920E-02 0.  1.
</event>
<event>
 5   0  0.4301754E-07  0.3964098E+04  0.7818609E-02  0.8011829E-01
       -2   -1    0    0    0  501  0.00000000000E+00  0.00000000000E+00  0.13145295378E+04  0.13145295378E+04  0.25500000920E-02 0. -1.
        2   -1    0    0  501    0  0.00000000000E+00  0.00000000000E+00 -0.29885351697E+04  0.29885351697E+04  0.25500000920E-02 0.  1.
    10030    2    1    2    0    0  0.00000000000E+00  0.00000000000E+00 -0.16740056318E+04  0.43030647075E+04  0.39640977563E+04 0.  0.
        1    1    3    3  502    0  0.29211786979E+03 -0.14715243846E+04 -0.22430624206E+04  0.26985266141E+04  0.50400001928E-02 0.  1.
       -1    1    3    3    0  502 -0.29211786979E+03  0.14715243846E+04  0.56905678873E+03  0.16045380934E+04  0.50400001928E-02 0. -1.
</event>
<event>
 5   0  0.1372952E-07  0.2446684E+04  0.7818609E-02  0.8422230E-01
       -1   -1    0    0    0  501  0.00000000000E+00  0.00000000000E+00  0.17868725903E+04  0.17868725903E+04  0.50400001928E-02 0.  1.
        1   -1    0    0  501    0  0.00000000000E+00  0.00000000000E+00 -0.83753331388E+03  0.83753331390E+03  0.50400001928E-02 0. -1.
    10030    2    1    2    0    0  0.00000000000E+00  0.00000000000E+00  0.94933927639E+03  0.26244059042E+04  0.24466837328E+04 0.  0.
        1    1    3    3  502    0  0.23606148851E+03  0.10289706361E+03  0.17574713414E+04  0.17762371317E+04  0.50400001928E-02 0.  1.
       -1    1    3    3    0  502 -0.23606148851E+03 -0.10289706361E+03 -0.80813206503E+03  0.84816877248E+03  0.50400001928E-02 0. -1.
</event>
<event>
 5   0  0.4149487E-07  0.4049509E+04  0.7818609E-02  0.7994633E-01
       -2   -1    0    0    0  501  0.00000000000E+00  0.00000000000E+00  0.29658011912E+04  0.29658011912E+04  0.25500000920E-02 0. -1.
        2   -1    0    0  501    0  0.00000000000E+00  0.00000000000E+00 -0.13823014859E+04  0.13823014859E+04  0.25500000920E-02 0.  1.
    10030    2    1    2    0    0  0.00000000000E+00  0.00000000000E+00  0.15834997053E+04  0.43481026771E+04  0.40495093004E+04 0.  0.
        2    1    3    3  502    0  0.16951249335E+04  0.53750823278E+03  0.18312611845E+04  0.25526224096E+04  0.25500000920E-02 0.  1.
       -2    1    3    3    0  502 -0.16951249335E+04 -0.53750823278E+03 -0.24776147918E+03  0.17954802675E+04  0.25500000920E-02 0. -1.
</event>
<event>
 5   0  0.1351000E-07  0.3907910E+04  0.7818609E-02  0.8023386E-01
        1   -1    0    0  501    0  0.00000000000E+00  0.00000000000E+00  0.20747842269E+04  0.20747842269E+04  0.50400001928E-02 0.  1.
       -1   -1    0    0    0  501  0.00000000000E+00  0.00000000000E+00 -0.18401629003E+04  0.18401629003E+04  0.50400001928E-02 0. -1.
    10030    2    1    2    0    0  0.00000000000E+00  0.00000000000E+00  0.23462132658E+03  0.39149471272E+04  0.39079104188E+04 0.  0.
        3    1    3    3  502    0  0.99812022188E+03  0.16245729264E+04 -0.31061159271E+03  0.19318283418E+04  0.10100000352E+00 0. -1.
       -3    1    3    3    0  502 -0.99812022188E+03 -0.16245729264E+04  0.54523291929E+03  0.19831187854E+04  0.10100000352E+00 0.  1.
</event>
<event>
 5   0  0.4301754E-07  0.3878284E+04  0.7818609E-02  0.8029561E-01
       -2   -1    0    0    0  501  0.00000000000E+00  0.00000000000E+00  0.12819823025E+04  0.12819823025E+04  0.25500000920E-02 0. -1.
        2   -1    0    0  501    0  0.00000000000E+00  0.00000000000E+00 -0.29331694039E+04  0.29331694039E+04  0.25500000920E-02 0.  1.
    10030    2    1    2    0    0  0.00000000000E+00  0.00000000000E+00 -0.16511871014E+04  0.42151517064E+04  0.38782837782E+04 0.  0.
        1    1    3    3  502    0 -0.63177741245E+03  0.18326670047E+04 -0.77168466827E+03  0.20864583093E+04  0.50400001928E-02 0. -1.
       -1    1    3    3    0  502  0.63177741245E+03 -0.18326670047E+04 -0.87950243308E+03  0.21286933971E+04  0.50400001928E-02 0.  1.
</event>
<event>
 5   0  0.1351000E-07  0.4031753E+04  0.7818609E-02  0.7998171E-01
        1   -1    0    0  501    0  0.00000000000E+00  0.00000000000E+00  0.23318415669E+04  0.23318415669E+04  0.50400001928E-02 0.  1.
       -1   -1    0    0    0  501  0.00000000000E+00  0.00000000000E+00 -0.17427245479E+04  0.17427245479E+04  0.50400001928E-02 0. -1.
    10030    2    1    2    0    0  0.00000000000E+00  0.00000000000E+00  0.58911701906E+03  0.40745661148E+04  0.40317527406E+04 0.  0.
        3    1    3    3  502    0 -0.10854613235E+04 -0.22616650552E+03  0.19959980192E+04  0.22832839674E+04  0.10100000352E+00 0.  1.
       -3    1    3    3    0  502  0.10854613235E+04  0.22616650552E+03 -0.14068810001E+04  0.17912821474E+04  0.10100000352E+00 0. -1.
</event>
<event>
 5   0  0.4047916E-07  0.3482608E+04  0.7818609E-02  0.8117924E-01
       -2   -1    0    0    0  501  0.00000000000E+00  0.00000000000E+00  0.17135045567E+04  0.17135045567E+04  0.25500000920E-02 0. -1.
        2   -1    0    0  501    0  0.00000000000E+00  0.00000000000E+00 -0.17695543586E+04  0.17695543586E+04  0.25500000920E-02 0.  1.
    10030    2    1    2    0    0  0.00000000000E+00  0.00000000000E+00 -0.56049801945E+02  0.34830589153E+04  0.34826079060E+04 0.  0.
        5    1    3    3  502    0 -0.11243660270E+04  0.55970246075E+03  0.11782206579E+04  0.17221184094E+04  0.46999998093E+01 0. -1.
       -5    1    3    3    0  502  0.11243660270E+04 -0.55970246075E+03 -0.12342704599E+04  0.17609405059E+04  0.46999998093E+01 0.  1.
</event>
<event>
 5   0  0.4301754E-07  0.3661309E+04  0.7818609E-02  0.8076591E-01
       -2   -1    0    0    0  501  0.00000000000E+00  0.00000000000E+00  0.22703358774E+04  0.22703358774E+04  0.25500000920E-02 0. -1.
        2   -1    0    0  501    0  0.00000000000E+00  0.00000000000E+00 -0.14761237552E+04  0.14761237552E+04  0.25500000920E-02 0.  1.
    10030    2    1    2    0    0  0.00000000000E+00  0.00000000000E+00  0.79421212216E+03  0.37464596325E+04  0.36613094493E+04 0.  0.
        1    1    3    3  502    0 -0.11955254500E+04 -0.11776901414E+04  0.11455969061E+04  0.20319024194E+04  0.50400001928E-02 0. -1.
       -1    1    3    3    0  502  0.11955254500E+04  0.11776901414E+04 -0.35138478390E+03  0.17145572131E+04  0.50400001928E-02 0.  1.
</event>
<event>
 5   0  0.1421304E-07  0.3978548E+04  0.7818609E-02  0.8008888E-01
        1   -1    0    0  501    0  0.00000000000E+00  0.00000000000E+00  0.21736129760E+04  0.21736129760E+04  0.50400001928E-02 0. -1.
       -1   -1    0    0    0  501  0.00000000000E+00  0.00000000000E+00 -0.18205687850E+04  0.18205687850E+04  0.50400001928E-02 0.  1.
    10030    2    1    2    0    0  0.00000000000E+00  0.00000000000E+00  0.35304419101E+03  0.39941817611E+04  0.39785484463E+04 0.  0.
        2    1    3    3  502    0 -0.89059151137E+03  0.16253469032E+04 -0.54902521850E+03  0.19329600323E+04  0.25500000920E-02 0.  1.
       -2    1    3    3    0  502  0.89059151137E+03 -0.16253469032E+04  0.90206940951E+03  0.20612217288E+04  0.25500000920E-02 0. -1.
</event>
<event>
 5   0  0.4149487E-07  0.2960072E+04  0.7818609E-02  0.8255225E-01
        2   -1    0    0  501    0  0.00000000000E+00  0.00000000000E+00  0.26701242868E+04  0.26701242868E+04  0.25500000920E-02 0.  1.
       -2   -1    0    0    0  501  0.00000000000E+00  0.00000000000E+00 -0.82037598425E+03  0.82037598426E+03  0.25500000920E-02 0. -1.
    10030    2    1    2    0    0  0.00000000000E+00  0.00000000000E+00  0.18497483025E+04  0.34905002710E+04  0.29600715125E+04 0.  0.
        2    1    3    3  502    0  0.83464514673E+03  0.12279483095E+03  0.23588420280E+04  0.25051640275E+04  0.25500000920E-02 0.  1.
       -2    1    3    3    0  502 -0.83464514673E+03 -0.12279483095E+03 -0.50909372551E+03  0.98533624354E+03  0.25500000920E-02 0. -1.
</event>
<event>
 5   0  0.4301754E-07  0.2747632E+04  0.7818609E-02  0.8319713E-01
       -2   -1    0    0    0  501  0.00000000000E+00  0.00000000000E+00  0.12239193838E+04  0.12239193838E+04  0.25500000920E-02 0. -1.
        2   -1    0    0  501    0  0.00000000000E+00  0.00000000000E+00 -0.15420708977E+04  0.15420708977E+04  0.25500000920E-02 0.  1.
    10030    2    1    2    0    0  0.00000000000E+00  0.00000000000E+00 -0.31815151387E+03  0.27659902815E+04  0.27476320445E+04 0.  0.
        1    1    3    3  502    0 -0.53492406207E+03  0.11341282062E+04  0.40590481394E+03  0.13180095820E+04  0.50400001928E-02 0. -1.
       -1    1    3    3    0  502  0.53492406207E+03 -0.11341282062E+04 -0.72405632781E+03  0.14479806995E+04  0.50400001928E-02 0.  1.
</event>
<event>
 5   0  0.1710819E-07  0.2469106E+04  0.7818609E-02  0.8414075E-01
        1   -1    0    0  501    0  0.00000000000E+00  0.00000000000E+00  0.20689655992E+04  0.20689655992E+04  0.50400001928E-02 0.  1.
       -1   -1    0    0    0  501  0.00000000000E+00  0.00000000000E+00 -0.73665828157E+03  0.73665828159E+03  0.50400001928E-02 0. -1.
    10030    2    1    2    0    0  0.00000000000E+00  0.00000000000E+00  0.13323073176E+04  0.28056238808E+04  0.24691056219E+04 0.  0.
        2    1    3    3  502    0  0.33365957602E+03 -0.77562975992E+03  0.16895672588E+04  0.18888006139E+04  0.25500000920E-02 0.  1.
       -2    1    3    3    0  502 -0.33365957602E+03  0.77562975992E+03 -0.35725994116E+03  0.91682326688E+03  0.25500000920E-02 0. -1.
</event>
<event>
 5   0  0.1351000E-07  0.3359994E+04  0.7818609E-02  0.8147795E-01
        1   -1    0    0  501    0  0.00000000000E+00  0.00000000000E+00  0.21173083843E+04  0.21173083844E+04  0.50400001928E-02 0. -1.
       -1   -1    0    0    0  501  0.00000000000E+00  0.00000000000E+00 -0.13330087491E+04  0.13330087491E+04  0.50400001928E-02 0.  1.
    10030    2    1    2    0    0  0.00000000000E+00  0.00000000000E+00  0.78429963528E+03  0.34503171334E+04  0.33599944052E+04 0.  0.
        4    1    3    3  502    0 -0.13644129862E+04 -0.90462162718E+03  0.77968840400E+03  0.18132508667E+04  0.12699999809E+01 0.  1.
       -4    1    3    3    0  502  0.13644129862E+04  0.90462162718E+03  0.46112312840E+01  0.16370662667E+04  0.12699999809E+01 0. -1.
</event>
<event>
 5   0  0.4047916E-07  0.3934414E+04  0.7818609E-02  0.8017910E-01
        2   -1    0    0  501    0  0.00000000000E+00  0.00000000000E+00  0.13875200976E+04  0.13875200976E+04  0.25500000920E-02 0. -1.
       -2   -1    0    0    0  501  0.00000000000E+00  0.00000000000E+00 -0.27890787403E+04  0.27890787403E+04  0.25500000920E-02 0.  1.
    10030    2    1    2    0    0  0.00000000000E+00  0.00000000000E+00 -0.14015586426E+04  0.41765988379E+04  0.39344137078E+04 0.  0.
        5    1    3    3  502    0 -0.14434220834E+04  0.66027300423E+03  0.53284371359E+03  0.16743274065E+04  0.46999998093E+01 0. -1.
       -5    1    3    3    0  502  0.14434220834E+04 -0.66027300423E+03 -0.19344023562E+04  0.25022714314E+04  0.46999998093E+01 0.  1.
</event>
<event>
 5   0  0.1351000E-07  0.4005716E+04  0.7818609E-02  0.8003394E-01
       -1   -1    0    0    0  501  0.00000000000E+00  0.00000000000E+00  0.13197815995E+04  0.13197815995E+04  0.50400001928E-02 0.  1.
        1   -1    0    0  501    0  0.00000000000E+00  0.00000000000E+00 -0.30394731870E+04  0.30394731870E+04  0.50400001928E-02 0. -1.
    10030    2    1    2    0    0  0.00000000000E+00  0.00000000000E+00 -0.17196915875E+04  0.43592547865E+04  0.40057163077E+04 0.  0.
        3    1    3    3  502    0  0.12138761693E+04  0.26669362848E+03 -0.25690769030E+04  0.28539055678E+04  0.10100000352E+00 0. -1.
       -3    1    3    3    0  502 -0.12138761693E+04 -0.26669362848E+03  0.84938531556E+03  0.15053492187E+04  0.10100000352E+00 0.  1.
</event>
<event>
 5   0  0.1351000E-07  0.3870649E+04  0.7818609E-02  0.8031161E-01
        1   -1    0    0  501    0  0.00000000000E+00  0.00000000000E+00  0.15968320689E+04  0.15968320689E+04  0.50400001928E-02 0. -1.
       -1   -1    0    0    0  501  0.00000000000E+00  0.00000000000E+00 -0.23455702201E+04  0.23455702201E+04  0.50400001928E-02 0.  1.
    10030    2    1    2    0    0  0.00000000000E+00  0.00000000000E+00 -0.74873815120E+03  0.39424022890E+04  0.38706494273E+04 0.  0.
        3    1    3    3  502    0  0.15263936375E+04  0.44337076283E+03 -0.14989318039E+04  0.21847772730E+04  0.10100000352E+00 0.  1.
       -3    1    3    3    0  502 -0.15263936375E+04 -0.44337076283E+03  0.75019365266E+03  0.17576250159E+04  0.10100000352E+00 0. -1.
</event>
<event>
 5   0  0.4077370E-07  0.4143590E+04  0.7818609E-02  0.7976190E-01
        2   -1    0    0  501    0  0.00000000000E+00  0.00000000000E+00  0.32151866254E+04  0.32151866254E+04  0.25500000920E-02 0.  1.
       -2   -1    0    0    0  501  0.00000000000E+00  0.00000000000E+00 -0.13350188251E+04  0.13350188251E+04  0.25500000920E-02 0. -1.
    10030    2    1    2    0    0  0.00000000000E+00  0.00000000000E+00  0.18801678003E+04  0.45502054505E+04  0.41435900719E+04 0.  0.
        3    1    3    3  502    0 -0.22212159081E+03  0.15433519477E+04 -0.55799461725E+03  0.16560891397E+04  0.10100000352E+00 0. -1.
       -3    1    3    3    0  502  0.22212159081E+03 -0.15433519477E+04  0.24381624176E+04  0.28941163108E+04  0.10100000352E+00 0.  1.
</event>
<event>
 5   0  0.4047916E-07  0.4013508E+04  0.7818609E-02  0.8001827E-01
        2   -1    0    0  501    0  0.00000000000E+00  0.00000000000E+00  0.11703128244E+04  0.11703128244E+04  0.25500000920E-02 0.  1.
       -2   -1    0    0    0  501  0.00000000000E+00  0.00000000000E+00 -0.34410137103E+04  0.34410137103E+04  0.25500000920E-02 0. -1.
    10030    2    1    2    0    0  0.00000000000E+00  0.00000000000E+00 -0.22707008859E+04  0.46113265347E+04  0.40135084273E+04 0.  0.
        5    1    3    3  502    0  0.85637771476E+03  0.17989414930E+04 -0.14107804999E+04  0.24412900267E+04  0.46999998093E+01 0. -1.
       -5    1    3    3    0  502 -0.85637771476E+03 -0.17989414930E+04 -0.85992038601E+03  0.21700365080E+04  0.46999998093E+01 0.  1.
</event>
<event>
 5   0  0.1368865E-07  0.4010944E+04  0.7818609E-02  0.8002342E-01
       -1   -1    0    0    0  501  0.00000000000E+00  0.00000000000E+00  0.31850781227E+04  0.31850781227E+04  0.50400001928E-02 0. -1.
        1   -1    0    0  501    0  0.00000000000E+00  0.00000000000E+00 -0.12627374402E+04  0.12627374402E+04  0.50400001928E-02 0.  1.
    10030    2    1    2    0    0  0.00000000000E+00  0.00000000000E+00  0.19223406825E+04  0.44478155630E+04  0.40109437272E+04 0.  0.
        5    1    3    3  502    0  0.15618183546E+04  0.84964462671E+03 -0.67631753827E+02  0.17792607197E+04  0.46999998093E+01 0.  1.
       -5    1    3    3    0  502 -0.15618183546E+04 -0.84964462671E+03  0.19899724363E+04  0.26685548433E+04  0.46999998093E+01 0. -1.
</event>
<event>
 5   0  0.1421304E-07  0.4043617E+04  0.7818609E-02  0.7995805E-01
        1   -1    0    0  501    0  0.00000000000E+00  0.00000000000E+00  0.18561732157E+04  0.18561732157E+04  0.50400001928E-02 0.  1.
       -1   -1    0    0    0  501  0.00000000000E+00  0.00000000000E+00 -0.22022239005E+04  0.22022239005E+04  0.50400001928E-02 0. -1.
    10030    2    1    2    0    0  0.00000000000E+00  0.00000000000E+00 -0.34605068476E+03  0.40583971162E+04  0.40436167074E+04 0.  0.
        2    1    3    3  502    0 -0.17463735185E+03  0.87159110198E+03 -0.19955758775E+04  0.21846034736E+04  0.25500000920E-02 0. -1.
       -2    1    3    3    0  502  0.17463735185E+03 -0.87159110198E+03  0.16495251928E+04  0.18737936427E+04  0.25500000920E-02 0.  1.
</event>
<event>
 5   0  0.4079777E-07  0.3982424E+04  0.7818609E-02  0.8008102E-01
       -2   -1    0    0    0  501  0.00000000000E+00  0.00000000000E+00  0.11282918696E+04  0.11282918696E+04  0.25500000920E-02 0.  1.
        2   -1    0    0  501    0  0.00000000000E+00  0.00000000000E+00 -0.35140957904E+04  0.35140957904E+04  0.25500000920E-02 0. -1.
    10030    2    1    2    0    0  0.00000000000E+00  0.00000000000E+00 -0.23858039208E+04  0.46423876601E+04  0.39824242413E+04 0.  0.
        4    1    3    3  502    0  0.14660980443E+04 -0.35041572851E+03 -0.27095420183E+04  0.31006215861E+04  0.12699999809E+01 0. -1.
       -4    1    3    3    0  502 -0.14660980443E+04  0.35041572851E+03  0.32373809751E+03  0.15417660740E+04  0.12699999809E+01 0.  1.
</event>
<event>
 5   0  0.4047916E-07  0.3947022E+04  0.7818609E-02  0.8015320E-01
       -2   -1    0    0    0  501  0.00000000000E+00  0.00000000000E+00  0.20411856993E+04  0.20411856993E+04  0.25500000920E-02 0. -1.
        2   -1    0    0  501    0  0.00000000000E+00  0.00000000000E+00 -0.19080798791E+04  0.19080798791E+04  0.25500000920E-02 0.  1.
    10030    2    1    2    0    0  0.00000000000E+00  0.00000000000E+00  0.13310582025E+03  0.39492655784E+04  0.39470218456E+04 0.  0.
        5    1    3    3  502    0 -0.12694898049E+04 -0.88916974890E+03  0.12889249496E+04  0.20158315462E+04  0.46999998093E+01 0. -1.
       -5    1    3    3    0  502  0.12694898049E+04  0.88916974890E+03 -0.11558191293E+04  0.19334340322E+04  0.46999998093E+01 0.  1.
</event>
<event>
 5   0  0.1372952E-07  0.2457062E+04  0.7818609E-02  0.8418444E-01
       -1   -1    0    0    0  501  0.00000000000E+00  0.00000000000E+00  0.80288725108E+03  0.80288725109E+03  0.50400001928E-02 0.  1.
        1   -1    0    0  501    0  0.00000000000E+00  0.00000000000E+00 -0.18798260190E+04  0.18798260190E+04  0.50400001928E-02 0. -1.
    10030    2    1    2    0    0  0.00000000000E+00  0.00000000000E+00 -0.10769387679E+04  0.26827132701E+04  0.24570619406E+04 0.  0.
        1    1    3    3  502    0 -0.10002141228E+04  0.53788547095E+03 -0.10500502164E+04  0.15467238047E+04  0.50400001928E-02 0. -1.
       -1    1    3    3    0  502  0.10002141228E+04 -0.53788547095E+03 -0.26888551559E+02  0.11359894654E+04  0.50400001928E-02 0.  1.
</event>
<event>
 5   0  0.4149487E-07  0.3966034E+04  0.7818609E-02  0.8011434E-01
       -2   -1    0    0    0  501  0.00000000000E+00  0.00000000000E+00  0.24345706237E+04  0.24345706237E+04  0.25500000920E-02 0. -1.
        2   -1    0    0  501    0  0.00000000000E+00  0.00000000000E+00 -0.16152159800E+04  0.16152159800E+04  0.25500000920E-02 0.  1.
    10030    2    1    2    0    0  0.00000000000E+00  0.00000000000E+00  0.81935464369E+03  0.40497866037E+04  0.39660344809E+04 0.  0.
        2    1    3    3  502    0 -0.94362302832E+03  0.12954201208E+04 -0.78281098241E+03  0.17836285328E+04  0.25500000920E-02 0.  1.
       -2    1    3    3    0  502  0.94362302832E+03 -0.12954201208E+04  0.16021656261E+04  0.22661580709E+04  0.25500000920E-02 0. -1.
</event>
<event>
 5   0  0.1421304E-07  0.2464294E+04  0.7818609E-02  0.8415818E-01
        1   -1    0    0  501    0  0.00000000000E+00  0.00000000000E+00  0.13508058040E+04  0.13508058040E+04  0.50400001928E-02 0.  1.
       -1   -1    0    0    0  501  0.00000000000E+00  0.00000000000E+00 -0.11239113017E+04  0.11239113018E+04  0.50400001928E-02 0. -1.
    10030    2    1    2    0    0  0.00000000000E+00  0.00000000000E+00  0.22689450221E+03  0.24747171057E+04  0.24642937402E+04 0.  0.
        2    1    3    3  502    0 -0.11357149774E+03 -0.98021908861E+03 -0.62754772467E+03  0.11694204092E+04  0.25500000920E-02 0. -1.
       -2    1    3    3    0  502  0.11357149774E+03  0.98021908861E+03  0.85444222688E+03  0.13052966965E+04  0.25500000920E-02 0.  1.
</event>
<event>
 5   0  0.4301754E-07  0.4005283E+04  0.7818609E-02  0.8003482E-01
       -2   -1    0    0    0  501  0.00000000000E+00  0.00000000000E+00  0.26278018675E+04  0.26278018675E+04  0.25500000920E-02 0.  1.
        2   -1    0    0  501    0  0.00000000000E+00  0.00000000000E+00 -0.15262079731E+04  0.15262079731E+04  0.25500000920E-02 0. -1.
    10030    2    1    2    0    0  0.00000000000E+00  0.00000000000E+00  0.11015938944E+04  0.41540098406E+04  0.40052825928E+04 0.  0.
        1    1    3    3  502    0  0.18135128751E+04  0.83516922535E+03  0.71225550031E+03  0.21198218040E+04  0.50400001928E-02 0. -1.
       -1    1    3    3    0  502 -0.18135128751E+04 -0.83516922535E+03  0.38933839413E+03  0.20341880366E+04  0.50400001928E-02 0.  1.
</event>
<event>
 5   0  0.1351000E-07  0.4135423E+04  0.7818609E-02  0.7977771E-01
       -1   -1    0    0    0  501  0.00000000000E+00  0.00000000000E+00  0.22030343012E+04  0.22030343012E+04  0.50400001928E-02 0.  1.
        1   -1    0    0  501    0  0.00000000000E+00  0.00000000000E+00 -0.19407010293E+04  0.19407010293E+04  0.50400001928E-02 0. -1.
    10030    2    1    2    0    0  0.00000000000E+00  0.00000000000E+00  0.26233327192E+03  0.41437353305E+04  0.41354230429E+04 0.  0.
        3    1    3    3  502    0 -0.16096439367E+04 -0.12192625544E+04 -0.31456020431E+03  0.20436494102E+04  0.10100000352E+00 0. -1.
       -3    1    3    3    0  502  0.16096439367E+04  0.12192625544E+04  0.57689347622E+03  0.21000859203E+04  0.10100000352E+00 0.  1.
</event>
<event>
 5   0  0.1351000E-07  0.2792514E+04  0.7818609E-02  0.8305596E-01
       -1   -1    0    0    0  501  0.00000000000E+00  0.00000000000E+00  0.76474942626E+03  0.76474942628E+03  0.50400001928E-02 0. -1.
        1   -1    0    0  501    0  0.00000000000E+00  0.00000000000E+00 -0.25492451849E+04  0.25492451849E+04  0.50400001928E-02 0.  1.
    10030    2    1    2    0    0  0.00000000000E+00  0.00000000000E+00 -0.17844957587E+04  0.33139946112E+04  0.27925141308E+04 0.  0.
        3    1    3    3  502    0 -0.78257530199E+03  0.11279044077E+04 -0.11946723959E+04  0.18198446637E+04  0.10100000352E+00 0. -1.
       -3    1    3    3    0  502  0.78257530199E+03 -0.11279044077E+04 -0.58982336275E+03  0.14941499475E+04  0.10100000352E+00 0.  1.
</event>
<event>
 5   0  0.4079777E-07  0.4080843E+04  0.7818609E-02  0.7988434E-01
        2   -1    0    0  501    0  0.00000000000E+00  0.00000000000E+00  0.17354498105E+04  0.17354498105E+04  0.25500000920E-02 0.  1.
       -2   -1    0    0    0  501  0.00000000000E+00  0.00000000000E+00 -0.23989860267E+04  0.23989860267E+04  0.25500000920E-02 0. -1.
    10030    2    1    2    0    0  0.00000000000E+00  0.00000000000E+00 -0.66353621620E+03  0.41344358372E+04  0.40808429744E+04 0.  0.
        4    1    3    3  502    0 -0.61431702079E+03  0.19248299000E+04 -0.43491881814E+02  0.20209524246E+04  0.12699999809E+01 0. -1.
       -4    1    3    3    0  502  0.61431702079E+03 -0.19248299000E+04 -0.62004433439E+03  0.21134834126E+04  0.12699999809E+01 0.  1.
</event>
<event>
 5   0  0.4301754E-07  0.2569381E+04  0.7818609E-02  0.8378677E-01
        2   -1    0    0  501    0  0.00000000000E+00  0.00000000000E+00  0.22943863528E+04  0.22943863529E+04  0.25500000920E-02 0. -1.
       -2   -1    0    0    0  501  0.00000000000E+00  0.00000000000E+00 -0.71933393378E+03  0.71933393379E+03  0.25500000920E-02 0.  1.
    10030    2    1    2    0    0  0.00000000000E+00  0.00000000000E+00  0.15750524191E+04  0.30137202866E+04  0.25693812180E+04 0.  0.
        1    1    3    3  502    0  0.11624021429E+04  0.49916332871E+03  0.52502111814E+03  0.13696678229E+04  0.50400001928E-02 0. -1.
       -1    1    3    3    0  502 -0.11624021429E+04 -0.49916332871E+03  0.10500313009E+04  0.16440524637E+04  0.50400001928E-02 0.  1.
</event>
<event>
 5   0  0.4047916E-07  0.4054968E+04  0.7818609E-02  0.7993549E-01
        2   -1    0    0  501    0  0.00000000000E+00  0.00000000000E+00  0.23394984577E+04  0.23394984577E+04  0.25500000920E-02 0. -1.
       -2   -1    0    0    0  501  0.00000000000E+00  0.00000000000E+00 -0.17570824589E+04  0.17570824589E+04  0.25500000920E-02 0.  1.
    10030    2    1    2    0    0  0.00000000000E+00  0.00000000000E+00  0.58241599877E+03  0.40965809166E+04  0.40549681640E+04 0.  0.
        5    1    3    3  502    0  0.31032395705E+03 -0.33654684931E+03 -0.17041825063E+04  0.17646033109E+04  0.46999998093E+01 0.  1.
       -5    1    3    3    0  502 -0.31032395705E+03  0.33654684931E+03  0.22865985051E+04  0.23319776057E+04  0.46999998093E+01 0. -1.
</event>
<event>
 5   0  0.1351000E-07  0.3960871E+04  0.7818609E-02  0.8012487E-01
        1   -1    0    0  501    0  0.00000000000E+00  0.00000000000E+00  0.19699821459E+04  0.19699821460E+04  0.50400001928E-02 0.  1.
       -1   -1    0    0    0  501  0.00000000000E+00  0.00000000000E+00 -0.19909440734E+04  0.19909440734E+04  0.50400001928E-02 0. -1.
    10030    2    1    2    0    0  0.00000000000E+00  0.00000000000E+00 -0.20961927464E+02  0.39609262194E+04  0.39608707518E+04 0.  0.
        4    1    3    3  502    0  0.12840899845E+04  0.74333523718E+03 -0.13222494247E+04  0.19874052222E+04  0.12699999809E+01 0. -1.
       -4    1    3    3    0  502 -0.12840899845E+04 -0.74333523718E+03  0.13012874972E+04  0.19735209972E+04  0.12699999809E+01 0.  1.
</event>
<event>
 5   0  0.1368865E-07  0.3321324E+04  0.7818609E-02  0.8157491E-01
       -1   -1    0    0    0  501  0.00000000000E+00  0.00000000000E+00  0.16597901440E+04  0.16597901440E+04  0.50400001928E-02 0.  1.
        1   -1    0    0  501    0  0.00000000000E+00  0.00000000000E+00 -0.16615342838E+04  0.16615342838E+04  0.50400001928E-02 0. -1.
    10030    2    1    2    0    0  0.00000000000E+00  0.00000000000E+00 -0.17441397379E+01  0.33213244278E+04  0.33213239699E+04 0.  0.
        5    1    3    3  502    0  0.56179974025E+03 -0.22400852420E+03  0.15457300221E+04  0.16598500409E+04  0.46999998093E+01 0.  1.
       -5    1    3    3    0  502 -0.56179974025E+03  0.22400852420E+03 -0.15474741618E+04  0.16614743870E+04  0.46999998093E+01 0. -1.
</event>
<event>
 5   0  0.4149487E-07  0.3865057E+04  0.7818609E-02  0.8032336E-01
        2   -1    0    0  501    0  0.00000000000E+00  0.00000000000E+00  0.19283634775E+04  0.19283634775E+04  0.25500000920E-02 0. -1.
       -2   -1    0    0    0  501  0.00000000000E+00  0.00000000000E+00 -0.19367027114E+04  0.19367027114E+04  0.25500000920E-02 0.  1.
    10030    2    1    2    0    0  0.00000000000E+00  0.00000000000E+00 -0.83392338887E+01  0.38650661890E+04  0.38650571926E+04 0.  0.
        2    1    3    3  502    0  0.32052494149E+03 -0.75637465395E+03  0.17450708366E+04  0.19287589482E+04  0.25500000920E-02 0. -1.
       -2    1    3    3    0  502 -0.32052494149E+03  0.75637465395E+03 -0.17534100705E+04  0.19363072408E+04  0.25500000920E-02 0.  1.
</event>
<event>
 5   0  0.1351000E-07  0.2539569E+04  0.7818609E-02  0.8389023E-01
       -1   -1    0    0    0  501  0.00000000000E+00  0.00000000000E+00  0.15501208458E+04  0.15501208458E+04  0.50400001928E-02 0.  1.
        1   -1    0    0  501    0  0.00000000000E+00  0.00000000000E+00 -0.10401465960E+04  0.10401465960E+04  0.50400001928E-02 0. -1.
    10030    2    1    2    0    0  0.00000000000E+00  0.00000000000E+00  0.50997424982E+03  0.25902674418E+04  0.25395691927E+04 0.  0.
        4    1    3    3  502    0  0.70371956648E+03 -0.40804844636E+03 -0.73947792681E+03  0.10993425217E+04  0.12699999809E+01 0. -1.
       -4    1    3    3    0  502 -0.70371956648E+03  0.40804844636E+03  0.12494521766E+04  0.14909249201E+04  0.12699999809E+01 0.  1.
</event>
<event>
 5   0  0.4047916E-07  0.3909004E+04  0.7818609E-02  0.8023159E-01
       -2   -1    0    0    0  501  0.00000000000E+00  0.00000000000E+00  0.18187907972E+04  0.18187907973E+04  0.25500000920E-02 0. -1.
        2   -1    0    0  501    0  0.00000000000E+00  0.00000000000E+00 -0.21003392061E+04  0.21003392061E+04  0.25500000920E-02 0.  1.
    10030    2    1    2    0    0  0.00000000000E+00  0.00000000000E+00 -0.28154840885E+03  0.39191300033E+04  0.39090037704E+04 0.  0.
        5    1    3    3  502    0 -0.59225568200E+03  0.38362876957E+03 -0.19681635495E+04  0.20908437707E+04  0.46999998093E+01 0.  1.
       -5    1    3    3    0  502  0.59225568200E+03 -0.38362876957E+03  0.16866151407E+04  0.18282862327E+04  0.46999998093E+01 0. -1.
</event>
<event>
 5   0  0.1368865E-07  0.3943022E+04  0.7818609E-02  0.8016140E-01
       -1   -1    0    0    0  501  0.00000000000E+00  0.00000000000E+00  0.13239706585E+04  0.13239706585E+04  0.50400001928E-02 0. -1.
        1   -1    0    0  501    0  0.00000000000E+00  0.00000000000E+00 -0.29357567030E+04  0.29357567030E+04  0.50400001928E-02 0.  1.
    10030    2    1    2    0    0  0.00000000000E+00  0.00000000000E+00 -0.16117860445E+04  0.42597273615E+04  0.39430220569E+04 0.  0.
        5    1    3    3  502    0  0.12201879738E+04 -0.10768180892E+04  0.39634286879E+03  0.16749643722E+04  0.46999998093E+01 0. -1.
       -5    1    3    3    0  502 -0.12201879738E+04  0.10768180892E+04 -0.20081289133E+04  0.25847629893E+04  0.46999998093E+01 0.  1.
</event>
<event>
 5   0  0.1372952E-07  0.4004546E+04  0.7818609E-02  0.8003630E-01
       -1   -1    0    0    0  501  0.00000000000E+00  0.00000000000E+00  0.32160210163E+04  0.32160210164E+04  0.50400001928E-02 0.  1.
        1   -1    0    0  501    0  0.00000000000E+00  0.00000000000E+00 -0.12466016678E+04  0.12466016678E+04  0.50400001928E-02 0. -1.
    10030    2    1    2    0    0  0.00000000000E+00  0.00000000000E+00  0.19694193486E+04  0.44626226842E+04  0.40045459981E+04 0.  0.
        1    1    3    3  502    0 -0.38574192993E+03 -0.12256243885E+04  0.26959939195E+04  0.29865256055E+04  0.50400001928E-02 0.  1.
       -1    1    3    3    0  502  0.38574192993E+03  0.12256243885E+04 -0.72657457098E+03  0.14760970786E+04  0.50400001928E-02 0. -1.
</event>
<event>
 5   0  0.4149487E-07  0.2894813E+04  0.7818609E-02  0.8274422E-01
       -2   -1    0    0    0  501  0.00000000000E+00  0.00000000000E+00  0.12424725214E+04  0.12424725214E+04  0.25500000920E-02 0.  1.
        2   -1    0    0  501    0  0.00000000000E+00  0.00000000000E+00 -0.16861427798E+04  0.16861427798E+04  0.25500000920E-02 0. -1.
    10030    2    1    2    0    0  0.00000000000E+00  0.00000000000E+00 -0.44367025841E+03  0.29286153013E+04  0.28948133419E+04 0.  0.
        2    1    3    3  502    0  0.92635877633E+03  0.80468317173E+03 -0.99847773863E+03  0.15819650388E+04  0.25500000920E-02 0. -1.
       -2    1    3    3    0  502 -0.92635877633E+03 -0.80468317173E+03  0.55480748023E+03  0.13466502625E+04  0.25500000920E-02 0.  1.
</event>
<event>
 5   0  0.1368865E-07  0.3258852E+04  0.7818609E-02  0.8173445E-01
        1   -1    0    0  501    0  0.00000000000E+00  0.00000000000E+00  0.23630501869E+04  0.23630501869E+04  0.50400001928E-02 0.  1.
       -1   -1    0    0    0  501  0.00000000000E+00  0.00000000000E+00 -0.11235602709E+04  0.11235602709E+04  0.50400001928E-02 0. -1.
    10030    2    1    2    0    0  0.00000000000E+00  0.00000000000E+00  0.12394899161E+04  0.34866104578E+04  0.32588521342E+04 0.  0.
        5    1    3    3  502    0  0.16241725098E+04 -0.12963887901E+02  0.48064779153E+03  0.16938561903E+04  0.46999998093E+01 0.  1.
       -5    1    3    3    0  502 -0.16241725098E+04  0.12963887901E+02  0.75884212454E+03  0.17927542675E+04  0.46999998093E+01 0. -1.
</event>
<event>
 5   0  0.4301754E-07  0.4029157E+04  0.7818609E-02  0.7998690E-01
       -2   -1    0    0    0  501  0.00000000000E+00  0.00000000000E+00  0.13597600683E+04  0.13597600683E+04  0.25500000920E-02 0. -1.
        2   -1    0    0  501    0  0.00000000000E+00  0.00000000000E+00 -0.29847376557E+04  0.29847376557E+04  0.25500000920E-02 0.  1.
    10030    2    1    2    0    0  0.00000000000E+00  0.00000000000E+00 -0.16249775874E+04  0.43444977239E+04  0.40291572709E+04 0.  0.
        1    1    3    3  502    0 -0.18978859720E+04 -0.26383517905E+03 -0.14175367159E+03  0.19213730163E+04  0.50400001928E-02 0. -1.
       -1    1    3    3    0  502  0.18978859720E+04  0.26383517905E+03 -0.14832239158E+04  0.24231247076E+04  0.50400001928E-02 0.  1.
</event>
<event>
 5   0  0.1372952E-07  0.3029769E+04  0.7818609E-02  0.8235281E-01
        1   -1    0    0  501    0  0.00000000000E+00  0.00000000000E+00  0.15400179123E+04  0.15400179123E+04  0.50400001928E-02 0. -1.
       -1   -1    0    0    0  501  0.00000000000E+00  0.00000000000E+00 -0.14901613928E+04  0.14901613928E+04  0.50400001928E-02 0.  1.
    10030    2    1    2    0    0  0.00000000000E+00  0.00000000000E+00  0.49856519435E+02  0.30301793051E+04  0.30297691246E+04 0.  0.
        1    1    3    3  502    0 -0.29670156409E+03 -0.13489490342E+04 -0.59739381506E+03  0.15048503863E+04  0.50400001928E-02 0. -1.
       -1    1    3    3    0  502  0.29670156409E+03  0.13489490342E+04  0.64725033449E+03  0.15253289188E+04  0.50400001928E-02 0.  1.
</event>
<event>
 5   0  0.1421304E-07  0.3901514E+04  0.7818609E-02  0.8024714E-01
       -1   -1    0    0    0  501  0.00000000000E+00  0.00000000000E+00  0.33381726655E+04  0.33381726655E+04  0.50400001928E-02 0. -1.
        1   -1    0    0  501    0  0.00000000000E+00  0.00000000000E+00 -0.11399808547E+04  0.11399808547E+04  0.50400001928E-02 0.  1.
    10030    2    1    2    0    0  0.00000000000E+00  0.00000000000E+00  0.21981918108E+04  0.44781535202E+04  0.39015140283E+04 0.  0.
        2    1    3    3  502    0 -0.11555672567E+04 -0.95681233828E+03 -0.33203369055E+03  0.15365779860E+04  0.25500000920E-02 0.  1.
       -2    1    3    3    0  502  0.11555672567E+04  0.95681233828E+03  0.25302255014E+04  0.29415755342E+04  0.25500000920E-02 0. -1.
</event>
<event>
 5   0  0.4079777E-07  0.3957559E+04  0.7818609E-02  0.8013163E-01
        2   -1    0    0  501    0  0.00000000000E+00  0.00000000000E+00  0.24660677343E+04  0.24660677343E+04  0.25500000920E-02 0. -1.
       -2   -1    0    0    0  501  0.00000000000E+00  0.00000000000E+00 -0.15877779965E+04  0.15877779965E+04  0.25500000920E-02 0.  1.
    10030    2    1    2    0    0  0.00000000000E+00  0.00000000000E+00  0.87828973781E+03  0.40538457309E+04  0.39575588873E+04 0.  0.
        4    1    3    3  502    0  0.14233372334E+04  0.14326754235E+02 -0.96887927184E+03  0.17218660785E+04  0.12699999809E+01 0.  1.
       -4    1    3    3    0  502 -0.14233372334E+04 -0.14326754235E+02  0.18471690096E+04  0.23319796524E+04  0.12699999809E+01 0. -1.
</event>
<event>
 5   0  0.4149487E-07  0.3182615E+04  0.7818609E-02  0.8193424E-01
       -2   -1    0    0    0  501  0.00000000000E+00  0.00000000000E+00  0.13334012238E+04  0.13334012238E+04  0.25500000920E-02 0. -1.
        2   -1    0    0  501    0  0.00000000000E+00  0.00000000000E+00 -0.18990979239E+04  0.18990979239E+04  0.25500000920E-02 0.  1.
    10030    2    1    2    0    0  0.00000000000E+00  0.00000000000E+00 -0.56569670009E+03  0.32324991477E+04  0.31826149600E+04 0.  0.
        2    1    3    3  502    0 -0.64761915169E+03  0.22577656123E+03  0.11755809041E+04  0.13610202362E+04  0.25500000920E-02 0. -1.
       -2    1    3    3    0  502  0.64761915169E+03 -0.22577656123E+03 -0.17412776042E+04  0.18714789115E+04  0.25500000920E-02 0.  1.
</event>
<event>
 5   0  0.4079777E-07  0.3922438E+04  0.7818609E-02  0.8020379E-01
        2   -1    0    0  501    0  0.00000000000E+00  0.00000000000E+00  0.21950361563E+04  0.21950361563E+04  0.25500000920E-02 0. -1.
       -2   -1    0    0    0  501  0.00000000000E+00  0.00000000000E+00 -0.17523081198E+04  0.17523081198E+04  0.25500000920E-02 0.  1.
    10030    2    1    2    0    0  0.00000000000E+00  0.00000000000E+00  0.44272803655E+03  0.39473442761E+04  0.39224378541E+04 0.  0.
        4    1    3    3  502    0  0.19106594723E+02  0.35506643585E+03 -0.17195976137E+04  0.17559768796E+04  0.12699999809E+01 0.  1.
       -4    1    3    3    0  502 -0.19106594723E+02 -0.35506643585E+03  0.21623256502E+04  0.21913673965E+04  0.12699999809E+01 0. -1.
</event>
<event>
 5   0  0.1421304E-07  0.4018732E+04  0.7818609E-02  0.8000778E-01
        1   -1    0    0  501    0  0.00000000000E+00  0.00000000000E+00  0.27004649035E+04  0.27004649035E+04  0.50400001928E-02 0.  1.
       -1   -1    0    0    0  501  0.00000000000E+00  0.00000000000E+00 -0.14951320906E+04  0.14951320906E+04  0.50400001928E-02 0. -1.
    10030    2    1    2    0    0  0.00000000000E+00  0.00000000000E+00  0.12053328130E+04  0.41955969941E+04  0.40187320073E+04 0.  0.
        2    1    3    3  502    0  0.75786998034E+03  0.17213090120E+04  0.13410998205E+04  0.23099394690E+04  0.25500000920E-02 0.  1.
       -2    1    3    3    0  502 -0.75786998034E+03 -0.17213090120E+04 -0.13576700751E+03  0.18856575251E+04  0.25500000920E-02 0. -1.
</event>
<event>
 5   0  0.4301754E-07  0.3947645E+04  0.7818609E-02  0.8015192E-01
        2   -1    0    0  501    0  0.00000000000E+00  0.00000000000E+00  0.33487951449E+04  0.33487951449E+04  0.25500000920E-02 0. -1.
       -2   -1    0    0    0  501  0.00000000000E+00  0.00000000000E+00 -0.11633962646E+04  0.11633962646E+04  0.25500000920E-02 0.  1.
    10030    2    1    2    0    0  0.00000000000E+00  0.00000000000E+00  0.21853988803E+04  0.45121914095E+04  0.39476452538E+04 0.  0.
        1    1    3    3  502    0  0.10385786311E+04  0.30069858882E+03  0.29801902313E+04  0.31702679743E+04  0.50400001928E-02 0. -1.
       -1    1    3    3    0  502 -0.10385786311E+04 -0.30069858882E+03 -0.79479135091E+03  0.13419234352E+04  0.50400001928E-02 0.  1.
</event>
<event>
 5   0  0.1351000E-07  0.2525498E+04  0.7818609E-02  0.8393958E-01
       -1   -1    0    0    0  501  0.00000000000E+00  0.00000000000E+00  0.12155636974E+04  0.12155636974E+04  0.50400001928E-02 0.  1.
        1   -1    0    0  501    0  0.00000000000E+00  0.00000000000E+00 -0.13117659975E+04  0.13117659975E+04  0.50400001928E-02 0. -1.
    10030    2    1    2    0    0  0.00000000000E+00  0.00000000000E+00 -0.96202300064E+02  0.25273296949E+04  0.25254980706E+04 0.  0.
        4    1    3    3  502    0  0.61311436497E+03  0.10914075106E+04 -0.21391360751E+03  0.12699764655E+04  0.12699999809E+01 0. -1.
       -4    1    3    3    0  502 -0.61311436497E+03 -0.10914075106E+04  0.11771130745E+03  0.12573532294E+04  0.12699999809E+01 0.  1.
</event>
<event>
 5   0  0.1421304E-07  0.3438595E+04  0.7818609E-02  0.8128498E-01
        1   -1    0    0  501    0  0.00000000000E+00  0.00000000000E+00  0.22413255834E+04  0.22413255834E+04  0.50400001928E-02 0. -1.
       -1   -1    0    0    0  501  0.00000000000E+00  0.00000000000E+00 -0.13188548247E+04  0.13188548247E+04  0.50400001928E-02 0.  1.
    10030    2    1    2    0    0  0.00000000000E+00  0.00000000000E+00  0.92247075869E+03  0.35601804081E+04  0.34385945148E+04 0.  0.
        2    1    3    3  502    0  0.11755968583E+04 -0.60474875584E+03 -0.67682832094E+03  0.14852089439E+04  0.25500000920E-02 0.  1.
       -2    1    3    3    0  502 -0.11755968583E+04  0.60474875584E+03  0.15992990796E+04  0.20749714642E+04  0.25500000920E-02 0. -1.
</event>
<event>
 5   0  0.1372952E-07  0.3907356E+04  0.7818609E-02  0.8023501E-01
       -1   -1    0    0    0  501  0.00000000000E+00  0.00000000000E+00  0.28522531160E+04  0.28522531160E+04  0.50400001928E-02 0.  1.
        1   -1    0    0  501    0  0.00000000000E+00  0.00000000000E+00 -0.13381905842E+04  0.13381905842E+04  0.50400001928E-02 0. -1.
    10030    2    1    2    0    0  0.00000000000E+00  0.00000000000E+00  0.15140625318E+04  0.41904437002E+04  0.39073562743E+04 0.  0.
        1    1    3    3  502    0 -0.13784158753E+04 -0.58847777889E+02  0.22404914581E+04  0.26312155670E+04  0.50400001928E-02 0.  1.
       -1    1    3    3    0  502  0.13784158753E+04  0.58847777889E+02 -0.72642892628E+03  0.15592281332E+04  0.50400001928E-02 0. -1.
</event>
<event>
 5   0  0.4079777E-07  0.3840346E+04  0.7818609E-02  0.8037552E-01
        2   -1    0    0  501    0  0.00000000000E+00  0.00000000000E+00  0.13004826776E+04  0.13004826776E+04  0.25500000920E-02 0.  1.
       -2   -1    0    0    0  501  0.00000000000E+00  0.00000000000E+00 -0.28351510810E+04  0.28351510810E+04  0.25500000920E-02 0. -1.
    10030    2    1    2    0    0  0.00000000000E+00  0.00000000000E+00 -0.15346684034E+04  0.41356337586E+04  0.38403462704E+04 0.  0.
        4    1    3    3  502    0  0.14464959710E+04  0.10104707376E+04  0.48307755454E+02  0.17651450246E+04  0.12699999809E+01 0. -1.
       -4    1    3    3    0  502 -0.14464959710E+04 -0.10104707376E+04 -0.15829761588E+04  0.23704887340E+04  0.12699999809E+01 0.  1.
</event>
<event>
 5   0  0.1351000E-07  0.2577298E+04  0.7818609E-02  0.8375954E-01
       -1   -1    0    0    0  501  0.00000000000E+00  0.00000000000E+00  0.91799112290E+03  0.91799112292E+03  0.50400001928E-02 0. -1.
        1   -1    0    0  501    0  0.00000000000E+00  0.00000000000E+00 -0.18089670351E+04  0.18089670351E+04  0.50400001928E-02 0.  1.
    10030    2    1    2    0    0  0.00000000000E+00  0.00000000000E+00 -0.89097591222E+03  0.27269581581E+04  0.25772975613E+04 0.  0.
        3    1    3    3  502    0 -0.10594356404E+04  0.10875824029E+03 -0.12131410770E+04  0.16142935030E+04  0.10100000352E+00 0.  1.
       -3    1    3    3    0  502  0.10594356404E+04 -0.10875824029E+03  0.32216516480E+03  0.11126646550E+04  0.10100000352E+00 0. -1.
</event>
<event>
 5   0  0.1368865E-07  0.4017738E+04  0.7818609E-02  0.8000978E-01
       -1   -1    0    0    0  501  0.00000000000E+00  0.00000000000E+00  0.18707468505E+04  0.18707468505E+04  0.50400001928E-02 0. -1.
        1   -1    0    0  501    0  0.00000000000E+00  0.00000000000E+00 -0.21571886622E+04  0.21571886622E+04  0.50400001928E-02 0.  1.
    10030    2    1    2    0    0  0.00000000000E+00  0.00000000000E+00 -0.28644181171E+03  0.40279355127E+04  0.40177376200E+04 0.  0.
        5    1    3    3  502    0 -0.92376159421E+03  0.17768906136E+04  0.14837344463E+02  0.20027276331E+04  0.46999998093E+01 0. -1.
       -5    1    3    3    0  502  0.92376159421E+03 -0.17768906136E+04 -0.30127915618E+03  0.20252078796E+04  0.46999998093E+01 0.  1.
</event>
<event>
 5   0  0.1351000E-07  0.3960889E+04  0.7818609E-02  0.8012483E-01
        1   -1    0    0  501    0  0.00000000000E+00  0.00000000000E+00  0.22288263845E+04  0.22288263845E+04  0.50400001928E-02 0. -1.
       -1   -1    0    0    0  501  0.00000000000E+00  0.00000000000E+00 -0.17597422923E+04  0.17597422924E+04  0.50400001928E-02 0.  1.
    10030    2    1    2    0    0  0.00000000000E+00  0.00000000000E+00  0.46908409215E+03  0.39885686769E+04  0.39608888150E+04 0.  0.
        3    1    3    3  502    0  0.71740976004E+03  0.18111682121E+04 -0.12453504798E+03  0.19520543140E+04  0.10100000352E+00 0.  1.
       -3    1    3    3    0  502 -0.71740976004E+03 -0.18111682121E+04  0.59361914013E+03  0.20365143629E+04  0.10100000352E+00 0. -1.
</event>
<event>
 5   0  0.4149487E-07  0.4049232E+04  0.7818609E-02  0.7994688E-01
        2   -1    0    0  501    0  0.00000000000E+00  0.00000000000E+00  0.20691397665E+04  0.20691397665E+04  0.25500000920E-02 0. -1.
       -2   -1    0    0    0  501  0.00000000000E+00  0.00000000000E+00 -0.19810506277E+04  0.19810506277E+04  0.25500000920E-02 0.  1.
    10030    2    1    2    0    0  0.00000000000E+00  0.00000000000E+00  0.88089138789E+02  0.40501903942E+04  0.40492323387E+04 0.  0.
        2    1    3    3  502    0  0.13490808407E+04 -0.18160367278E+03  0.15430891316E+04  0.20576984902E+04  0.25500000920E-02 0. -1.
       -2    1    3    3    0  502 -0.13490808407E+04  0.18160367278E+03 -0.14549999928E+04  0.19924919040E+04  0.25500000920E-02 0.  1.
</event>
<event>
 5   0  0.4149487E-07  0.3991433E+04  0.7818609E-02  0.8006277E-01
       -2   -1    0    0    0  501  0.00000000000E+00  0.00000000000E+00  0.14263789091E+04  0.14263789091E+04  0.25500000920E-02 0. -1.
        2   -1    0    0  501    0  0.00000000000E+00  0.00000000000E+00 -0.27923046411E+04  0.27923046411E+04  0.25500000920E-02 0.  1.
    10030    2    1    2    0    0  0.00000000000E+00  0.00000000000E+00 -0.13659257321E+04  0.42186835502E+04  0.39914330498E+04 0.  0.
        2    1    3    3  502    0  0.10200578920E+04  0.84697414550E+03 -0.22595327255E+04  0.26198037033E+04  0.25500000920E-02 0.  1.
       -2    1    3    3    0  502 -0.10200578920E+04 -0.84697414550E+03  0.89360699342E+03  0.15988798469E+04  0.25500000920E-02 0. -1.
</event>
<event>
 5   0  0.4079777E-07  0.4073676E+04  0.7818609E-02  0.7989846E-01
       -2   -1    0    0    0  501  0.00000000000E+00  0.00000000000E+00  0.17873312155E+04  0.17873312155E+04  0.25500000920E-02 0.  1.
        2   -1    0    0  501    0  0.00000000000E+00  0.00000000000E+00 -0.23211752889E+04  0.23211752889E+04  0.25500000920E-02 0. -1.
    10030    2    1    2    0    0  0.00000000000E+00  0.00000000000E+00 -0.53384407343E+03  0.41085065045E+04  0.40736760061E+04 0.  0.
        4    1    3    3  502    0  0.12434930164E+04 -0.16071850108E+04 -0.12648746137E+03  0.20360057052E+04  0.12699999809E+01 0.  1.
       -4    1    3    3    0  502 -0.12434930164E+04  0.16071850108E+04 -0.40735661206E+03  0.20725007993E+04  0.12699999809E+01 0. -1.
</event>
<event>
 5   0  0.1351000E-07  0.4007109E+04  0.7818609E-02  0.8003114E-01
        3   -1    0    0  501    0  0.00000000000E+00  0.00000000000E+00  0.22488323431E+04  0.22488323454E+04  0.10100000352E+00 0.  1.
       -3   -1    0    0    0  501  0.00000000000E+00  0.00000000000E+00 -0.17850284503E+04  0.17850284531E+04  0.10100000352E+00 0. -1.
    10030    2    1    2    0    0  0.00000000000E+00  0.00000000000E+00  0.46380389288E+03  0.40338607985E+04  0.40071085449E+04 0.  0.
        3    1    3    3  502    0 -0.11297458208E+04  0.17619319760E+02 -0.14337117876E+04  0.18254220224E+04  0.10100000352E+00 0. -1.
       -3    1    3    3    0  502  0.11297458208E+04 -0.17619319760E+02  0.18975156804E+04  0.22084387761E+04  0.10100000352E+00 0.  1.
</event>
<event>
 5   0  0.1351000E-07  0.4076124E+04  0.7818609E-02  0.7989364E-01
        1   -1    0    0  501    0  0.00000000000E+00  0.00000000000E+00  0.12983758519E+04  0.12983758520E+04  0.50400001928E-02 0.  1.
       -1   -1    0    0    0  501  0.00000000000E+00  0.00000000000E+00 -0.31991485633E+04  0.31991485633E+04  0.50400001928E-02 0. -1.
    10030    2    1    2    0    0  0.00000000000E+00  0.00000000000E+00 -0.19007727113E+04  0.44975244152E+04  0.40761242578E+04 0.  0.
        3    1    3    3  502    0 -0.18689905652E+02  0.16734988370E+04  0.33293321048E+03  0.17063974340E+04  0.10100000352E+00 0.  1.
       -3    1    3    3    0  502  0.18689905652E+02 -0.16734988370E+04 -0.22337059218E+04  0.27911269812E+04  0.10100000352E+00 0. -1.
</event>
<event>
 5   0  0.1351000E-07  0.3006407E+04  0.7818609E-02  0.8241904E-01
        1   -1    0    0  501    0  0.00000000000E+00  0.00000000000E+00  0.12331018097E+04  0.12331018097E+04  0.50400001928E-02 0. -1.
       -1   -1    0    0    0  501  0.00000000000E+00  0.00000000000E+00 -0.18324686669E+04  0.18324686669E+04  0.50400001928E-02 0.  1.
    10030    2    1    2    0    0  0.00000000000E+00  0.00000000000E+00 -0.59936685723E+03  0.30655704766E+04  0.30064067784E+04 0.  0.
        4    1    3    3  502    0  0.11465645860E+04  0.97132527012E+03 -0.33964244721E+03  0.15405978499E+04  0.12699999809E+01 0.  1.
       -4    1    3    3    0  502 -0.11465645860E+04 -0.97132527012E+03 -0.25972441001E+03  0.15249726267E+04  0.12699999809E+01 0. -1.
</event>
<event>
 5   0  0.4047916E-07  0.3894288E+04  0.7818609E-02  0.8026218E-01
        2   -1    0    0  501    0  0.00000000000E+00  0.00000000000E+00  0.22562464298E+04  0.22562464298E+04  0.25500000920E-02 0.  1.
       -2   -1    0    0    0  501  0.00000000000E+00  0.00000000000E+00 -0.16803882636E+04  0.16803882636E+04  0.25500000920E-02 0. -1.
    10030    2    1    2    0    0  0.00000000000E+00  0.00000000000E+00  0.57585816622E+03  0.39366346935E+04  0.38942881355E+04 0.  0.
        5    1    3    3  502    0  0.10002838792E+04 -0.91844561359E+03 -0.11226795059E+04  0.17619709269E+04  0.46999998093E+01 0. -1.
       -5    1    3    3    0  502 -0.10002838792E+04  0.91844561359E+03  0.16985376721E+04  0.21746637666E+04  0.46999998093E+01 0.  1.
</event>
<event>
 5   0  0.1368865E-07  0.4037523E+04  0.7818609E-02  0.7997019E-01
       -1   -1    0    0    0  501  0.00000000000E+00  0.00000000000E+00  0.13877540061E+04  0.13877540061E+04  0.50400001928E-02 0. -1.
        1   -1    0    0  501    0  0.00000000000E+00  0.00000000000E+00 -0.29366865940E+04  0.29366865940E+04  0.50400001928E-02 0.  1.
    10030    2    1    2    0    0  0.00000000000E+00  0.00000000000E+00 -0.15489325879E+04  0.43244406002E+04  0.40375232931E+04 0.  0.
        5    1    3    3  502    0  0.15437269216E+04 -0.12989455770E+04 -0.85038397957E+03  0.21894125749E+04  0.46999998093E+01 0. -1.
       -5    1    3    3    0  502 -0.15437269216E+04  0.12989455770E+04 -0.69854860831E+03  0.21350280253E+04  0.46999998093E+01 0.  1.
</event>
<event>
 5   0  0.1421304E-07  0.3990650E+04  0.7818609E-02  0.8006435E-01
        1   -1    0    0  501    0  0.00000000000E+00  0.00000000000E+00  0.13929083683E+04  0.13929083683E+04  0.50400001928E-02 0.  1.
       -1   -1    0    0    0  501  0.00000000000E+00  0.00000000000E+00 -0.28582805062E+04  0.28582805062E+04  0.50400001928E-02 0. -1.
    10030    2    1    2    0    0  0.00000000000E+00  0.00000000000E+00 -0.14653721379E+04  0.42511888745E+04  0.39906504913E+04 0.  0.
        2    1    3    3  502    0  0.31430257968E+03 -0.14047150334E+04 -0.22046772357E+04  0.26329854064E+04  0.25500000920E-02 0. -1.
       -2    1    3    3    0  502 -0.31430257968E+03  0.14047150334E+04  0.73930509779E+03  0.16182034681E+04  0.25500000920E-02 0.  1.
</event>
<event>
 5   0  0.4077370E-07  0.4084971E+04  0.7818609E-02  0.7987621E-01
       -2   -1    0    0    0  501  0.00000000000E+00  0.00000000000E+00  0.26645736851E+04  0.26645736851E+04  0.25500000920E-02 0.  1.
        2   -1    0    0  501    0  0.00000000000E+00  0.00000000000E+00 -0.15656340982E+04  0.15656340982E+04  0.25500000920E-02 0. -1.
    10030    2    1    2    0    0  0.00000000000E+00  0.00000000000E+00  0.10989395868E+04  0.42302077833E+04  0.40849711963E+04 0.  0.
        3    1    3    3  502    0  0.82859042618E+03  0.17690079699E+04  0.11671636802E+04  0.22755707764E+04  0.10100000352E+00 0.  1.
       -3    1    3    3    0  502 -0.82859042618E+03 -0.17690079699E+04 -0.68224093326E+02  0.19546370069E+04  0.10100000352E+00 0. -1.
</event>
<event>
 5   0  0.1351000E-07  0.4084252E+04  0.7818609E-02  0.7987763E-01
        1   -1    0    0  501    0  0.00000000000E+00  0.00000000000E+00  0.25522274602E+04  0.25522274602E+04  0.50400001928E-02 0.  1.
       -1   -1    0    0    0  501  0.00000000000E+00  0.00000000000E+00 -0.16339762983E+04  0.16339762983E+04  0.50400001928E-02 0. -1.
    10030    2    1    2    0    0  0.00000000000E+00  0.00000000000E+00  0.91825116190E+03  0.41862037585E+04  0.40842522830E+04 0.  0.
        3    1    3    3  502    0 -0.20171369439E+04 -0.27346526844E+03  0.62646289021E+03  0.21298076125E+04  0.10100000352E+00 0.  1.
       -3    1    3    3    0  502  0.20171369439E+04  0.27346526844E+03  0.29178827169E+03  0.20563961460E+04  0.10100000352E+00 0. -1.
</event>
<event>
 5   0  0.1351000E-07  0.4051607E+04  0.7818609E-02  0.7994216E-01
        1   -1    0    0  501    0  0.00000000000E+00  0.00000000000E+00  0.25342817776E+04  0.25342817776E+04  0.50400001928E-02 0.  1.
       -1   -1    0    0    0  501  0.00000000000E+00  0.00000000000E+00 -0.16193460083E+04  0.16193460083E+04  0.50400001928E-02 0. -1.
    10030    2    1    2    0    0  0.00000000000E+00  0.00000000000E+00  0.91493576931E+03  0.41536277860E+04  0.40516066347E+04 0.  0.
        3    1    3    3  502    0  0.15132545772E+04 -0.77346300198E+03  0.15878168816E+04  0.23258002688E+04  0.10100000352E+00 0.  1.
       -3    1    3    3    0  502 -0.15132545772E+04  0.77346300198E+03 -0.67288111226E+03  0.18278275171E+04  0.10100000352E+00 0. -1.
</event>
<event>
 5   0  0.1351000E-07  0.3974587E+04  0.7818609E-02  0.8009693E-01
        1   -1    0    0  501    0  0.00000000000E+00  0.00000000000E+00  0.26143035821E+04  0.26143035821E+04  0.50400001928E-02 0.  1.
       -1   -1    0    0    0  501  0.00000000000E+00  0.00000000000E+00 -0.15106645582E+04  0.15106645582E+04  0.50400001928E-02 0. -1.
    10030    2    1    2    0    0  0.00000000000E+00  0.00000000000E+00  0.11036390239E+04  0.41249681403E+04  0.39745871564E+04 0.  0.
        3    1    3    3  502    0  0.20862920779E+03  0.15497796094E+04  0.18245939609E+04  0.24030160458E+04  0.10100000352E+00 0.  1.
       -3    1    3    3    0  502 -0.20862920779E+03 -0.15497796094E+04 -0.72095493704E+03  0.17219520945E+04  0.10100000352E+00 0. -1.
</event>
<event>
 5   0  0.4047916E-07  0.2624502E+04  0.7818609E-02  0.8359926E-01
        2   -1    0    0  501    0  0.00000000000E+00  0.00000000000E+00  0.12002464230E+04  0.12002464230E+04  0.25500000920E-02 0. -1.
       -2   -1    0    0    0  501  0.00000000000E+00  0.00000000000E+00 -0.14347071458E+04  0.14347071458E+04  0.25500000920E-02 0.  1.
    10030    2    1    2    0    0  0.00000000000E+00  0.00000000000E+00 -0.23446072284E+03  0.26349535687E+04  0.26245015677E+04 0.  0.
        5    1    3    3  502    0  0.24150335982E+03 -0.88314879845E+03  0.82656888951E+03  0.12334966121E+04  0.46999998093E+01 0. -1.
       -5    1    3    3    0  502 -0.24150335982E+03  0.88314879845E+03 -0.10610296123E+04  0.14014569566E+04  0.46999998093E+01 0.  1.
</event>
<event>
 5   0  0.1351000E-07  0.3257254E+04  0.7818609E-02  0.8173858E-01
        1   -1    0    0  501    0  0.00000000000E+00  0.00000000000E+00  0.17780742241E+04  0.17780742241E+04  0.50400001928E-02 0. -1.
       -1   -1    0    0    0  501  0.00000000000E+00  0.00000000000E+00 -0.14917411863E+04  0.14917411863E+04  0.50400001928E-02 0.  1.
    10030    2    1    2    0    0  0.00000000000E+00  0.00000000000E+00  0.28633303776E+03  0.32698154104E+04  0.32572543974E+04 0.  0.
        4    1    3    3  502    0 -0.43515721692E+03 -0.15142942874E+04 -0.27070476292E+03  0.15986655916E+04  0.12699999809E+01 0.  1.
       -4    1    3    3    0  502  0.43515721692E+03  0.15142942874E+04  0.55703780069E+03  0.16711498187E+04  0.12699999809E+01 0. -1.
</event>
<event>
 5   0  0.1351000E-07  0.3966605E+04  0.7818609E-02  0.8011317E-01
        1   -1    0    0  501    0  0.00000000000E+00  0.00000000000E+00  0.12244241255E+04  0.12244241256E+04  0.50400001928E-02 0. -1.
       -1   -1    0    0    0  501  0.00000000000E+00  0.00000000000E+00 -0.32125222127E+04  0.32125222127E+04  0.50400001928E-02 0.  1.
    10030    2    1    2    0    0  0.00000000000E+00  0.00000000000E+00 -0.19880980871E+04  0.44369463382E+04  0.39666054511E+04 0.  0.
        4    1    3    3  502    0  0.96078225456E+03 -0.11604647923E+03 -0.29304828554E+04  0.30861465787E+04  0.12699999809E+01 0.  1.
       -4    1    3    3    0  502 -0.96078225456E+03  0.11604647923E+03  0.94238476832E+03  0.13507997596E+04  0.12699999809E+01 0. -1.
</event>
<event>
 5   0  0.4077370E-07  0.3621757E+04  0.7818609E-02  0.8085526E-01
       -2   -1    0    0    0  501  0.00000000000E+00  0.00000000000E+00  0.13336527439E+04  0.13336527439E+04  0.25500000920E-02 0. -1.
        2   -1    0    0  501    0  0.00000000000E+00  0.00000000000E+00 -0.24588712570E+04  0.24588712570E+04  0.25500000920E-02 0.  1.
    10030    2    1    2    0    0  0.00000000000E+00  0.00000000000E+00 -0.11252185131E+04  0.37925240010E+04  0.36217567002E+04 0.  0.
        3    1    3    3  502    0 -0.13609652578E+04 -0.11718952130E+04 -0.80530331320E+03  0.19682678323E+04  0.10100000352E+00 0. -1.
       -3    1    3    3    0  502  0.13609652578E+04  0.11718952130E+04 -0.31991519987E+03  0.18242561686E+04  0.10100000352E+00 0.  1.
</event>
<event>
 5   0  0.4079777E-07  0.4176232E+04  0.7818609E-02  0.7969909E-01
        2   -1    0    0  501    0  0.00000000000E+00  0.00000000000E+00  0.21816031163E+04  0.21816031163E+04  0.25500000920E-02 0.  1.
       -2   -1    0    0    0  501  0.00000000000E+00  0.00000000000E+00 -0.19986348333E+04  0.19986348333E+04  0.25500000920E-02 0. -1.
    10030    2    1    2    0    0  0.00000000000E+00  0.00000000000E+00  0.18296828298E+03  0.41802379496E+04  0.41762317851E+04 0.  0.
        4    1    3    3  502    0  0.14666398218E+04 -0.46755232373E+03  0.15037198551E+04  0.21519322847E+04  0.12699999809E+01 0.  1.
       -4    1    3    3    0  502 -0.14666398218E+04  0.46755232373E+03 -0.13207515721E+04  0.20283056650E+04  0.12699999809E+01 0. -1.
</event>
<event>
 5   0  0.4079777E-07  0.4061904E+04  0.7818609E-02  0.7992174E-01
       -2   -1    0    0    0  501  0.00000000000E+00  0.00000000000E+00  0.12935517243E+04  0.12935517243E+04  0.25500000920E-02 0. -1.
        2   -1    0    0  501    0  0.00000000000E+00  0.00000000000E+00 -0.31887133127E+04  0.31887133127E+04  0.25500000920E-02 0.  1.
    10030    2    1    2    0    0  0.00000000000E+00  0.00000000000E+00 -0.18951615884E+04  0.44822650370E+04  0.40619037920E+04 0.  0.
        4    1    3    3  502    0 -0.16127763090E+04  0.11361703911E+04 -0.14800451614E+04  0.24662655723E+04  0.12699999809E+01 0.  1.
       -4    1    3    3    0  502  0.16127763090E+04 -0.11361703911E+04 -0.41511642696E+03  0.20159994646E+04  0.12699999809E+01 0. -1.
</event>
<event>
 5   0  0.1368865E-07  0.3888424E+04  0.7818609E-02  0.8027441E-01
        1   -1    0    0  501    0  0.00000000000E+00  0.00000000000E+00  0.17068080550E+04  0.17068080550E+04  0.50400001928E-02 0. -1.
       -1   -1    0    0    0  501  0.00000000000E+00  0.00000000000E+00 -0.22146369016E+04  0.22146369016E+04  0.50400001928E-02 0.  1.
    10030    2    1    2    0    0  0.00000000000E+00  0.00000000000E+00 -0.50782884657E+03  0.39214449566E+04  0.38884238980E+04 0.  0.
        5    1    3    3  502    0  0.56263320971E+02 -0.16828679070E+04 -0.12341397668E+04  0.20876620914E+04  0.46999998093E+01 0. -1.
       -5    1    3    3    0  502 -0.56263320971E+02  0.16828679070E+04  0.72631092027E+03  0.18337828652E+04  0.46999998093E+01 0.  1.
</event>
<event>
 5   0  0.1351000E-07  0.4011551E+04  0.7818609E-02  0.8002220E-01
       -1   -1    0    0    0  501  0.00000000000E+00  0.00000000000E+00  0.14582086806E+04  0.14582086806E+04  0.50400001928E-02 0. -1.
        1   -1    0    0  501    0  0.00000000000E+00  0.00000000000E+00 -0.27589578613E+04  0.27589578613E+04  0.50400001928E-02 0.  1.
    10030    2    1    2    0    0  0.00000000000E+00  0.00000000000E+00 -0.13007491807E+04  0.42171665419E+04  0.40115514718E+04 0.  0.
        3    1    3    3  502    0 -0.16890939348E+04  0.10475317171E+04 -0.93397072472E+03  0.21960560885E+04  0.10100000352E+00 0. -1.
       -3    1    3    3    0  502  0.16890939348E+04 -0.10475317171E+04 -0.36677845594E+03  0.20211104534E+04  0.10100000352E+00 0.  1.
</event>
<event>
 5   0  0.4079777E-07  0.4005099E+04  0.7818609E-02  0.8003519E-01
        2   -1    0    0  501    0  0.00000000000E+00  0.00000000000E+00  0.13940159399E+04  0.13940159399E+04  0.25500000920E-02 0. -1.
       -2   -1    0    0    0  501  0.00000000000E+00  0.00000000000E+00 -0.28767275227E+04  0.28767275227E+04  0.25500000920E-02 0.  1.
    10030    2    1    2    0    0  0.00000000000E+00  0.00000000000E+00 -0.14827115828E+04  0.42707434626E+04  0.40050987610E+04 0.  0.
        4    1    3    3  502    0 -0.29048874043E+03 -0.15230573009E+04 -0.20927392399E+04  0.26045434129E+04  0.12699999809E+01 0.  1.
       -4    1    3    3    0  502  0.29048874043E+03  0.15230573009E+04  0.61002765714E+03  0.16662000497E+04  0.12699999809E+01 0. -1.
</event>
<event>
 5   0  0.4047916E-07  0.4003216E+04  0.7818609E-02  0.8003898E-01
        2   -1    0    0  501    0  0.00000000000E+00  0.00000000000E+00  0.23505156567E+04  0.23505156567E+04  0.25500000920E-02 0. -1.
       -2   -1    0    0    0  501  0.00000000000E+00  0.00000000000E+00 -0.17044919666E+04  0.17044919666E+04  0.25500000920E-02 0.  1.
    10030    2    1    2    0    0  0.00000000000E+00  0.00000000000E+00  0.64602369012E+03  0.40550076232E+04  0.40032162340E+04 0.  0.
        5    1    3    3  502    0  0.13018810940E+04  0.14652649064E+04 -0.87843043631E+02  0.19620484498E+04  0.46999998093E+01 0.  1.
       -5    1    3    3    0  502 -0.13018810940E+04 -0.14652649064E+04  0.73386673375E+03  0.20929591735E+04  0.46999998093E+01 0. -1.
</event>
<event>
 5   0  0.1368865E-07  0.2959669E+04  0.7818609E-02  0.8255342E-01
        1   -1    0    0  501    0  0.00000000000E+00  0.00000000000E+00  0.17252791091E+04  0.17252791091E+04  0.50400001928E-02 0.  1.
       -1   -1    0    0    0  501  0.00000000000E+00  0.00000000000E+00 -0.12693079133E+04  0.12693079133E+04  0.50400001928E-02 0. -1.
    10030    2    1    2    0    0  0.00000000000E+00  0.00000000000E+00  0.45597119576E+03  0.29945870224E+04  0.29596691882E+04 0.  0.
        5    1    3    3  502    0  0.68737635902E+03 -0.10808765451E+04  0.97774624371E+03  0.16114559168E+04  0.46999998093E+01 0.  1.
       -5    1    3    3    0  502 -0.68737635902E+03  0.10808765451E+04 -0.52177504795E+03  0.13831311056E+04  0.46999998093E+01 0. -1.
</event>
<event>
 5   0  0.1351000E-07  0.3985642E+04  0.7818609E-02  0.8007449E-01
        1   -1    0    0  501    0  0.00000000000E+00  0.00000000000E+00  0.23604807548E+04  0.23604807548E+04  0.50400001928E-02 0.  1.
       -1   -1    0    0    0  501  0.00000000000E+00  0.00000000000E+00 -0.16824269655E+04  0.16824269655E+04  0.50400001928E-02 0. -1.
    10030    2    1    2    0    0  0.00000000000E+00  0.00000000000E+00  0.67805378927E+03  0.40429077203E+04  0.39856424693E+04 0.  0.
        3    1    3    3  502    0 -0.11638746239E+03 -0.63833601181E+03 -0.15722741223E+04  0.17009011820E+04  0.10100000352E+00 0. -1.
       -3    1    3    3    0  502  0.11638746239E+03  0.63833601181E+03  0.22503279115E+04  0.23420065382E+04  0.10100000352E+00 0.  1.
</event>
<event>
 5   0  0.4149487E-07  0.4031387E+04  0.7818609E-02  0.7998245E-01
       -2   -1    0    0    0  501  0.00000000000E+00  0.00000000000E+00  0.27998939582E+04  0.27998939582E+04  0.25500000920E-02 0. -1.
        2   -1    0    0  501    0  0.00000000000E+00  0.00000000000E+00 -0.14511333875E+04  0.14511333875E+04  0.25500000920E-02 0.  1.
    10030    2    1    2    0    0  0.00000000000E+00  0.00000000000E+00  0.13487605707E+04  0.42510273457E+04  0.40313866618E+04 0.  0.
        2    1    3    3  502    0 -0.19574388677E+03  0.94685971482E+03 -0.11906417440E+04  0.15337818461E+04  0.25500000920E-02 0.  1.
       -2    1    3    3    0  502  0.19574388677E+03 -0.94685971482E+03  0.25394023148E+04  0.27172454996E+04  0.25500000920E-02 0. -1.
</event>
<event>
 5   0  0.4047916E-07  0.4059871E+04  0.7818609E-02  0.7992576E-01
        2   -1    0    0  501    0  0.00000000000E+00  0.00000000000E+00  0.12301427438E+04  0.12301427438E+04  0.25500000920E-02 0. -1.
       -2   -1    0    0    0  501  0.00000000000E+00  0.00000000000E+00 -0.33497237660E+04  0.33497237660E+04  0.25500000920E-02 0.  1.
    10030    2    1    2    0    0  0.00000000000E+00  0.00000000000E+00 -0.21195810222E+04  0.45798665098E+04  0.40598711233E+04 0.  0.
        5    1    3    3  502    0 -0.13561878064E+04  0.11852077371E+04 -0.21160109558E+04  0.27787564128E+04  0.46999998093E+01 0.  1.
       -5    1    3    3    0  502  0.13561878064E+04 -0.11852077371E+04 -0.35700663653E+01  0.18011100970E+04  0.46999998093E+01 0. -1.
</event>
<event>
 5   0  0.4301754E-07  0.3997215E+04  0.7818609E-02  0.8005109E-01
        2   -1    0    0  501    0  0.00000000000E+00  0.00000000000E+00  0.22993946168E+04  0.22993946168E+04  0.25500000920E-02 0. -1.
       -2   -1    0    0    0  501  0.00000000000E+00  0.00000000000E+00 -0.17371669209E+04  0.17371669209E+04  0.25500000920E-02 0.  1.
    10030    2    1    2    0    0  0.00000000000E+00  0.00000000000E+00  0.56222769583E+03  0.40365615377E+04  0.39972151638E+04 0.  0.
        1    1    3    3  502    0 -0.15992127684E+04 -0.45084505449E+03  0.14027628905E+04  0.21745083281E+04  0.50400001928E-02 0. -1.
       -1    1    3    3    0  502  0.15992127684E+04  0.45084505449E+03 -0.84053519469E+03  0.18620532096E+04  0.50400001928E-02 0.  1.
</event>
<event>
 5   0  0.4079777E-07  0.3525840E+04  0.7818609E-02  0.8107693E-01
       -2   -1    0    0    0  501  0.00000000000E+00  0.00000000000E+00  0.12412245176E+04  0.12412245176E+04  0.25500000920E-02 0. -1.
        2   -1    0    0  501    0  0.00000000000E+00  0.00000000000E+00 -0.25038872308E+04  0.25038872308E+04  0.25500000920E-02 0.  1.
    10030    2    1    2    0    0  0.00000000000E+00  0.00000000000E+00 -0.12626627133E+04  0.37451117484E+04  0.35258395994E+04 0.  0.
        4    1    3    3  502    0 -0.12495103229E+04  0.21051305417E+03  0.67057433242E+03  0.14336189665E+04  0.12699999809E+01 0. -1.
       -4    1    3    3    0  502  0.12495103229E+04 -0.21051305417E+03 -0.19332370457E+04  0.23114927819E+04  0.12699999809E+01 0.  1.
</event>
<event>
 5   0  0.4047916E-07  0.4020783E+04  0.7818609E-02  0.8000367E-01
       -2   -1    0    0    0  501  0.00000000000E+00  0.00000000000E+00  0.20648838179E+04  0.20648838179E+04  0.25500000920E-02 0. -1.
        2   -1    0    0  501    0  0.00000000000E+00  0.00000000000E+00 -0.19573369555E+04  0.19573369555E+04  0.25500000920E-02 0.  1.
    10030    2    1    2    0    0  0.00000000000E+00  0.00000000000E+00  0.10754686235E+03  0.40222207734E+04  0.40207827127E+04 0.  0.
        5    1    3    3  502    0 -0.14127908658E+03  0.17574557381E+04  0.10200593103E+04  0.20369471123E+04  0.46999998093E+01 0. -1.
       -5    1    3    3    0  502  0.14127908658E+03 -0.17574557381E+04 -0.91251244793E+03  0.19852736611E+04  0.46999998093E+01 0.  1.
</event>
<event>
 5   0  0.4077370E-07  0.3966478E+04  0.7818609E-02  0.8011343E-01
       -2   -1    0    0    0  501  0.00000000000E+00  0.00000000000E+00  0.17349062991E+04  0.17349062991E+04  0.25500000920E-02 0. -1.
        2   -1    0    0  501    0  0.00000000000E+00  0.00000000000E+00 -0.22671179101E+04  0.22671179101E+04  0.25500000920E-02 0.  1.
    10030    2    1    2    0    0  0.00000000000E+00  0.00000000000E+00 -0.53221161103E+03  0.40020242092E+04  0.39664781068E+04 0.  0.
        3    1    3    3  502    0  0.62454552468E+03  0.34433369947E+03  0.16010496777E+04  0.17527073029E+04  0.10100000352E+00 0. -1.
       -3    1    3    3    0  502 -0.62454552468E+03 -0.34433369947E+03 -0.21332612887E+04  0.22493169063E+04  0.10100000352E+00 0.  1.
</event>
<event>
 5   0  0.1421304E-07  0.4025115E+04  0.7818609E-02  0.7999499E-01
       -1   -1    0    0    0  501  0.00000000000E+00  0.00000000000E+00  0.29453167738E+04  0.29453167738E+04  0.50400001928E-02 0. -1.
        1   -1    0    0  501    0  0.00000000000E+00  0.00000000000E+00 -0.13751958131E+04  0.13751958131E+04  0.50400001928E-02 0.  1.
    10030    2    1    2    0    0  0.00000000000E+00  0.00000000000E+00  0.15701209607E+04  0.43205125869E+04  0.40251148037E+04 0.  0.
        2    1    3    3  502    0 -0.10444054778E+04 -0.12943854587E+04  0.20014380260E+04  0.26023010375E+04  0.25500000920E-02 0. -1.
       -2    1    3    3    0  502  0.10444054778E+04  0.12943854587E+04 -0.43131706533E+03  0.17182115494E+04  0.25500000920E-02 0.  1.
</event>
<event>
 5   0  0.4047916E-07  0.3990119E+04  0.7818609E-02  0.8006543E-01
        2   -1    0    0  501    0  0.00000000000E+00  0.00000000000E+00  0.17422449705E+04  0.17422449705E+04  0.25500000920E-02 0. -1.
       -2   -1    0    0    0  501  0.00000000000E+00  0.00000000000E+00 -0.22845592404E+04  0.22845592404E+04  0.25500000920E-02 0.  1.
    10030    2    1    2    0    0  0.00000000000E+00  0.00000000000E+00 -0.54231426993E+03  0.40268042109E+04  0.39901187182E+04 0.  0.
        5    1    3    3  502    0 -0.13849682278E+03 -0.11479753843E+04 -0.19119003054E+04  0.22343709899E+04  0.46999998093E+01 0.  1.
       -5    1    3    3    0  502  0.13849682278E+03  0.11479753843E+04  0.13695860355E+04  0.17924332209E+04  0.46999998093E+01 0. -1.
</event>
<event>
 5   0  0.1368865E-07  0.2507544E+04  0.7818609E-02  0.8400303E-01
        1   -1    0    0  501    0  0.00000000000E+00  0.00000000000E+00  0.13592507577E+04  0.13592507577E+04  0.50400001928E-02 0. -1.
       -1   -1    0    0    0  501  0.00000000000E+00  0.00000000000E+00 -0.11564786323E+04  0.11564786323E+04  0.50400001928E-02 0.  1.
    10030    2    1    2    0    0  0.00000000000E+00  0.00000000000E+00  0.20277212540E+03  0.25157293899E+04  0.25075441828E+04 0.  0.
        5    1    3    3  502    0 -0.51368375888E+03  0.11308404731E+04  0.27297412854E+03  0.12716949889E+04  0.46999998093E+01 0. -1.
       -5    1    3    3    0  502  0.51368375888E+03 -0.11308404731E+04 -0.70202003135E+02  0.12440344011E+04  0.46999998093E+01 0.  1.
</event>
<event>
 5   0  0.1368865E-07  0.4050259E+04  0.7818609E-02  0.7994484E-01
        1   -1    0    0  501    0  0.00000000000E+00  0.00000000000E+00  0.27653534600E+04  0.27653534600E+04  0.50400001928E-02 0.  1.
       -1   -1    0    0    0  501  0.00000000000E+00  0.00000000000E+00 -0.14830473440E+04  0.14830473440E+04  0.50400001928E-02 0. -1.
    10030    2    1    2    0    0  0.00000000000E+00  0.00000000000E+00  0.12823061160E+04  0.42484008041E+04  0.40502593024E+04 0.  0.
        5    1    3    3  502    0  0.87658038380E+03 -0.11551258613E+04 -0.84165841955E+03  0.16766394693E+04  0.46999998093E+01 0. -1.
       -5    1    3    3    0  502 -0.87658038380E+03  0.11551258613E+04  0.21239645355E+04  0.25717613348E+04  0.46999998093E+01 0.  1.
</event>
<event>
 5   0  0.1368865E-07  0.2686074E+04  0.7818609E-02  0.8339538E-01
        1   -1    0    0  501    0  0.00000000000E+00  0.00000000000E+00  0.17110388632E+04  0.17110388632E+04  0.50400001928E-02 0. -1.
       -1   -1    0    0    0  501  0.00000000000E+00  0.00000000000E+00 -0.10541828734E+04  0.10541828734E+04  0.50400001928E-02 0.  1.
    10030    2    1    2    0    0  0.00000000000E+00  0.00000000000E+00  0.65685598979E+03  0.27652217367E+04  0.26860736143E+04 0.  0.
        5    1    3    3  502    0 -0.10892357351E+04 -0.40897488684E+03  0.10190385077E+04  0.15466597928E+04  0.46999998093E+01 0. -1.
       -5    1    3    3    0  502  0.10892357351E+04  0.40897488684E+03 -0.36218251787E+03  0.12185619438E+04  0.46999998093E+01 0.  1.
</event>
<event>
 5   0  0.1372952E-07  0.2838202E+04  0.7818609E-02  0.8291505E-01
       -1   -1    0    0    0  501  0.00000000000E+00  0.00000000000E+00  0.91209988869E+03  0.91209988870E+03  0.50400001928E-02 0. -1.
        1   -1    0    0  501    0  0.00000000000E+00  0.00000000000E+00 -0.22079249985E+04  0.22079249985E+04  0.50400001928E-02 0.  1.
    10030    2    1    2    0    0  0.00000000000E+00  0.00000000000E+00 -0.12958251098E+04  0.31200248872E+04  0.28382023504E+04 0.  0.
        1    1    3    3  502    0 -0.77628934632E+03  0.80145746926E+03 -0.16118447914E+04  0.19603578387E+04  0.50400001928E-02 0.  1.
       -1    1    3    3    0  502  0.77628934632E+03 -0.80145746926E+03  0.31601968157E+03  0.11596670485E+04  0.50400001928E-02 0. -1.
</event>
<event>
 5   0  0.4077370E-07  0.2750215E+04  0.7818609E-02  0.8318894E-01
       -2   -1    0    0    0  501  0.00000000000E+00  0.00000000000E+00  0.17880367147E+04  0.17880367147E+04  0.25500000920E-02 0.  1.
        2   -1    0    0  501    0  0.00000000000E+00  0.00000000000E+00 -0.10575399686E+04  0.10575399686E+04  0.25500000920E-02 0. -1.
    10030    2    1    2    0    0  0.00000000000E+00  0.00000000000E+00  0.73049674609E+03  0.28455766832E+04  0.27502147487E+04 0.  0.
        3    1    3    3  502    0  0.17384706641E+03  0.43646602142E+02 -0.10454011846E+04  0.10606561532E+04  0.10100000352E+00 0. -1.
       -3    1    3    3    0  502 -0.17384706641E+03 -0.43646602142E+02  0.17758979306E+04  0.17849205301E+04  0.10100000352E+00 0.  1.
</event>
<event>
 5   0  0.4047916E-07  0.3938790E+04  0.7818609E-02  0.8017010E-01
        2   -1    0    0  501    0  0.00000000000E+00  0.00000000000E+00  0.16071608124E+04  0.16071608124E+04  0.25500000920E-02 0. -1.
       -2   -1    0    0    0  501  0.00000000000E+00  0.00000000000E+00 -0.24132718286E+04  0.24132718286E+04  0.25500000920E-02 0.  1.
    10030    2    1    2    0    0  0.00000000000E+00  0.00000000000E+00 -0.80611101617E+03  0.40204326410E+04  0.39387896174E+04 0.  0.
        5    1    3    3  502    0 -0.16735482284E+04  0.68569626434E+03  0.39255644312E+03  0.18506933000E+04  0.46999998093E+01 0. -1.
       -5    1    3    3    0  502  0.16735482284E+04 -0.68569626434E+03 -0.11986674593E+04  0.21697393410E+04  0.46999998093E+01 0.  1.
</event>
<event>
 5   0  0.1351000E-07  0.2650137E+04  0.7818609E-02  0.8351368E-01
        1   -1    0    0  501    0  0.00000000000E+00  0.00000000000E+00  0.11367249813E+04  0.11367249813E+04  0.50400001928E-02 0.  1.
       -1   -1    0    0    0  501  0.00000000000E+00  0.00000000000E+00 -0.15446182122E+04  0.15446182122E+04  0.50400001928E-02 0. -1.
    10030    2    1    2    0    0  0.00000000000E+00  0.00000000000E+00 -0.40789323097E+03  0.26813431935E+04  0.26501366821E+04 0.  0.
        4    1    3    3  502    0  0.27766467068E+03 -0.42990394506E+03  0.10326935759E+04  0.11525505221E+04  0.12699999809E+01 0.  1.
       -4    1    3    3    0  502 -0.27766467068E+03  0.42990394506E+03 -0.14405868069E+04  0.15287926715E+04  0.12699999809E+01 0. -1.
</event>
<event>
 5   0  0.4149487E-07  0.3997584E+04  0.7818609E-02  0.8005034E-01
        2   -1    0    0  501    0  0.00000000000E+00  0.00000000000E+00  0.32647693966E+04  0.32647693966E+04  0.25500000920E-02 0. -1.
       -2   -1    0    0    0  501  0.00000000000E+00  0.00000000000E+00 -0.12237216376E+04  0.12237216376E+04  0.25500000920E-02 0.  1.
    10030    2    1    2    0    0  0.00000000000E+00  0.00000000000E+00  0.20410477590E+04  0.44884910342E+04  0.39975837465E+04 0.  0.
        2    1    3    3  502    0  0.11323242810E+04 -0.11933599047E+04 -0.25419047707E+03  0.16645957281E+04  0.25500000920E-02 0.  1.
       -2    1    3    3    0  502 -0.11323242810E+04  0.11933599047E+04  0.22952382361E+04  0.28238953061E+04  0.25500000920E-02 0. -1.
</event>
<event>
 5   0  0.4149487E-07  0.3933337E+04  0.7818609E-02  0.8018131E-01
        2   -1    0    0  501    0  0.00000000000E+00  0.00000000000E+00  0.18058626618E+04  0.18058626618E+04  0.25500000920E-02 0.  1.
       -2   -1    0    0    0  501  0.00000000000E+00  0.00000000000E+00 -0.21417940239E+04  0.21417940239E+04  0.25500000920E-02 0. -1.
    10030    2    1    2    0    0  0.00000000000E+00  0.00000000000E+00 -0.33593136205E+03  0.39476566857E+04  0.39333374414E+04 0.  0.
        2    1    3    3  502    0  0.28936810248E+03 -0.18046436503E+04  0.56084128327E+03  0.19118094958E+04  0.25500000920E-02 0.  1.
       -2    1    3    3    0  502 -0.28936810248E+03  0.18046436503E+04 -0.89677264532E+03  0.20358471899E+04  0.25500000920E-02 0. -1.
</event>
<event>
 5   0  0.1372952E-07  0.3968017E+04  0.7818609E-02  0.8011030E-01
       -1   -1    0    0    0  501  0.00000000000E+00  0.00000000000E+00  0.31960257509E+04  0.31960257509E+04  0.50400001928E-02 0. -1.
        1   -1    0    0  501    0  0.00000000000E+00  0.00000000000E+00 -0.12316199248E+04  0.12316199248E+04  0.50400001928E-02 0.  1.
    10030    2    1    2    0    0  0.00000000000E+00  0.00000000000E+00  0.19644058261E+04  0.44276456757E+04  0.39680166305E+04 0.  0.
        1    1    3    3  502    0  0.15269682027E+03  0.75077981061E+03 -0.10598949579E+04  0.13078088410E+04  0.50400001928E-02 0.  1.
       -1    1    3    3    0  502 -0.15269682027E+03 -0.75077981061E+03  0.30243007840E+04  0.31198368346E+04  0.50400001928E-02 0. -1.
</event>
<event>
 5   0  0.4047916E-07  0.3623872E+04  0.7818609E-02  0.8085045E-01
        2   -1    0    0  501    0  0.00000000000E+00  0.00000000000E+00  0.26949182475E+04  0.26949182475E+04  0.25500000920E-02 0.  1.
       -2   -1    0    0    0  501  0.00000000000E+00  0.00000000000E+00 -0.12182605826E+04  0.12182605826E+04  0.25500000920E-02 0. -1.
    10030    2    1    2    0    0  0.00000000000E+00  0.00000000000E+00  0.14766576649E+04  0.39131788301E+04  0.36238723345E+04 0.  0.
        5    1    3    3  502    0  0.16594530931E+04 -0.71154382718E+03  0.90213426814E+03  0.20184022181E+04  0.46999998093E+01 0.  1.
       -5    1    3    3    0  502 -0.16594530931E+04  0.71154382718E+03  0.57452339675E+03  0.18947766120E+04  0.46999998093E+01 0. -1.
</event>
<event>
 5   0  0.1351000E-07  0.3988256E+04  0.7818609E-02  0.8006920E-01
        1   -1    0    0  501    0  0.00000000000E+00  0.00000000000E+00  0.16518526596E+04  0.16518526596E+04  0.50400001928E-02 0. -1.
       -1   -1    0    0    0  501  0.00000000000E+00  0.00000000000E+00 -0.24073252311E+04  0.24073252311E+04  0.50400001928E-02 0.  1.
    10030    2    1    2    0    0  0.00000000000E+00  0.00000000000E+00 -0.75547257151E+03  0.40591778907E+04  0.39882560527E+04 0.  0.
        3    1    3    3  502    0  0.21414047711E+03  0.18194303190E+04 -0.11793742126E+04  0.21787855271E+04  0.10100000352E+00 0.  1.
       -3    1    3    3    0  502 -0.21414047711E+03 -0.18194303190E+04  0.42390164112E+03  0.18803923636E+04  0.10100000352E+00 0. -1.
</event>
<event>
 5   0  0.4079777E-07  0.3944167E+04  0.7818609E-02  0.8015905E-01
       -2   -1    0    0    0  501  0.00000000000E+00  0.00000000000E+00  0.13427374061E+04  0.13427374061E+04  0.25500000920E-02 0. -1.
        2   -1    0    0  501    0  0.00000000000E+00  0.00000000000E+00 -0.28964068313E+04  0.28964068313E+04  0.25500000920E-02 0.  1.
    10030    2    1    2    0    0  0.00000000000E+00  0.00000000000E+00 -0.15536694252E+04  0.42391442374E+04  0.39441672356E+04 0.  0.
        4    1    3    3  502    0 -0.15939852087E+04 -0.10189780098E+04 -0.17841108880E+03  0.19002466050E+04  0.12699999809E+01 0. -1.
       -4    1    3    3    0  502  0.15939852087E+04  0.10189780098E+04 -0.13752583364E+04  0.23388976324E+04  0.12699999809E+01 0.  1.
</event>
<event>
 5   0  0.4047916E-07  0.3874489E+04  0.7818609E-02  0.8030356E-01
        2   -1    0    0  501    0  0.00000000000E+00  0.00000000000E+00  0.13951115310E+04  0.13951115310E+04  0.25500000920E-02 0. -1.
       -2   -1    0    0    0  501  0.00000000000E+00  0.00000000000E+00 -0.26900478883E+04  0.26900478883E+04  0.25500000920E-02 0.  1.
    10030    2    1    2    0    0  0.00000000000E+00  0.00000000000E+00 -0.12949363574E+04  0.40851594193E+04  0.38744892969E+04 0.  0.
        5    1    3    3  502    0  0.15073250345E+04 -0.99515283817E+03  0.90997547357E+02  0.18084967721E+04  0.46999998093E+01 0. -1.
       -5    1    3    3    0  502 -0.15073250345E+04  0.99515283817E+03 -0.13859339047E+04  0.22766626472E+04  0.46999998093E+01 0.  1.
</event>
<event>
 5   0  0.1372952E-07  0.3874155E+04  0.7818609E-02  0.8030426E-01
        1   -1    0    0  501    0  0.00000000000E+00  0.00000000000E+00  0.22845785696E+04  0.22845785696E+04  0.50400001928E-02 0. -1.
       -1   -1    0    0    0  501  0.00000000000E+00  0.00000000000E+00 -0.16424337882E+04  0.16424337882E+04  0.50400001928E-02 0.  1.
    10030    2    1    2    0    0  0.00000000000E+00  0.00000000000E+00  0.64214478144E+03  0.39270123578E+04  0.38741548934E+04 0.  0.
        1    1    3    3  502    0  0.84121420053E+03  0.38410302250E+02 -0.14471917316E+04  0.16743597554E+04  0.50400001928E-02 0.  1.
       -1    1    3    3    0  502 -0.84121420053E+03 -0.38410302250E+02  0.20893365130E+04  0.22526526024E+04  0.50400001928E-02 0. -1.
</event>
<event>
 5   0  0.1372952E-07  0.3982698E+04  0.7818609E-02  0.8008046E-01
       -1   -1    0    0    0  501  0.00000000000E+00  0.00000000000E+00  0.31750265017E+04  0.31750265017E+04  0.50400001928E-02 0. -1.
        1   -1    0    0  501    0  0.00000000000E+00  0.00000000000E+00 -0.12489566076E+04  0.12489566076E+04  0.50400001928E-02 0.  1.
    10030    2    1    2    0    0  0.00000000000E+00  0.00000000000E+00  0.19260698942E+04  0.44239831093E+04  0.39826977433E+04 0.  0.
        1    1    3    3  502    0 -0.84644787531E+02 -0.12171785781E+04  0.27111901802E+04  0.29730860439E+04  0.50400001928E-02 0. -1.
       -1    1    3    3    0  502  0.84644787531E+02  0.12171785781E+04 -0.78512028604E+03  0.14508970655E+04  0.50400001928E-02 0.  1.
</event>
<event>
 5   0  0.1351000E-07  0.3324162E+04  0.7818609E-02  0.8156774E-01
       -1   -1    0    0    0  501  0.00000000000E+00  0.00000000000E+00  0.13952566801E+04  0.13952566801E+04  0.50400001928E-02 0. -1.
        1   -1    0    0  501    0  0.00000000000E+00  0.00000000000E+00 -0.19799325225E+04  0.19799325225E+04  0.50400001928E-02 0.  1.
    10030    2    1    2    0    0  0.00000000000E+00  0.00000000000E+00 -0.58467584233E+03  0.33751892026E+04  0.33241624979E+04 0.  0.
        3    1    3    3  502    0 -0.14272404776E+04 -0.80743013900E+03 -0.16964044587E+02  0.16398922523E+04  0.10100000352E+00 0.  1.
       -3    1    3    3    0  502  0.14272404776E+04  0.80743013900E+03 -0.56771179774E+03  0.17352969503E+04  0.10100000352E+00 0. -1.
</event>
<event>
 5   0  0.4079777E-07  0.3989523E+04  0.7818609E-02  0.8006663E-01
       -2   -1    0    0    0  501  0.00000000000E+00  0.00000000000E+00  0.13276942392E+04  0.13276942392E+04  0.25500000920E-02 0. -1.
        2   -1    0    0  501    0  0.00000000000E+00  0.00000000000E+00 -0.29969803088E+04  0.29969803088E+04  0.25500000920E-02 0.  1.
    10030    2    1    2    0    0  0.00000000000E+00  0.00000000000E+00 -0.16692860695E+04  0.43246745480E+04  0.39895230247E+04 0.  0.
        4    1    3    3  502    0  0.10929382625E+04  0.15974971806E+04 -0.31188524229E+03  0.19605573965E+04  0.12699999809E+01 0. -1.
       -4    1    3    3    0  502 -0.10929382625E+04 -0.15974971806E+04 -0.13574008273E+04  0.23641171516E+04  0.12699999809E+01 0.  1.
</event>
<event>
 5   0  0.4301754E-07  0.3008065E+04  0.7818609E-02  0.8241432E-01
        2   -1    0    0  501    0  0.00000000000E+00  0.00000000000E+00  0.16721467101E+04  0.16721467101E+04  0.25500000920E-02 0. -1.
       -2   -1    0    0    0  501  0.00000000000E+00  0.00000000000E+00 -0.13528203880E+04  0.13528203881E+04  0.25500000920E-02 0.  1.
    10030    2    1    2    0    0  0.00000000000E+00  0.00000000000E+00  0.31932632205E+03  0.30249670982E+04  0.30080652661E+04 0.  0.
        1    1    3    3  502    0  0.13980282215E+02  0.10790987400E+04 -0.89382258784E+03  0.14012738339E+04  0.50400001928E-02 0.  1.
       -1    1    3    3    0  502 -0.13980282215E+02 -0.10790987400E+04  0.12131489099E+04  0.16236932643E+04  0.50400001928E-02 0. -1.
</event>
<event>
 5   0  0.4047916E-07  0.3157139E+04  0.7818609E-02  0.8200229E-01
        2   -1    0    0  501    0  0.00000000000E+00  0.00000000000E+00  0.15946285599E+04  0.15946285599E+04  0.25500000920E-02 0. -1.
       -2   -1    0    0    0  501  0.00000000000E+00  0.00000000000E+00 -0.15626720098E+04  0.15626720098E+04  0.25500000920E-02 0.  1.
    10030    2    1    2    0    0  0.00000000000E+00  0.00000000000E+00  0.31956550143E+02  0.31573005697E+04  0.31571388418E+04 0.  0.
        5    1    3    3  502    0 -0.80782799156E+03 -0.21203404937E+03  0.13555672645E+04  0.15922089061E+04  0.46999998093E+01 0. -1.
       -5    1    3    3    0  502  0.80782799156E+03  0.21203404937E+03 -0.13236107144E+04  0.15650916635E+04  0.46999998093E+01 0.  1.
</event>
<event>
 5   0  0.1421304E-07  0.4030507E+04  0.7818609E-02  0.7998420E-01
        1   -1    0    0  501    0  0.00000000000E+00  0.00000000000E+00  0.13512040333E+04  0.13512040334E+04  0.50400001928E-02 0.  1.
       -1   -1    0    0    0  501  0.00000000000E+00  0.00000000000E+00 -0.30056502940E+04  0.30056502941E+04  0.50400001928E-02 0. -1.
    10030    2    1    2    0    0  0.00000000000E+00  0.00000000000E+00 -0.16544462607E+04  0.43568543274E+04  0.40305070650E+04 0.  0.
        2    1    3    3  502    0 -0.89659566400E+03 -0.16063725163E+04 -0.17165990103E+04  0.25161535342E+04  0.25500000920E-02 0. -1.
       -2    1    3    3    0  502  0.89659566400E+03  0.16063725163E+04  0.62152749598E+02  0.18407007932E+04  0.25500000920E-02 0.  1.
</event>
<event>
 5   0  0.1351000E-07  0.4210398E+04  0.7818609E-02  0.7963397E-01
        3   -1    0    0  501    0  0.00000000000E+00  0.00000000000E+00  0.23129104854E+04  0.23129104876E+04  0.10100000352E+00 0. -1.
       -3   -1    0    0    0  501  0.00000000000E+00  0.00000000000E+00 -0.19161408046E+04  0.19161408073E+04  0.10100000352E+00 0.  1.
    10030    2    1    2    0    0  0.00000000000E+00  0.00000000000E+00  0.39676968079E+03  0.42290512949E+04  0.42103976862E+04 0.  0.
        2    1    3    3  502    0 -0.20250123878E+04 -0.65887108043E+02 -0.37585239051E+03  0.20606506985E+04  0.25500000920E-02 0.  1.
       -2    1    3    3    0  502  0.20250123878E+04  0.65887108043E+02  0.77262207130E+03  0.21684005965E+04  0.25500000920E-02 0. -1.
</event>
<event>
 5   0  0.4079777E-07  0.3879413E+04  0.7818609E-02  0.8029324E-01
       -2   -1    0    0    0  501  0.00000000000E+00  0.00000000000E+00  0.19704122125E+04  0.19704122125E+04  0.25500000920E-02 0. -1.
        2   -1    0    0  501    0  0.00000000000E+00  0.00000000000E+00 -0.19094797059E+04  0.19094797059E+04  0.25500000920E-02 0.  1.
    10030    2    1    2    0    0  0.00000000000E+00  0.00000000000E+00  0.60932506562E+02  0.38798919184E+04  0.38794134258E+04 0.  0.
        4    1    3    3  502    0 -0.17718180587E+03 -0.15855409729E+04 -0.10729045878E+04  0.19226178603E+04  0.12699999809E+01 0. -1.
       -4    1    3    3    0  502  0.17718180587E+03  0.15855409729E+04  0.11338370944E+04  0.19572740582E+04  0.12699999809E+01 0.  1.
</event>
<event>
 5   0  0.1351000E-07  0.4128190E+04  0.7818609E-02  0.7979174E-01
       -1   -1    0    0    0  501  0.00000000000E+00  0.00000000000E+00  0.24451057517E+04  0.24451057517E+04  0.50400001928E-02 0. -1.
        1   -1    0    0  501    0  0.00000000000E+00  0.00000000000E+00 -0.17424553747E+04  0.17424553747E+04  0.50400001928E-02 0.  1.
    10030    2    1    2    0    0  0.00000000000E+00  0.00000000000E+00  0.70265037692E+03  0.41875611264E+04  0.41281897528E+04 0.  0.
        3    1    3    3  502    0  0.15442873843E+04  0.12676141259E+04  0.87725904125E+03  0.21820294529E+04  0.10100000352E+00 0.  1.
       -3    1    3    3    0  502 -0.15442873843E+04 -0.12676141259E+04 -0.17460866433E+03  0.20055316735E+04  0.10100000352E+00 0. -1.
</event>
<event>
 5   0  0.4079777E-07  0.3794377E+04  0.7818609E-02  0.8047363E-01
       -2   -1    0    0    0  501  0.00000000000E+00  0.00000000000E+00  0.13116492419E+04  0.13116492419E+04  0.25500000920E-02 0.  1.
        2   -1    0    0  501    0  0.00000000000E+00  0.00000000000E+00 -0.27441207960E+04  0.27441207960E+04  0.25500000920E-02 0. -1.
    10030    2    1    2    0    0  0.00000000000E+00  0.00000000000E+00 -0.14324715541E+04  0.40557700379E+04  0.37943768721E+04 0.  0.
        4    1    3    3  502    0  0.24232950210E+02  0.17399980993E+04  0.91565998564E+02  0.17425746947E+04  0.12699999809E+01 0.  1.
       -4    1    3    3    0  502 -0.24232950210E+02 -0.17399980993E+04 -0.15240375526E+04  0.23131953433E+04  0.12699999809E+01 0. -1.
</event>
<event>
 5   0  0.1351000E-07  0.2787378E+04  0.7818609E-02  0.8307198E-01
        1   -1    0    0  501    0  0.00000000000E+00  0.00000000000E+00  0.12478712635E+04  0.12478712635E+04  0.50400001928E-02 0. -1.
       -1   -1    0    0    0  501  0.00000000000E+00  0.00000000000E+00 -0.15565461990E+04  0.15565461990E+04  0.50400001928E-02 0.  1.
    10030    2    1    2    0    0  0.00000000000E+00  0.00000000000E+00 -0.30867493548E+03  0.28044174625E+04  0.27873781745E+04 0.  0.
        3    1    3    3  502    0 -0.29826658621E+03  0.10686559911E+04  0.69425231817E+03  0.13088066608E+04  0.10100000352E+00 0. -1.
       -3    1    3    3    0  502  0.29826658621E+03 -0.10686559911E+04 -0.10029272536E+04  0.14956108017E+04  0.10100000352E+00 0.  1.
</event>
<event>
 5   0  0.1351000E-07  0.4012115E+04  0.7818609E-02  0.8002107E-01
       -1   -1    0    0    0  501  0.00000000000E+00  0.00000000000E+00  0.19765056864E+04  0.19765056864E+04  0.50400001928E-02 0.  1.
        1   -1    0    0  501    0  0.00000000000E+00  0.00000000000E+00 -0.20360510941E+04  0.20360510941E+04  0.50400001928E-02 0. -1.
    10030    2    1    2    0    0  0.00000000000E+00  0.00000000000E+00 -0.59545407647E+02  0.40125567805E+04  0.40121149362E+04 0.  0.
        3    1    3    3  502    0  0.52736124622E+02 -0.13832720578E+04  0.14222976124E+04  0.19847300051E+04  0.10100000352E+00 0.  1.
       -3    1    3    3    0  502 -0.52736124622E+02  0.13832720578E+04 -0.14818430201E+04  0.20278267754E+04  0.10100000352E+00 0. -1.
</event>
<event>
 5   0  0.4079777E-07  0.4037202E+04  0.7818609E-02  0.7997083E-01
        2   -1    0    0  501    0  0.00000000000E+00  0.00000000000E+00  0.24080926204E+04  0.24080926204E+04  0.25500000920E-02 0.  1.
       -2   -1    0    0    0  501  0.00000000000E+00  0.00000000000E+00 -0.16921071824E+04  0.16921071824E+04  0.25500000920E-02 0. -1.
    10030    2    1    2    0    0  0.00000000000E+00  0.00000000000E+00  0.71598543798E+03  0.41001998028E+04  0.40372024071E+04 0.  0.
        4    1    3    3  502    0 -0.87910349393E+03 -0.12653363929E+04  0.16825096448E+04  0.22813898085E+04  0.12699999809E+01 0.  1.
       -4    1    3    3    0  502  0.87910349393E+03  0.12653363929E+04 -0.96652420685E+03  0.18188099944E+04  0.12699999809E+01 0. -1.
</event>
<event>
 5   0  0.4301754E-07  0.3967698E+04  0.7818609E-02  0.8011095E-01
        2   -1    0    0  501    0  0.00000000000E+00  0.00000000000E+00  0.15657685607E+04  0.15657685607E+04  0.25500000920E-02 0.  1.
       -2   -1    0    0    0  501  0.00000000000E+00  0.00000000000E+00 -0.25135622943E+04  0.25135622943E+04  0.25500000920E-02 0. -1.
    10030    2    1    2    0    0  0.00000000000E+00  0.00000000000E+00 -0.94779373358E+03  0.40793308550E+04  0.39676979804E+04 0.  0.
        1    1    3    3  502    0 -0.17837252303E+04 -0.84198584974E+03 -0.69209653304E+03  0.20903620451E+04  0.50400001928E-02 0.  1.
       -1    1    3    3    0  502  0.17837252303E+04  0.84198584974E+03 -0.25569720055E+03  0.19889688099E+04  0.50400001928E-02 0. -1.
</event>
<event>
 5   0  0.4149487E-07  0.2985716E+04  0.7818609E-02  0.8247822E-01
       -2   -1    0    0    0  501  0.00000000000E+00  0.00000000000E+00  0.11095928541E+04  0.11095928541E+04  0.25500000920E-02 0. -1.
        2   -1    0    0  501    0  0.00000000000E+00  0.00000000000E+00 -0.20085067730E+04  0.20085067731E+04  0.25500000920E-02 0.  1.
    10030    2    1    2    0    0  0.00000000000E+00  0.00000000000E+00 -0.89891391892E+03  0.31180996272E+04  0.29857158357E+04 0.  0.
        2    1    3    3  502    0 -0.11803322276E+04 -0.93317259473E+01  0.50504465599E+03  0.12838774681E+04  0.25500000920E-02 0. -1.
       -2    1    3    3    0  502  0.11803322276E+04  0.93317259473E+01 -0.14039585749E+04  0.18342221590E+04  0.25500000920E-02 0.  1.
</event>
<event>
 5   0  0.4079777E-07  0.3838976E+04  0.7818609E-02  0.8037842E-01
       -2   -1    0    0    0  501  0.00000000000E+00  0.00000000000E+00  0.13014531432E+04  0.13014531432E+04  0.25500000920E-02 0.  1.
        2   -1    0    0  501    0  0.00000000000E+00  0.00000000000E+00 -0.28310157105E+04  0.28310157105E+04  0.25500000920E-02 0. -1.
    10030    2    1    2    0    0  0.00000000000E+00  0.00000000000E+00 -0.15295625673E+04  0.41324688537E+04  0.38389760587E+04 0.  0.
        4    1    3    3  502    0 -0.39406922921E+03 -0.24292810862E+03  0.12404613806E+04  0.13240281995E+04  0.12699999809E+01 0.  1.
       -4    1    3    3    0  502  0.39406922921E+03  0.24292810862E+03 -0.27700239479E+04  0.28084406542E+04  0.12699999809E+01 0. -1.
</event>
<event>
 5   0  0.1372952E-07  0.4004410E+04  0.7818609E-02  0.8003658E-01
        1   -1    0    0  501    0  0.00000000000E+00  0.00000000000E+00  0.26039436687E+04  0.26039436687E+04  0.50400001928E-02 0.  1.
       -1   -1    0    0    0  501  0.00000000000E+00  0.00000000000E+00 -0.15395204270E+04  0.15395204270E+04  0.50400001928E-02 0. -1.
    10030    2    1    2    0    0  0.00000000000E+00  0.00000000000E+00  0.10644232417E+04  0.41434640956E+04  0.40044098035E+04 0.  0.
        1    1    3    3  502    0  0.10142390306E+04 -0.67319606503E+03  0.21770508293E+04  0.24942782656E+04  0.50400001928E-02 0.  1.
       -1    1    3    3    0  502 -0.10142390306E+04  0.67319606503E+03 -0.11126275876E+04  0.16491858300E+04  0.50400001928E-02 0. -1.
</event>
<event>
 5   0  0.1351000E-07  0.3139386E+04  0.7818609E-02  0.8205011E-01
       -1   -1    0    0    0  501  0.00000000000E+00  0.00000000000E+00  0.92027203230E+03  0.92027203231E+03  0.50400001928E-02 0. -1.
        1   -1    0    0  501    0  0.00000000000E+00  0.00000000000E+00 -0.26773989828E+04  0.26773989828E+04  0.50400001928E-02 0.  1.
    10030    2    1    2    0    0  0.00000000000E+00  0.00000000000E+00 -0.17571269505E+04  0.35976710151E+04  0.31393855470E+04 0.  0.
        3    1    3    3  502    0  0.12686102205E+04 -0.61896506310E+03 -0.91712194263E+02  0.14145319995E+04  0.10100000352E+00 0. -1.
       -3    1    3    3    0  502 -0.12686102205E+04  0.61896506310E+03 -0.16654147562E+04  0.21831390156E+04  0.10100000352E+00 0.  1.
</event>
<event>
 5   0  0.4149487E-07  0.3914170E+04  0.7818609E-02  0.8022089E-01
        2   -1    0    0  501    0  0.00000000000E+00  0.00000000000E+00  0.19677117390E+04  0.19677117390E+04  0.25500000920E-02 0. -1.
       -2   -1    0    0    0  501  0.00000000000E+00  0.00000000000E+00 -0.19465156245E+04  0.19465156245E+04  0.25500000920E-02 0.  1.
    10030    2    1    2    0    0  0.00000000000E+00  0.00000000000E+00  0.21196114492E+02  0.39142273635E+04  0.39141699731E+04 0.  0.
        2    1    3    3  502    0 -0.89185601319E+03  0.94254967808E+03 -0.14544744810E+04  0.19491800994E+04  0.25500000920E-02 0.  1.
       -2    1    3    3    0  502  0.89185601319E+03 -0.94254967808E+03  0.14756705955E+04  0.19650472641E+04  0.25500000920E-02 0. -1.
</event>
<event>
 5   0  0.1421304E-07  0.3771736E+04  0.7818609E-02  0.8052248E-01
        1   -1    0    0  501    0  0.00000000000E+00  0.00000000000E+00  0.23558989744E+04  0.23558989744E+04  0.50400001928E-02 0. -1.
       -1   -1    0    0    0  501  0.00000000000E+00  0.00000000000E+00 -0.15096136938E+04  0.15096136938E+04  0.50400001928E-02 0.  1.
    10030    2    1    2    0    0  0.00000000000E+00  0.00000000000E+00  0.84628528058E+03  0.38655126683E+04  0.37717355968E+04 0.  0.
        2    1    3    3  502    0  0.18670612223E+04 -0.22197088397E+03  0.27353834817E+03  0.19000031339E+04  0.25500000920E-02 0. -1.
       -2    1    3    3    0  502 -0.18670612223E+04  0.22197088397E+03  0.57274693241E+03  0.19655095343E+04  0.25500000920E-02 0.  1.
</event>
<event>
 5   0  0.1351000E-07  0.3019250E+04  0.7818609E-02  0.8238255E-01
       -1   -1    0    0    0  501  0.00000000000E+00  0.00000000000E+00  0.11917573626E+04  0.11917573626E+04  0.50400001928E-02 0.  1.
        1   -1    0    0  501    0  0.00000000000E+00  0.00000000000E+00 -0.19122744433E+04  0.19122744433E+04  0.50400001928E-02 0. -1.
    10030    2    1    2    0    0  0.00000000000E+00  0.00000000000E+00 -0.72051708066E+03  0.31040318059E+04  0.30192496731E+04 0.  0.
        4    1    3    3  502    0  0.14484747681E+04 -0.24525128557E+03 -0.30272763697E+01  0.14690943211E+04  0.12699999809E+01 0.  1.
       -4    1    3    3    0  502 -0.14484747681E+04  0.24525128557E+03 -0.71748980429E+03  0.16349374848E+04  0.12699999809E+01 0. -1.
</event>
<event>
 5   0  0.1351000E-07  0.3960801E+04  0.7818609E-02  0.8012501E-01
       -1   -1    0    0    0  501  0.00000000000E+00  0.00000000000E+00  0.14041282522E+04  0.14041282522E+04  0.50400001928E-02 0.  1.
        1   -1    0    0  501    0  0.00000000000E+00  0.00000000000E+00 -0.27931820654E+04  0.27931820654E+04  0.50400001928E-02 0. -1.
    10030    2    1    2    0    0  0.00000000000E+00  0.00000000000E+00 -0.13890538132E+04  0.41973103177E+04  0.39608008542E+04 0.  0.
        4    1    3    3  502    0 -0.82820806998E+02  0.17392975834E+04 -0.16942402289E+04  0.24294993179E+04  0.12699999809E+01 0. -1.
       -4    1    3    3    0  502  0.82820806998E+02 -0.17392975834E+04  0.30518641571E+03  0.17678109997E+04  0.12699999809E+01 0.  1.
</event>
<event>
 5   0  0.4149487E-07  0.3732203E+04  0.7818609E-02  0.8060862E-01
       -2   -1    0    0    0  501  0.00000000000E+00  0.00000000000E+00  0.12550793578E+04  0.12550793578E+04  0.25500000920E-02 0.  1.
        2   -1    0    0  501    0  0.00000000000E+00  0.00000000000E+00 -0.27745936916E+04  0.27745936916E+04  0.25500000920E-02 0. -1.
    10030    2    1    2    0    0  0.00000000000E+00  0.00000000000E+00 -0.15195143338E+04  0.40296730495E+04  0.37322032467E+04 0.  0.
        2    1    3    3  502    0 -0.14389391259E+04 -0.48802843995E+03  0.40992495046E+03  0.15737712766E+04  0.25500000920E-02 0.  1.
       -2    1    3    3    0  502  0.14389391259E+04  0.48802843995E+03 -0.19294392842E+04  0.24559017728E+04  0.25500000920E-02 0. -1.
</event>
<event>
 5   0  0.1372952E-07  0.3915691E+04  0.7818609E-02  0.8021774E-01
       -1   -1    0    0    0  501  0.00000000000E+00  0.00000000000E+00  0.18599766330E+04  0.18599766330E+04  0.50400001928E-02 0.  1.
        1   -1    0    0  501    0  0.00000000000E+00  0.00000000000E+00 -0.20608639394E+04  0.20608639394E+04  0.50400001928E-02 0. -1.
    10030    2    1    2    0    0  0.00000000000E+00  0.00000000000E+00 -0.20088730644E+03  0.39208405724E+04  0.39156908821E+04 0.  0.
        1    1    3    3  502    0 -0.17980382242E+04 -0.62702045916E+03  0.35519617281E+03  0.19370752265E+04  0.50400001928E-02 0.  1.
       -1    1    3    3    0  502  0.17980382242E+04  0.62702045916E+03 -0.55608347925E+03  0.19837653459E+04  0.50400001928E-02 0. -1.
</event>
<event>
 5   0  0.4149487E-07  0.3864500E+04  0.7818609E-02  0.8032453E-01
        2   -1    0    0  501    0  0.00000000000E+00  0.00000000000E+00  0.28127497817E+04  0.28127497817E+04  0.25500000920E-02 0. -1.
       -2   -1    0    0    0  501  0.00000000000E+00  0.00000000000E+00 -0.13273807358E+04  0.13273807358E+04  0.25500000920E-02 0.  1.
    10030    2    1    2    0    0  0.00000000000E+00  0.00000000000E+00  0.14853690459E+04  0.41401305175E+04  0.38644999029E+04 0.  0.
        2    1    3    3  502    0  0.24054683324E+03 -0.17031708970E+04  0.16857756258E+04  0.24084213385E+04  0.25500000920E-02 0. -1.
       -2    1    3    3    0  502 -0.24054683324E+03  0.17031708970E+04 -0.20040657987E+03  0.17317091790E+04  0.25500000920E-02 0.  1.
</event>
<event>
 5   0  0.4149487E-07  0.3258757E+04  0.7818609E-02  0.8173470E-01
        2   -1    0    0  501    0  0.00000000000E+00  0.00000000000E+00  0.17927034079E+04  0.17927034079E+04  0.25500000920E-02 0.  1.
       -2   -1    0    0    0  501  0.00000000000E+00  0.00000000000E+00 -0.14809334369E+04  0.14809334369E+04  0.25500000920E-02 0. -1.
    10030    2    1    2    0    0  0.00000000000E+00  0.00000000000E+00  0.31176997097E+03  0.32736368449E+04  0.32587570755E+04 0.  0.
        2    1    3    3  502    0  0.10737488920E+04 -0.32178458441E+03 -0.10320510130E+04  0.15236834630E+04  0.25500000920E-02 0. -1.
       -2    1    3    3    0  502 -0.10737488920E+04  0.32178458441E+03  0.13438209840E+04  0.17499533819E+04  0.25500000920E-02 0.  1.
</event>
<event>
 5   0  0.4149487E-07  0.3862773E+04  0.7818609E-02  0.8032817E-01
        2   -1    0    0  501    0  0.00000000000E+00  0.00000000000E+00  0.26349373710E+04  0.26349373710E+04  0.25500000920E-02 0.  1.
       -2   -1    0    0    0  501  0.00000000000E+00  0.00000000000E+00 -0.14156897595E+04  0.14156897595E+04  0.25500000920E-02 0. -1.
    10030    2    1    2    0    0  0.00000000000E+00  0.00000000000E+00  0.12192476115E+04  0.40506271306E+04  0.38627730211E+04 0.  0.
        2    1    3    3  502    0  0.14352924435E+04 -0.53600853476E+03  0.18427740737E+04  0.23964944887E+04  0.25500000920E-02 0.  1.
       -2    1    3    3    0  502 -0.14352924435E+04  0.53600853476E+03 -0.62352646218E+03  0.16541326419E+04  0.25500000920E-02 0. -1.
</event>
<event>
 5   0  0.4301754E-07  0.3403386E+04  0.7818609E-02  0.8137076E-01
       -2   -1    0    0    0  501  0.00000000000E+00  0.00000000000E+00  0.10565936053E+04  0.10565936053E+04  0.25500000920E-02 0. -1.
        2   -1    0    0  501    0  0.00000000000E+00  0.00000000000E+00 -0.27406555474E+04  0.27406555474E+04  0.25500000920E-02 0.  1.
    10030    2    1    2    0    0  0.00000000000E+00  0.00000000000E+00 -0.16840619421E+04  0.37972491527E+04  0.34033860350E+04 0.  0.
        1    1    3    3  502    0  0.83117380511E+01 -0.61303239008E+03 -0.26131507201E+04  0.26841077628E+04  0.50400001928E-02 0.  1.
       -1    1    3    3    0  502 -0.83117380511E+01  0.61303239008E+03  0.92908877808E+03  0.11131413899E+04  0.50400001928E-02 0. -1.
</event>
<event>
 5   0  0.1421304E-07  0.3914876E+04  0.7818609E-02  0.8021942E-01
       -1   -1    0    0    0  501  0.00000000000E+00  0.00000000000E+00  0.13990435377E+04  0.13990435377E+04  0.50400001928E-02 0. -1.
        1   -1    0    0  501    0  0.00000000000E+00  0.00000000000E+00 -0.27387015462E+04  0.27387015462E+04  0.50400001928E-02 0.  1.
    10030    2    1    2    0    0  0.00000000000E+00  0.00000000000E+00 -0.13396580085E+04  0.41377450839E+04  0.39148755790E+04 0.  0.
        2    1    3    3  502    0 -0.11608775302E+04  0.12997920778E+04  0.27224190477E+03  0.17638627329E+04  0.25500000920E-02 0. -1.
       -2    1    3    3    0  502  0.11608775302E+04 -0.12997920778E+04 -0.16118999133E+04  0.23738823510E+04  0.25500000920E-02 0.  1.
</event>
<event>
 5   0  0.4079777E-07  0.3989833E+04  0.7818609E-02  0.8006601E-01
       -2   -1    0    0    0  501  0.00000000000E+00  0.00000000000E+00  0.33577389583E+04  0.33577389583E+04  0.25500000920E-02 0.  1.
        2   -1    0    0  501    0  0.00000000000E+00  0.00000000000E+00 -0.11852296334E+04  0.11852296334E+04  0.25500000920E-02 0. -1.
    10030    2    1    2    0    0  0.00000000000E+00  0.00000000000E+00  0.21725093248E+04  0.45429685917E+04  0.39898329362E+04 0.  0.
        4    1    3    3  502    0 -0.17948311767E+03  0.40129611435E+03  0.33019008522E+04  0.33310364171E+04  0.12699999809E+01 0.  1.
       -4    1    3    3    0  502  0.17948311767E+03 -0.40129611435E+03 -0.11293915274E+04  0.12119321747E+04  0.12699999809E+01 0. -1.
</event>
<event>
 5   0  0.4047916E-07  0.2480049E+04  0.7818609E-02  0.8410128E-01
       -2   -1    0    0    0  501  0.00000000000E+00  0.00000000000E+00  0.82442172716E+03  0.82442172717E+03  0.25500000920E-02 0. -1.
        2   -1    0    0  501    0  0.00000000000E+00  0.00000000000E+00 -0.18651382621E+04  0.18651382621E+04  0.25500000920E-02 0.  1.
    10030    2    1    2    0    0  0.00000000000E+00  0.00000000000E+00 -0.10407165349E+04  0.26895599893E+04  0.24800487958E+04 0.  0.
        5    1    3    3  502    0 -0.23278031234E+03 -0.12122298929E+04 -0.39226838956E+03  0.12952160308E+04  0.46999998093E+01 0. -1.
       -5    1    3    3    0  502  0.23278031234E+03  0.12122298929E+04 -0.64844814536E+03  0.13943439584E+04  0.46999998093E+01 0.  1.
</event>
<event>
 5   0  0.1351000E-07  0.2767733E+04  0.7818609E-02  0.8313356E-01
       -1   -1    0    0    0  501  0.00000000000E+00  0.00000000000E+00  0.72486656656E+03  0.72486656658E+03  0.50400001928E-02 0.  1.
        1   -1    0    0  501    0  0.00000000000E+00  0.00000000000E+00 -0.26419857518E+04  0.26419857518E+04  0.50400001928E-02 0. -1.
    10030    2    1    2    0    0  0.00000000000E+00  0.00000000000E+00 -0.19171191852E+04  0.33668523184E+04  0.27677334704E+04 0.  0.
        3    1    3    3  502    0  0.13610114583E+04 -0.14269884233E+03 -0.12089623965E+04  0.18260080054E+04  0.10100000352E+00 0. -1.
       -3    1    3    3    0  502 -0.13610114583E+04  0.14269884233E+03 -0.70815678866E+03  0.15408443130E+04  0.10100000352E+00 0.  1.
</event>
<event>
 5   0  0.4047916E-07  0.4024875E+04  0.7818609E-02  0.7999547E-01
       -2   -1    0    0    0  501  0.00000000000E+00  0.00000000000E+00  0.19105358692E+04  0.19105358692E+04  0.25500000920E-02 0.  1.
        2   -1    0    0  501    0  0.00000000000E+00  0.00000000000E+00 -0.21197746277E+04  0.21197746277E+04  0.25500000920E-02 0. -1.
    10030    2    1    2    0    0  0.00000000000E+00  0.00000000000E+00 -0.20923875857E+03  0.40303104969E+04  0.40248753823E+04 0.  0.
        5    1    3    3  502    0  0.14423889410E+04  0.13679418863E+04  0.20906473071E+03  0.19988699340E+04  0.46999998093E+01 0.  1.
       -5    1    3    3    0  502 -0.14423889410E+04 -0.13679418863E+04 -0.41830348927E+03  0.20314405629E+04  0.46999998093E+01 0. -1.
</event>
<event>
 5   0  0.1368865E-07  0.2990140E+04  0.7818609E-02  0.8246552E-01
        1   -1    0    0  501    0  0.00000000000E+00  0.00000000000E+00  0.17086074638E+04  0.17086074638E+04  0.50400001928E-02 0. -1.
       -1   -1    0    0    0  501  0.00000000000E+00  0.00000000000E+00 -0.13082198567E+04  0.13082198567E+04  0.50400001928E-02 0.  1.
    10030    2    1    2    0    0  0.00000000000E+00  0.00000000000E+00  0.40038760718E+03  0.30168273205E+04  0.29901399375E+04 0.  0.
        5    1    3    3  502    0 -0.50155783728E+03 -0.14072559687E+04  0.25799822040E+03  0.15160853530E+04  0.46999998093E+01 0.  1.
       -5    1    3    3    0  502  0.50155783728E+03  0.14072559687E+04  0.14238938678E+03  0.15007419676E+04  0.46999998093E+01 0. -1.
</event>
<event>
 5   0  0.4077370E-07  0.3967743E+04  0.7818609E-02  0.8011086E-01
        2   -1    0    0  501    0  0.00000000000E+00  0.00000000000E+00  0.20067538672E+04  0.20067538672E+04  0.25500000920E-02 0. -1.
       -2   -1    0    0    0  501  0.00000000000E+00  0.00000000000E+00 -0.19612500904E+04  0.19612500904E+04  0.25500000920E-02 0.  1.
    10030    2    1    2    0    0  0.00000000000E+00  0.00000000000E+00  0.45503776842E+02  0.39680039576E+04  0.39677430378E+04 0.  0.
        3    1    3    3  502    0  0.55105118693E+03 -0.14877036656E+04  0.12139752919E+04  0.19976625407E+04  0.10100000352E+00 0. -1.
       -3    1    3    3    0  502 -0.55105118693E+03  0.14877036656E+04 -0.11684715150E+04  0.19703414168E+04  0.10100000352E+00 0.  1.
</event>
<event>
 5   0  0.4149487E-07  0.3987311E+04  0.7818609E-02  0.8007111E-01
        2   -1    0    0  501    0  0.00000000000E+00  0.00000000000E+00  0.24840986152E+04  0.24840986152E+04  0.25500000920E-02 0. -1.
       -2   -1    0    0    0  501  0.00000000000E+00  0.00000000000E+00 -0.16000424031E+04  0.16000424031E+04  0.25500000920E-02 0.  1.
    10030    2    1    2    0    0  0.00000000000E+00  0.00000000000E+00  0.88405621216E+03  0.40841410183E+04  0.39873114339E+04 0.  0.
        2    1    3    3  502    0 -0.18268328776E+03 -0.85888415381E+03 -0.13913002343E+04  0.16452268887E+04  0.25500000920E-02 0.  1.
       -2    1    3    3    0  502  0.18268328776E+03  0.85888415381E+03  0.22753564465E+04  0.24389141296E+04  0.25500000920E-02 0. -1.
</event>
<event>
 5   0  0.1372952E-07  0.4052316E+04  0.7818609E-02  0.7994075E-01
        1   -1    0    0  501    0  0.00000000000E+00  0.00000000000E+00  0.20702890679E+04  0.20702890679E+04  0.50400001928E-02 0. -1.
       -1   -1    0    0    0  501  0.00000000000E+00  0.00000000000E+00 -0.19829677095E+04  0.19829677095E+04  0.50400001928E-02 0.  1.
    10030    2    1    2    0    0  0.00000000000E+00  0.00000000000E+00  0.87321358455E+02  0.40532567774E+04  0.40523160642E+04 0.  0.
        1    1    3    3  502    0 -0.30011278379E+03  0.12383617442E+04 -0.15320490753E+04  0.19926820774E+04  0.50400001928E-02 0.  1.
       -1    1    3    3    0  502  0.30011278379E+03 -0.12383617442E+04  0.16193704338E+04  0.20605747000E+04  0.50400001928E-02 0. -1.
</event>
<event>
 5   0  0.1351000E-07  0.3770433E+04  0.7818609E-02  0.8052530E-01
        1   -1    0    0  501    0  0.00000000000E+00  0.00000000000E+00  0.22704641594E+04  0.22704641594E+04  0.50400001928E-02 0. -1.
       -1   -1    0    0    0  501  0.00000000000E+00  0.00000000000E+00 -0.15653371586E+04  0.15653371586E+04  0.50400001928E-02 0.  1.
    10030    2    1    2    0    0  0.00000000000E+00  0.00000000000E+00  0.70512700080E+03  0.38358013179E+04  0.37704333522E+04 0.  0.
        3    1    3    3  502    0  0.12040998489E+04 -0.63941916124E+03  0.16771849380E+04  0.21614029324E+04  0.10100000352E+00 0. -1.
       -3    1    3    3    0  502 -0.12040998489E+04  0.63941916124E+03 -0.97205793716E+03  0.16743983855E+04  0.10100000352E+00 0.  1.
</event>
<event>
 5   0  0.4079777E-07  0.3858820E+04  0.7818609E-02  0.8033649E-01
       -2   -1    0    0    0  501  0.00000000000E+00  0.00000000000E+00  0.23855190823E+04  0.23855190823E+04  0.25500000920E-02 0.  1.
        2   -1    0    0  501    0  0.00000000000E+00  0.00000000000E+00 -0.15605083998E+04  0.15605083998E+04  0.25500000920E-02 0. -1.
    10030    2    1    2    0    0  0.00000000000E+00  0.00000000000E+00  0.82501068251E+03  0.39460274821E+04  0.38588198019E+04 0.  0.
        4    1    3    3  502    0 -0.13514505351E+04 -0.13164023657E+04 -0.71500645882E+00  0.18866202219E+04  0.12699999809E+01 0. -1.
       -4    1    3    3    0  502  0.13514505351E+04  0.13164023657E+04  0.82572568897E+03  0.20594072603E+04  0.12699999809E+01 0.  1.
</event>
<event>
 5   0  0.4079777E-07  0.4031930E+04  0.7818609E-02  0.7998136E-01
        2   -1    0    0  501    0  0.00000000000E+00  0.00000000000E+00  0.17962556145E+04  0.17962556145E+04  0.25500000920E-02 0.  1.
       -2   -1    0    0    0  501  0.00000000000E+00  0.00000000000E+00 -0.22625480356E+04  0.22625480356E+04  0.25500000920E-02 0. -1.
    10030    2    1    2    0    0  0.00000000000E+00  0.00000000000E+00 -0.46629242109E+03  0.40588036501E+04  0.40319298664E+04 0.  0.
        4    1    3    3  502    0  0.46810069233E+03  0.80091422921E+03 -0.20349170255E+04  0.22363968285E+04  0.12699999809E+01 0. -1.
       -4    1    3    3    0  502 -0.46810069233E+03 -0.80091422921E+03  0.15686246045E+04  0.18224068216E+04  0.12699999809E+01 0.  1.
</event>
<event>
 5   0  0.4301754E-07  0.4016886E+04  0.7818609E-02  0.8001149E-01
        2   -1    0    0  501    0  0.00000000000E+00  0.00000000000E+00  0.15182495466E+04  0.15182495466E+04  0.25500000920E-02 0.  1.
       -2   -1    0    0    0  501  0.00000000000E+00  0.00000000000E+00 -0.26569037862E+04  0.26569037862E+04  0.25500000920E-02 0. -1.
    10030    2    1    2    0    0  0.00000000000E+00  0.00000000000E+00 -0.11386542396E+04  0.41751533328E+04  0.40168858429E+04 0.  0.
        1    1    3    3  502    0  0.20008305256E+03  0.13193399116E+04 -0.21295195967E+04  0.25130747588E+04  0.50400001928E-02 0. -1.
       -1    1    3    3    0  502 -0.20008305256E+03 -0.13193399116E+04  0.99086535709E+03  0.16620785740E+04  0.50400001928E-02 0.  1.
</event>
<event>
 5   0  0.4047916E-07  0.2713896E+04  0.7818609E-02  0.8330510E-01
       -2   -1    0    0    0  501  0.00000000000E+00  0.00000000000E+00  0.16689640895E+04  0.16689640895E+04  0.25500000920E-02 0.  1.
        2   -1    0    0  501    0  0.00000000000E+00  0.00000000000E+00 -0.11032640286E+04  0.11032640286E+04  0.25500000920E-02 0. -1.
    10030    2    1    2    0    0  0.00000000000E+00  0.00000000000E+00  0.56570006092E+03  0.27722281181E+04  0.27138961255E+04 0.  0.
        5    1    3    3  502    0  0.62067217603E+03  0.22127479697E+03 -0.92885413127E+03  0.11388540613E+04  0.46999998093E+01 0. -1.
       -5    1    3    3    0  502 -0.62067217603E+03 -0.22127479697E+03  0.14945541922E+04  0.16333740567E+04  0.46999998093E+01 0.  1.
</event>
<event>
 5   0  0.1351000E-07  0.4017699E+04  0.7818609E-02  0.8000986E-01
        1   -1    0    0  501    0  0.00000000000E+00  0.00000000000E+00  0.32813717340E+04  0.32813717340E+04  0.50400001928E-02 0. -1.
       -1   -1    0    0    0  501  0.00000000000E+00  0.00000000000E+00 -0.12298135677E+04  0.12298135677E+04  0.50400001928E-02 0.  1.
    10030    2    1    2    0    0  0.00000000000E+00  0.00000000000E+00  0.20515581663E+04  0.45111853017E+04  0.40176985846E+04 0.  0.
        3    1    3    3  502    0  0.31358414052E+03  0.38136127060E+03  0.32121836711E+04  0.32499069801E+04  0.10100000352E+00 0. -1.
       -3    1    3    3    0  502 -0.31358414052E+03 -0.38136127060E+03 -0.11606255049E+04  0.12612783216E+04  0.10100000352E+00 0.  1.
</event>
<event>
 5   0  0.1372952E-07  0.4259830E+04  0.7818609E-02  0.7954088E-01
       -1   -1    0    0    0  501  0.00000000000E+00  0.00000000000E+00  0.22593001252E+04  0.22593001252E+04  0.50400001928E-02 0. -1.
        1   -1    0    0  501    0  0.00000000000E+00  0.00000000000E+00 -0.20079396134E+04  0.20079396134E+04  0.50400001928E-02 0.  1.
    10030    2    1    2    0    0  0.00000000000E+00  0.00000000000E+00  0.25136051186E+03  0.42672397386E+04  0.42598301469E+04 0.  0.
        1    1    3    3  502    0  0.63370529006E+03  0.11655249621E+04  0.17948641160E+04  0.22319426576E+04  0.50400001928E-02 0. -1.
       -1    1    3    3    0  502 -0.63370529006E+03 -0.11655249621E+04 -0.15435036041E+04  0.20352970810E+04  0.50400001928E-02 0.  1.
</event>
<event>
 5   0  0.4149487E-07  0.3971072E+04  0.7818609E-02  0.8010408E-01
       -2   -1    0    0    0  501  0.00000000000E+00  0.00000000000E+00  0.23937124641E+04  0.23937124641E+04  0.25500000920E-02 0.  1.
        2   -1    0    0  501    0  0.00000000000E+00  0.00000000000E+00 -0.16469614907E+04  0.16469614908E+04  0.25500000920E-02 0. -1.
    10030    2    1    2    0    0  0.00000000000E+00  0.00000000000E+00  0.74675097337E+03  0.40406739549E+04  0.39710715170E+04 0.  0.
        2    1    3    3  502    0  0.17571182238E+04  0.70482623124E+03 -0.23553433279E+03  0.19078052549E+04  0.25500000920E-02 0. -1.
       -2    1    3    3    0  502 -0.17571182238E+04 -0.70482623124E+03  0.98228530615E+03  0.21328687000E+04  0.25500000920E-02 0.  1.
</event>
<event>
 5   0  0.1368865E-07  0.3798174E+04  0.7818609E-02  0.8046547E-01
        1   -1    0    0  501    0  0.00000000000E+00  0.00000000000E+00  0.19762509291E+04  0.19762509291E+04  0.50400001928E-02 0. -1.
       -1   -1    0    0    0  501  0.00000000000E+00  0.00000000000E+00 -0.18249360217E+04  0.18249360217E+04  0.50400001928E-02 0.  1.
    10030    2    1    2    0    0  0.00000000000E+00  0.00000000000E+00  0.15131490740E+03  0.38011869509E+04  0.37981740395E+04 0.  0.
        5    1    3    3  502    0 -0.12116830264E+04  0.74873703266E+03  0.13327296800E+04  0.19506340996E+04  0.46999998093E+01 0. -1.
       -5    1    3    3    0  502  0.12116830264E+04 -0.74873703266E+03 -0.11814147726E+04  0.18505528513E+04  0.46999998093E+01 0.  1.
</event>
<event>
 5   0  0.1351000E-07  0.3970351E+04  0.7818609E-02  0.8010555E-01
       -1   -1    0    0    0  501  0.00000000000E+00  0.00000000000E+00  0.19419032724E+04  0.19419032724E+04  0.50400001928E-02 0. -1.
        1   -1    0    0  501    0  0.00000000000E+00  0.00000000000E+00 -0.20294118938E+04  0.20294118938E+04  0.50400001928E-02 0.  1.
    10030    2    1    2    0    0  0.00000000000E+00  0.00000000000E+00 -0.87508621414E+02  0.39713151663E+04  0.39703509154E+04 0.  0.
        3    1    3    3  502    0  0.53634849052E+03 -0.19112815142E+04 -0.27786164066E+02  0.19853057222E+04  0.10100000352E+00 0.  1.
       -3    1    3    3    0  502 -0.53634849052E+03  0.19112815142E+04 -0.59722457348E+02  0.19860094440E+04  0.10100000352E+00 0. -1.
</event>
<event>
 5   0  0.1421304E-07  0.3986217E+04  0.7818609E-02  0.8007333E-01
       -1   -1    0    0    0  501  0.00000000000E+00  0.00000000000E+00  0.22975576673E+04  0.22975576674E+04  0.50400001928E-02 0. -1.
        1   -1    0    0  501    0  0.00000000000E+00  0.00000000000E+00 -0.17290021962E+04  0.17290021962E+04  0.50400001928E-02 0.  1.
    10030    2    1    2    0    0  0.00000000000E+00  0.00000000000E+00  0.56855547114E+03  0.40265598636E+04  0.39862173813E+04 0.  0.
        2    1    3    3  502    0 -0.43727997139E+02 -0.45864012437E+03  0.22430311737E+04  0.22898584558E+04  0.25500000920E-02 0. -1.
       -2    1    3    3    0  502  0.43727997139E+02  0.45864012437E+03 -0.16744757025E+04  0.17367014078E+04  0.25500000920E-02 0.  1.
</event>
<event>
 5   0  0.4149487E-07  0.2796177E+04  0.7818609E-02  0.8304456E-01
       -2   -1    0    0    0  501  0.00000000000E+00  0.00000000000E+00  0.13176350962E+04  0.13176350962E+04  0.25500000920E-02 0. -1.
        2   -1    0    0  501    0  0.00000000000E+00  0.00000000000E+00 -0.14834538482E+04  0.14834538482E+04  0.25500000920E-02 0.  1.
    10030    2    1    2    0    0  0.00000000000E+00  0.00000000000E+00 -0.16581875203E+03  0.28010889444E+04  0.27961765709E+04 0.  0.
        2    1    3    3  502    0 -0.17615268670E+03 -0.58804792312E+03 -0.13412294794E+04  0.14750344557E+04  0.25500000920E-02 0.  1.
       -2    1    3    3    0  502  0.17615268670E+03  0.58804792312E+03  0.11754107274E+04  0.13260544887E+04  0.25500000920E-02 0. -1.
</event>
<event>
 5   0  0.4077370E-07  0.3995766E+04  0.7818609E-02  0.8005401E-01
       -2   -1    0    0    0  501  0.00000000000E+00  0.00000000000E+00  0.20816979786E+04  0.20816979786E+04  0.25500000920E-02 0. -1.
        2   -1    0    0  501    0  0.00000000000E+00  0.00000000000E+00 -0.19174431070E+04  0.19174431070E+04  0.25500000920E-02 0.  1.
    10030    2    1    2    0    0  0.00000000000E+00  0.00000000000E+00  0.16425487159E+03  0.39991410856E+04  0.39957664797E+04 0.  0.
        3    1    3    3  502    0  0.17386735406E+04  0.98254598635E+03  0.25909420755E+02  0.19972615263E+04  0.10100000352E+00 0. -1.
       -3    1    3    3    0  502 -0.17386735406E+04 -0.98254598635E+03  0.13834545084E+03  0.20018795593E+04  0.10100000352E+00 0.  1.
</event>
<event>
 5   0  0.1368865E-07  0.3328931E+04  0.7818609E-02  0.8155573E-01
        1   -1    0    0  501    0  0.00000000000E+00  0.00000000000E+00  0.19866223302E+04  0.19866223302E+04  0.50400001928E-02 0. -1.
       -1   -1    0    0    0  501  0.00000000000E+00  0.00000000000E+00 -0.13945507913E+04  0.13945507913E+04  0.50400001928E-02 0.  1.
    10030    2    1    2    0    0  0.00000000000E+00  0.00000000000E+00  0.59207153888E+03  0.33811731215E+04  0.33289312054E+04 0.  0.
        5    1    3    3  502    0  0.12190786937E+04  0.29813671634E+03  0.14065305999E+04  0.18850434429E+04  0.46999998093E+01 0. -1.
       -5    1    3    3    0  502 -0.12190786937E+04 -0.29813671634E+03 -0.81445906104E+03  0.14961296786E+04  0.46999998093E+01 0.  1.
</event>
<event>
 5   0  0.1372952E-07  0.2773649E+04  0.7818609E-02  0.8311496E-01
       -1   -1    0    0    0  501  0.00000000000E+00  0.00000000000E+00  0.10252046535E+04  0.10252046535E+04  0.50400001928E-02 0.  1.
        1   -1    0    0  501    0  0.00000000000E+00  0.00000000000E+00 -0.18759978470E+04  0.18759978470E+04  0.50400001928E-02 0. -1.
    10030    2    1    2    0    0  0.00000000000E+00  0.00000000000E+00 -0.85079319354E+03  0.29012025005E+04  0.27736486603E+04 0.  0.
        1    1    3    3  502    0  0.21691739693E+02  0.13377438757E+04 -0.80722154460E+03  0.15625734641E+04  0.50400001928E-02 0. -1.
       -1    1    3    3    0  502 -0.21691739693E+02 -0.13377438757E+04 -0.43571648943E+02  0.13386290364E+04  0.50400001928E-02 0.  1.
</event>
<event>
 5   0  0.1351000E-07  0.2541444E+04  0.7818609E-02  0.8388368E-01
       -1   -1    0    0    0  501  0.00000000000E+00  0.00000000000E+00  0.98222170461E+03  0.98222170462E+03  0.50400001928E-02 0. -1.
        1   -1    0    0  501    0  0.00000000000E+00  0.00000000000E+00 -0.16439616661E+04  0.16439616661E+04  0.50400001928E-02 0.  1.
    10030    2    1    2    0    0  0.00000000000E+00  0.00000000000E+00 -0.66173996149E+03  0.26261833707E+04  0.25414443374E+04 0.  0.
        3    1    3    3  502    0 -0.74358103588E+03  0.13193967818E+03 -0.13869109909E+04  0.15791905973E+04  0.10100000352E+00 0.  1.
       -3    1    3    3    0  502  0.74358103588E+03 -0.13193967818E+03  0.72517102940E+03  0.10469927735E+04  0.10100000352E+00 0. -1.
</event>
<event>
 5   0  0.4047916E-07  0.4029361E+04  0.7818609E-02  0.7998650E-01
        2   -1    0    0  501    0  0.00000000000E+00  0.00000000000E+00  0.15468025526E+04  0.15468025526E+04  0.25500000920E-02 0. -1.
       -2   -1    0    0    0  501  0.00000000000E+00  0.00000000000E+00 -0.26240825535E+04  0.26240825535E+04  0.25500000920E-02 0.  1.
    10030    2    1    2    0    0  0.00000000000E+00  0.00000000000E+00 -0.10772800009E+04  0.41708851061E+04  0.40293610372E+04 0.  0.
        5    1    3    3  502    0 -0.13179532241E+04  0.59907676396E+03 -0.19889291871E+04  0.24600315184E+04  0.46999998093E+01 0.  1.
       -5    1    3    3    0  502  0.13179532241E+04 -0.59907676396E+03  0.91164918617E+03  0.17108535878E+04  0.46999998093E+01 0. -1.
</event>
<event>
 5   0  0.1351000E-07  0.3123273E+04  0.7818609E-02  0.8209380E-01
        3   -1    0    0  501    0  0.00000000000E+00  0.00000000000E+00  0.13098389978E+04  0.13098390016E+04  0.10100000352E+00 0.  1.
       -3   -1    0    0    0  501  0.00000000000E+00  0.00000000000E+00 -0.18618380208E+04  0.18618380236E+04  0.10100000352E+00 0. -1.
    10030    2    1    2    0    0  0.00000000000E+00  0.00000000000E+00 -0.55199902309E+03  0.31716770252E+04  0.31232726796E+04 0.  0.
        5    1    3    3  502    0  0.63075878774E+03 -0.39720401445E+03  0.11175132041E+04  0.13433114042E+04  0.46999998093E+01 0.  1.
       -5    1    3    3    0  502 -0.63075878774E+03  0.39720401445E+03 -0.16695122272E+04  0.18283656210E+04  0.46999998093E+01 0. -1.
</event>
<event>
 5   0  0.4149487E-07  0.3524036E+04  0.7818609E-02  0.8108117E-01
       -2   -1    0    0    0  501  0.00000000000E+00  0.00000000000E+00  0.17279916844E+04  0.17279916844E+04  0.25500000920E-02 0.  1.
        2   -1    0    0  501    0  0.00000000000E+00  0.00000000000E+00 -0.17967141303E+04  0.17967141304E+04  0.25500000920E-02 0. -1.
    10030    2    1    2    0    0  0.00000000000E+00  0.00000000000E+00 -0.68722445956E+02  0.35247058147E+04  0.35240357980E+04 0.  0.
        2    1    3    3  502    0 -0.23843604243E+03  0.17173911477E+04 -0.34814523392E+03  0.17684708661E+04  0.25500000920E-02 0. -1.
       -2    1    3    3    0  502  0.23843604243E+03 -0.17173911477E+04  0.27942278796E+03  0.17562349486E+04  0.25500000920E-02 0.  1.
</event>
<event>
 5   0  0.4149487E-07  0.4249537E+04  0.7818609E-02  0.7956016E-01
        2   -1    0    0  501    0  0.00000000000E+00  0.00000000000E+00  0.23889901283E+04  0.23889901283E+04  0.25500000920E-02 0. -1.
       -2   -1    0    0    0  501  0.00000000000E+00  0.00000000000E+00 -0.18897698732E+04  0.18897698732E+04  0.25500000920E-02 0.  1.
    10030    2    1    2    0    0  0.00000000000E+00  0.00000000000E+00  0.49922025506E+03  0.42787600016E+04  0.42495371851E+04 0.  0.
        2    1    3    3  502    0  0.48880759808E+03  0.12212271928E+04  0.19297108135E+04  0.23354041509E+04  0.25500000920E-02 0. -1.
       -2    1    3    3    0  502 -0.48880759808E+03 -0.12212271928E+04 -0.14304905584E+04  0.19433558506E+04  0.25500000920E-02 0.  1.
</event>
<event>
 5   0  0.4047916E-07  0.3993796E+04  0.7818609E-02  0.8005799E-01
       -2   -1    0    0    0  501  0.00000000000E+00  0.00000000000E+00  0.25178453529E+04  0.25178453529E+04  0.25500000920E-02 0. -1.
        2   -1    0    0  501    0  0.00000000000E+00  0.00000000000E+00 -0.15837355884E+04  0.15837355884E+04  0.25500000920E-02 0.  1.
    10030    2    1    2    0    0  0.00000000000E+00  0.00000000000E+00  0.93410976443E+03  0.41015809413E+04  0.39937958343E+04 0.  0.
        5    1    3    3  502    0 -0.18847834598E+04  0.39732138103E+03 -0.73755775056E+02  0.19276241787E+04  0.46999998093E+01 0.  1.
       -5    1    3    3    0  502  0.18847834598E+04 -0.39732138103E+03  0.10078655395E+04  0.21739567626E+04  0.46999998093E+01 0. -1.
</event>
<event>
 5   0  0.4301754E-07  0.4007239E+04  0.7818609E-02  0.8003088E-01
       -2   -1    0    0    0  501  0.00000000000E+00  0.00000000000E+00  0.24781937972E+04  0.24781937972E+04  0.25500000920E-02 0. -1.
        2   -1    0    0  501    0  0.00000000000E+00  0.00000000000E+00 -0.16199262227E+04  0.16199262227E+04  0.25500000920E-02 0.  1.
    10030    2    1    2    0    0  0.00000000000E+00  0.00000000000E+00  0.85826757457E+03  0.40981200199E+04  0.40072390081E+04 0.  0.
        1    1    3    3  502    0  0.38920301767E+03  0.90127282478E+03 -0.13571092976E+04  0.16749678622E+04  0.50400001928E-02 0.  1.
       -1    1    3    3    0  502 -0.38920301767E+03 -0.90127282478E+03  0.22153768722E+04  0.24231521577E+04  0.50400001928E-02 0. -1.
</event>
<event>
 5   0  0.4149487E-07  0.3923529E+04  0.7818609E-02  0.8020153E-01
       -2   -1    0    0    0  501  0.00000000000E+00  0.00000000000E+00  0.24059080536E+04  0.24059080536E+04  0.25500000920E-02 0. -1.
        2   -1    0    0  501    0  0.00000000000E+00  0.00000000000E+00 -0.15996121819E+04  0.15996121819E+04  0.25500000920E-02 0.  1.
    10030    2    1    2    0    0  0.00000000000E+00  0.00000000000E+00  0.80629587167E+03  0.40055202355E+04  0.39235289376E+04 0.  0.
        2    1    3    3  502    0 -0.84179492160E+03 -0.13279288466E+04  0.16009116255E+04  0.22438653579E+04  0.25500000920E-02 0. -1.
       -2    1    3    3    0  502  0.84179492160E+03  0.13279288466E+04 -0.79461575387E+03  0.17616548776E+04  0.25500000920E-02 0.  1.
</event>
<event>
 5   0  0.4301754E-07  0.3725061E+04  0.7818609E-02  0.8062431E-01
        2   -1    0    0  501    0  0.00000000000E+00  0.00000000000E+00  0.13271652556E+04  0.13271652556E+04  0.25500000920E-02 0.  1.
       -2   -1    0    0    0  501  0.00000000000E+00  0.00000000000E+00 -0.26138568867E+04  0.26138568867E+04  0.25500000920E-02 0. -1.
    10030    2    1    2    0    0  0.00000000000E+00  0.00000000000E+00 -0.12866916311E+04  0.39410221423E+04  0.37250610965E+04 0.  0.
        1    1    3    3  502    0  0.15329197780E+04 -0.10486908949E+04 -0.49589427075E+03  0.19223700910E+04  0.50400001928E-02 0.  1.
       -1    1    3    3    0  502 -0.15329197780E+04  0.10486908949E+04 -0.79079736039E+03  0.20186520513E+04  0.50400001928E-02 0. -1.
</event>
<event>
 5   0  0.1351000E-07  0.3527206E+04  0.7818609E-02  0.8107373E-01
       -1   -1    0    0    0  501  0.00000000000E+00  0.00000000000E+00  0.14132386337E+04  0.14132386337E+04  0.50400001928E-02 0. -1.
        1   -1    0    0  501    0  0.00000000000E+00  0.00000000000E+00 -0.22008281741E+04  0.22008281741E+04  0.50400001928E-02 0.  1.
    10030    2    1    2    0    0  0.00000000000E+00  0.00000000000E+00 -0.78758954038E+03  0.36140668078E+04  0.35272059207E+04 0.  0.
        4    1    3    3  502    0 -0.63830014148E+03 -0.13530621047E+03 -0.20726058777E+04  0.21728855419E+04  0.12699999809E+01 0.  1.
       -4    1    3    3    0  502  0.63830014148E+03  0.13530621047E+03  0.12850163373E+04  0.14411812659E+04  0.12699999809E+01 0. -1.
</event>
<event>
 5   0  0.1351000E-07  0.3885856E+04  0.7818609E-02  0.8027977E-01
       -1   -1    0    0    0  501  0.00000000000E+00  0.00000000000E+00  0.23249620472E+04  0.23249620472E+04  0.50400001928E-02 0.  1.
        1   -1    0    0  501    0  0.00000000000E+00  0.00000000000E+00 -0.16236688782E+04  0.16236688782E+04  0.50400001928E-02 0. -1.
    10030    2    1    2    0    0  0.00000000000E+00  0.00000000000E+00  0.70129316898E+03  0.39486309254E+04  0.38858556427E+04 0.  0.
        4    1    3    3  502    0  0.12406671057E+04  0.95006392388E+03  0.15238942790E+04  0.21826891013E+04  0.12699999809E+01 0.  1.
       -4    1    3    3    0  502 -0.12406671057E+04 -0.95006392388E+03 -0.82260111003E+03  0.17659418240E+04  0.12699999809E+01 0. -1.
</event>
<event>
 5   0  0.1351000E-07  0.3236794E+04  0.7818609E-02  0.8179167E-01
       -1   -1    0    0    0  501  0.00000000000E+00  0.00000000000E+00  0.24200016828E+04  0.24200016828E+04  0.50400001928E-02 0. -1.
        1   -1    0    0  501    0  0.00000000000E+00  0.00000000000E+00 -0.10823171302E+04  0.10823171302E+04  0.50400001928E-02 0.  1.
    10030    2    1    2    0    0  0.00000000000E+00  0.00000000000E+00  0.13376845526E+04  0.35023188130E+04  0.32367942638E+04 0.  0.
        4    1    3    3  502    0 -0.70265933290E+03 -0.69501217367E+03 -0.71786487960E+03  0.12215169495E+04  0.12699999809E+01 0.  1.
       -4    1    3    3    0  502  0.70265933290E+03  0.69501217367E+03  0.20555494322E+04  0.22808018635E+04  0.12699999809E+01 0. -1.
</event>
<event>
 5   0  0.4079777E-07  0.4020848E+04  0.7818609E-02  0.8000354E-01
       -2   -1    0    0    0  501  0.00000000000E+00  0.00000000000E+00  0.15648524231E+04  0.15648524231E+04  0.25500000920E-02 0. -1.
        2   -1    0    0  501    0  0.00000000000E+00  0.00000000000E+00 -0.25828661808E+04  0.25828661808E+04  0.25500000920E-02 0.  1.
    10030    2    1    2    0    0  0.00000000000E+00  0.00000000000E+00 -0.10180137576E+04  0.41477186039E+04  0.40208478716E+04 0.  0.
        4    1    3    3  502    0  0.15045887402E+04 -0.24674242870E+03 -0.18607485324E+04  0.24056300250E+04  0.12699999809E+01 0.  1.
       -4    1    3    3    0  502 -0.15045887402E+04  0.24674242870E+03  0.84273477482E+03  0.17420885789E+04  0.12699999809E+01 0. -1.
</event>
<event>
 5   0  0.1368865E-07  0.2682933E+04  0.7818609E-02  0.8340564E-01
        1   -1    0    0  501    0  0.00000000000E+00  0.00000000000E+00  0.11947662623E+04  0.11947662623E+04  0.50400001928E-02 0.  1.
       -1   -1    0    0    0  501  0.00000000000E+00  0.00000000000E+00 -0.15061794913E+04  0.15061794913E+04  0.50400001928E-02 0. -1.
    10030    2    1    2    0    0  0.00000000000E+00  0.00000000000E+00 -0.31141322902E+03  0.27009457536E+04  0.26829330526E+04 0.  0.
        5    1    3    3  502    0  0.28546566479E+03 -0.65143825450E+03  0.98931601771E+03  0.12184542331E+04  0.46999998093E+01 0.  1.
       -5    1    3    3    0  502 -0.28546566479E+03  0.65143825450E+03 -0.13007292467E+04  0.14824915205E+04  0.46999998093E+01 0. -1.
</event>
<event>
 5   0  0.1421304E-07  0.3947749E+04  0.7818609E-02  0.8015171E-01
       -1   -1    0    0    0  501  0.00000000000E+00  0.00000000000E+00  0.16749916900E+04  0.16749916900E+04  0.50400001928E-02 0. -1.
        1   -1    0    0  501    0  0.00000000000E+00  0.00000000000E+00 -0.23260895643E+04  0.23260895643E+04  0.50400001928E-02 0.  1.
    10030    2    1    2    0    0  0.00000000000E+00  0.00000000000E+00 -0.65109787435E+03  0.40010812543E+04  0.39477490753E+04 0.  0.
        2    1    3    3  502    0  0.70315407106E+03  0.14897228767E+04  0.77656089886E+03  0.18211937642E+04  0.25500000920E-02 0. -1.
       -2    1    3    3    0  502 -0.70315407106E+03 -0.14897228767E+04 -0.14276587732E+04  0.21798874902E+04  0.25500000920E-02 0.  1.
</event>
<event>
 5   0  0.1351000E-07  0.3809223E+04  0.7818609E-02  0.8044179E-01
        1   -1    0    0  501    0  0.00000000000E+00  0.00000000000E+00  0.32018291943E+04  0.32018291943E+04  0.50400001928E-02 0. -1.
       -1   -1    0    0    0  501  0.00000000000E+00  0.00000000000E+00 -0.11329599082E+04  0.11329599082E+04  0.50400001928E-02 0.  1.
    10030    2    1    2    0    0  0.00000000000E+00  0.00000000000E+00  0.20688692861E+04  0.43347891025E+04  0.38092225507E+04 0.  0.
        4    1    3    3  502    0 -0.10547270555E+04  0.12373000622E+04  0.21633706143E+04  0.27062029919E+04  0.12699999809E+01 0. -1.
       -4    1    3    3    0  502  0.10547270555E+04 -0.12373000622E+04 -0.94501328259E+02  0.16285861106E+04  0.12699999809E+01 0.  1.
</event>
<event>
 5   0  0.1351000E-07  0.4042483E+04  0.7818609E-02  0.7996031E-01
        1   -1    0    0  501    0  0.00000000000E+00  0.00000000000E+00  0.27439837971E+04  0.27439837971E+04  0.50400001928E-02 0.  1.
       -1   -1    0    0    0  501  0.00000000000E+00  0.00000000000E+00 -0.14888637646E+04  0.14888637646E+04  0.50400001928E-02 0. -1.
    10030    2    1    2    0    0  0.00000000000E+00  0.00000000000E+00  0.12551200325E+04  0.42328475617E+04  0.40424834180E+04 0.  0.
        4    1    3    3  502    0  0.19233336022E+04 -0.37333338315E+03  0.11477718772E+04  0.22706765193E+04  0.12699999809E+01 0.  1.
       -4    1    3    3    0  502 -0.19233336022E+04  0.37333338315E+03  0.10734815532E+03  0.19621710424E+04  0.12699999809E+01 0. -1.
</event>
<event>
 5   0  0.4077370E-07  0.4046461E+04  0.7818609E-02  0.7995239E-01
        2   -1    0    0  501    0  0.00000000000E+00  0.00000000000E+00  0.25869448034E+04  0.25869448034E+04  0.25500000920E-02 0. -1.
       -2   -1    0    0    0  501  0.00000000000E+00  0.00000000000E+00 -0.15823539819E+04  0.15823539819E+04  0.25500000920E-02 0.  1.
    10030    2    1    2    0    0  0.00000000000E+00  0.00000000000E+00  0.10045908214E+04  0.41692987853E+04  0.40464613730E+04 0.  0.
        3    1    3    3  502    0  0.15065218615E+04  0.13175628099E+04  0.80774453149E+03  0.21582472322E+04  0.10100000352E+00 0. -1.
       -3    1    3    3    0  502 -0.15065218615E+04 -0.13175628099E+04  0.19684628994E+03  0.20110515531E+04  0.10100000352E+00 0.  1.
</event>
<event>
 5   0  0.1421304E-07  0.4050596E+04  0.7818609E-02  0.7994417E-01
        1   -1    0    0  501    0  0.00000000000E+00  0.00000000000E+00  0.16384731921E+04  0.16384731921E+04  0.50400001928E-02 0.  1.
       -1   -1    0    0    0  501  0.00000000000E+00  0.00000000000E+00 -0.25034473182E+04  0.25034473182E+04  0.50400001928E-02 0. -1.
    10030    2    1    2    0    0  0.00000000000E+00  0.00000000000E+00 -0.86497412607E+03  0.41419205103E+04  0.40505956692E+04 0.  0.
        2    1    3    3  502    0 -0.14822826151E+04  0.59862292716E+03 -0.17040345230E+04  0.23365026890E+04  0.25500000920E-02 0. -1.
       -2    1    3    3    0  502  0.14822826151E+04 -0.59862292716E+03  0.83906039690E+03  0.18054178214E+04  0.25500000920E-02 0.  1.
</event>
<event>
 5   0  0.4077370E-07  0.3375102E+04  0.7818609E-02  0.8144044E-01
        2   -1    0    0  501    0  0.00000000000E+00  0.00000000000E+00  0.20767725950E+04  0.20767725950E+04  0.25500000920E-02 0.  1.
       -2   -1    0    0    0  501  0.00000000000E+00  0.00000000000E+00 -0.13712756111E+04  0.13712756111E+04  0.25500000920E-02 0. -1.
    10030    2    1    2    0    0  0.00000000000E+00  0.00000000000E+00  0.70549698389E+03  0.34480482061E+04  0.33751015447E+04 0.  0.
        3    1    3    3  502    0  0.58971289549E+03  0.56199433102E+03 -0.11571075355E+04  0.14150960342E+04  0.10100000352E+00 0. -1.
       -3    1    3    3    0  502 -0.58971289549E+03 -0.56199433102E+03  0.18626045194E+04  0.20329521718E+04  0.10100000352E+00 0.  1.
</event>
<event>
 5   0  0.1368865E-07  0.3306215E+04  0.7818609E-02  0.8161316E-01
        1   -1    0    0  501    0  0.00000000000E+00  0.00000000000E+00  0.24751006321E+04  0.24751006321E+04  0.50400001928E-02 0.  1.
       -1   -1    0    0    0  501  0.00000000000E+00  0.00000000000E+00 -0.11041023823E+04  0.11041023823E+04  0.50400001928E-02 0. -1.
    10030    2    1    2    0    0  0.00000000000E+00  0.00000000000E+00  0.13709982498E+04  0.35792030144E+04  0.33062150592E+04 0.  0.
        5    1    3    3  502    0 -0.99048787035E+03 -0.45149001511E+02  0.21174539077E+04  0.23381055996E+04  0.46999998093E+01 0.  1.
       -5    1    3    3    0  502  0.99048787035E+03  0.45149001511E+02 -0.74645565796E+03  0.12410974148E+04  0.46999998093E+01 0. -1.
</event>
<event>
 5   0  0.4077370E-07  0.3186923E+04  0.7818609E-02  0.8192279E-01
       -2   -1    0    0    0  501  0.00000000000E+00  0.00000000000E+00  0.20798871726E+04  0.20798871726E+04  0.25500000920E-02 0. -1.
        2   -1    0    0  501    0  0.00000000000E+00  0.00000000000E+00 -0.12207968019E+04  0.12207968019E+04  0.25500000920E-02 0.  1.
    10030    2    1    2    0    0  0.00000000000E+00  0.00000000000E+00  0.85909037070E+03  0.33006839745E+04  0.31869230355E+04 0.  0.
        3    1    3    3  502    0 -0.22880296167E+02 -0.33268011979E+03 -0.11842542460E+04  0.12303079693E+04  0.10100000352E+00 0.  1.
       -3    1    3    3    0  502  0.22880296167E+02  0.33268011979E+03  0.20433446167E+04  0.20703760052E+04  0.10100000352E+00 0. -1.
</event>
<event>
 5   0  0.1351000E-07  0.3962197E+04  0.7818609E-02  0.8012216E-01
        1   -1    0    0  501    0  0.00000000000E+00  0.00000000000E+00  0.33642255221E+04  0.33642255222E+04  0.50400001928E-02 0.  1.
       -1   -1    0    0    0  501  0.00000000000E+00  0.00000000000E+00 -0.11666136842E+04  0.11666136842E+04  0.50400001928E-02 0. -1.
    10030    2    1    2    0    0  0.00000000000E+00  0.00000000000E+00  0.21976118380E+04  0.45308392063E+04  0.39621971333E+04 0.  0.
        3    1    3    3  502    0  0.11608078984E+03  0.11628549673E+04  0.29280916217E+04  0.31526856774E+04  0.10100000352E+00 0.  1.
       -3    1    3    3    0  502 -0.11608078984E+03 -0.11628549673E+04 -0.73047978376E+03  0.13781535290E+04  0.10100000352E+00 0. -1.
</event>
<event>
 5   0  0.1368865E-07  0.4032294E+04  0.7818609E-02  0.7998063E-01
       -1   -1    0    0    0  501  0.00000000000E+00  0.00000000000E+00  0.19434752012E+04  0.19434752012E+04  0.50400001928E-02 0.  1.
        1   -1    0    0  501    0  0.00000000000E+00  0.00000000000E+00 -0.20915363274E+04  0.20915363274E+04  0.50400001928E-02 0. -1.
    10030    2    1    2    0    0  0.00000000000E+00  0.00000000000E+00 -0.14806112619E+03  0.40350115286E+04  0.40322941285E+04 0.  0.
        5    1    3    3  502    0 -0.14601628796E+04 -0.11191300124E+04  0.75132784627E+03  0.19872199783E+04  0.46999998093E+01 0.  1.
       -5    1    3    3    0  502  0.14601628796E+04  0.11191300124E+04 -0.89938897246E+03  0.20477915503E+04  0.46999998093E+01 0. -1.
</event>
<event>
 5   0  0.4077370E-07  0.2777640E+04  0.7818609E-02  0.8310244E-01
       -2   -1    0    0    0  501  0.00000000000E+00  0.00000000000E+00  0.14325127185E+04  0.14325127185E+04  0.25500000920E-02 0.  1.
        2   -1    0    0  501    0  0.00000000000E+00  0.00000000000E+00 -0.13464595125E+04  0.13464595125E+04  0.25500000920E-02 0. -1.
    10030    2    1    2    0    0  0.00000000000E+00  0.00000000000E+00  0.86053205938E+02  0.27789722310E+04  0.27776395566E+04 0.  0.
        3    1    3    3  502    0 -0.54021379439E+03 -0.10913314822E+04 -0.62511490649E+03  0.13687965533E+04  0.10100000352E+00 0. -1.
       -3    1    3    3    0  502  0.54021379439E+03  0.10913314822E+04  0.71116811242E+03  0.14101756777E+04  0.10100000352E+00 0.  1.
</event>
<event>
 5   0  0.1351000E-07  0.2907031E+04  0.7818609E-02  0.8270789E-01
        1   -1    0    0  501    0  0.00000000000E+00  0.00000000000E+00  0.18617938858E+04  0.18617938858E+04  0.50400001928E-02 0.  1.
       -1   -1    0    0    0  501  0.00000000000E+00  0.00000000000E+00 -0.11347696610E+04  0.11347696610E+04  0.50400001928E-02 0. -1.
    10030    2    1    2    0    0  0.00000000000E+00  0.00000000000E+00  0.72702422482E+03  0.29965635468E+04  0.29070309366E+04 0.  0.
        3    1    3    3  502    0  0.10374421343E+03 -0.41198184179E+03 -0.10693407564E+04  0.11506439776E+04  0.10100000352E+00 0. -1.
       -3    1    3    3    0  502 -0.10374421343E+03  0.41198184179E+03  0.17963649812E+04  0.18459195692E+04  0.10100000352E+00 0.  1.
</event>
<event>
 5   0  0.1421304E-07  0.3998857E+04  0.7818609E-02  0.8004777E-01
       -1   -1    0    0    0  501  0.00000000000E+00  0.00000000000E+00  0.17291863011E+04  0.17291863011E+04  0.50400001928E-02 0.  1.
        1   -1    0    0  501    0  0.00000000000E+00  0.00000000000E+00 -0.23119054677E+04  0.23119054677E+04  0.50400001928E-02 0. -1.
    10030    2    1    2    0    0  0.00000000000E+00  0.00000000000E+00 -0.58271916657E+03  0.40410917688E+04  0.39988574690E+04 0.  0.
        2    1    3    3  502    0  0.44254652594E+03 -0.15379440477E+04  0.91988014145E+03  0.18458869944E+04  0.25500000920E-02 0.  1.
       -2    1    3    3    0  502 -0.44254652594E+03  0.15379440477E+04 -0.15025993080E+04  0.21952047745E+04  0.25500000920E-02 0. -1.
</event>
<event>
 5   0  0.4149487E-07  0.2718587E+04  0.7818609E-02  0.8328999E-01
        2   -1    0    0  501    0  0.00000000000E+00  0.00000000000E+00  0.22713641253E+04  0.22713641253E+04  0.25500000920E-02 0. -1.
       -2   -1    0    0    0  501  0.00000000000E+00  0.00000000000E+00 -0.81346661855E+03  0.81346661856E+03  0.25500000920E-02 0.  1.
    10030    2    1    2    0    0  0.00000000000E+00  0.00000000000E+00  0.14578975068E+04  0.30848307439E+04  0.27185870555E+04 0.  0.
        2    1    3    3  502    0 -0.64143391895E+03 -0.79514937982E+03  0.17463925250E+04  0.20232614413E+04  0.25500000920E-02 0. -1.
       -2    1    3    3    0  502  0.64143391895E+03  0.79514937982E+03 -0.28849501822E+03  0.10615693026E+04  0.25500000920E-02 0.  1.
</event>
<event>
 5   0  0.4149487E-07  0.3874058E+04  0.7818609E-02  0.8030446E-01
        2   -1    0    0  501    0  0.00000000000E+00  0.00000000000E+00  0.12974077766E+04  0.12974077766E+04  0.25500000920E-02 0. -1.
       -2   -1    0    0    0  501  0.00000000000E+00  0.00000000000E+00 -0.28919833863E+04  0.28919833863E+04  0.25500000920E-02 0.  1.
    10030    2    1    2    0    0  0.00000000000E+00  0.00000000000E+00 -0.15945756098E+04  0.41893911629E+04  0.38740582004E+04 0.  0.
        2    1    3    3  502    0  0.10449618687E+04 -0.96315514891E+03 -0.22206566503E+04  0.26364614745E+04  0.25500000920E-02 0.  1.
       -2    1    3    3    0  502 -0.10449618687E+04  0.96315514891E+03  0.62608104048E+03  0.15529296884E+04  0.25500000920E-02 0. -1.
</event>
<event>
 5   0  0.4079777E-07  0.3973703E+04  0.7818609E-02  0.8009873E-01
       -2   -1    0    0    0  501  0.00000000000E+00  0.00000000000E+00  0.15822219906E+04  0.15822219906E+04  0.25500000920E-02 0.  1.
        2   -1    0    0  501    0  0.00000000000E+00  0.00000000000E+00 -0.24949584416E+04  0.24949584416E+04  0.25500000920E-02 0. -1.
    10030    2    1    2    0    0  0.00000000000E+00  0.00000000000E+00 -0.91273645100E+03  0.40771804321E+04  0.39737026118E+04 0.  0.
        4    1    3    3  502    0 -0.66704991402E+03 -0.15175817825E+04 -0.15801363877E+04  0.22901621495E+04  0.12699999809E+01 0. -1.
       -4    1    3    3    0  502  0.66704991402E+03  0.15175817825E+04  0.66739993665E+03  0.17870182827E+04  0.12699999809E+01 0.  1.
</event>
<event>
 5   0  0.4301754E-07  0.3916113E+04  0.7818609E-02  0.8021686E-01
       -2   -1    0    0    0  501  0.00000000000E+00  0.00000000000E+00  0.17990070252E+04  0.17990070252E+04  0.25500000920E-02 0. -1.
        2   -1    0    0  501    0  0.00000000000E+00  0.00000000000E+00 -0.21311672785E+04  0.21311672785E+04  0.25500000920E-02 0.  1.
    10030    2    1    2    0    0  0.00000000000E+00  0.00000000000E+00 -0.33216025330E+03  0.39301743036E+04  0.39161128205E+04 0.  0.
        1    1    3    3  502    0 -0.11476300883E+04 -0.60410295962E+03 -0.16383136785E+04  0.20895135593E+04  0.50400001928E-02 0.  1.
       -1    1    3    3    0  502  0.11476300883E+04  0.60410295962E+03  0.13061534253E+04  0.18406607443E+04  0.50400001928E-02 0. -1.
</event>
<event>
 5   0  0.4047916E-07  0.3872278E+04  0.7818609E-02  0.8030820E-01
        2   -1    0    0  501    0  0.00000000000E+00  0.00000000000E+00  0.20469484945E+04  0.20469484945E+04  0.25500000920E-02 0.  1.
       -2   -1    0    0    0  501  0.00000000000E+00  0.00000000000E+00 -0.18313276098E+04  0.18313276098E+04  0.25500000920E-02 0. -1.
    10030    2    1    2    0    0  0.00000000000E+00  0.00000000000E+00  0.21562088470E+03  0.38782761044E+04  0.38722775179E+04 0.  0.
        5    1    3    3  502    0  0.60018959561E+03 -0.27199375448E+02  0.19512169757E+04  0.20416261002E+04  0.46999998093E+01 0.  1.
       -5    1    3    3    0  502 -0.60018959561E+03  0.27199375448E+02 -0.17355960910E+04  0.18366500042E+04  0.46999998093E+01 0. -1.
</event>
<event>
 5   0  0.4149487E-07  0.4053210E+04  0.7818609E-02  0.7993898E-01
        2   -1    0    0  501    0  0.00000000000E+00  0.00000000000E+00  0.18449018976E+04  0.18449018976E+04  0.25500000920E-02 0.  1.
       -2   -1    0    0    0  501  0.00000000000E+00  0.00000000000E+00 -0.22262041912E+04  0.22262041912E+04  0.25500000920E-02 0. -1.
    10030    2    1    2    0    0  0.00000000000E+00  0.00000000000E+00 -0.38130229356E+03  0.40711060888E+04  0.40532102521E+04 0.  0.
        2    1    3    3  502    0  0.18377013458E+04 -0.31432537064E+03 -0.98862832985E+03  0.21102920769E+04  0.25500000920E-02 0. -1.
       -2    1    3    3    0  502 -0.18377013458E+04  0.31432537064E+03  0.60732603628E+03  0.19608140120E+04  0.25500000920E-02 0.  1.
</event>
<event>
 5   0  0.4301754E-07  0.4020615E+04  0.7818609E-02  0.8000401E-01
        2   -1    0    0  501    0  0.00000000000E+00  0.00000000000E+00  0.27545739271E+04  0.27545739271E+04  0.25500000920E-02 0. -1.
       -2   -1    0    0    0  501  0.00000000000E+00  0.00000000000E+00 -0.14671367153E+04  0.14671367153E+04  0.25500000920E-02 0.  1.
    10030    2    1    2    0    0  0.00000000000E+00  0.00000000000E+00  0.12874372118E+04  0.42217106423E+04  0.40206151486E+04 0.  0.
        1    1    3    3  502    0 -0.16089355830E+03  0.55091644240E+03 -0.13792841944E+04  0.14939278940E+04  0.50400001928E-02 0.  1.
       -1    1    3    3    0  502  0.16089355830E+03 -0.55091644240E+03  0.26667214062E+04  0.27277827483E+04  0.50400001928E-02 0. -1.
</event>
<event>
 5   0  0.1351000E-07  0.4025283E+04  0.7818609E-02  0.7999465E-01
       -1   -1    0    0    0  501  0.00000000000E+00  0.00000000000E+00  0.15401044564E+04  0.15401044564E+04  0.50400001928E-02 0. -1.
        1   -1    0    0  501    0  0.00000000000E+00  0.00000000000E+00 -0.26301633119E+04  0.26301633119E+04  0.50400001928E-02 0.  1.
    10030    2    1    2    0    0  0.00000000000E+00  0.00000000000E+00 -0.10900588554E+04  0.41702677683E+04  0.40252832138E+04 0.  0.
        3    1    3    3  502    0  0.33937440907E+03  0.16202189593E+04  0.64094783184E+03  0.17751334031E+04  0.10100000352E+00 0. -1.
       -3    1    3    3    0  502 -0.33937440907E+03 -0.16202189593E+04 -0.17310066873E+04  0.23951343652E+04  0.10100000352E+00 0.  1.
</event>
<event>
 5   0  0.4047916E-07  0.3523991E+04  0.7818609E-02  0.8108128E-01
       -2   -1    0    0    0  501  0.00000000000E+00  0.00000000000E+00  0.14398901574E+04  0.14398901574E+04  0.25500000920E-02 0. -1.
        2   -1    0    0  501    0  0.00000000000E+00  0.00000000000E+00 -0.21561563258E+04  0.21561563258E+04  0.25500000920E-02 0.  1.
    10030    2    1    2    0    0  0.00000000000E+00  0.00000000000E+00 -0.71626616839E+03  0.35960464831E+04  0.35239910733E+04 0.  0.
        5    1    3    3  502    0 -0.36341003783E+02  0.85540578409E+03  0.12133443418E+04  0.14850139076E+04  0.46999998093E+01 0. -1.
       -5    1    3    3    0  502  0.36341003783E+02 -0.85540578409E+03 -0.19296105102E+04  0.21110325755E+04  0.46999998093E+01 0.  1.
</event>
<event>
 5   0  0.1351000E-07  0.4047544E+04  0.7818609E-02  0.7995024E-01
       -1   -1    0    0    0  501  0.00000000000E+00  0.00000000000E+00  0.19980059919E+04  0.19980059919E+04  0.50400001928E-02 0. -1.
        1   -1    0    0  501    0  0.00000000000E+00  0.00000000000E+00 -0.20498700878E+04  0.20498700878E+04  0.50400001928E-02 0.  1.
    10030    2    1    2    0    0  0.00000000000E+00  0.00000000000E+00 -0.51864095954E+02  0.40478760797E+04  0.40475438073E+04 0.  0.
        4    1    3    3  502    0 -0.15286146867E+04  0.82599821481E+03  0.10118020129E+04  0.20106418969E+04  0.12699999809E+01 0.  1.
       -4    1    3    3    0  502  0.15286146867E+04 -0.82599821481E+03 -0.10636661089E+04  0.20372341828E+04  0.12699999809E+01 0. -1.
</event>
<event>
 5   0  0.4301754E-07  0.2849161E+04  0.7818609E-02  0.8288166E-01
       -2   -1    0    0    0  501  0.00000000000E+00  0.00000000000E+00  0.97585435704E+03  0.97585435704E+03  0.25500000920E-02 0. -1.
        2   -1    0    0  501    0  0.00000000000E+00  0.00000000000E+00 -0.20796433155E+04  0.20796433155E+04  0.25500000920E-02 0.  1.
    10030    2    1    2    0    0  0.00000000000E+00  0.00000000000E+00 -0.11037889585E+04  0.30554976726E+04  0.28491605715E+04 0.  0.
        1    1    3    3  502    0 -0.71925875985E+03 -0.88064876335E+03  0.36848558830E+03  0.11952644213E+04  0.50400001928E-02 0. -1.
       -1    1    3    3    0  502  0.71925875985E+03  0.88064876335E+03 -0.14722745468E+04  0.18602332513E+04  0.50400001928E-02 0.  1.
</event>
<event>
 5   0  0.4149487E-07  0.3987879E+04  0.7818609E-02  0.8006996E-01
        2   -1    0    0  501    0  0.00000000000E+00  0.00000000000E+00  0.23940626973E+04  0.23940626973E+04  0.25500000920E-02 0.  1.
       -2   -1    0    0    0  501  0.00000000000E+00  0.00000000000E+00 -0.16606898597E+04  0.16606898597E+04  0.25500000920E-02 0. -1.
    10030    2    1    2    0    0  0.00000000000E+00  0.00000000000E+00  0.73337283761E+03  0.40547525570E+04  0.39878794591E+04 0.  0.
        2    1    3    3  502    0  0.24611611350E+03  0.50983413873E+03 -0.15772557972E+04  0.16757803675E+04  0.25500000920E-02 0. -1.
       -2    1    3    3    0  502 -0.24611611350E+03 -0.50983413873E+03  0.23106286348E+04  0.23789721895E+04  0.25500000920E-02 0.  1.
</event>
<event>
 5   0  0.1368865E-07  0.3965128E+04  0.7818609E-02  0.8011619E-01
       -1   -1    0    0    0  501  0.00000000000E+00  0.00000000000E+00  0.13248296378E+04  0.13248296378E+04  0.50400001928E-02 0.  1.
        1   -1    0    0  501    0  0.00000000000E+00  0.00000000000E+00 -0.29668417814E+04  0.29668417814E+04  0.50400001928E-02 0. -1.
    10030    2    1    2    0    0  0.00000000000E+00  0.00000000000E+00 -0.16420121436E+04  0.42916714192E+04  0.39651279539E+04 0.  0.
        5    1    3    3  502    0  0.70970212883E+03  0.10928814839E+03 -0.28211411309E+04  0.29110960791E+04  0.46999998093E+01 0. -1.
       -5    1    3    3    0  502 -0.70970212883E+03 -0.10928814839E+03  0.11791289873E+04  0.13805753401E+04  0.46999998093E+01 0.  1.
</event>
<event>
 5   0  0.4079777E-07  0.3940136E+04  0.7818609E-02  0.8016733E-01
        2   -1    0    0  501    0  0.00000000000E+00  0.00000000000E+00  0.21202274103E+04  0.21202274103E+04  0.25500000920E-02 0. -1.
       -2   -1    0    0    0  501  0.00000000000E+00  0.00000000000E+00 -0.18305431259E+04  0.18305431259E+04  0.25500000920E-02 0.  1.
    10030    2    1    2    0    0  0.00000000000E+00  0.00000000000E+00  0.28968428442E+03  0.39507705363E+04  0.39401358918E+04 0.  0.
        4    1    3    3  502    0 -0.14407256620E+04  0.11739873051E+04 -0.51054996724E+03  0.19273296313E+04  0.12699999809E+01 0. -1.
       -4    1    3    3    0  502  0.14407256620E+04 -0.11739873051E+04  0.80023425166E+03  0.20234409050E+04  0.12699999809E+01 0.  1.
</event>
<event>
 5   0  0.4047916E-07  0.3965178E+04  0.7818609E-02  0.8011608E-01
        2   -1    0    0  501    0  0.00000000000E+00  0.00000000000E+00  0.28013216464E+04  0.28013216464E+04  0.25500000920E-02 0.  1.
       -2   -1    0    0    0  501  0.00000000000E+00  0.00000000000E+00 -0.14031445583E+04  0.14031445583E+04  0.25500000920E-02 0. -1.
    10030    2    1    2    0    0  0.00000000000E+00  0.00000000000E+00  0.13981770880E+04  0.42044662047E+04  0.39651780410E+04 0.  0.
        5    1    3    3  502    0  0.14561089839E+04  0.52173229860E+03  0.20141669194E+04  0.25395567396E+04  0.46999998093E+01 0.  1.
       -5    1    3    3    0  502 -0.14561089839E+04 -0.52173229860E+03 -0.61598983138E+03  0.16649094651E+04  0.46999998093E+01 0. -1.
</event>
<event>
 5   0  0.1351000E-07  0.2883142E+04  0.7818609E-02  0.8277911E-01
       -1   -1    0    0    0  501  0.00000000000E+00  0.00000000000E+00  0.17895231573E+04  0.17895231573E+04  0.50400001928E-02 0. -1.
        1   -1    0    0  501    0  0.00000000000E+00  0.00000000000E+00 -0.11612738303E+04  0.11612738304E+04  0.50400001928E-02 0.  1.
    10030    2    1    2    0    0  0.00000000000E+00  0.00000000000E+00  0.62824932698E+03  0.29507969877E+04  0.28831416278E+04 0.  0.
        4    1    3    3  502    0  0.12475518830E+04 -0.58018606451E+03  0.75448055622E+03  0.15691539417E+04  0.12699999809E+01 0. -1.
       -4    1    3    3    0  502 -0.12475518830E+04  0.58018606451E+03 -0.12623122924E+03  0.13816430459E+04  0.12699999809E+01 0.  1.
</event>
<event>
 5   0  0.4301754E-07  0.2782443E+04  0.7818609E-02  0.8308740E-01
        2   -1    0    0  501    0  0.00000000000E+00  0.00000000000E+00  0.10410224713E+04  0.10410224713E+04  0.25500000920E-02 0. -1.
       -2   -1    0    0    0  501  0.00000000000E+00  0.00000000000E+00 -0.18592275338E+04  0.18592275339E+04  0.25500000920E-02 0.  1.
    10030    2    1    2    0    0  0.00000000000E+00  0.00000000000E+00 -0.81820506260E+03  0.29002500051E+04  0.27824432730E+04 0.  0.
        1    1    3    3  502    0  0.20048806158E+03 -0.13013103054E+04  0.59247406059E+02  0.13179962933E+04  0.50400001928E-02 0. -1.
       -1    1    3    3    0  502 -0.20048806158E+03  0.13013103054E+04 -0.87745246866E+03  0.15822537118E+04  0.50400001928E-02 0.  1.
</event>
<event>
 5   0  0.1368865E-07  0.3864005E+04  0.7818609E-02  0.8032557E-01
        1   -1    0    0  501    0  0.00000000000E+00  0.00000000000E+00  0.25426984174E+04  0.25426984174E+04  0.50400001928E-02 0.  1.
       -1   -1    0    0    0  501  0.00000000000E+00  0.00000000000E+00 -0.14679812850E+04  0.14679812850E+04  0.50400001928E-02 0. -1.
    10030    2    1    2    0    0  0.00000000000E+00  0.00000000000E+00  0.10747171324E+04  0.40106797024E+04  0.38640050156E+04 0.  0.
        5    1    3    3  502    0 -0.12228187439E+04  0.13560781933E+04 -0.11777204449E+03  0.18297885373E+04  0.46999998093E+01 0. -1.
       -5    1    3    3    0  502  0.12228187439E+04 -0.13560781933E+04  0.11924891769E+04  0.21808911651E+04  0.46999998093E+01 0.  1.
</event>
<event>
 5   0  0.1351000E-07  0.3895967E+04  0.7818609E-02  0.8025869E-01
       -1   -1    0    0    0  501  0.00000000000E+00  0.00000000000E+00  0.15495054337E+04  0.15495054337E+04  0.50400001928E-02 0.  1.
        1   -1    0    0  501    0  0.00000000000E+00  0.00000000000E+00 -0.24489360566E+04  0.24489360566E+04  0.50400001928E-02 0. -1.
    10030    2    1    2    0    0  0.00000000000E+00  0.00000000000E+00 -0.89943062294E+03  0.39984414903E+04  0.38959670052E+04 0.  0.
        3    1    3    3  502    0 -0.33690763138E+03  0.12741719298E+04  0.10224546121E+04  0.16680630392E+04  0.10100000352E+00 0.  1.
       -3    1    3    3    0  502  0.33690763138E+03 -0.12741719298E+04 -0.19218852350E+04  0.23303784511E+04  0.10100000352E+00 0. -1.
</event>
<event>
 5   0  0.1351000E-07  0.3811368E+04  0.7818609E-02  0.8043720E-01
        1   -1    0    0  501    0  0.00000000000E+00  0.00000000000E+00  0.98485757857E+03  0.98485757858E+03  0.50400001928E-02 0. -1.
       -1   -1    0    0    0  501  0.00000000000E+00  0.00000000000E+00 -0.36874689651E+04  0.36874689651E+04  0.50400001928E-02 0.  1.
    10030    2    1    2    0    0  0.00000000000E+00  0.00000000000E+00 -0.27026113865E+04  0.46723265437E+04  0.38113681303E+04 0.  0.
        3    1    3    3  502    0 -0.16487856482E+03 -0.96225481223E+03 -0.33576207229E+04  0.34966750198E+04  0.10100000352E+00 0.  1.
       -3    1    3    3    0  502  0.16487856482E+03  0.96225481223E+03  0.65500933637E+03  0.11756515239E+04  0.10100000352E+00 0. -1.
</event>
<event>
 5   0  0.1372952E-07  0.4039791E+04  0.7818609E-02  0.7996567E-01
       -1   -1    0    0    0  501  0.00000000000E+00  0.00000000000E+00  0.12761223842E+04  0.12761223842E+04  0.50400001928E-02 0. -1.
        1   -1    0    0  501    0  0.00000000000E+00  0.00000000000E+00 -0.31971683206E+04  0.31971683206E+04  0.50400001928E-02 0.  1.
    10030    2    1    2    0    0  0.00000000000E+00  0.00000000000E+00 -0.19210459363E+04  0.44732907048E+04  0.40397911134E+04 0.  0.
        1    1    3    3  502    0  0.46655247722E+02  0.98565358983E+03 -0.29121152722E+04  0.30747528470E+04  0.50400001928E-02 0.  1.
       -1    1    3    3    0  502 -0.46655247722E+02 -0.98565358983E+03  0.99106933587E+03  0.13985378578E+04  0.50400001928E-02 0. -1.
</event>
<event>
 5   0  0.4077370E-07  0.4080189E+04  0.7818609E-02  0.7988562E-01
       -2   -1    0    0    0  501  0.00000000000E+00  0.00000000000E+00  0.20653228265E+04  0.20653228265E+04  0.25500000920E-02 0. -1.
        2   -1    0    0  501    0  0.00000000000E+00  0.00000000000E+00 -0.20151745277E+04  0.20151745277E+04  0.25500000920E-02 0.  1.
    10030    2    1    2    0    0  0.00000000000E+00  0.00000000000E+00  0.50148298876E+02  0.40804973542E+04  0.40801891875E+04 0.  0.
        3    1    3    3  502    0 -0.30348732396E+03  0.19555948319E+04 -0.47047335486E+03  0.20341585214E+04  0.10100000352E+00 0.  1.
       -3    1    3    3    0  502  0.30348732396E+03 -0.19555948319E+04  0.52062165374E+03  0.20463388328E+04  0.10100000352E+00 0. -1.
</event>
<event>
 5   0  0.1351000E-07  0.4001795E+04  0.7818609E-02  0.8004185E-01
       -3   -1    0    0    0  501  0.00000000000E+00  0.00000000000E+00  0.21374198997E+04  0.21374199021E+04  0.10100000352E+00 0.  1.
        3   -1    0    0  501    0  0.00000000000E+00  0.00000000000E+00 -0.18730948889E+04  0.18730948917E+04  0.10100000352E+00 0. -1.
    10030    2    1    2    0    0  0.00000000000E+00  0.00000000000E+00  0.26432501076E+03  0.40105147937E+04  0.40017947473E+04 0.  0.
        3    1    3    3  502    0 -0.93259320584E+03  0.75187548953E+02 -0.16403653015E+04  0.18884336334E+04  0.10100000352E+00 0. -1.
       -3    1    3    3    0  502  0.93259320584E+03 -0.75187548953E+02  0.19046903123E+04  0.21220811603E+04  0.10100000352E+00 0.  1.
</event>
<event>
 5   0  0.4077370E-07  0.3949194E+04  0.7818609E-02  0.8014875E-01
       -2   -1    0    0    0  501  0.00000000000E+00  0.00000000000E+00  0.23670199521E+04  0.23670199521E+04  0.25500000920E-02 0. -1.
        2   -1    0    0  501    0  0.00000000000E+00  0.00000000000E+00 -0.16472330622E+04  0.16472330622E+04  0.25500000920E-02 0.  1.
    10030    2    1    2    0    0  0.00000000000E+00  0.00000000000E+00  0.71978688994E+03  0.40142530143E+04  0.39491941071E+04 0.  0.
        3    1    3    3  502    0 -0.18703777116E+04 -0.63255790182E+03  0.33517764511E+03  0.20026947714E+04  0.10100000352E+00 0.  1.
       -3    1    3    3    0  502  0.18703777116E+04  0.63255790182E+03  0.38460924483E+03  0.20115582429E+04  0.10100000352E+00 0. -1.
</event>
<event>
 5   0  0.4047916E-07  0.3507796E+04  0.7818609E-02  0.8111945E-01
       -2   -1    0    0    0  501  0.00000000000E+00  0.00000000000E+00  0.13705648386E+04  0.13705648386E+04  0.25500000920E-02 0.  1.
        2   -1    0    0  501    0  0.00000000000E+00  0.00000000000E+00 -0.22444450865E+04  0.22444450865E+04  0.25500000920E-02 0. -1.
    10030    2    1    2    0    0  0.00000000000E+00  0.00000000000E+00 -0.87388024788E+03  0.36150099251E+04  0.35077956142E+04 0.  0.
        5    1    3    3  502    0 -0.13257595449E+03  0.16675768756E+04 -0.98006467998E+03  0.19387980521E+04  0.46999998093E+01 0. -1.
       -5    1    3    3    0  502  0.13257595449E+03 -0.16675768756E+04  0.10618443211E+03  0.16762118730E+04  0.46999998093E+01 0.  1.
</event>
<event>
 5   0  0.1421304E-07  0.3940818E+04  0.7818609E-02  0.8016593E-01
       -1   -1    0    0    0  501  0.00000000000E+00  0.00000000000E+00  0.21893449429E+04  0.21893449429E+04  0.50400001928E-02 0. -1.
        1   -1    0    0  501    0  0.00000000000E+00  0.00000000000E+00 -0.17733663838E+04  0.17733663838E+04  0.50400001928E-02 0.  1.
    10030    2    1    2    0    0  0.00000000000E+00  0.00000000000E+00  0.41597855909E+03  0.39627113267E+04  0.39408175417E+04 0.  0.
        2    1    3    3  502    0  0.74256878378E+03 -0.14240139426E+04 -0.93996892514E+03  0.18608507967E+04  0.25500000920E-02 0.  1.
       -2    1    3    3    0  502 -0.74256878378E+03  0.14240139426E+04  0.13559474842E+04  0.21018605300E+04  0.25500000920E-02 0. -1.
</event>
<event>
 5   0  0.1351000E-07  0.2586189E+04  0.7818609E-02  0.8372907E-01
        1   -1    0    0  501    0  0.00000000000E+00  0.00000000000E+00  0.24289714908E+04  0.24289714908E+04  0.50400001928E-02 0.  1.
       -1   -1    0    0    0  501  0.00000000000E+00  0.00000000000E+00 -0.68839588199E+03  0.68839588200E+03  0.50400001928E-02 0. -1.
    10030    2    1    2    0    0  0.00000000000E+00  0.00000000000E+00  0.17405756088E+04  0.31173673728E+04  0.25861894530E+04 0.  0.
        4    1    3    3  502    0 -0.58466265312E+03 -0.17624024086E+03  0.22442218196E+04  0.23258168950E+04  0.12699999809E+01 0.  1.
       -4    1    3    3    0  502  0.58466265312E+03  0.17624024086E+03 -0.50364621078E+03  0.79155047785E+03  0.12699999809E+01 0. -1.
</event>
<event>
 5   0  0.4149487E-07  0.4034706E+04  0.7818609E-02  0.7997582E-01
        2   -1    0    0  501    0  0.00000000000E+00  0.00000000000E+00  0.25583286474E+04  0.25583286474E+04  0.25500000920E-02 0. -1.
       -2   -1    0    0    0  501  0.00000000000E+00  0.00000000000E+00 -0.15907702080E+04  0.15907702080E+04  0.25500000920E-02 0.  1.
    10030    2    1    2    0    0  0.00000000000E+00  0.00000000000E+00  0.96755843935E+03  0.41490988554E+04  0.40347059345E+04 0.  0.
        2    1    3    3  502    0  0.15186917218E+04  0.34101746559E+03 -0.83595994911E+03  0.17667898840E+04  0.25500000920E-02 0.  1.
       -2    1    3    3    0  502 -0.15186917218E+04 -0.34101746559E+03  0.18035183885E+04  0.23823089714E+04  0.25500000920E-02 0. -1.
</event>
<event>
 5   0  0.4077370E-07  0.2767031E+04  0.7818609E-02  0.8313578E-01
       -2   -1    0    0    0  501  0.00000000000E+00  0.00000000000E+00  0.99278934318E+03  0.99278934318E+03  0.25500000920E-02 0.  1.
        2   -1    0    0  501    0  0.00000000000E+00  0.00000000000E+00 -0.19280174770E+04  0.19280174770E+04  0.25500000920E-02 0. -1.
    10030    2    1    2    0    0  0.00000000000E+00  0.00000000000E+00 -0.93522813378E+03  0.29208068201E+04  0.27670310476E+04 0.  0.
        3    1    3    3  502    0 -0.68201564689E+03  0.84902734106E+03  0.43310842065E+03  0.11719964517E+04  0.10100000352E+00 0. -1.
       -3    1    3    3    0  502  0.68201564689E+03 -0.84902734106E+03 -0.13683365544E+04  0.17488103685E+04  0.10100000352E+00 0.  1.
</event>
<event>
 5   0  0.1372952E-07  0.4010206E+04  0.7818609E-02  0.8002491E-01
        1   -1    0    0  501    0  0.00000000000E+00  0.00000000000E+00  0.24763485675E+04  0.24763485675E+04  0.50400001928E-02 0. -1.
       -1   -1    0    0    0  501  0.00000000000E+00  0.00000000000E+00 -0.16235344610E+04  0.16235344610E+04  0.50400001928E-02 0.  1.
    10030    2    1    2    0    0  0.00000000000E+00  0.00000000000E+00  0.85281410642E+03  0.40998830285E+04  0.40102055991E+04 0.  0.
        1    1    3    3  502    0  0.13622591416E+04 -0.90221257927E+03  0.16145925137E+04  0.22970952293E+04  0.50400001928E-02 0. -1.
       -1    1    3    3    0  502 -0.13622591416E+04  0.90221257927E+03 -0.76177840727E+03  0.18027877992E+04  0.50400001928E-02 0.  1.
</event>
<event>
 5   0  0.4047916E-07  0.3431831E+04  0.7818609E-02  0.8130138E-01
       -2   -1    0    0    0  501  0.00000000000E+00  0.00000000000E+00  0.14612907704E+04  0.14612907704E+04  0.25500000920E-02 0. -1.
        2   -1    0    0  501    0  0.00000000000E+00  0.00000000000E+00 -0.20149078824E+04  0.20149078824E+04  0.25500000920E-02 0.  1.
    10030    2    1    2    0    0  0.00000000000E+00  0.00000000000E+00 -0.55361711193E+03  0.34761986528E+04  0.34318311682E+04 0.  0.
        5    1    3    3  502    0 -0.15095822914E+04  0.14280447044E+03 -0.10903812508E+04  0.18676683789E+04  0.46999998093E+01 0.  1.
       -5    1    3    3    0  502  0.15095822914E+04 -0.14280447044E+03  0.53676413882E+03  0.16085302739E+04  0.46999998093E+01 0. -1.
</event>
<event>
 5   0  0.1351000E-07  0.3042514E+04  0.7818609E-02  0.8231694E-01
        1   -1    0    0  501    0  0.00000000000E+00  0.00000000000E+00  0.17730445108E+04  0.17730445108E+04  0.50400001928E-02 0. -1.
       -1   -1    0    0    0  501  0.00000000000E+00  0.00000000000E+00 -0.13052251898E+04  0.13052251898E+04  0.50400001928E-02 0.  1.
    10030    2    1    2    0    0  0.00000000000E+00  0.00000000000E+00  0.46781932103E+03  0.30782697006E+04  0.30425136701E+04 0.  0.
        4    1    3    3  502    0 -0.15069136220E+04  0.53468954202E+02  0.43770465058E+03  0.15701065465E+04  0.12699999809E+01 0. -1.
       -4    1    3    3    0  502  0.15069136220E+04 -0.53468954202E+02  0.30114670450E+02  0.15081631541E+04  0.12699999809E+01 0.  1.
</event>
<event>
 5   0  0.1368865E-07  0.3522988E+04  0.7818609E-02  0.8108364E-01
       -1   -1    0    0    0  501  0.00000000000E+00  0.00000000000E+00  0.16351970055E+04  0.16351970055E+04  0.50400001928E-02 0. -1.
        1   -1    0    0  501    0  0.00000000000E+00  0.00000000000E+00 -0.18975457747E+04  0.18975457747E+04  0.50400001928E-02 0.  1.
    10030    2    1    2    0    0  0.00000000000E+00  0.00000000000E+00 -0.26234876925E+03  0.35327427802E+04  0.35229880321E+04 0.  0.
        5    1    3    3  502    0  0.41874660078E+03  0.89681411169E+03  0.13299857588E+04  0.16578626225E+04  0.46999998093E+01 0. -1.
       -5    1    3    3    0  502 -0.41874660078E+03 -0.89681411169E+03 -0.15923345280E+04  0.18748801577E+04  0.46999998093E+01 0.  1.
</event>
<event>
 5   0  0.4149487E-07  0.4102761E+04  0.7818609E-02  0.7984131E-01
       -2   -1    0    0    0  501  0.00000000000E+00  0.00000000000E+00  0.25823924678E+04  0.25823924678E+04  0.25500000920E-02 0. -1.
        2   -1    0    0  501    0  0.00000000000E+00  0.00000000000E+00 -0.16295596994E+04  0.16295596994E+04  0.25500000920E-02 0.  1.
    10030    2    1    2    0    0  0.00000000000E+00  0.00000000000E+00  0.95283276833E+03  0.42119521672E+04  0.41027613596E+04 0.  0.
        2    1    3    3  502    0  0.72667282914E+03  0.17752461759E+04 -0.26998938527E+03  0.19371232934E+04  0.25500000920E-02 0.  1.
       -2    1    3    3    0  502 -0.72667282914E+03 -0.17752461759E+04  0.12228221536E+04  0.22748288738E+04  0.25500000920E-02 0. -1.
</event>
<event>
 5   0  0.1372952E-07  0.3603816E+04  0.7818609E-02  0.8089618E-01
       -1   -1    0    0    0  501  0.00000000000E+00  0.00000000000E+00  0.13389268725E+04  0.13389268725E+04  0.50400001928E-02 0. -1.
        1   -1    0    0  501    0  0.00000000000E+00  0.00000000000E+00 -0.24249816188E+04  0.24249816188E+04  0.50400001928E-02 0.  1.
    10030    2    1    2    0    0  0.00000000000E+00  0.00000000000E+00 -0.10860547464E+04  0.37639084913E+04  0.36038163409E+04 0.  0.
        1    1    3    3  502    0 -0.57926360555E+03  0.17050604588E+04 -0.60986686784E+03  0.19012404081E+04  0.50400001928E-02 0. -1.
       -1    1    3    3    0  502  0.57926360555E+03 -0.17050604588E+04 -0.47618787854E+03  0.18626680833E+04  0.50400001928E-02 0.  1.
</event>
<event>
 5   0  0.1421304E-07  0.3992927E+04  0.7818609E-02  0.8005975E-01
        1   -1    0    0  501    0  0.00000000000E+00  0.00000000000E+00  0.19138812299E+04  0.19138812300E+04  0.50400001928E-02 0. -1.
       -1   -1    0    0    0  501  0.00000000000E+00  0.00000000000E+00 -0.20826091611E+04  0.20826091611E+04  0.50400001928E-02 0.  1.
    10030    2    1    2    0    0  0.00000000000E+00  0.00000000000E+00 -0.16872793119E+03  0.39964903911E+04  0.39929270381E+04 0.  0.
        2    1    3    3  502    0  0.19666520781E+03  0.96062463211E+03 -0.18249932003E+04  0.20717328662E+04  0.25500000920E-02 0.  1.
       -2    1    3    3    0  502 -0.19666520781E+03 -0.96062463211E+03  0.16562652691E+04  0.19247575249E+04  0.25500000920E-02 0. -1.
</event>
<event>
 5   0  0.4047916E-07  0.2819201E+04  0.7818609E-02  0.8297332E-01
       -2   -1    0    0    0  501  0.00000000000E+00  0.00000000000E+00  0.11096554249E+04  0.11096554249E+04  0.25500000920E-02 0. -1.
        2   -1    0    0  501    0  0.00000000000E+00  0.00000000000E+00 -0.17906217719E+04  0.17906217719E+04  0.25500000920E-02 0.  1.
    10030    2    1    2    0    0  0.00000000000E+00  0.00000000000E+00 -0.68096634697E+03  0.29002771968E+04  0.28192007117E+04 0.  0.
        5    1    3    3  502    0 -0.49185908197E+03 -0.25835180999E+02 -0.16992075114E+04  0.17691582942E+04  0.46999998093E+01 0.  1.
       -5    1    3    3    0  502  0.49185908197E+03  0.25835180999E+02  0.10182411644E+04  0.11311189027E+04  0.46999998093E+01 0. -1.
</event>
<event>
 5   0  0.4079777E-07  0.4066263E+04  0.7818609E-02  0.7991311E-01
        2   -1    0    0  501    0  0.00000000000E+00  0.00000000000E+00  0.29833349176E+04  0.29833349176E+04  0.25500000920E-02 0. -1.
       -2   -1    0    0    0  501  0.00000000000E+00  0.00000000000E+00 -0.13855713778E+04  0.13855713778E+04  0.25500000920E-02 0.  1.
    10030    2    1    2    0    0  0.00000000000E+00  0.00000000000E+00  0.15977635398E+04  0.43689062954E+04  0.40662628899E+04 0.  0.
        4    1    3    3  502    0 -0.71610035190E+02  0.88420058935E+03  0.27644339496E+04  0.29032801025E+04  0.12699999809E+01 0. -1.
       -4    1    3    3    0  502  0.71610035190E+02 -0.88420058935E+03 -0.11666704098E+04  0.14656261929E+04  0.12699999809E+01 0.  1.
</event>
<event>
 5   0  0.1421304E-07  0.4025129E+04  0.7818609E-02  0.7999496E-01
       -1   -1    0    0    0  501  0.00000000000E+00  0.00000000000E+00  0.16208821053E+04  0.16208821053E+04  0.50400001928E-02 0.  1.
        1   -1    0    0  501    0  0.00000000000E+00  0.00000000000E+00 -0.24988966224E+04  0.24988966224E+04  0.50400001928E-02 0. -1.
    10030    2    1    2    0    0  0.00000000000E+00  0.00000000000E+00 -0.87801451713E+03  0.41197787277E+04  0.40251294728E+04 0.  0.
        2    1    3    3  502    0  0.18755515044E+04 -0.50369078099E+03 -0.97965065357E+03  0.21751122389E+04  0.25500000920E-02 0. -1.
       -2    1    3    3    0  502 -0.18755515044E+04  0.50369078099E+03  0.10163613644E+03  0.19446664889E+04  0.25500000920E-02 0.  1.
</event>
<event>
 5   0  0.1351000E-07  0.3818393E+04  0.7818609E-02  0.8042219E-01
        1   -1    0    0  501    0  0.00000000000E+00  0.00000000000E+00  0.23859468711E+04  0.23859468711E+04  0.50400001928E-02 0.  1.
       -1   -1    0    0    0  501  0.00000000000E+00  0.00000000000E+00 -0.15277081495E+04  0.15277081495E+04  0.50400001928E-02 0. -1.
    10030    2    1    2    0    0  0.00000000000E+00  0.00000000000E+00  0.85823872164E+03  0.39136550206E+04  0.38183925828E+04 0.  0.
        3    1    3    3  502    0  0.12873105426E+04  0.10318769912E+04 -0.55562711643E+03  0.17408791057E+04  0.10100000352E+00 0. -1.
       -3    1    3    3    0  502 -0.12873105426E+04 -0.10318769912E+04  0.14138658381E+04  0.21727759149E+04  0.10100000352E+00 0.  1.
</event>
<event>
 5   0  0.1421304E-07  0.4058591E+04  0.7818609E-02  0.7992830E-01
       -1   -1    0    0    0  501  0.00000000000E+00  0.00000000000E+00  0.20085724475E+04  0.20085724475E+04  0.50400001928E-02 0. -1.
        1   -1    0    0  501    0  0.00000000000E+00  0.00000000000E+00 -0.20502326809E+04  0.20502326809E+04  0.50400001928E-02 0.  1.
    10030    2    1    2    0    0  0.00000000000E+00  0.00000000000E+00 -0.41660233408E+02  0.40588051284E+04  0.40585913191E+04 0.  0.
        2    1    3    3  502    0  0.10673135874E+04  0.14622984636E+04  0.89604192939E+03  0.20199916410E+04  0.25500000920E-02 0. -1.
       -2    1    3    3    0  502 -0.10673135874E+04 -0.14622984636E+04 -0.93770216279E+03  0.20388134874E+04  0.25500000920E-02 0.  1.
</event>
<event>
 5   0  0.4077370E-07  0.3797616E+04  0.7818609E-02  0.8046667E-01
        2   -1    0    0  501    0  0.00000000000E+00  0.00000000000E+00  0.13766734376E+04  0.13766734376E+04  0.25500000920E-02 0. -1.
       -2   -1    0    0    0  501  0.00000000000E+00  0.00000000000E+00 -0.26189735694E+04  0.26189735694E+04  0.25500000920E-02 0.  1.
    10030    2    1    2    0    0  0.00000000000E+00  0.00000000000E+00 -0.12423001319E+04  0.39956470070E+04  0.37976157503E+04 0.  0.
        3    1    3    3  502    0  0.71201802779E+03  0.15391252825E+04 -0.15198547953E+04  0.22772428321E+04  0.10100000352E+00 0.  1.
       -3    1    3    3    0  502 -0.71201802779E+03 -0.15391252825E+04  0.27755466343E+03  0.17184041750E+04  0.10100000352E+00 0. -1.
</event>
<event>
 5   0  0.1351000E-07  0.3460992E+04  0.7818609E-02  0.8123097E-01
        3   -1    0    0  501    0  0.00000000000E+00  0.00000000000E+00  0.11278802133E+04  0.11278802178E+04  0.10100000352E+00 0.  1.
       -3   -1    0    0    0  501  0.00000000000E+00  0.00000000000E+00 -0.26550837613E+04  0.26550837632E+04  0.10100000352E+00 0. -1.
    10030    2    1    2    0    0  0.00000000000E+00  0.00000000000E+00 -0.15272035479E+04  0.37829639810E+04  0.34609920261E+04 0.  0.
        2    1    3    3  502    0 -0.11508749086E+04  0.21563995473E+03  0.62914289292E+03  0.13292232412E+04  0.25500000920E-02 0.  1.
       -2    1    3    3    0  502  0.11508749086E+04 -0.21563995473E+03 -0.21563464408E+04  0.24537407398E+04  0.25500000920E-02 0. -1.
</event>
<event>
 5   0  0.1351000E-07  0.3986155E+04  0.7818609E-02  0.8007345E-01
        1   -1    0    0  501    0  0.00000000000E+00  0.00000000000E+00  0.19558517246E+04  0.19558517246E+04  0.50400001928E-02 0.  1.
       -1   -1    0    0    0  501  0.00000000000E+00  0.00000000000E+00 -0.20310120283E+04  0.20310120283E+04  0.50400001928E-02 0. -1.
    10030    2    1    2    0    0  0.00000000000E+00  0.00000000000E+00 -0.75160303730E+02  0.39868637529E+04  0.39861552294E+04 0.  0.
        4    1    3    3  502    0  0.17090035932E+04  0.65900804264E+03 -0.82344997181E+03  0.20082470841E+04  0.12699999809E+01 0.  1.
       -4    1    3    3    0  502 -0.17090035932E+04 -0.65900804264E+03  0.74828966808E+03  0.19786166688E+04  0.12699999809E+01 0. -1.
</event>
<event>
 5   0  0.1351000E-07  0.3918556E+04  0.7818609E-02  0.8021181E-01
        1   -1    0    0  501    0  0.00000000000E+00  0.00000000000E+00  0.30103810598E+04  0.30103810598E+04  0.50400001928E-02 0. -1.
       -1   -1    0    0    0  501  0.00000000000E+00  0.00000000000E+00 -0.12751772491E+04  0.12751772491E+04  0.50400001928E-02 0.  1.
    10030    2    1    2    0    0  0.00000000000E+00  0.00000000000E+00  0.17352038108E+04  0.42855583089E+04  0.39185555699E+04 0.  0.
        3    1    3    3  502    0 -0.19347229239E+04  0.30908363023E+03  0.87762219820E+03  0.21468363272E+04  0.10100000352E+00 0.  1.
       -3    1    3    3    0  502  0.19347229239E+04 -0.30908363023E+03  0.85758161255E+03  0.21387219817E+04  0.10100000352E+00 0. -1.
</event>
<event>
 5   0  0.4301754E-07  0.2900248E+04  0.7818609E-02  0.8272804E-01
       -2   -1    0    0    0  501  0.00000000000E+00  0.00000000000E+00  0.13235058270E+04  0.13235058270E+04  0.25500000920E-02 0. -1.
        2   -1    0    0  501    0  0.00000000000E+00  0.00000000000E+00 -0.15888552099E+04  0.15888552099E+04  0.25500000920E-02 0.  1.
    10030    2    1    2    0    0  0.00000000000E+00  0.00000000000E+00 -0.26534938294E+03  0.29123610369E+04  0.29002476643E+04 0.  0.
        1    1    3    3  502    0  0.38925630592E+03  0.13161425296E+04 -0.60271894416E+03  0.14990069232E+04  0.50400001928E-02 0.  1.
       -1    1    3    3    0  502 -0.38925630592E+03 -0.13161425296E+04  0.33736956123E+03  0.14133541137E+04  0.50400001928E-02 0. -1.
</event>
<event>
 5   0  0.1372952E-07  0.2468456E+04  0.7818609E-02  0.8414310E-01
        1   -1    0    0  501    0  0.00000000000E+00  0.00000000000E+00  0.12536618431E+04  0.12536618431E+04  0.50400001928E-02 0.  1.
       -1   -1    0    0    0  501  0.00000000000E+00  0.00000000000E+00 -0.12150958637E+04  0.12150958637E+04  0.50400001928E-02 0. -1.
    10030    2    1    2    0    0  0.00000000000E+00  0.00000000000E+00  0.38565979380E+02  0.24687577068E+04  0.24684564570E+04 0.  0.
        1    1    3    3  502    0  0.16073133059E+03 -0.11442558039E+04  0.45311399846E+03  0.12411559939E+04  0.50400001928E-02 0.  1.
       -1    1    3    3    0  502 -0.16073133059E+03  0.11442558039E+04 -0.41454801908E+03  0.12276017129E+04  0.50400001928E-02 0. -1.
</event>
<event>
 5   0  0.4077370E-07  0.2977073E+04  0.7818609E-02  0.8250308E-01
       -2   -1    0    0    0  501  0.00000000000E+00  0.00000000000E+00  0.27858231168E+04  0.27858231168E+04  0.25500000920E-02 0.  1.
        2   -1    0    0  501    0  0.00000000000E+00  0.00000000000E+00 -0.79536297458E+03  0.79536297458E+03  0.25500000920E-02 0. -1.
    10030    2    1    2    0    0  0.00000000000E+00  0.00000000000E+00  0.19904601422E+04  0.35811860914E+04  0.29770727642E+04 0.  0.
        3    1    3    3  502    0 -0.66481299160E+03 -0.36390490248E+03  0.25363497997E+04  0.26471632757E+04  0.10100000352E+00 0.  1.
       -3    1    3    3    0  502  0.66481299160E+03  0.36390490248E+03 -0.54588965745E+03  0.93402281566E+03  0.10100000352E+00 0. -1.
</event>
<event>
 5   0  0.4077370E-07  0.2501243E+04  0.7818609E-02  0.8402543E-01
       -2   -1    0    0    0  501  0.00000000000E+00  0.00000000000E+00  0.10637150258E+04  0.10637150258E+04  0.25500000920E-02 0.  1.
        2   -1    0    0  501    0  0.00000000000E+00  0.00000000000E+00 -0.14703692916E+04  0.14703692916E+04  0.25500000920E-02 0. -1.
    10030    2    1    2    0    0  0.00000000000E+00  0.00000000000E+00 -0.40665426589E+03  0.25340843174E+04  0.25012428182E+04 0.  0.
        3    1    3    3  502    0 -0.53373805569E+03  0.29017920220E+03  0.90417447399E+03  0.10893171123E+04  0.10100000352E+00 0.  1.
       -3    1    3    3    0  502  0.53373805569E+03 -0.29017920220E+03 -0.13108287399E+04  0.14447672051E+04  0.10100000352E+00 0. -1.
</event>
<event>
 5   0  0.4079777E-07  0.3911926E+04  0.7818609E-02  0.8022553E-01
       -2   -1    0    0    0  501  0.00000000000E+00  0.00000000000E+00  0.16766184205E+04  0.16766184205E+04  0.25500000920E-02 0. -1.
        2   -1    0    0  501    0  0.00000000000E+00  0.00000000000E+00 -0.22818499064E+04  0.22818499064E+04  0.25500000920E-02 0.  1.
    10030    2    1    2    0    0  0.00000000000E+00  0.00000000000E+00 -0.60523148593E+03  0.39584683269E+04  0.39119261680E+04 0.  0.
        4    1    3    3  502    0  0.14111458265E+04  0.54930375574E+03 -0.15553770626E+04  0.21707755710E+04  0.12699999809E+01 0.  1.
       -4    1    3    3    0  502 -0.14111458265E+04 -0.54930375574E+03  0.95014557666E+03  0.17876927559E+04  0.12699999809E+01 0. -1.
</event>
<event>
 5   0  0.1351000E-07  0.3965349E+04  0.7818609E-02  0.8011574E-01
       -1   -1    0    0    0  501  0.00000000000E+00  0.00000000000E+00  0.18179969078E+04  0.18179969078E+04  0.50400001928E-02 0. -1.
        1   -1    0    0  501    0  0.00000000000E+00  0.00000000000E+00 -0.21622683593E+04  0.21622683593E+04  0.50400001928E-02 0.  1.
    10030    2    1    2    0    0  0.00000000000E+00  0.00000000000E+00 -0.34427145153E+03  0.39802652671E+04  0.39653485047E+04 0.  0.
        3    1    3    3  502    0  0.89114385385E+03  0.98817418630E+02  0.16028758398E+04  0.18366037184E+04  0.10100000352E+00 0. -1.
       -3    1    3    3    0  502 -0.89114385385E+03 -0.98817418630E+02 -0.19471472914E+04  0.21436615486E+04  0.10100000352E+00 0.  1.
</event>
<event>
 5   0  0.4079777E-07  0.2632736E+04  0.7818609E-02  0.8357166E-01
       -2   -1    0    0    0  501  0.00000000000E+00  0.00000000000E+00  0.90086480245E+03  0.90086480246E+03  0.25500000920E-02 0.  1.
        2   -1    0    0  501    0  0.00000000000E+00  0.00000000000E+00 -0.19235131068E+04  0.19235131068E+04  0.25500000920E-02 0. -1.
    10030    2    1    2    0    0  0.00000000000E+00  0.00000000000E+00 -0.10226483043E+04  0.28243779093E+04  0.26327364129E+04 0.  0.
        4    1    3    3  502    0  0.29356255917E+03 -0.72128494035E+03  0.62724742913E+03  0.99993594374E+03  0.12699999809E+01 0.  1.
       -4    1    3    3    0  502 -0.29356255917E+03  0.72128494035E+03 -0.16498957335E+04  0.18244419655E+04  0.12699999809E+01 0. -1.
</event>
<event>
 5   0  0.1368865E-07  0.2789354E+04  0.7818609E-02  0.8306581E-01
       -1   -1    0    0    0  501  0.00000000000E+00  0.00000000000E+00  0.21517605762E+04  0.21517605762E+04  0.50400001928E-02 0.  1.
        1   -1    0    0  501    0  0.00000000000E+00  0.00000000000E+00 -0.90396825754E+03  0.90396825755E+03  0.50400001928E-02 0. -1.
    10030    2    1    2    0    0  0.00000000000E+00  0.00000000000E+00  0.12477923187E+04  0.30557288338E+04  0.27893535156E+04 0.  0.
        5    1    3    3  502    0 -0.11215644438E+04  0.80371415880E+03  0.40143222212E+03  0.14370223274E+04  0.46999998093E+01 0. -1.
       -5    1    3    3    0  502  0.11215644438E+04 -0.80371415880E+03  0.84636009657E+03  0.16187065063E+04  0.46999998093E+01 0.  1.
</event>
<event>
 5   0  0.4301754E-07  0.3981153E+04  0.7818609E-02  0.8008359E-01
        2   -1    0    0  501    0  0.00000000000E+00  0.00000000000E+00  0.22099615872E+04  0.22099615872E+04  0.25500000920E-02 0. -1.
       -2   -1    0    0    0  501  0.00000000000E+00  0.00000000000E+00 -0.17929698501E+04  0.17929698501E+04  0.25500000920E-02 0.  1.
    10030    2    1    2    0    0  0.00000000000E+00  0.00000000000E+00  0.41699173704E+03  0.40029314373E+04  0.39811528460E+04 0.  0.
        1    1    3    3  502    0  0.15507150512E+04 -0.32336991930E+02 -0.10459797572E+04  0.18707849967E+04  0.50400001928E-02 0.  1.
       -1    1    3    3    0  502 -0.15507150512E+04  0.32336991930E+02  0.14629714943E+04  0.21321464406E+04  0.50400001928E-02 0. -1.
</event>
<event>
 5   0  0.1421304E-07  0.3509226E+04  0.7818609E-02  0.8111607E-01
        1   -1    0    0  501    0  0.00000000000E+00  0.00000000000E+00  0.21530380004E+04  0.21530380004E+04  0.50400001928E-02 0. -1.
       -1   -1    0    0    0  501  0.00000000000E+00  0.00000000000E+00 -0.14299177083E+04  0.14299177083E+04  0.50400001928E-02 0.  1.
    10030    2    1    2    0    0  0.00000000000E+00  0.00000000000E+00  0.72312029207E+03  0.35829557086E+04  0.35092262186E+04 0.  0.
        2    1    3    3  502    0  0.50740488607E+01  0.17420159089E+04  0.14733773092E+03  0.17482429980E+04  0.25500000920E-02 0.  1.
       -2    1    3    3    0  502 -0.50740488607E+01 -0.17420159089E+04  0.57578256115E+03  0.18347127107E+04  0.25500000920E-02 0. -1.
</event>
<event>
 5   0  0.4047916E-07  0.4493091E+04  0.7818609E-02  0.7911847E-01
       -2   -1    0    0    0  501  0.00000000000E+00  0.00000000000E+00  0.24631186126E+04  0.24631186126E+04  0.25500000920E-02 0.  1.
        2   -1    0    0  501    0  0.00000000000E+00  0.00000000000E+00 -0.20490150028E+04  0.20490150028E+04  0.25500000920E-02 0. -1.
    10030    2    1    2    0    0  0.00000000000E+00  0.00000000000E+00  0.41410360981E+03  0.45121336154E+04  0.44930911368E+04 0.  0.
        5    1    3    3  502    0  0.21737843059E+04 -0.51031133955E+03  0.45546433853E+03  0.22788650082E+04  0.46999998093E+01 0.  1.
       -5    1    3    3    0  502 -0.21737843059E+04  0.51031133955E+03 -0.41360728725E+02  0.22332686072E+04  0.46999998093E+01 0. -1.
</event>
<event>
 5   0  0.1351000E-07  0.3953998E+04  0.7818609E-02  0.8013891E-01
        1   -1    0    0  501    0  0.00000000000E+00  0.00000000000E+00  0.22301532733E+04  0.22301532733E+04  0.50400001928E-02 0. -1.
       -1   -1    0    0    0  501  0.00000000000E+00  0.00000000000E+00 -0.17525816163E+04  0.17525816163E+04  0.50400001928E-02 0.  1.
    10030    2    1    2    0    0  0.00000000000E+00  0.00000000000E+00  0.47757165696E+03  0.39827348896E+04  0.39539982945E+04 0.  0.
        3    1    3    3  502    0  0.13386175760E+04  0.30990013522E+03  0.16705914900E+04  0.21630559506E+04  0.10100000352E+00 0. -1.
       -3    1    3    3    0  502 -0.13386175760E+04 -0.30990013522E+03 -0.11930198331E+04  0.18196789390E+04  0.10100000352E+00 0.  1.
</event>
<event>
 5   0  0.1351000E-07  0.3951561E+04  0.7818609E-02  0.8014390E-01
       -1   -1    0    0    0  501  0.00000000000E+00  0.00000000000E+00  0.15555581946E+04  0.15555581946E+04  0.50400001928E-02 0.  1.
        1   -1    0    0  501    0  0.00000000000E+00  0.00000000000E+00 -0.25095229355E+04  0.25095229355E+04  0.50400001928E-02 0. -1.
    10030    2    1    2    0    0  0.00000000000E+00  0.00000000000E+00 -0.95396474089E+03  0.40650811302E+04  0.39515611938E+04 0.  0.
        3    1    3    3  502    0 -0.16846469004E+04  0.53235132273E+03  0.43288997742E+03  0.18190181013E+04  0.10100000352E+00 0. -1.
       -3    1    3    3    0  502  0.16846469004E+04 -0.53235132273E+03 -0.13868547183E+04  0.22460630289E+04  0.10100000352E+00 0.  1.
</event>
<event>
 5   0  0.1351000E-07  0.3961622E+04  0.7818609E-02  0.8012334E-01
       -3   -1    0    0    0  501  0.00000000000E+00  0.00000000000E+00  0.24348416605E+04  0.24348416626E+04  0.10100000352E+00 0. -1.
        3   -1    0    0  501    0  0.00000000000E+00  0.00000000000E+00 -0.16114446935E+04  0.16114446967E+04  0.10100000352E+00 0.  1.
    10030    2    1    2    0    0  0.00000000000E+00  0.00000000000E+00  0.82339696695E+03  0.40462863593E+04  0.39616222354E+04 0.  0.
        5    1    3    3  502    0  0.36401091131E+03  0.11906313172E+04 -0.11618375141E+04  0.17029372790E+04  0.46999998093E+01 0.  1.
       -5    1    3    3    0  502 -0.36401091131E+03 -0.11906313172E+04  0.19852344811E+04  0.23433490803E+04  0.46999998093E+01 0. -1.
</event>
<event>
 5   0  0.1351000E-07  0.2510429E+04  0.7818609E-02  0.8399280E-01
        1   -1    0    0  501    0  0.00000000000E+00  0.00000000000E+00  0.18902068513E+04  0.18902068513E+04  0.50400001928E-02 0.  1.
       -1   -1    0    0    0  501  0.00000000000E+00  0.00000000000E+00 -0.83354002937E+03  0.83354002939E+03  0.50400001928E-02 0. -1.
    10030    2    1    2    0    0  0.00000000000E+00  0.00000000000E+00  0.10566668219E+04  0.27237468807E+04  0.25104287079E+04 0.  0.
        3    1    3    3  502    0 -0.44823266572E+03 -0.78350975409E+03 -0.41799863366E+03  0.99474766917E+03  0.10100000352E+00 0. -1.
       -3    1    3    3    0  502  0.44823266572E+03  0.78350975409E+03  0.14746654556E+04  0.17289992115E+04  0.10100000352E+00 0.  1.
</event>
<event>
 5   0  0.1421304E-07  0.2484651E+04  0.7818609E-02  0.8408474E-01
       -1   -1    0    0    0  501  0.00000000000E+00  0.00000000000E+00  0.76605623873E+03  0.76605623875E+03  0.50400001928E-02 0.  1.
        1   -1    0    0  501    0  0.00000000000E+00  0.00000000000E+00 -0.20146996642E+04  0.20146996642E+04  0.50400001928E-02 0. -1.
    10030    2    1    2    0    0  0.00000000000E+00  0.00000000000E+00 -0.12486434254E+04  0.27807559029E+04  0.24846514822E+04 0.  0.
        2    1    3    3  502    0 -0.84086523388E+03 -0.83959813122E+03 -0.10300029878E+04  0.15725411023E+04  0.25500000920E-02 0. -1.
       -2    1    3    3    0  502  0.84086523388E+03  0.83959813122E+03 -0.21864043763E+03  0.12082148006E+04  0.25500000920E-02 0.  1.
</event>
<event>
 5   0  0.1368865E-07  0.3512840E+04  0.7818609E-02  0.8110754E-01
        1   -1    0    0  501    0  0.00000000000E+00  0.00000000000E+00  0.26354462713E+04  0.26354462713E+04  0.50400001928E-02 0. -1.
       -1   -1    0    0    0  501  0.00000000000E+00  0.00000000000E+00 -0.11705840535E+04  0.11705840536E+04  0.50400001928E-02 0.  1.
    10030    2    1    2    0    0  0.00000000000E+00  0.00000000000E+00  0.14648622177E+04  0.38060303248E+04  0.35128400927E+04 0.  0.
        5    1    3    3  502    0 -0.12826972232E+04  0.49752843915E+03 -0.45055041715E+03  0.14477100824E+04  0.46999998093E+01 0.  1.
       -5    1    3    3    0  502  0.12826972232E+04 -0.49752843915E+03  0.19154126349E+04  0.23583202425E+04  0.46999998093E+01 0. -1.
</event>
<event>
 5   0  0.4047916E-07  0.4085154E+04  0.7818609E-02  0.7987585E-01
        2   -1    0    0  501    0  0.00000000000E+00  0.00000000000E+00  0.17920260592E+04  0.17920260592E+04  0.25500000920E-02 0.  1.
       -2   -1    0    0    0  501  0.00000000000E+00  0.00000000000E+00 -0.23281583686E+04  0.23281583686E+04  0.25500000920E-02 0. -1.
    10030    2    1    2    0    0  0.00000000000E+00  0.00000000000E+00 -0.53613230940E+03  0.41201844277E+04  0.40851538362E+04 0.  0.
        5    1    3    3  502    0 -0.24610901251E+03  0.94500127836E+03 -0.20774682387E+04  0.22955377224E+04  0.46999998093E+01 0. -1.
       -5    1    3    3    0  502  0.24610901251E+03 -0.94500127836E+03  0.15413359293E+04  0.18246467053E+04  0.46999998093E+01 0.  1.
</event>
<event>
 5   0  0.1351000E-07  0.3994991E+04  0.7818609E-02  0.8005558E-01
       -3   -1    0    0    0  501  0.00000000000E+00  0.00000000000E+00  0.11162537411E+04  0.11162537457E+04  0.10100000352E+00 0.  1.
        3   -1    0    0  501    0  0.00000000000E+00  0.00000000000E+00 -0.35744463692E+04  0.35744463706E+04  0.10100000352E+00 0. -1.
    10030    2    1    2    0    0  0.00000000000E+00  0.00000000000E+00 -0.24581926281E+04  0.46907001163E+04  0.39949914373E+04 0.  0.
        2    1    3    3  502    0  0.14952834695E+04 -0.10052792903E+04 -0.22415404650E+04  0.28759281566E+04  0.25500000920E-02 0. -1.
       -2    1    3    3    0  502 -0.14952834695E+04  0.10052792903E+04 -0.21665216310E+03  0.18147719597E+04  0.25500000920E-02 0.  1.
</event>
<event>
 5   0  0.4301754E-07  0.3237903E+04  0.7818609E-02  0.8178878E-01
       -2   -1    0    0    0  501  0.00000000000E+00  0.00000000000E+00  0.10088119627E+04  0.10088119627E+04  0.25500000920E-02 0. -1.
        2   -1    0    0  501    0  0.00000000000E+00  0.00000000000E+00 -0.25981088640E+04  0.25981088640E+04  0.25500000920E-02 0.  1.
    10030    2    1    2    0    0  0.00000000000E+00  0.00000000000E+00 -0.15892969013E+04  0.36069208267E+04  0.32379025942E+04 0.  0.
        1    1    3    3  502    0 -0.13950924641E+04 -0.58703816450E+03 -0.14346777798E+04  0.20854728773E+04  0.50400001928E-02 0.  1.
       -1    1    3    3    0  502  0.13950924641E+04  0.58703816450E+03 -0.15461912149E+03  0.15214479494E+04  0.50400001928E-02 0. -1.
</event>
<event>
 5   0  0.1372952E-07  0.4016452E+04  0.7818609E-02  0.8001236E-01
       -1   -1    0    0    0  501  0.00000000000E+00  0.00000000000E+00  0.19137675461E+04  0.19137675461E+04  0.50400001928E-02 0.  1.
        1   -1    0    0  501    0  0.00000000000E+00  0.00000000000E+00 -0.21073471359E+04  0.21073471359E+04  0.50400001928E-02 0. -1.
    10030    2    1    2    0    0  0.00000000000E+00  0.00000000000E+00 -0.19357958977E+03  0.40211146821E+04  0.40164524432E+04 0.  0.
        1    1    3    3  502    0  0.92920576051E+03 -0.51884336293E+03 -0.18018082855E+04  0.20926382579E+04  0.50400001928E-02 0. -1.
       -1    1    3    3    0  502 -0.92920576051E+03  0.51884336293E+03  0.16082286958E+04  0.19284764242E+04  0.50400001928E-02 0.  1.
</event>
<event>
 5   0  0.4079777E-07  0.3980092E+04  0.7818609E-02  0.8008575E-01
       -2   -1    0    0    0  501  0.00000000000E+00  0.00000000000E+00  0.20066401276E+04  0.20066401276E+04  0.25500000920E-02 0.  1.
        2   -1    0    0  501    0  0.00000000000E+00  0.00000000000E+00 -0.19735889187E+04  0.19735889187E+04  0.25500000920E-02 0. -1.
    10030    2    1    2    0    0  0.00000000000E+00  0.00000000000E+00  0.33051208864E+02  0.39802290463E+04  0.39800918179E+04 0.  0.
        4    1    3    3  502    0  0.32424152884E+03 -0.42805085567E+03 -0.18997661827E+04  0.19742019313E+04  0.12699999809E+01 0. -1.
       -4    1    3    3    0  502 -0.32424152884E+03  0.42805085567E+03  0.19328173915E+04  0.20060271150E+04  0.12699999809E+01 0.  1.
</event>
<event>
 5   0  0.4077370E-07  0.4007399E+04  0.7818609E-02  0.8003056E-01
       -2   -1    0    0    0  501  0.00000000000E+00  0.00000000000E+00  0.28516571627E+04  0.28516571627E+04  0.25500000920E-02 0.  1.
        2   -1    0    0  501    0  0.00000000000E+00  0.00000000000E+00 -0.14078873476E+04  0.14078873476E+04  0.25500000920E-02 0. -1.
    10030    2    1    2    0    0  0.00000000000E+00  0.00000000000E+00  0.14437698151E+04  0.42595445103E+04  0.40073991760E+04 0.  0.
        3    1    3    3  502    0 -0.11812951330E+04 -0.43118201983E+03  0.23799841158E+04  0.26917838931E+04  0.10100000352E+00 0.  1.
       -3    1    3    3    0  502  0.11812951330E+04  0.43118201983E+03 -0.93621430072E+03  0.15677606171E+04  0.10100000352E+00 0. -1.
</event>
<event>
 5   0  0.1351000E-07  0.3986884E+04  0.7818609E-02  0.8007198E-01
       -1   -1    0    0    0  501  0.00000000000E+00  0.00000000000E+00  0.14874093309E+04  0.14874093309E+04  0.50400001928E-02 0. -1.
        1   -1    0    0  501    0  0.00000000000E+00  0.00000000000E+00 -0.26716329382E+04  0.26716329382E+04  0.50400001928E-02 0.  1.
    10030    2    1    2    0    0  0.00000000000E+00  0.00000000000E+00 -0.11842236073E+04  0.41590422691E+04  0.39868843780E+04 0.  0.
        3    1    3    3  502    0 -0.19096850946E+04  0.57175962686E+03 -0.59456255766E+03  0.20802189492E+04  0.10100000352E+00 0.  1.
       -3    1    3    3    0  502  0.19096850946E+04 -0.57175962686E+03 -0.58966104968E+03  0.20788233199E+04  0.10100000352E+00 0. -1.
</event>
<event>
 5   0  0.1368865E-07  0.2770513E+04  0.7818609E-02  0.8312482E-01
        1   -1    0    0  501    0  0.00000000000E+00  0.00000000000E+00  0.23867310727E+04  0.23867310727E+04  0.50400001928E-02 0.  1.
       -1   -1    0    0    0  501  0.00000000000E+00  0.00000000000E+00 -0.80400138146E+03  0.80400138148E+03  0.50400001928E-02 0. -1.
    10030    2    1    2    0    0  0.00000000000E+00  0.00000000000E+00  0.15827296912E+04  0.31907324542E+04  0.27705126454E+04 0.  0.
        5    1    3    3  502    0 -0.71771691698E+03 -0.84752324136E+03  0.17448938553E+04  0.20683543879E+04  0.46999998093E+01 0.  1.
       -5    1    3    3    0  502  0.71771691698E+03  0.84752324136E+03 -0.16216416409E+03  0.11223780663E+04  0.46999998093E+01 0. -1.
</event>
<event>
 5   0  0.1421304E-07  0.3966847E+04  0.7818609E-02  0.8011268E-01
        1   -1    0    0  501    0  0.00000000000E+00  0.00000000000E+00  0.18421692755E+04  0.18421692755E+04  0.50400001928E-02 0. -1.
       -1   -1    0    0    0  501  0.00000000000E+00  0.00000000000E+00 -0.21355085369E+04  0.21355085369E+04  0.50400001928E-02 0.  1.
    10030    2    1    2    0    0  0.00000000000E+00  0.00000000000E+00 -0.29333926132E+03  0.39776778124E+04  0.39668467146E+04 0.  0.
        2    1    3    3  502    0 -0.46764896236E+03 -0.26529167512E+03  0.17677034338E+04  0.18476608603E+04  0.25500000920E-02 0. -1.
       -2    1    3    3    0  502  0.46764896236E+03  0.26529167512E+03 -0.20610426951E+04  0.21300169521E+04  0.25500000920E-02 0.  1.
</event>
<event>
 5   0  0.4077370E-07  0.3808723E+04  0.7818609E-02  0.8044286E-01
        2   -1    0    0  501    0  0.00000000000E+00  0.00000000000E+00  0.24432207933E+04  0.24432207933E+04  0.25500000920E-02 0. -1.
       -2   -1    0    0    0  501  0.00000000000E+00  0.00000000000E+00 -0.14843488378E+04  0.14843488378E+04  0.25500000920E-02 0.  1.
    10030    2    1    2    0    0  0.00000000000E+00  0.00000000000E+00  0.95887195552E+03  0.39275696310E+04  0.38087225916E+04 0.  0.
        3    1    3    3  502    0 -0.18774293700E+04 -0.23343651531E+03  0.70384615654E+03  0.20185720369E+04  0.10100000352E+00 0.  1.
       -3    1    3    3    0  502  0.18774293700E+04  0.23343651531E+03  0.25502579898E+03  0.19089975941E+04  0.10100000352E+00 0. -1.
</event>
<event>
 5   0  0.4149487E-07  0.3944380E+04  0.7818609E-02  0.8015862E-01
        2   -1    0    0  501    0  0.00000000000E+00  0.00000000000E+00  0.22087104481E+04  0.22087104481E+04  0.25500000920E-02 0.  1.
       -2   -1    0    0    0  501  0.00000000000E+00  0.00000000000E+00 -0.17609973753E+04  0.17609973753E+04  0.25500000920E-02 0. -1.
    10030    2    1    2    0    0  0.00000000000E+00  0.00000000000E+00  0.44771307277E+03  0.39697078235E+04  0.39443799523E+04 0.  0.
        2    1    3    3  502    0 -0.70300338209E+03  0.17890097894E+04  0.66801056754E+03  0.20349466578E+04  0.25500000920E-02 0. -1.
       -2    1    3    3    0  502  0.70300338209E+03 -0.17890097894E+04 -0.22029749477E+03  0.19347611656E+04  0.25500000920E-02 0.  1.
</event>
<event>
 5   0  0.4077370E-07  0.4047577E+04  0.7818609E-02  0.7995017E-01
       -2   -1    0    0    0  501  0.00000000000E+00  0.00000000000E+00  0.20496464467E+04  0.20496464467E+04  0.25500000920E-02 0.  1.
        2   -1    0    0  501    0  0.00000000000E+00  0.00000000000E+00 -0.19982571615E+04  0.19982571615E+04  0.25500000920E-02 0. -1.
    10030    2    1    2    0    0  0.00000000000E+00  0.00000000000E+00  0.51389285138E+02  0.40479036082E+04  0.40475773943E+04 0.  0.
        3    1    3    3  502    0 -0.15833202262E+04 -0.53608247676E+03 -0.11152011046E+04  0.20094678088E+04  0.10100000352E+00 0. -1.
       -3    1    3    3    0  502  0.15833202262E+04  0.53608247676E+03  0.11665903897E+04  0.20384357994E+04  0.10100000352E+00 0.  1.
</event>
<event>
 5   0  0.4149487E-07  0.3981969E+04  0.7818609E-02  0.8008194E-01
       -2   -1    0    0    0  501  0.00000000000E+00  0.00000000000E+00  0.29380486035E+04  0.29380486035E+04  0.25500000920E-02 0.  1.
        2   -1    0    0  501    0  0.00000000000E+00  0.00000000000E+00 -0.13492015144E+04  0.13492015144E+04  0.25500000920E-02 0. -1.
    10030    2    1    2    0    0  0.00000000000E+00  0.00000000000E+00  0.15888470891E+04  0.42872501179E+04  0.39819691737E+04 0.  0.
        2    1    3    3  502    0  0.10912661110E+04 -0.44476425420E+03 -0.93339622216E+03  0.15032981988E+04  0.25500000920E-02 0. -1.
       -2    1    3    3    0  502 -0.10912661110E+04  0.44476425420E+03  0.25222433112E+04  0.27839519191E+04  0.25500000920E-02 0.  1.
</event>
<event>
 5   0  0.4077370E-07  0.3021703E+04  0.7818609E-02  0.8237560E-01
       -2   -1    0    0    0  501  0.00000000000E+00  0.00000000000E+00  0.16533013705E+04  0.16533013705E+04  0.25500000920E-02 0.  1.
        2   -1    0    0  501    0  0.00000000000E+00  0.00000000000E+00 -0.13806756546E+04  0.13806756546E+04  0.25500000920E-02 0. -1.
    10030    2    1    2    0    0  0.00000000000E+00  0.00000000000E+00  0.27262571592E+03  0.30339770252E+04  0.30217034614E+04 0.  0.
        3    1    3    3  502    0 -0.80991916996E+03  0.99676824091E+01  0.14168772864E+04  0.16320568836E+04  0.10100000352E+00 0.  1.
       -3    1    3    3    0  502  0.80991916996E+03 -0.99676824091E+01 -0.11442515705E+04  0.14019201415E+04  0.10100000352E+00 0. -1.
</event>
<event>
 5   0  0.4047916E-07  0.4128287E+04  0.7818609E-02  0.7979155E-01
       -2   -1    0    0    0  501  0.00000000000E+00  0.00000000000E+00  0.11915156170E+04  0.11915156170E+04  0.25500000920E-02 0. -1.
        2   -1    0    0  501    0  0.00000000000E+00  0.00000000000E+00 -0.35758569428E+04  0.35758569428E+04  0.25500000920E-02 0.  1.
    10030    2    1    2    0    0  0.00000000000E+00  0.00000000000E+00 -0.23843413258E+04  0.47673725598E+04  0.41282874858E+04 0.  0.
        5    1    3    3  502    0 -0.16274658524E+04  0.12659634380E+04 -0.10804538213E+04  0.23278125090E+04  0.46999998093E+01 0. -1.
       -5    1    3    3    0  502  0.16274658524E+04 -0.12659634380E+04 -0.13038875046E+04  0.24395600508E+04  0.46999998093E+01 0.  1.
</event>
<event>
 5   0  0.4079777E-07  0.4046538E+04  0.7818609E-02  0.7995224E-01
       -2   -1    0    0    0  501  0.00000000000E+00  0.00000000000E+00  0.12959119589E+04  0.12959119589E+04  0.25500000920E-02 0. -1.
        2   -1    0    0  501    0  0.00000000000E+00  0.00000000000E+00 -0.31588694914E+04  0.31588694914E+04  0.25500000920E-02 0.  1.
    10030    2    1    2    0    0  0.00000000000E+00  0.00000000000E+00 -0.18629575325E+04  0.44547814503E+04  0.40465376561E+04 0.  0.
        4    1    3    3  502    0 -0.13892002621E+04 -0.66139611198E+03 -0.23779175734E+04  0.28322810214E+04  0.12699999809E+01 0. -1.
       -4    1    3    3    0  502  0.13892002621E+04  0.66139611198E+03  0.51496004096E+03  0.16225004289E+04  0.12699999809E+01 0.  1.
</event>
<event>
 5   0  0.4079777E-07  0.4031034E+04  0.7818609E-02  0.7998315E-01
       -2   -1    0    0    0  501  0.00000000000E+00  0.00000000000E+00  0.23650651322E+04  0.23650651322E+04  0.25500000920E-02 0. -1.
        2   -1    0    0  501    0  0.00000000000E+00  0.00000000000E+00 -0.17176310157E+04  0.17176310157E+04  0.25500000920E-02 0.  1.
    10030    2    1    2    0    0  0.00000000000E+00  0.00000000000E+00  0.64743411644E+03  0.40826961479E+04  0.40310342223E+04 0.  0.
        4    1    3    3  502    0 -0.98213713234E+03  0.14894808009E+04 -0.62593569728E+03  0.18907521025E+04  0.12699999809E+01 0.  1.
       -4    1    3    3    0  502  0.98213713234E+03 -0.14894808009E+04  0.12733698137E+04  0.21919440455E+04  0.12699999809E+01 0. -1.
</event>
<event>
 5   0  0.1372952E-07  0.4027839E+04  0.7818609E-02  0.7998954E-01
        1   -1    0    0  501    0  0.00000000000E+00  0.00000000000E+00  0.19056649144E+04  0.19056649144E+04  0.50400001928E-02 0.  1.
       -1   -1    0    0    0  501  0.00000000000E+00  0.00000000000E+00 -0.21283236044E+04  0.21283236044E+04  0.50400001928E-02 0. -1.
    10030    2    1    2    0    0  0.00000000000E+00  0.00000000000E+00 -0.22265868994E+03  0.40339885188E+04  0.40278389339E+04 0.  0.
        1    1    3    3  502    0 -0.44640686113E+03 -0.14166203011E+03 -0.20730246141E+04  0.21252713397E+04  0.50400001928E-02 0. -1.
       -1    1    3    3    0  502  0.44640686113E+03  0.14166203011E+03  0.18503659242E+04  0.19087171791E+04  0.50400001928E-02 0.  1.
</event>
<event>
 5   0  0.4149487E-07  0.2590009E+04  0.7818609E-02  0.8371603E-01
        2   -1    0    0  501    0  0.00000000000E+00  0.00000000000E+00  0.17499026451E+04  0.17499026451E+04  0.25500000920E-02 0.  1.
       -2   -1    0    0    0  501  0.00000000000E+00  0.00000000000E+00 -0.95835981585E+03  0.95835981586E+03  0.25500000920E-02 0. -1.
    10030    2    1    2    0    0  0.00000000000E+00  0.00000000000E+00  0.79154282923E+03  0.27082624609E+04  0.25900087851E+04 0.  0.
        2    1    3    3  502    0  0.86973331926E+03 -0.66933156870E+03 -0.32307207070E+03  0.11440351211E+04  0.25500000920E-02 0. -1.
       -2    1    3    3    0  502 -0.86973331926E+03  0.66933156870E+03  0.11146148999E+04  0.15642273398E+04  0.25500000920E-02 0.  1.
</event>
<event>
 5   0  0.1368865E-07  0.4043271E+04  0.7818609E-02  0.7995874E-01
        1   -1    0    0  501    0  0.00000000000E+00  0.00000000000E+00  0.20192723472E+04  0.20192723472E+04  0.50400001928E-02 0.  1.
       -1   -1    0    0    0  501  0.00000000000E+00  0.00000000000E+00 -0.20240016639E+04  0.20240016639E+04  0.50400001928E-02 0. -1.
    10030    2    1    2    0    0  0.00000000000E+00  0.00000000000E+00 -0.47293166649E+01  0.40432740111E+04  0.40432712452E+04 0.  0.
        5    1    3    3  502    0 -0.13361242944E+04 -0.10265543461E+04  0.11147513842E+04  0.20203303428E+04  0.46999998093E+01 0.  1.
       -5    1    3    3    0  502  0.13361242944E+04  0.10265543461E+04 -0.11194807009E+04  0.20229436683E+04  0.46999998093E+01 0. -1.
</event>
<event>
 5   0  0.1351000E-07  0.3966031E+04  0.7818609E-02  0.8011434E-01
       -1   -1    0    0    0  501  0.00000000000E+00  0.00000000000E+00  0.24725105617E+04  0.24725105617E+04  0.50400001928E-02 0. -1.
        1   -1    0    0  501    0  0.00000000000E+00  0.00000000000E+00 -0.15904280606E+04  0.15904280606E+04  0.50400001928E-02 0.  1.
    10030    2    1    2    0    0  0.00000000000E+00  0.00000000000E+00  0.88208250111E+03  0.40629386224E+04  0.39660308509E+04 0.  0.
        4    1    3    3  502    0  0.12964088594E+04  0.10956368869E+04 -0.60931756096E+03  0.18034316238E+04  0.12699999809E+01 0.  1.
       -4    1    3    3    0  502 -0.12964088594E+04 -0.10956368869E+04  0.14914000621E+04  0.22595069986E+04  0.12699999809E+01 0. -1.
</event>
<event>
 5   0  0.1368865E-07  0.3926669E+04  0.7818609E-02  0.8019505E-01
       -1   -1    0    0    0  501  0.00000000000E+00  0.00000000000E+00  0.22467023544E+04  0.22467023544E+04  0.50400001928E-02 0. -1.
        1   -1    0    0  501    0  0.00000000000E+00  0.00000000000E+00 -0.17157069135E+04  0.17157069136E+04  0.50400001928E-02 0.  1.
    10030    2    1    2    0    0  0.00000000000E+00  0.00000000000E+00  0.53099544090E+03  0.39624092680E+04  0.39266692054E+04 0.  0.
        5    1    3    3  502    0  0.59180058839E+03 -0.15174870697E+04  0.13716803947E+04  0.21294422130E+04  0.46999998093E+01 0. -1.
       -5    1    3    3    0  502 -0.59180058839E+03  0.15174870697E+04 -0.84068495385E+03  0.18329670550E+04  0.46999998093E+01 0.  1.
</event>
<event>
 5   0  0.4301754E-07  0.4104077E+04  0.7818609E-02  0.7983874E-01
        2   -1    0    0  501    0  0.00000000000E+00  0.00000000000E+00  0.12437628791E+04  0.12437628791E+04  0.25500000920E-02 0. -1.
       -2   -1    0    0    0  501  0.00000000000E+00  0.00000000000E+00 -0.33855830090E+04  0.33855830090E+04  0.25500000920E-02 0.  1.
    10030    2    1    2    0    0  0.00000000000E+00  0.00000000000E+00 -0.21418201300E+04  0.46293458881E+04  0.41040772267E+04 0.  0.
        1    1    3    3  502    0  0.17910796116E+03 -0.19807594651E+04 -0.16409339896E+04  0.25784010702E+04  0.50400001928E-02 0.  1.
       -1    1    3    3    0  502 -0.17910796116E+03  0.19807594651E+04 -0.50088614036E+03  0.20509448179E+04  0.50400001928E-02 0. -1.
</event>
<event>
 5   0  0.4077370E-07  0.3976446E+04  0.7818609E-02  0.8009315E-01
       -2   -1    0    0    0  501  0.00000000000E+00  0.00000000000E+00  0.15832975427E+04  0.15832975427E+04  0.25500000920E-02 0.  1.
        2   -1    0    0  501    0  0.00000000000E+00  0.00000000000E+00 -0.24967072186E+04  0.24967072186E+04  0.25500000920E-02 0. -1.
    10030    2    1    2    0    0  0.00000000000E+00  0.00000000000E+00 -0.91340967586E+03  0.40800047613E+04  0.39764458523E+04 0.  0.
        3    1    3    3  502    0  0.78586233416E+03 -0.17587878625E+04 -0.96157229556E+03  0.21530294107E+04  0.10100000352E+00 0. -1.
       -3    1    3    3    0  502 -0.78586233416E+03  0.17587878625E+04  0.48162619699E+02  0.19269753506E+04  0.10100000352E+00 0.  1.
</event>
<event>
 5   0  0.4047916E-07  0.3993651E+04  0.7818609E-02  0.8005829E-01
       -2   -1    0    0    0  501  0.00000000000E+00  0.00000000000E+00  0.18232486011E+04  0.18232486011E+04  0.25500000920E-02 0.  1.
        2   -1    0    0  501    0  0.00000000000E+00  0.00000000000E+00 -0.21869272610E+04  0.21869272610E+04  0.25500000920E-02 0. -1.
    10030    2    1    2    0    0  0.00000000000E+00  0.00000000000E+00 -0.36367865994E+03  0.40101758621E+04  0.39936509959E+04 0.  0.
        5    1    3    3  502    0  0.41908212766E+03 -0.52972026093E+03  0.17050466103E+04  0.18339682161E+04  0.46999998093E+01 0.  1.
       -5    1    3    3    0  502 -0.41908212766E+03  0.52972026093E+03 -0.20687252702E+04  0.21762076459E+04  0.46999998093E+01 0. -1.
</event>
<event>
 5   0  0.1368865E-07  0.4008892E+04  0.7818609E-02  0.8002755E-01
        1   -1    0    0  501    0  0.00000000000E+00  0.00000000000E+00  0.19712735863E+04  0.19712735863E+04  0.50400001928E-02 0. -1.
       -1   -1    0    0    0  501  0.00000000000E+00  0.00000000000E+00 -0.20381770996E+04  0.20381770996E+04  0.50400001928E-02 0.  1.
    10030    2    1    2    0    0  0.00000000000E+00  0.00000000000E+00 -0.66903513324E+02  0.40094506859E+04  0.40088924558E+04 0.  0.
        5    1    3    3  502    0  0.79951200386E+03 -0.10956697489E+04 -0.15094861647E+04  0.20293551228E+04  0.46999998093E+01 0.  1.
       -5    1    3    3    0  502 -0.79951200386E+03  0.10956697489E+04  0.14425826514E+04  0.19800955631E+04  0.46999998093E+01 0. -1.
</event>
<event>
 5   0  0.4077370E-07  0.3323737E+04  0.7818609E-02  0.8156882E-01
        2   -1    0    0  501    0  0.00000000000E+00  0.00000000000E+00  0.15323409574E+04  0.15323409574E+04  0.25500000920E-02 0.  1.
       -2   -1    0    0    0  501  0.00000000000E+00  0.00000000000E+00 -0.18023451037E+04  0.18023451037E+04  0.25500000920E-02 0. -1.
    10030    2    1    2    0    0  0.00000000000E+00  0.00000000000E+00 -0.27000414627E+03  0.33346860612E+04  0.33237371869E+04 0.  0.
        3    1    3    3  502    0 -0.77294442605E+03  0.77313432108E+03  0.11207709340E+04  0.15656651177E+04  0.10100000352E+00 0.  1.
       -3    1    3    3    0  502  0.77294442605E+03 -0.77313432108E+03 -0.13907750803E+04  0.17690209434E+04  0.10100000352E+00 0. -1.
</event>
<event>
 5   0  0.4079777E-07  0.4001769E+04  0.7818609E-02  0.8004190E-01
        2   -1    0    0  501    0  0.00000000000E+00  0.00000000000E+00  0.23687842000E+04  0.23687842000E+04  0.25500000920E-02 0. -1.
       -2   -1    0    0    0  501  0.00000000000E+00  0.00000000000E+00 -0.16901242846E+04  0.16901242846E+04  0.25500000920E-02 0.  1.
    10030    2    1    2    0    0  0.00000000000E+00  0.00000000000E+00  0.67865991543E+03  0.40589084846E+04  0.40017694594E+04 0.  0.
        4    1    3    3  502    0  0.45715951665E+03 -0.18728820406E+04 -0.20390693842E+03  0.19386236391E+04  0.12699999809E+01 0. -1.
       -4    1    3    3    0  502 -0.45715951665E+03  0.18728820406E+04  0.88256685385E+03  0.21202848455E+04  0.12699999809E+01 0.  1.
</event>
<event>
 5   0  0.4047916E-07  0.4023201E+04  0.7818609E-02  0.7999883E-01
        2   -1    0    0  501    0  0.00000000000E+00  0.00000000000E+00  0.14604061933E+04  0.14604061933E+04  0.25500000920E-02 0.  1.
       -2   -1    0    0    0  501  0.00000000000E+00  0.00000000000E+00 -0.27708289775E+04  0.27708289775E+04  0.25500000920E-02 0. -1.
    10030    2    1    2    0    0  0.00000000000E+00  0.00000000000E+00 -0.13104227842E+04  0.42312351708E+04  0.40232006160E+04 0.  0.
        5    1    3    3  502    0 -0.57862263604E+03  0.15551959054E+04 -0.18511458370E+04  0.24860010980E+04  0.46999998093E+01 0. -1.
       -5    1    3    3    0  502  0.57862263604E+03 -0.15551959054E+04  0.54072305279E+03  0.17452340728E+04  0.46999998093E+01 0.  1.
</event>
<event>
 5   0  0.1368865E-07  0.2947051E+04  0.7818609E-02  0.8259014E-01
        1   -1    0    0  501    0  0.00000000000E+00  0.00000000000E+00  0.13336123680E+04  0.13336123680E+04  0.50400001928E-02 0. -1.
       -1   -1    0    0    0  501  0.00000000000E+00  0.00000000000E+00 -0.16281176802E+04  0.16281176803E+04  0.50400001928E-02 0.  1.
    10030    2    1    2    0    0  0.00000000000E+00  0.00000000000E+00 -0.29450531225E+03  0.29617300483E+04  0.29470513229E+04 0.  0.
        5    1    3    3  502    0  0.10896237547E+04  0.68748102581E+03  0.57139344759E+03  0.14094050694E+04  0.46999998093E+01 0. -1.
       -5    1    3    3    0  502 -0.10896237547E+04 -0.68748102581E+03 -0.86589875983E+03  0.15523249789E+04  0.46999998093E+01 0.  1.
</event>
<event>
 5   0  0.4077370E-07  0.4031213E+04  0.7818609E-02  0.7998279E-01
       -2   -1    0    0    0  501  0.00000000000E+00  0.00000000000E+00  0.23160705956E+04  0.23160705956E+04  0.25500000920E-02 0. -1.
        2   -1    0    0  501    0  0.00000000000E+00  0.00000000000E+00 -0.17541214292E+04  0.17541214292E+04  0.25500000920E-02 0.  1.
    10030    2    1    2    0    0  0.00000000000E+00  0.00000000000E+00  0.56194916640E+03  0.40701920248E+04  0.40312127521E+04 0.  0.
        3    1    3    3  502    0  0.10701560297E+04  0.88325315419E+02 -0.14412839438E+04  0.17973131909E+04  0.10100000352E+00 0.  1.
       -3    1    3    3    0  502 -0.10701560297E+04 -0.88325315419E+02  0.20032331102E+04  0.22728788339E+04  0.10100000352E+00 0. -1.
</event>
<event>
 5   0  0.4301754E-07  0.3990721E+04  0.7818609E-02  0.8006421E-01
       -2   -1    0    0    0  501  0.00000000000E+00  0.00000000000E+00  0.17258821736E+04  0.17258821736E+04  0.25500000920E-02 0. -1.
        2   -1    0    0  501    0  0.00000000000E+00  0.00000000000E+00 -0.23069151984E+04  0.23069151984E+04  0.25500000920E-02 0.  1.
    10030    2    1    2    0    0  0.00000000000E+00  0.00000000000E+00 -0.58103302481E+03  0.40327973719E+04  0.39907211462E+04 0.  0.
        1    1    3    3  502    0  0.69572038789E+03  0.15983362117E+04 -0.12717112367E+04  0.21577661999E+04  0.50400001928E-02 0.  1.
       -1    1    3    3    0  502 -0.69572038789E+03 -0.15983362117E+04  0.69067821191E+03  0.18750311720E+04  0.50400001928E-02 0. -1.
</event>
<event>
 5   0  0.4079777E-07  0.4036447E+04  0.7818609E-02  0.7997234E-01
       -2   -1    0    0    0  501  0.00000000000E+00  0.00000000000E+00  0.26161910393E+04  0.26161910393E+04  0.25500000920E-02 0.  1.
        2   -1    0    0  501    0  0.00000000000E+00  0.00000000000E+00 -0.15569298397E+04  0.15569298397E+04  0.25500000920E-02 0. -1.
    10030    2    1    2    0    0  0.00000000000E+00  0.00000000000E+00  0.10592611996E+04  0.41731208789E+04  0.40364469006E+04 0.  0.
        4    1    3    3  502    0 -0.56474382445E+03  0.30088091814E+03 -0.14492755218E+04  0.15842556817E+04  0.12699999809E+01 0. -1.
       -4    1    3    3    0  502  0.56474382445E+03 -0.30088091814E+03  0.25085367213E+04  0.25888651972E+04  0.12699999809E+01 0.  1.
</event>
<event>
 5   0  0.4301754E-07  0.3685848E+04  0.7818609E-02  0.8071105E-01
       -2   -1    0    0    0  501  0.00000000000E+00  0.00000000000E+00  0.16392830235E+04  0.16392830235E+04  0.25500000920E-02 0. -1.
        2   -1    0    0  501    0  0.00000000000E+00  0.00000000000E+00 -0.20718627081E+04  0.20718627081E+04  0.25500000920E-02 0.  1.
    10030    2    1    2    0    0  0.00000000000E+00  0.00000000000E+00 -0.43257968469E+03  0.37111457316E+04  0.36858482684E+04 0.  0.
        1    1    3    3  502    0  0.27751648609E+02  0.18423792109E+04 -0.18086236045E+03  0.18514433570E+04  0.50400001928E-02 0.  1.
       -1    1    3    3    0  502 -0.27751648609E+02 -0.18423792109E+04 -0.25171732424E+03  0.18597023746E+04  0.50400001928E-02 0. -1.
</event>
<event>
 5   0  0.4077370E-07  0.4105086E+04  0.7818609E-02  0.7983677E-01
       -2   -1    0    0    0  501  0.00000000000E+00  0.00000000000E+00  0.16778485020E+04  0.16778485020E+04  0.25500000920E-02 0. -1.
        2   -1    0    0  501    0  0.00000000000E+00  0.00000000000E+00 -0.25109133271E+04  0.25109133271E+04  0.25500000920E-02 0.  1.
    10030    2    1    2    0    0  0.00000000000E+00  0.00000000000E+00 -0.83306482504E+03  0.41887618291E+04  0.41050857065E+04 0.  0.
        3    1    3    3  502    0 -0.77542391819E+02 -0.12983485016E+04 -0.20367300407E+04  0.24166073167E+04  0.10100000352E+00 0.  1.
       -3    1    3    3    0  502  0.77542391819E+02  0.12983485016E+04  0.12036652157E+04  0.17721545124E+04  0.10100000352E+00 0. -1.
</event>
<event>
 5   0  0.4149487E-07  0.4004055E+04  0.7818609E-02  0.8003729E-01
       -2   -1    0    0    0  501  0.00000000000E+00  0.00000000000E+00  0.18027368412E+04  0.18027368412E+04  0.25500000920E-02 0.  1.
        2   -1    0    0  501    0  0.00000000000E+00  0.00000000000E+00 -0.22233495831E+04  0.22233495831E+04  0.25500000920E-02 0. -1.
    10030    2    1    2    0    0  0.00000000000E+00  0.00000000000E+00 -0.42061274196E+03  0.40260864243E+04  0.40040550467E+04 0.  0.
        2    1    3    3  502    0 -0.30608257982E+03  0.30987755582E+03 -0.21751317852E+04  0.22183121800E+04  0.25500000920E-02 0. -1.
       -2    1    3    3    0  502  0.30608257982E+03 -0.30987755582E+03  0.17545190432E+04  0.18077742443E+04  0.25500000920E-02 0.  1.
</event>
<event>
 5   0  0.4301754E-07  0.3981733E+04  0.7818609E-02  0.8008242E-01
        2   -1    0    0  501    0  0.00000000000E+00  0.00000000000E+00  0.18750220095E+04  0.18750220095E+04  0.25500000920E-02 0. -1.
       -2   -1    0    0    0  501  0.00000000000E+00  0.00000000000E+00 -0.21138680491E+04  0.21138680491E+04  0.25500000920E-02 0.  1.
    10030    2    1    2    0    0  0.00000000000E+00  0.00000000000E+00 -0.23884603960E+03  0.39888900587E+04  0.39817328476E+04 0.  0.
        1    1    3    3  502    0  0.47336179362E+03 -0.13207117613E+04 -0.15344768717E+04  0.20791753687E+04  0.50400001928E-02 0.  1.
       -1    1    3    3    0  502 -0.47336179362E+03  0.13207117613E+04  0.12956308321E+04  0.19097146900E+04  0.50400001928E-02 0. -1.
</event>
<event>
 5   0  0.4149487E-07  0.4101382E+04  0.7818609E-02  0.7984401E-01
       -2   -1    0    0    0  501  0.00000000000E+00  0.00000000000E+00  0.19694733358E+04  0.19694733358E+04  0.25500000920E-02 0.  1.
        2   -1    0    0  501    0  0.00000000000E+00  0.00000000000E+00 -0.21352577522E+04  0.21352577522E+04  0.25500000920E-02 0. -1.
    10030    2    1    2    0    0  0.00000000000E+00  0.00000000000E+00 -0.16578441635E+03  0.41047310880E+04  0.41013818198E+04 0.  0.
        2    1    3    3  502    0  0.32908485344E+03 -0.15527984751E+04 -0.13823566318E+04  0.21048491163E+04  0.25500000920E-02 0.  1.
       -2    1    3    3    0  502 -0.32908485344E+03  0.15527984751E+04  0.12165722155E+04  0.19998819716E+04  0.25500000920E-02 0. -1.
</event>
<event>
 5   0  0.1372952E-07  0.3972984E+04  0.7818609E-02  0.8010019E-01
       -1   -1    0    0    0  501  0.00000000000E+00  0.00000000000E+00  0.16370618133E+04  0.16370618133E+04  0.50400001928E-02 0.  1.
        1   -1    0    0  501    0  0.00000000000E+00  0.00000000000E+00 -0.24105077045E+04  0.24105077045E+04  0.50400001928E-02 0. -1.
    10030    2    1    2    0    0  0.00000000000E+00  0.00000000000E+00 -0.77344589113E+03  0.40475695178E+04  0.39729838226E+04 0.  0.
        1    1    3    3  502    0 -0.12084334009E+04 -0.13357542742E+04 -0.12400629550E+04  0.21868486226E+04  0.50400001928E-02 0.  1.
       -1    1    3    3    0  502  0.12084334009E+04  0.13357542742E+04  0.46661706388E+03  0.18607208952E+04  0.50400001928E-02 0. -1.
</event>
<event>
 5   0  0.1421304E-07  0.3980569E+04  0.7818609E-02  0.8008478E-01
       -1   -1    0    0    0  501  0.00000000000E+00  0.00000000000E+00  0.28853074665E+04  0.28853074665E+04  0.50400001928E-02 0. -1.
        1   -1    0    0  501    0  0.00000000000E+00  0.00000000000E+00 -0.13728979607E+04  0.13728979607E+04  0.50400001928E-02 0.  1.
    10030    2    1    2    0    0  0.00000000000E+00  0.00000000000E+00  0.15124095058E+04  0.42582054272E+04  0.39805691738E+04 0.  0.
        2    1    3    3  502    0 -0.16448835011E+04 -0.10196333713E+04  0.12533081926E+04  0.23056615905E+04  0.25500000920E-02 0. -1.
       -2    1    3    3    0  502  0.16448835011E+04  0.10196333713E+04  0.25910131318E+03  0.19525438368E+04  0.25500000920E-02 0.  1.
</event>
<event>
 5   0  0.1351000E-07  0.4011345E+04  0.7818609E-02  0.8002262E-01
       -1   -1    0    0    0  501  0.00000000000E+00  0.00000000000E+00  0.14087211418E+04  0.14087211418E+04  0.50400001928E-02 0.  1.
        1   -1    0    0  501    0  0.00000000000E+00  0.00000000000E+00 -0.28555841570E+04  0.28555841570E+04  0.50400001928E-02 0. -1.
    10030    2    1    2    0    0  0.00000000000E+00  0.00000000000E+00 -0.14468630152E+04  0.42643052988E+04  0.40113447991E+04 0.  0.
        4    1    3    3  502    0  0.94385239258E+03  0.15578391613E+04 -0.16160232104E+04  0.24350057127E+04  0.12699999809E+01 0. -1.
       -4    1    3    3    0  502 -0.94385239258E+03 -0.15578391613E+04  0.16916019519E+03  0.18292995862E+04  0.12699999809E+01 0.  1.
</event>
<event>
 5   0  0.1368865E-07  0.4011225E+04  0.7818609E-02  0.8002286E-01
        1   -1    0    0  501    0  0.00000000000E+00  0.00000000000E+00  0.18718452666E+04  0.18718452666E+04  0.50400001928E-02 0.  1.
       -1   -1    0    0    0  501  0.00000000000E+00  0.00000000000E+00 -0.21489395143E+04  0.21489395143E+04  0.50400001928E-02 0. -1.
    10030    2    1    2    0    0  0.00000000000E+00  0.00000000000E+00 -0.27709424771E+03  0.40207847809E+04  0.40112253779E+04 0.  0.
        5    1    3    3  502    0  0.63270715028E+03 -0.22485338899E+03  0.17558198930E+04  0.18798412090E+04  0.46999998093E+01 0.  1.
       -5    1    3    3    0  502 -0.63270715028E+03  0.22485338899E+03 -0.20329141407E+04  0.21409435719E+04  0.46999998093E+01 0. -1.
</event>
<event>
 5   0  0.4077370E-07  0.3967589E+04  0.7818609E-02  0.8011117E-01
        2   -1    0    0  501    0  0.00000000000E+00  0.00000000000E+00  0.14478231728E+04  0.14478231728E+04  0.25500000920E-02 0.  1.
       -2   -1    0    0    0  501  0.00000000000E+00  0.00000000000E+00 -0.27181777960E+04  0.27181777960E+04  0.25500000920E-02 0. -1.
    10030    2    1    2    0    0  0.00000000000E+00  0.00000000000E+00 -0.12703546232E+04  0.41660009689E+04  0.39675890921E+04 0.  0.
        3    1    3    3  502    0  0.74642564139E+03 -0.85350487990E+03  0.10740537700E+04  0.15617981077E+04  0.10100000352E+00 0.  1.
       -3    1    3    3    0  502 -0.74642564139E+03  0.85350487990E+03 -0.23444083932E+04  0.26042028612E+04  0.10100000352E+00 0. -1.
</event>
<event>
 5   0  0.4077370E-07  0.4048561E+04  0.7818609E-02  0.7994821E-01
       -2   -1    0    0    0  501  0.00000000000E+00  0.00000000000E+00  0.17527786389E+04  0.17527786389E+04  0.25500000920E-02 0.  1.
        2   -1    0    0  501    0  0.00000000000E+00  0.00000000000E+00 -0.23378374652E+04  0.23378374652E+04  0.25500000920E-02 0. -1.
    10030    2    1    2    0    0  0.00000000000E+00  0.00000000000E+00 -0.58505882624E+03  0.40906161041E+04  0.40485610136E+04 0.  0.
        3    1    3    3  502    0  0.37725427475E+03  0.12068939471E+04 -0.18897084088E+04  0.22737439758E+04  0.10100000352E+00 0. -1.
       -3    1    3    3    0  502 -0.37725427475E+03 -0.12068939471E+04  0.13046495825E+04  0.18168721283E+04  0.10100000352E+00 0.  1.
</event>
<event>
 5   0  0.1351000E-07  0.3999950E+04  0.7818609E-02  0.8004557E-01
        1   -1    0    0  501    0  0.00000000000E+00  0.00000000000E+00  0.33907992370E+04  0.33907992370E+04  0.50400001928E-02 0.  1.
       -1   -1    0    0    0  501  0.00000000000E+00  0.00000000000E+00 -0.11796331622E+04  0.11796331622E+04  0.50400001928E-02 0. -1.
    10030    2    1    2    0    0  0.00000000000E+00  0.00000000000E+00  0.22111660748E+04  0.45704323991E+04  0.39999496128E+04 0.  0.
        3    1    3    3  502    0 -0.18420849690E+04  0.77344312345E+03  0.10008106132E+04  0.22345275098E+04  0.10100000352E+00 0.  1.
       -3    1    3    3    0  502  0.18420849690E+04 -0.77344312345E+03  0.12103554616E+04  0.23359048893E+04  0.10100000352E+00 0. -1.
</event>
<event>
 5   0  0.1351000E-07  0.3709730E+04  0.7818609E-02  0.8065809E-01
       -1   -1    0    0    0  501  0.00000000000E+00  0.00000000000E+00  0.22240249355E+04  0.22240249355E+04  0.50400001928E-02 0.  1.
        1   -1    0    0  501    0  0.00000000000E+00  0.00000000000E+00 -0.15469808307E+04  0.15469808307E+04  0.50400001928E-02 0. -1.
    10030    2    1    2    0    0  0.00000000000E+00  0.00000000000E+00  0.67704410482E+03  0.37710057662E+04  0.37097298781E+04 0.  0.
        4    1    3    3  502    0  0.10991734871E+04 -0.11008286929E+03 -0.11761307185E+04  0.16135630365E+04  0.12699999809E+01 0. -1.
       -4    1    3    3    0  502 -0.10991734871E+04  0.11008286929E+03  0.18531748233E+04  0.21574427296E+04  0.12699999809E+01 0.  1.
</event>
<event>
 5   0  0.1368865E-07  0.2730940E+04  0.7818609E-02  0.8325035E-01
       -1   -1    0    0    0  501  0.00000000000E+00  0.00000000000E+00  0.26595912855E+04  0.26595912855E+04  0.50400001928E-02 0. -1.
        1   -1    0    0  501    0  0.00000000000E+00  0.00000000000E+00 -0.70105056673E+03  0.70105056675E+03  0.50400001928E-02 0.  1.
    10030    2    1    2    0    0  0.00000000000E+00  0.00000000000E+00  0.19585407188E+04  0.33606418523E+04  0.27309397489E+04 0.  0.
        5    1    3    3  502    0  0.19935413743E+03  0.87562151035E+03  0.22450533793E+04  0.24180036947E+04  0.46999998093E+01 0. -1.
       -5    1    3    3    0  502 -0.19935413743E+03 -0.87562151035E+03 -0.28651266054E+03  0.94263815759E+03  0.46999998093E+01 0.  1.
</event>
<event>
 5   0  0.4079777E-07  0.3699995E+04  0.7818609E-02  0.8067963E-01
        2   -1    0    0  501    0  0.00000000000E+00  0.00000000000E+00  0.19652135256E+04  0.19652135256E+04  0.25500000920E-02 0.  1.
       -2   -1    0    0    0  501  0.00000000000E+00  0.00000000000E+00 -0.17415367828E+04  0.17415367828E+04  0.25500000920E-02 0. -1.
    10030    2    1    2    0    0  0.00000000000E+00  0.00000000000E+00  0.22367674286E+03  0.37067503084E+04  0.36999954815E+04 0.  0.
        4    1    3    3  502    0  0.14732702637E+03  0.18295290520E+04  0.34379556458E+03  0.18673721664E+04  0.12699999809E+01 0.  1.
       -4    1    3    3    0  502 -0.14732702637E+03 -0.18295290520E+04 -0.12011882172E+03  0.18393781419E+04  0.12699999809E+01 0. -1.
</event>
<event>
 5   0  0.4079777E-07  0.3798946E+04  0.7818609E-02  0.8046381E-01
       -2   -1    0    0    0  501  0.00000000000E+00  0.00000000000E+00  0.14600354489E+04  0.14600354489E+04  0.25500000920E-02 0. -1.
        2   -1    0    0  501    0  0.00000000000E+00  0.00000000000E+00 -0.24711718583E+04  0.24711718583E+04  0.25500000920E-02 0.  1.
    10030    2    1    2    0    0  0.00000000000E+00  0.00000000000E+00 -0.10111364094E+04  0.39312073072E+04  0.37989464400E+04 0.  0.
        4    1    3    3  502    0  0.13123253748E+04 -0.13029724660E+04 -0.56809352429E+02  0.18501794648E+04  0.12699999809E+01 0. -1.
       -4    1    3    3    0  502 -0.13123253748E+04  0.13029724660E+04 -0.95432705701E+03  0.20810278425E+04  0.12699999809E+01 0.  1.
</event>
<event>
 5   0  0.4077370E-07  0.4019767E+04  0.7818609E-02  0.8000571E-01
        2   -1    0    0  501    0  0.00000000000E+00  0.00000000000E+00  0.23023741590E+04  0.23023741590E+04  0.25500000920E-02 0. -1.
       -2   -1    0    0    0  501  0.00000000000E+00  0.00000000000E+00 -0.17545504265E+04  0.17545504265E+04  0.25500000920E-02 0.  1.
    10030    2    1    2    0    0  0.00000000000E+00  0.00000000000E+00  0.54782373251E+03  0.40569245856E+04  0.40197669399E+04 0.  0.
        3    1    3    3  502    0 -0.17839784328E+03  0.12939846664E+04 -0.12677585419E+04  0.18202839992E+04  0.10100000352E+00 0.  1.
       -3    1    3    3    0  502  0.17839784328E+03 -0.12939846664E+04  0.18155822744E+04  0.22366405863E+04  0.10100000352E+00 0. -1.
</event>
<event>
 5   0  0.1372952E-07  0.3988252E+04  0.7818609E-02  0.8006921E-01
       -1   -1    0    0    0  501  0.00000000000E+00  0.00000000000E+00  0.15828238298E+04  0.15828238298E+04  0.50400001928E-02 0.  1.
        1   -1    0    0  501    0  0.00000000000E+00  0.00000000000E+00 -0.25123070381E+04  0.25123070381E+04  0.50400001928E-02 0. -1.
    10030    2    1    2    0    0  0.00000000000E+00  0.00000000000E+00 -0.92948320827E+03  0.40951308679E+04  0.39882524733E+04 0.  0.
        1    1    3    3  502    0  0.33232858387E+03  0.13439297948E+04  0.10089732717E+04  0.17130722822E+04  0.50400001928E-02 0.  1.
       -1    1    3    3    0  502 -0.33232858387E+03 -0.13439297948E+04 -0.19384564799E+04  0.23820585857E+04  0.50400001928E-02 0. -1.
</event>
<event>
 5   0  0.4079777E-07  0.3891008E+04  0.7818609E-02  0.8026902E-01
        2   -1    0    0  501    0  0.00000000000E+00  0.00000000000E+00  0.16838437717E+04  0.16838437717E+04  0.25500000920E-02 0.  1.
       -2   -1    0    0    0  501  0.00000000000E+00  0.00000000000E+00 -0.22478246967E+04  0.22478246967E+04  0.25500000920E-02 0. -1.
    10030    2    1    2    0    0  0.00000000000E+00  0.00000000000E+00 -0.56398092502E+03  0.39316684684E+04  0.38910078979E+04 0.  0.
        4    1    3    3  502    0 -0.12406404713E+04 -0.44820120779E+03  0.11629567190E+04  0.17585627782E+04  0.12699999809E+01 0.  1.
       -4    1    3    3    0  502  0.12406404713E+04  0.44820120779E+03 -0.17269376440E+04  0.21731056902E+04  0.12699999809E+01 0. -1.
</event>
<event>
 5   0  0.1351000E-07  0.3903958E+04  0.7818609E-02  0.8024207E-01
        1   -1    0    0  501    0  0.00000000000E+00  0.00000000000E+00  0.20533784342E+04  0.20533784342E+04  0.50400001928E-02 0.  1.
       -1   -1    0    0    0  501  0.00000000000E+00  0.00000000000E+00 -0.18555864955E+04  0.18555864955E+04  0.50400001928E-02 0. -1.
    10030    2    1    2    0    0  0.00000000000E+00  0.00000000000E+00  0.19779193865E+03  0.39089649297E+04  0.39039576292E+04 0.  0.
        4    1    3    3  502    0  0.73880912086E+03  0.11495406605E+03 -0.17065158137E+04  0.18631294077E+04  0.12699999809E+01 0. -1.
       -4    1    3    3    0  502 -0.73880912086E+03 -0.11495406605E+03  0.19043077524E+04  0.20458355220E+04  0.12699999809E+01 0.  1.
</event>
<event>
 5   0  0.4301754E-07  0.3872212E+04  0.7818609E-02  0.8030833E-01
        2   -1    0    0  501    0  0.00000000000E+00  0.00000000000E+00  0.15344277076E+04  0.15344277076E+04  0.25500000920E-02 0.  1.
       -2   -1    0    0    0  501  0.00000000000E+00  0.00000000000E+00 -0.24429349242E+04  0.24429349242E+04  0.25500000920E-02 0. -1.
    10030    2    1    2    0    0  0.00000000000E+00  0.00000000000E+00 -0.90850721662E+03  0.39773626318E+04  0.38722123059E+04 0.  0.
        1    1    3    3  502    0 -0.98278205581E+03  0.51602641894E+03  0.11751275542E+04  0.16164988719E+04  0.50400001928E-02 0.  1.
       -1    1    3    3    0  502  0.98278205581E+03 -0.51602641894E+03 -0.20836347708E+04  0.23608637598E+04  0.50400001928E-02 0. -1.
</event>
<event>
 5   0  0.4047916E-07  0.3923488E+04  0.7818609E-02  0.8020162E-01
        2   -1    0    0  501    0  0.00000000000E+00  0.00000000000E+00  0.16420217390E+04  0.16420217390E+04  0.25500000920E-02 0. -1.
       -2   -1    0    0    0  501  0.00000000000E+00  0.00000000000E+00 -0.23437196234E+04  0.23437196234E+04  0.25500000920E-02 0.  1.
    10030    2    1    2    0    0  0.00000000000E+00  0.00000000000E+00 -0.70169788447E+03  0.39857413624E+04  0.39234875158E+04 0.  0.
        5    1    3    3  502    0 -0.66296854598E+03  0.10867933825E+03  0.15215121044E+04  0.16632377056E+04  0.46999998093E+01 0. -1.
       -5    1    3    3    0  502  0.66296854598E+03 -0.10867933825E+03 -0.22232099888E+04  0.23225036568E+04  0.46999998093E+01 0.  1.
</event>
<event>
 5   0  0.1372952E-07  0.3576539E+04  0.7818609E-02  0.8095887E-01
        1   -1    0    0  501    0  0.00000000000E+00  0.00000000000E+00  0.24858261078E+04  0.24858261079E+04  0.50400001928E-02 0.  1.
       -1   -1    0    0    0  501  0.00000000000E+00  0.00000000000E+00 -0.12864568265E+04  0.12864568265E+04  0.50400001928E-02 0. -1.
    10030    2    1    2    0    0  0.00000000000E+00  0.00000000000E+00  0.11993692813E+04  0.37722829344E+04  0.35765390902E+04 0.  0.
        1    1    3    3  502    0 -0.30098841877E+03  0.13875978215E+04 -0.54696071932E+03  0.15215741096E+04  0.50400001928E-02 0. -1.
       -1    1    3    3    0  502  0.30098841877E+03 -0.13875978215E+04  0.17463300007E+04  0.22507088247E+04  0.50400001928E-02 0.  1.
</event>
<event>
 5   0  0.1372952E-07  0.4045998E+04  0.7818609E-02  0.7995331E-01
        1   -1    0    0  501    0  0.00000000000E+00  0.00000000000E+00  0.14748883131E+04  0.14748883131E+04  0.50400001928E-02 0. -1.
       -1   -1    0    0    0  501  0.00000000000E+00  0.00000000000E+00 -0.27748037879E+04  0.27748037879E+04  0.50400001928E-02 0.  1.
    10030    2    1    2    0    0  0.00000000000E+00  0.00000000000E+00 -0.12999154747E+04  0.42496921010E+04  0.40459983579E+04 0.  0.
        1    1    3    3  502    0  0.50457421288E+03 -0.19270068826E+04 -0.27923669324E+03  0.20114481829E+04  0.50400001928E-02 0. -1.
       -1    1    3    3    0  502 -0.50457421288E+03  0.19270068826E+04 -0.10206787815E+04  0.22382439181E+04  0.50400001928E-02 0.  1.
</event>
<event>
 5   0  0.1351000E-07  0.3994868E+04  0.7818609E-02  0.8005583E-01
        1   -1    0    0  501    0  0.00000000000E+00  0.00000000000E+00  0.16969175881E+04  0.16969175881E+04  0.50400001928E-02 0.  1.
       -1   -1    0    0    0  501  0.00000000000E+00  0.00000000000E+00 -0.23511706118E+04  0.23511706118E+04  0.50400001928E-02 0. -1.
    10030    2    1    2    0    0  0.00000000000E+00  0.00000000000E+00 -0.65425302369E+03  0.40480881999E+04  0.39948680899E+04 0.  0.
        4    1    3    3  502    0  0.16196616763E+04 -0.85994370637E+03  0.47521348759E+03  0.18943697093E+04  0.12699999809E+01 0.  1.
       -4    1    3    3    0  502 -0.16196616763E+04  0.85994370637E+03 -0.11294665113E+04  0.21537184906E+04  0.12699999809E+01 0. -1.
</event>
<event>
 5   0  0.4079777E-07  0.4044936E+04  0.7818609E-02  0.7995542E-01
       -2   -1    0    0    0  501  0.00000000000E+00  0.00000000000E+00  0.17183197632E+04  0.17183197632E+04  0.25500000920E-02 0. -1.
        2   -1    0    0  501    0  0.00000000000E+00  0.00000000000E+00 -0.23804519970E+04  0.23804519970E+04  0.25500000920E-02 0.  1.
    10030    2    1    2    0    0  0.00000000000E+00  0.00000000000E+00 -0.66213223378E+03  0.40987717602E+04  0.40449364454E+04 0.  0.
        4    1    3    3  502    0  0.65148931287E+03  0.16707517922E+03  0.16016799250E+04  0.17371622363E+04  0.12699999809E+01 0. -1.
       -4    1    3    3    0  502 -0.65148931287E+03 -0.16707517922E+03 -0.22638121588E+04  0.23616095239E+04  0.12699999809E+01 0.  1.
</event>
<event>
 5   0  0.1372952E-07  0.4011160E+04  0.7818609E-02  0.8002299E-01
       -1   -1    0    0    0  501  0.00000000000E+00  0.00000000000E+00  0.23318325504E+04  0.23318325504E+04  0.50400001928E-02 0.  1.
        1   -1    0    0  501    0  0.00000000000E+00  0.00000000000E+00 -0.17249740717E+04  0.17249740717E+04  0.50400001928E-02 0. -1.
    10030    2    1    2    0    0  0.00000000000E+00  0.00000000000E+00  0.60685847868E+03  0.40568066221E+04  0.40111597769E+04 0.  0.
        1    1    3    3  502    0 -0.10745342664E+03 -0.20020545439E+04  0.25203707237E+03  0.20207155470E+04  0.50400001928E-02 0.  1.
       -1    1    3    3    0  502  0.10745342664E+03  0.20020545439E+04  0.35482140631E+03  0.20360910751E+04  0.50400001928E-02 0. -1.
</event>
<event>
 5   0  0.4079777E-07  0.4071592E+04  0.7818609E-02  0.7990258E-01
        2   -1    0    0  501    0  0.00000000000E+00  0.00000000000E+00  0.21181577896E+04  0.21181577896E+04  0.25500000920E-02 0.  1.
       -2   -1    0    0    0  501  0.00000000000E+00  0.00000000000E+00 -0.19566365172E+04  0.19566365172E+04  0.25500000920E-02 0. -1.
    10030    2    1    2    0    0  0.00000000000E+00  0.00000000000E+00  0.16152127237E+03  0.40747943068E+04  0.40715917675E+04 0.  0.
        4    1    3    3  502    0  0.12523353507E+04  0.32587555451E+03 -0.14920748801E+04  0.19750513331E+04  0.12699999809E+01 0. -1.
       -4    1    3    3    0  502 -0.12523353507E+04 -0.32587555451E+03  0.16535961524E+04  0.20997429738E+04  0.12699999809E+01 0.  1.
</event>
<event>
 5   0  0.1368865E-07  0.2982662E+04  0.7818609E-02  0.8248699E-01
       -1   -1    0    0    0  501  0.00000000000E+00  0.00000000000E+00  0.96258675569E+03  0.96258675570E+03  0.50400001928E-02 0. -1.
        1   -1    0    0  501    0  0.00000000000E+00  0.00000000000E+00 -0.23105119938E+04  0.23105119938E+04  0.50400001928E-02 0.  1.
    10030    2    1    2    0    0  0.00000000000E+00  0.00000000000E+00 -0.13479252381E+04  0.32730987495E+04  0.29826620620E+04 0.  0.
        5    1    3    3  502    0  0.39051080457E+03 -0.85951163243E+03  0.59291734475E+03  0.11148237540E+04  0.46999998093E+01 0. -1.
       -5    1    3    3    0  502 -0.39051080457E+03  0.85951163243E+03 -0.19408425828E+04  0.21582749955E+04  0.46999998093E+01 0.  1.
</event>
<event>
 5   0  0.4077370E-07  0.2780852E+04  0.7818609E-02  0.8309238E-01
       -2   -1    0    0    0  501  0.00000000000E+00  0.00000000000E+00  0.11583171450E+04  0.11583171450E+04  0.25500000920E-02 0.  1.
        2   -1    0    0  501    0  0.00000000000E+00  0.00000000000E+00 -0.16690462358E+04  0.16690462358E+04  0.25500000920E-02 0. -1.
    10030    2    1    2    0    0  0.00000000000E+00  0.00000000000E+00 -0.51072909081E+03  0.28273633807E+04  0.27808522943E+04 0.  0.
        3    1    3    3  502    0 -0.90547579216E+02 -0.12767848019E+04  0.29677128107E+03  0.13139450132E+04  0.10100000352E+00 0.  1.
       -3    1    3    3    0  502  0.90547579216E+02  0.12767848019E+04 -0.80750037187E+03  0.15134183675E+04  0.10100000352E+00 0. -1.
</event>
<event>
 5   0  0.1372952E-07  0.3100438E+04  0.7818609E-02  0.8215618E-01
        1   -1    0    0  501    0  0.00000000000E+00  0.00000000000E+00  0.14474514929E+04  0.14474514929E+04  0.50400001928E-02 0. -1.
       -1   -1    0    0    0  501  0.00000000000E+00  0.00000000000E+00 -0.16602831782E+04  0.16602831782E+04  0.50400001928E-02 0.  1.
    10030    2    1    2    0    0  0.00000000000E+00  0.00000000000E+00 -0.21283168538E+03  0.31077346711E+04  0.31004382690E+04 0.  0.
        1    1    3    3  502    0  0.79778123542E+02 -0.13252498374E+04  0.69579734445E+03  0.14989281587E+04  0.50400001928E-02 0. -1.
       -1    1    3    3    0  502 -0.79778123542E+02  0.13252498374E+04 -0.90862902983E+03  0.16088065124E+04  0.50400001928E-02 0.  1.
</event>
<event>
 5   0  0.1368865E-07  0.3150670E+04  0.7818609E-02  0.8201968E-01
       -1   -1    0    0    0  501  0.00000000000E+00  0.00000000000E+00  0.17625934296E+04  0.17625934296E+04  0.50400001928E-02 0. -1.
        1   -1    0    0  501    0  0.00000000000E+00  0.00000000000E+00 -0.14079712844E+04  0.14079712844E+04  0.50400001928E-02 0.  1.
    10030    2    1    2    0    0  0.00000000000E+00  0.00000000000E+00  0.35462214523E+03  0.31705647140E+04  0.31506703635E+04 0.  0.
        5    1    3    3  502    0 -0.13558357590E+04 -0.74763175501E+03 -0.11506610033E+03  0.15525804790E+04  0.46999998093E+01 0. -1.
       -5    1    3    3    0  502  0.13558357590E+04  0.74763175501E+03  0.46968824557E+03  0.16179842349E+04  0.46999998093E+01 0.  1.
</event>
<event>
 5   0  0.4047916E-07  0.4025447E+04  0.7818609E-02  0.7999433E-01
       -2   -1    0    0    0  501  0.00000000000E+00  0.00000000000E+00  0.19461712612E+04  0.19461712612E+04  0.25500000920E-02 0.  1.
        2   -1    0    0  501    0  0.00000000000E+00  0.00000000000E+00 -0.20815517308E+04  0.20815517308E+04  0.25500000920E-02 0. -1.
    10030    2    1    2    0    0  0.00000000000E+00  0.00000000000E+00 -0.13538046962E+03  0.40277229920E+04  0.40254471340E+04 0.  0.
        5    1    3    3  502    0  0.18734729191E+03  0.19704074021E+04 -0.43317709589E+03  0.20261462989E+04  0.46999998093E+01 0. -1.
       -5    1    3    3    0  502 -0.18734729191E+03 -0.19704074021E+04  0.29779662626E+03  0.20015766932E+04  0.46999998093E+01 0.  1.
</event>
<event>
 5   0  0.1372952E-07  0.3932818E+04  0.7818609E-02  0.8018238E-01
       -1   -1    0    0    0  501  0.00000000000E+00  0.00000000000E+00  0.11815722881E+04  0.11815722881E+04  0.50400001928E-02 0.  1.
        1   -1    0    0  501    0  0.00000000000E+00  0.00000000000E+00 -0.32725591471E+04  0.32725591471E+04  0.50400001928E-02 0. -1.
    10030    2    1    2    0    0  0.00000000000E+00  0.00000000000E+00 -0.20909868591E+04  0.44541314352E+04  0.39328184292E+04 0.  0.
        1    1    3    3  502    0  0.17505872708E+04 -0.54061713098E+03 -0.18542535845E+04  0.26067372385E+04  0.50400001928E-02 0. -1.
       -1    1    3    3    0  502 -0.17505872708E+04  0.54061713098E+03 -0.23673327459E+03  0.18473941967E+04  0.50400001928E-02 0.  1.
</event>
<event>
 5   0  0.1372606E-07  0.2496888E+04  0.7818609E-02  0.8404095E-01
       -1   -1    0    0    0  501  0.00000000000E+00  0.00000000000E+00  0.10003550598E+04  0.10003550598E+04  0.50400001928E-02 0. -1.
        1   -1    0    0  501    0  0.00000000000E+00  0.00000000000E+00 -0.15580596094E+04  0.15580596094E+04  0.50400001928E-02 0.  1.
    10030    2    1    2    0    0  0.00000000000E+00  0.00000000000E+00 -0.55770454957E+03  0.25584146693E+04  0.24968883145E+04 0.  0.
        5    1    3    3  502    0  0.52338047705E+03  0.22170499221E+03 -0.14177770475E+04  0.15274796475E+04  0.46999998093E+01 0.  1.
       -5    1    3    3    0  502 -0.52338047705E+03 -0.22170499221E+03  0.86007249791E+03  0.10309350217E+04  0.46999998093E+01 0. -1.
</event>
<event>
 5   0  0.1351000E-07  0.4667246E+04  0.7818609E-02  0.7881994E-01
       -1   -1    0    0    0  501  0.00000000000E+00  0.00000000000E+00  0.28002027321E+04  0.28002027321E+04  0.50400001928E-02 0.  1.
        1   -1    0    0  501    0  0.00000000000E+00  0.00000000000E+00 -0.19447865197E+04  0.19447865197E+04  0.50400001928E-02 0. -1.
    10030    2    1    2    0    0  0.00000000000E+00  0.00000000000E+00  0.85541621242E+03  0.47449892518E+04  0.46672460941E+04 0.  0.
        3    1    3    3  502    0  0.18841193401E+04  0.30948158124E+03  0.17917392711E+04  0.26183991603E+04  0.10100000352E+00 0.  1.
       -3    1    3    3    0  502 -0.18841193401E+04 -0.30948158124E+03 -0.93632305867E+03  0.21265900915E+04  0.10100000352E+00 0. -1.
</event>
<event>
 5   0  0.4079777E-07  0.2570773E+04  0.7818609E-02  0.8378197E-01
       -2   -1    0    0    0  501  0.00000000000E+00  0.00000000000E+00  0.95694352056E+03  0.95694352056E+03  0.25500000920E-02 0. -1.
        2   -1    0    0  501    0  0.00000000000E+00  0.00000000000E+00 -0.17265586283E+04  0.17265586283E+04  0.25500000920E-02 0.  1.
    10030    2    1    2    0    0  0.00000000000E+00  0.00000000000E+00 -0.76961510778E+03  0.26835021489E+04  0.25707734963E+04 0.  0.
        4    1    3    3  502    0 -0.28002144335E+03  0.43915987643E+03  0.84185802503E+03  0.98994946993E+03  0.12699999809E+01 0. -1.
       -4    1    3    3    0  502  0.28002144335E+03 -0.43915987643E+03 -0.16114731328E+04  0.16935526790E+04  0.12699999809E+01 0.  1.
</event>
<event>
 5   0  0.1421304E-07  0.3992894E+04  0.7818609E-02  0.8005982E-01
        1   -1    0    0  501    0  0.00000000000E+00  0.00000000000E+00  0.28043227891E+04  0.28043227891E+04  0.50400001928E-02 0.  1.
       -1   -1    0    0    0  501  0.00000000000E+00  0.00000000000E+00 -0.14213058231E+04  0.14213058231E+04  0.50400001928E-02 0. -1.
    10030    2    1    2    0    0  0.00000000000E+00  0.00000000000E+00  0.13830169660E+04  0.42256286122E+04  0.39928938428E+04 0.  0.
        2    1    3    3  502    0  0.56392833755E+03 -0.16431116435E+04 -0.34969196166E+03  0.17720371077E+04  0.25500000920E-02 0. -1.
       -2    1    3    3    0  502 -0.56392833755E+03  0.16431116435E+04  0.17327089277E+04  0.24535915045E+04  0.25500000920E-02 0.  1.
</event>
<event>
 5   0  0.1351000E-07  0.4070892E+04  0.7818609E-02  0.7990396E-01
       -3   -1    0    0    0  501  0.00000000000E+00  0.00000000000E+00  0.24994042374E+04  0.24994042395E+04  0.10100000352E+00 0.  1.
        3   -1    0    0  501    0  0.00000000000E+00  0.00000000000E+00 -0.16576114841E+04  0.16576114872E+04  0.10100000352E+00 0. -1.
    10030    2    1    2    0    0  0.00000000000E+00  0.00000000000E+00  0.84179275334E+03  0.41570157267E+04  0.40708923729E+04 0.  0.
        5    1    3    3  502    0 -0.66435727356E+02  0.32598837081E+03 -0.16296540576E+04  0.16632728463E+04  0.46999998093E+01 0. -1.
       -5    1    3    3    0  502  0.66435727356E+02 -0.32598837081E+03  0.24714468110E+04  0.24937428803E+04  0.46999998093E+01 0.  1.
</event>
<event>
 5   0  0.4301754E-07  0.2629437E+04  0.7818609E-02  0.8358270E-01
        2   -1    0    0  501    0  0.00000000000E+00  0.00000000000E+00  0.18420201143E+04  0.18420201143E+04  0.25500000920E-02 0. -1.
       -2   -1    0    0    0  501  0.00000000000E+00  0.00000000000E+00 -0.93836382455E+03  0.93836382456E+03  0.25500000920E-02 0.  1.
    10030    2    1    2    0    0  0.00000000000E+00  0.00000000000E+00  0.90365628974E+03  0.27803839389E+04  0.26294372321E+04 0.  0.
        1    1    3    3  502    0 -0.10098719775E+04 -0.84157773540E+03  0.47272479876E+03  0.13969836188E+04  0.50400001928E-02 0. -1.
       -1    1    3    3    0  502  0.10098719775E+04  0.84157773540E+03  0.43093149098E+03  0.13834003201E+04  0.50400001928E-02 0.  1.
</event>
<event>
 5   0  0.4079777E-07  0.3131569E+04  0.7818609E-02  0.8207127E-01
        2   -1    0    0  501    0  0.00000000000E+00  0.00000000000E+00  0.10813361269E+04  0.10813361269E+04  0.25500000920E-02 0. -1.
       -2   -1    0    0    0  501  0.00000000000E+00  0.00000000000E+00 -0.22672701271E+04  0.22672701271E+04  0.25500000920E-02 0.  1.
    10030    2    1    2    0    0  0.00000000000E+00  0.00000000000E+00 -0.11859340002E+04  0.33486062540E+04  0.31315689984E+04 0.  0.
        4    1    3    3  502    0 -0.33038549445E+03  0.11827305101E+04 -0.16317216176E+04  0.20421858595E+04  0.12699999809E+01 0.  1.
       -4    1    3    3    0  502  0.33038549445E+03 -0.11827305101E+04  0.44578761743E+03  0.13064203945E+04  0.12699999809E+01 0. -1.
</event>
<event>
 5   0  0.4079777E-07  0.3744600E+04  0.7818609E-02  0.8058149E-01
        2   -1    0    0  501    0  0.00000000000E+00  0.00000000000E+00  0.14447689242E+04  0.14447689242E+04  0.25500000920E-02 0. -1.
       -2   -1    0    0    0  501  0.00000000000E+00  0.00000000000E+00 -0.24263449568E+04  0.24263449568E+04  0.25500000920E-02 0.  1.
    10030    2    1    2    0    0  0.00000000000E+00  0.00000000000E+00 -0.98157603265E+03  0.38711138810E+04  0.37446002687E+04 0.  0.
        4    1    3    3  502    0  0.13928741896E+04 -0.92696595741E+02 -0.17806670663E+04  0.22626241360E+04  0.12699999809E+01 0.  1.
       -4    1    3    3    0  502 -0.13928741896E+04  0.92696595741E+02  0.79909103363E+03  0.16084897450E+04  0.12699999809E+01 0. -1.
</event>
<event>
 5   0  0.4149487E-07  0.3068194E+04  0.7818609E-02  0.8224521E-01
       -2   -1    0    0    0  501  0.00000000000E+00  0.00000000000E+00  0.13652377977E+04  0.13652377977E+04  0.25500000920E-02 0. -1.
        2   -1    0    0  501    0  0.00000000000E+00  0.00000000000E+00 -0.17238411535E+04  0.17238411535E+04  0.25500000920E-02 0.  1.
    10030    2    1    2    0    0  0.00000000000E+00  0.00000000000E+00 -0.35860335581E+03  0.30890789511E+04  0.30681936705E+04 0.  0.
        2    1    3    3  502    0  0.30487653642E+03  0.14993010197E+04 -0.29231481321E+03  0.15576588844E+04  0.25500000920E-02 0.  1.
       -2    1    3    3    0  502 -0.30487653642E+03 -0.14993010197E+04 -0.66288542599E+02  0.15314200668E+04  0.25500000920E-02 0. -1.
</event>
<event>
 5   0  0.4077370E-07  0.4003587E+04  0.7818609E-02  0.8003823E-01
       -2   -1    0    0    0  501  0.00000000000E+00  0.00000000000E+00  0.18753657330E+04  0.18753657330E+04  0.25500000920E-02 0. -1.
        2   -1    0    0  501    0  0.00000000000E+00  0.00000000000E+00 -0.21367444968E+04  0.21367444968E+04  0.25500000920E-02 0.  1.
    10030    2    1    2    0    0  0.00000000000E+00  0.00000000000E+00 -0.26137876377E+03  0.40121102298E+04  0.40035870963E+04 0.  0.
        3    1    3    3  502    0 -0.16804128485E+04  0.64705570897E+03  0.74564866443E+03  0.19489639230E+04  0.10100000352E+00 0. -1.
       -3    1    3    3    0  502  0.16804128485E+04 -0.64705570897E+03 -0.10070274282E+04  0.20631463068E+04  0.10100000352E+00 0.  1.
</event>
<event>
 5   0  0.1351000E-07  0.2619357E+04  0.7818609E-02  0.8361656E-01
       -1   -1    0    0    0  501  0.00000000000E+00  0.00000000000E+00  0.10691704599E+04  0.10691704599E+04  0.50400001928E-02 0. -1.
        1   -1    0    0  501    0  0.00000000000E+00  0.00000000000E+00 -0.16042880593E+04  0.16042880593E+04  0.50400001928E-02 0.  1.
    10030    2    1    2    0    0  0.00000000000E+00  0.00000000000E+00 -0.53511759938E+03  0.26734585193E+04  0.26193567166E+04 0.  0.
        3    1    3    3  502    0 -0.71975146995E+03 -0.53851868187E+03 -0.12397090630E+04  0.15313141808E+04  0.10100000352E+00 0.  1.
       -3    1    3    3    0  502  0.71975146995E+03  0.53851868187E+03  0.70459146358E+03  0.11421443385E+04  0.10100000352E+00 0. -1.
</event>
<event>
 5   0  0.1351000E-07  0.4029271E+04  0.7818609E-02  0.7998668E-01
        1   -1    0    0  501    0  0.00000000000E+00  0.00000000000E+00  0.15361796866E+04  0.15361796866E+04  0.50400001928E-02 0. -1.
       -1   -1    0    0    0  501  0.00000000000E+00  0.00000000000E+00 -0.26421103045E+04  0.26421103045E+04  0.50400001928E-02 0.  1.
    10030    2    1    2    0    0  0.00000000000E+00  0.00000000000E+00 -0.11059306178E+04  0.41782899911E+04  0.40292709909E+04 0.  0.
        4    1    3    3  502    0  0.86022856246E+03  0.16670306019E+04  0.20889722634E+03  0.18874914229E+04  0.12699999809E+01 0. -1.
       -4    1    3    3    0  502 -0.86022856246E+03 -0.16670306019E+04 -0.13148278442E+04  0.22907985682E+04  0.12699999809E+01 0.  1.
</event>
<event>
 5   0  0.4077370E-07  0.3900884E+04  0.7818609E-02  0.8024845E-01
        2   -1    0    0  501    0  0.00000000000E+00  0.00000000000E+00  0.25010683034E+04  0.25010683034E+04  0.25500000920E-02 0.  1.
       -2   -1    0    0    0  501  0.00000000000E+00  0.00000000000E+00 -0.15210398649E+04  0.15210398649E+04  0.25500000920E-02 0. -1.
    10030    2    1    2    0    0  0.00000000000E+00  0.00000000000E+00  0.98002843849E+03  0.40221081683E+04  0.39008843071E+04 0.  0.
        3    1    3    3  502    0 -0.12836538585E+04 -0.13156228112E+04  0.11626630804E+04  0.21749519669E+04  0.10100000352E+00 0.  1.
       -3    1    3    3    0  502  0.12836538585E+04  0.13156228112E+04 -0.18263464193E+03  0.18471562014E+04  0.10100000352E+00 0. -1.
</event>
<event>
 5   0  0.4149487E-07  0.3898606E+04  0.7818609E-02  0.8025319E-01
        2   -1    0    0  501    0  0.00000000000E+00  0.00000000000E+00  0.18101471204E+04  0.18101471204E+04  0.25500000920E-02 0. -1.
       -2   -1    0    0    0  501  0.00000000000E+00  0.00000000000E+00 -0.20991560151E+04  0.20991560151E+04  0.25500000920E-02 0.  1.
    10030    2    1    2    0    0  0.00000000000E+00  0.00000000000E+00 -0.28900889469E+03  0.39093031355E+04  0.38986055025E+04 0.  0.
        2    1    3    3  502    0  0.11338393972E+04  0.10669375080E+04  0.10316735270E+04  0.18676985011E+04  0.25500000920E-02 0. -1.
       -2    1    3    3    0  502 -0.11338393972E+04 -0.10669375080E+04 -0.13206824217E+04  0.20416046345E+04  0.25500000920E-02 0.  1.
</event>
<event>
 5   0  0.1372952E-07  0.4080207E+04  0.7818609E-02  0.7988559E-01
       -1   -1    0    0    0  501  0.00000000000E+00  0.00000000000E+00  0.14051929054E+04  0.14051929054E+04  0.50400001928E-02 0. -1.
        1   -1    0    0  501    0  0.00000000000E+00  0.00000000000E+00 -0.29618862671E+04  0.29618862671E+04  0.50400001928E-02 0.  1.
    10030    2    1    2    0    0  0.00000000000E+00  0.00000000000E+00 -0.15566933617E+04  0.43670791725E+04  0.40802066463E+04 0.  0.
        1    1    3    3  502    0  0.69464687572E+03 -0.12271085720E+04 -0.23563499334E+04  0.27460361866E+04  0.50400001928E-02 0.  1.
       -1    1    3    3    0  502 -0.69464687572E+03  0.12271085720E+04  0.79965657178E+03  0.16210429859E+04  0.50400001928E-02 0. -1.
</event>
<event>
 5   0  0.4301754E-07  0.3957115E+04  0.7818609E-02  0.8013254E-01
       -2   -1    0    0    0  501  0.00000000000E+00  0.00000000000E+00  0.14144659199E+04  0.14144659199E+04  0.25500000920E-02 0. -1.
        2   -1    0    0  501    0  0.00000000000E+00  0.00000000000E+00 -0.27676100695E+04  0.27676100695E+04  0.25500000920E-02 0.  1.
    10030    2    1    2    0    0  0.00000000000E+00  0.00000000000E+00 -0.13531441495E+04  0.41820759894E+04  0.39571151729E+04 0.  0.
        1    1    3    3  502    0 -0.18666040378E+04  0.57440391760E+03 -0.10116778147E+04  0.21994641382E+04  0.50400001928E-02 0.  1.
       -1    1    3    3    0  502  0.18666040378E+04 -0.57440391760E+03 -0.34146633478E+03  0.19826118512E+04  0.50400001928E-02 0. -1.
</event>
<event>
 5   0  0.1421304E-07  0.2932339E+04  0.7818609E-02  0.8263320E-01
       -1   -1    0    0    0  501  0.00000000000E+00  0.00000000000E+00  0.14095834562E+04  0.14095834562E+04  0.50400001928E-02 0. -1.
        1   -1    0    0  501    0  0.00000000000E+00  0.00000000000E+00 -0.15250267980E+04  0.15250267980E+04  0.50400001928E-02 0.  1.
    10030    2    1    2    0    0  0.00000000000E+00  0.00000000000E+00 -0.11544334182E+03  0.29346102543E+04  0.29323386877E+04 0.  0.
        2    1    3    3  502    0  0.48990601128E+03  0.12498604326E+03  0.13195795742E+04  0.14131240794E+04  0.25500000920E-02 0. -1.
       -2    1    3    3    0  502 -0.48990601128E+03 -0.12498604326E+03 -0.14350229161E+04  0.15214861749E+04  0.25500000920E-02 0.  1.
</event>
<event>
 5   0  0.4047916E-07  0.3999701E+04  0.7818609E-02  0.8004607E-01
       -2   -1    0    0    0  501  0.00000000000E+00  0.00000000000E+00  0.21157887107E+04  0.21157887107E+04  0.25500000920E-02 0. -1.
        2   -1    0    0  501    0  0.00000000000E+00  0.00000000000E+00 -0.18902651862E+04  0.18902651862E+04  0.25500000920E-02 0.  1.
    10030    2    1    2    0    0  0.00000000000E+00  0.00000000000E+00  0.22552352456E+03  0.40060538969E+04  0.39997008594E+04 0.  0.
        5    1    3    3  502    0  0.96177345145E+03 -0.11574185020E+04  0.14319543780E+04  0.20772917926E+04  0.46999998093E+01 0. -1.
       -5    1    3    3    0  502 -0.96177345145E+03  0.11574185020E+04 -0.12064308535E+04  0.19287621043E+04  0.46999998093E+01 0.  1.
</event>
<event>
 5   0  0.1421304E-07  0.3945809E+04  0.7818609E-02  0.8015569E-01
        1   -1    0    0  501    0  0.00000000000E+00  0.00000000000E+00  0.20828305176E+04  0.20828305176E+04  0.50400001928E-02 0. -1.
       -1   -1    0    0    0  501  0.00000000000E+00  0.00000000000E+00 -0.18687805126E+04  0.18687805126E+04  0.50400001928E-02 0.  1.
    10030    2    1    2    0    0  0.00000000000E+00  0.00000000000E+00  0.21405000497E+03  0.39516110302E+04  0.39458094644E+04 0.  0.
        2    1    3    3  502    0  0.18865309511E+04  0.54105795313E+03 -0.94791378814E+02  0.19648735694E+04  0.25500000920E-02 0. -1.
       -2    1    3    3    0  502 -0.18865309511E+04 -0.54105795313E+03  0.30884138379E+03  0.19867374609E+04  0.25500000920E-02 0.  1.
</event>
<event>
 5   0  0.1351000E-07  0.3908057E+04  0.7818609E-02  0.8023356E-01
        1   -1    0    0  501    0  0.00000000000E+00  0.00000000000E+00  0.15651398424E+04  0.15651398424E+04  0.50400001928E-02 0.  1.
       -1   -1    0    0    0  501  0.00000000000E+00  0.00000000000E+00 -0.24395443117E+04  0.24395443117E+04  0.50400001928E-02 0. -1.
    10030    2    1    2    0    0  0.00000000000E+00  0.00000000000E+00 -0.87440446923E+03  0.40046841541E+04  0.39080573177E+04 0.  0.
        3    1    3    3  502    0  0.19217139473E+04  0.29648021688E+03 -0.23918098257E+03  0.19591050423E+04  0.10100000352E+00 0.  1.
       -3    1    3    3    0  502 -0.19217139473E+04 -0.29648021688E+03 -0.63522348666E+03  0.20455791118E+04  0.10100000352E+00 0. -1.
</event>
<event>
 5   0  0.1368865E-07  0.4061296E+04  0.7818609E-02  0.7992294E-01
        1   -1    0    0  501    0  0.00000000000E+00  0.00000000000E+00  0.23675752214E+04  0.23675752214E+04  0.50400001928E-02 0. -1.
       -1   -1    0    0    0  501  0.00000000000E+00  0.00000000000E+00 -0.17416681402E+04  0.17416681402E+04  0.50400001928E-02 0.  1.
    10030    2    1    2    0    0  0.00000000000E+00  0.00000000000E+00  0.62590708120E+03  0.41092433616E+04  0.40612955237E+04 0.  0.
        5    1    3    3  502    0 -0.11447614633E+04 -0.16667324572E+04  0.12357449987E+03  0.20257760583E+04  0.46999998093E+01 0.  1.
       -5    1    3    3    0  502  0.11447614633E+04  0.16667324572E+04  0.50233258134E+03  0.20834673033E+04  0.46999998093E+01 0. -1.
</event>
<event>
 5   0  0.4301754E-07  0.3977740E+04  0.7818609E-02  0.8009052E-01
        2   -1    0    0  501    0  0.00000000000E+00  0.00000000000E+00  0.15486213435E+04  0.15486213435E+04  0.25500000920E-02 0. -1.
       -2   -1    0    0    0  501  0.00000000000E+00  0.00000000000E+00 -0.25542748591E+04  0.25542748591E+04  0.25500000920E-02 0.  1.
    10030    2    1    2    0    0  0.00000000000E+00  0.00000000000E+00 -0.10056535155E+04  0.41028962026E+04  0.39777403455E+04 0.  0.
        1    1    3    3  502    0  0.16930013109E+04 -0.58511302790E+03  0.38865532434E+03  0.18329385301E+04  0.50400001928E-02 0. -1.
       -1    1    3    3    0  502 -0.16930013109E+04  0.58511302790E+03 -0.13943088399E+04  0.22699576725E+04  0.50400001928E-02 0.  1.
</event>
<event>
 5   0  0.1351000E-07  0.4167425E+04  0.7818609E-02  0.7971598E-01
        1   -1    0    0  501    0  0.00000000000E+00  0.00000000000E+00  0.16436064721E+04  0.16436064721E+04  0.50400001928E-02 0.  1.
       -1   -1    0    0    0  501  0.00000000000E+00  0.00000000000E+00 -0.26416653283E+04  0.26416653283E+04  0.50400001928E-02 0. -1.
    10030    2    1    2    0    0  0.00000000000E+00  0.00000000000E+00 -0.99805885619E+03  0.42852718004E+04  0.41674252150E+04 0.  0.
        3    1    3    3  502    0  0.20423652040E+04  0.29404026717E+03 -0.20075272440E+03  0.20731659296E+04  0.10100000352E+00 0.  1.
       -3    1    3    3    0  502 -0.20423652040E+04 -0.29404026717E+03 -0.79730613179E+03  0.22121058707E+04  0.10100000352E+00 0. -1.
</event>
<event>
 5   0  0.4149487E-07  0.3880585E+04  0.7818609E-02  0.8029079E-01
       -2   -1    0    0    0  501  0.00000000000E+00  0.00000000000E+00  0.18877795053E+04  0.18877795053E+04  0.25500000920E-02 0. -1.
        2   -1    0    0  501    0  0.00000000000E+00  0.00000000000E+00 -0.19942659729E+04  0.19942659729E+04  0.25500000920E-02 0.  1.
    10030    2    1    2    0    0  0.00000000000E+00  0.00000000000E+00 -0.10648646759E+03  0.38820454782E+04  0.38805847146E+04 0.  0.
        2    1    3    3  502    0  0.27096229409E+03 -0.80199796146E+03  0.16932985961E+04  0.18931142148E+04  0.25500000920E-02 0. -1.
       -2    1    3    3    0  502 -0.27096229409E+03  0.80199796146E+03 -0.17997850637E+04  0.19889312634E+04  0.25500000920E-02 0.  1.
</event>
<event>
 5   0  0.1351000E-07  0.4002739E+04  0.7818609E-02  0.8003994E-01
       -1   -1    0    0    0  501  0.00000000000E+00  0.00000000000E+00  0.14014869564E+04  0.14014869564E+04  0.50400001928E-02 0.  1.
        1   -1    0    0  501    0  0.00000000000E+00  0.00000000000E+00 -0.28580209578E+04  0.28580209578E+04  0.50400001928E-02 0. -1.
    10030    2    1    2    0    0  0.00000000000E+00  0.00000000000E+00 -0.14565340014E+04  0.42595079142E+04  0.40027386092E+04 0.  0.
        4    1    3    3  502    0  0.14161500285E+04 -0.10572063480E+04 -0.17278367944E+04  0.24715557381E+04  0.12699999809E+01 0.  1.
       -4    1    3    3    0  502 -0.14161500285E+04  0.10572063480E+04  0.27130279301E+03  0.17879521761E+04  0.12699999809E+01 0. -1.
</event>
<event>
 5   0  0.1368865E-07  0.3448521E+04  0.7818609E-02  0.8126099E-01
        1   -1    0    0  501    0  0.00000000000E+00  0.00000000000E+00  0.17606248023E+04  0.17606248023E+04  0.50400001928E-02 0. -1.
       -1   -1    0    0    0  501  0.00000000000E+00  0.00000000000E+00 -0.16886469336E+04  0.16886469336E+04  0.50400001928E-02 0.  1.
    10030    2    1    2    0    0  0.00000000000E+00  0.00000000000E+00  0.71977868629E+02  0.34492717359E+04  0.34485206531E+04 0.  0.
        5    1    3    3  502    0  0.44322263922E+03  0.91827682605E+03 -0.13547717244E+04  0.16956140930E+04  0.46999998093E+01 0.  1.
       -5    1    3    3    0  502 -0.44322263922E+03 -0.91827682605E+03  0.14267495931E+04  0.17536576429E+04  0.46999998093E+01 0. -1.
</event>
<event>
 5   0  0.4047916E-07  0.4025150E+04  0.7818609E-02  0.7999492E-01
        2   -1    0    0  501    0  0.00000000000E+00  0.00000000000E+00  0.14735261331E+04  0.14735261331E+04  0.25500000920E-02 0.  1.
       -2   -1    0    0    0  501  0.00000000000E+00  0.00000000000E+00 -0.27488195517E+04  0.27488195517E+04  0.25500000920E-02 0. -1.
    10030    2    1    2    0    0  0.00000000000E+00  0.00000000000E+00 -0.12752934186E+04  0.42223456848E+04  0.40251496591E+04 0.  0.
        5    1    3    3  502    0  0.10364241813E+03  0.38080835731E+02  0.14703406516E+04  0.14744882579E+04  0.46999998093E+01 0.  1.
       -5    1    3    3    0  502 -0.10364241813E+03 -0.38080835731E+02 -0.27456340702E+04  0.27478574269E+04  0.46999998093E+01 0. -1.
</event>
<event>
 5   0  0.1368865E-07  0.3940133E+04  0.7818609E-02  0.8016734E-01
       -1   -1    0    0    0  501  0.00000000000E+00  0.00000000000E+00  0.18574610363E+04  0.18574610363E+04  0.50400001928E-02 0.  1.
        1   -1    0    0  501    0  0.00000000000E+00  0.00000000000E+00 -0.20894980562E+04  0.20894980562E+04  0.50400001928E-02 0. -1.
    10030    2    1    2    0    0  0.00000000000E+00  0.00000000000E+00 -0.23203701992E+03  0.39469590926E+04  0.39401325993E+04 0.  0.
        5    1    3    3  502    0  0.16568495105E+04  0.80432063488E+03  0.58451932267E+03  0.19322957622E+04  0.46999998093E+01 0. -1.
       -5    1    3    3    0  502 -0.16568495105E+04 -0.80432063488E+03 -0.81655634260E+03  0.20146633304E+04  0.46999998093E+01 0.  1.
</event>
<event>
 5   0  0.1421304E-07  0.4047808E+04  0.7818609E-02  0.7994971E-01
        1   -1    0    0  501    0  0.00000000000E+00  0.00000000000E+00  0.24727306592E+04  0.24727306592E+04  0.50400001928E-02 0. -1.
       -1   -1    0    0    0  501  0.00000000000E+00  0.00000000000E+00 -0.16565438066E+04  0.16565438066E+04  0.50400001928E-02 0.  1.
    10030    2    1    2    0    0  0.00000000000E+00  0.00000000000E+00  0.81618685260E+03  0.41292744657E+04  0.40478076331E+04 0.  0.
        2    1    3    3  502    0 -0.19375532440E+04 -0.58396707605E+03  0.44125206803E+03  0.20711913255E+04  0.25500000920E-02 0. -1.
       -2    1    3    3    0  502  0.19375532440E+04  0.58396707605E+03  0.37493478457E+03  0.20580831402E+04  0.25500000920E-02 0.  1.
</event>
<event>
 5   0  0.4301754E-07  0.4015828E+04  0.7818609E-02  0.8001361E-01
       -2   -1    0    0    0  501  0.00000000000E+00  0.00000000000E+00  0.12819380581E+04  0.12819380581E+04  0.25500000920E-02 0. -1.
        2   -1    0    0  501    0  0.00000000000E+00  0.00000000000E+00 -0.31450180506E+04  0.31450180506E+04  0.25500000920E-02 0.  1.
    10030    2    1    2    0    0  0.00000000000E+00  0.00000000000E+00 -0.18630799925E+04  0.44269561087E+04  0.40158278511E+04 0.  0.
        1    1    3    3  502    0  0.12096289473E+04 -0.14394918880E+04 -0.15486926960E+03  0.18866169660E+04  0.50400001928E-02 0.  1.
       -1    1    3    3    0  502 -0.12096289473E+04  0.14394918880E+04 -0.17082107229E+04  0.25403391426E+04  0.50400001928E-02 0. -1.
</event>
<event>
 5   0  0.1351000E-07  0.3990960E+04  0.7818609E-02  0.8006373E-01
        1   -1    0    0  501    0  0.00000000000E+00  0.00000000000E+00  0.16722943074E+04  0.16722943074E+04  0.50400001928E-02 0.  1.
       -1   -1    0    0    0  501  0.00000000000E+00  0.00000000000E+00 -0.23811241377E+04  0.23811241377E+04  0.50400001928E-02 0. -1.
    10030    2    1    2    0    0  0.00000000000E+00  0.00000000000E+00 -0.70882983036E+03  0.40534184451E+04  0.39909599551E+04 0.  0.
        4    1    3    3  502    0  0.12571805945E+04  0.10619966122E+03 -0.19246233725E+04  0.23012948864E+04  0.12699999809E+01 0. -1.
       -4    1    3    3    0  502 -0.12571805945E+04 -0.10619966122E+03  0.12157935421E+04  0.17521235588E+04  0.12699999809E+01 0.  1.
</event>
<event>
 5   0  0.4301754E-07  0.3994728E+04  0.7818609E-02  0.8005611E-01
        2   -1    0    0  501    0  0.00000000000E+00  0.00000000000E+00  0.17775525084E+04  0.17775525084E+04  0.25500000920E-02 0.  1.
       -2   -1    0    0    0  501  0.00000000000E+00  0.00000000000E+00 -0.22443578586E+04  0.22443578586E+04  0.25500000920E-02 0. -1.
    10030    2    1    2    0    0  0.00000000000E+00  0.00000000000E+00 -0.46680535017E+03  0.40219103670E+04  0.39947284970E+04 0.  0.
        1    1    3    3  502    0  0.26487763827E+03  0.60778467662E+03 -0.21303412810E+04  0.22311244586E+04  0.50400001928E-02 0. -1.
       -1    1    3    3    0  502 -0.26487763827E+03 -0.60778467662E+03  0.16635359308E+04  0.17907859083E+04  0.50400001928E-02 0.  1.
</event>
<event>
 5   0  0.4301754E-07  0.3183802E+04  0.7818609E-02  0.8193108E-01
       -2   -1    0    0    0  501  0.00000000000E+00  0.00000000000E+00  0.15489227135E+04  0.15489227135E+04  0.25500000920E-02 0. -1.
        2   -1    0    0  501    0  0.00000000000E+00  0.00000000000E+00 -0.16360717316E+04  0.16360717316E+04  0.25500000920E-02 0.  1.
    10030    2    1    2    0    0  0.00000000000E+00  0.00000000000E+00 -0.87149018159E+02  0.31849944451E+04  0.31838019197E+04 0.  0.
        1    1    3    3  502    0 -0.16726347121E+03 -0.93179489001E+03  0.12367212054E+04  0.15574652888E+04  0.50400001928E-02 0. -1.
       -1    1    3    3    0  502  0.16726347121E+03  0.93179489001E+03 -0.13238702236E+04  0.16275291563E+04  0.50400001928E-02 0.  1.
</event>
<event>
 5   0  0.1351000E-07  0.3976238E+04  0.7818609E-02  0.8009357E-01
       -1   -1    0    0    0  501  0.00000000000E+00  0.00000000000E+00  0.18835965385E+04  0.18835965385E+04  0.50400001928E-02 0. -1.
        1   -1    0    0  501    0  0.00000000000E+00  0.00000000000E+00 -0.20984418667E+04  0.20984418667E+04  0.50400001928E-02 0.  1.
    10030    2    1    2    0    0  0.00000000000E+00  0.00000000000E+00 -0.21484532821E+03  0.39820384053E+04  0.39762383412E+04 0.  0.
        4    1    3    3  502    0 -0.24869203392E+03 -0.92754010464E+03 -0.18507772418E+04  0.20850794673E+04  0.12699999809E+01 0.  1.
       -4    1    3    3    0  502  0.24869203392E+03  0.92754010464E+03  0.16359319136E+04  0.18969589379E+04  0.12699999809E+01 0. -1.
</event>
<event>
 5   0  0.1351000E-07  0.4088784E+04  0.7818609E-02  0.7986872E-01
       -1   -1    0    0    0  501  0.00000000000E+00  0.00000000000E+00  0.16422786570E+04  0.16422786570E+04  0.50400001928E-02 0. -1.
        1   -1    0    0  501    0  0.00000000000E+00  0.00000000000E+00 -0.25449632540E+04  0.25449632540E+04  0.50400001928E-02 0.  1.
    10030    2    1    2    0    0  0.00000000000E+00  0.00000000000E+00 -0.90268459703E+03  0.41872419111E+04  0.40887840907E+04 0.  0.
        3    1    3    3  502    0  0.12786557136E+04 -0.15150981048E+04 -0.96241476721E+03  0.22037978346E+04  0.10100000352E+00 0.  1.
       -3    1    3    3    0  502 -0.12786557136E+04  0.15150981048E+04  0.59730170173E+02  0.19834440765E+04  0.10100000352E+00 0. -1.
</event>
<event>
 5   0  0.4079777E-07  0.3990599E+04  0.7818609E-02  0.8006446E-01
        2   -1    0    0  501    0  0.00000000000E+00  0.00000000000E+00  0.23232488883E+04  0.23232488883E+04  0.25500000920E-02 0. -1.
       -2   -1    0    0    0  501  0.00000000000E+00  0.00000000000E+00 -0.17136437557E+04  0.17136437557E+04  0.25500000920E-02 0.  1.
    10030    2    1    2    0    0  0.00000000000E+00  0.00000000000E+00  0.60960513256E+03  0.40368926441E+04  0.39905994289E+04 0.  0.
        4    1    3    3  502    0 -0.18281195390E+04 -0.60557011406E+03 -0.22325208235E+03  0.19387055777E+04  0.12699999809E+01 0.  1.
       -4    1    3    3    0  502  0.18281195390E+04  0.60557011406E+03  0.83285721490E+03  0.20981870663E+04  0.12699999809E+01 0. -1.
</event>
<event>
 5   0  0.1351000E-07  0.3862692E+04  0.7818609E-02  0.8032834E-01
       -1   -1    0    0    0  501  0.00000000000E+00  0.00000000000E+00  0.13774947506E+04  0.13774947506E+04  0.50400001928E-02 0.  1.
        1   -1    0    0  501    0  0.00000000000E+00  0.00000000000E+00 -0.27078844640E+04  0.27078844640E+04  0.50400001928E-02 0. -1.
    10030    2    1    2    0    0  0.00000000000E+00  0.00000000000E+00 -0.13303897134E+04  0.40853792146E+04  0.38626916183E+04 0.  0.
        4    1    3    3  502    0  0.33822020642E+03 -0.18987870820E+04 -0.77258539021E+03  0.20776609658E+04  0.12699999809E+01 0. -1.
       -4    1    3    3    0  502 -0.33822020642E+03  0.18987870820E+04 -0.55780432318E+03  0.20077182488E+04  0.12699999809E+01 0.  1.
</event>
<event>
 5   0  0.1372952E-07  0.4008360E+04  0.7818609E-02  0.8002862E-01
       -1   -1    0    0    0  501  0.00000000000E+00  0.00000000000E+00  0.28556414958E+04  0.28556414958E+04  0.50400001928E-02 0.  1.
        1   -1    0    0  501    0  0.00000000000E+00  0.00000000000E+00 -0.14065973692E+04  0.14065973692E+04  0.50400001928E-02 0. -1.
    10030    2    1    2    0    0  0.00000000000E+00  0.00000000000E+00  0.14490441266E+04  0.42622388650E+04  0.40083601711E+04 0.  0.
        1    1    3    3  502    0  0.16027101354E+04  0.10956735941E+04  0.12535870413E+04  0.23109869911E+04  0.50400001928E-02 0.  1.
       -1    1    3    3    0  502 -0.16027101354E+04 -0.10956735941E+04  0.19545708527E+03  0.19512518739E+04  0.50400001928E-02 0. -1.
</event>
<event>
 5   0  0.1368865E-07  0.4074694E+04  0.7818609E-02  0.7989646E-01
       -1   -1    0    0    0  501  0.00000000000E+00  0.00000000000E+00  0.24289371893E+04  0.24289371893E+04  0.50400001928E-02 0.  1.
        1   -1    0    0  501    0  0.00000000000E+00  0.00000000000E+00 -0.17088881956E+04  0.17088881956E+04  0.50400001928E-02 0. -1.
    10030    2    1    2    0    0  0.00000000000E+00  0.00000000000E+00  0.72004899367E+03  0.41378253849E+04  0.40746936526E+04 0.  0.
        5    1    3    3  502    0 -0.13385517132E+03  0.17180191159E+04  0.14637184916E+04  0.22609734191E+04  0.46999998093E+01 0.  1.
       -5    1    3    3    0  502  0.13385517132E+03 -0.17180191159E+04 -0.74366949790E+03  0.18768519658E+04  0.46999998093E+01 0. -1.
</event>
<event>
 5   0  0.4079777E-07  0.3869504E+04  0.7818609E-02  0.8031402E-01
       -2   -1    0    0    0  501  0.00000000000E+00  0.00000000000E+00  0.23085130660E+04  0.23085130660E+04  0.25500000920E-02 0. -1.
        2   -1    0    0  501    0  0.00000000000E+00  0.00000000000E+00 -0.16215051598E+04  0.16215051598E+04  0.25500000920E-02 0.  1.
    10030    2    1    2    0    0  0.00000000000E+00  0.00000000000E+00  0.68700790620E+03  0.39300182258E+04  0.38695042824E+04 0.  0.
        4    1    3    3  502    0  0.36879194133E+03  0.32078322325E+03  0.22447716599E+04  0.22973704078E+04  0.12699999809E+01 0. -1.
       -4    1    3    3    0  502 -0.36879194133E+03 -0.32078322325E+03 -0.15577637537E+04  0.16326478180E+04  0.12699999809E+01 0.  1.
</event>
<event>
 5   0  0.4149487E-07  0.2885352E+04  0.7818609E-02  0.8277249E-01
       -2   -1    0    0    0  501  0.00000000000E+00  0.00000000000E+00  0.10376495631E+04  0.10376495631E+04  0.25500000920E-02 0. -1.
        2   -1    0    0  501    0  0.00000000000E+00  0.00000000000E+00 -0.20057962378E+04  0.20057962378E+04  0.25500000920E-02 0.  1.
    10030    2    1    2    0    0  0.00000000000E+00  0.00000000000E+00 -0.96814667465E+03  0.30434458009E+04  0.28853516873E+04 0.  0.
        2    1    3    3  502    0  0.59211946517E+03  0.13109506661E+04 -0.60017944084E+03  0.15586572655E+04  0.25500000920E-02 0. -1.
       -2    1    3    3    0  502 -0.59211946517E+03 -0.13109506661E+04 -0.36796723381E+03  0.14847885355E+04  0.25500000920E-02 0.  1.
</event>
<event>
 5   0  0.1368865E-07  0.3850755E+04  0.7818609E-02  0.8035350E-01
       -1   -1    0    0    0  501  0.00000000000E+00  0.00000000000E+00  0.25271411247E+04  0.25271411247E+04  0.50400001928E-02 0.  1.
        1   -1    0    0  501    0  0.00000000000E+00  0.00000000000E+00 -0.14669056743E+04  0.14669056743E+04  0.50400001928E-02 0. -1.
    10030    2    1    2    0    0  0.00000000000E+00  0.00000000000E+00  0.10602354504E+04  0.39940467991E+04  0.38507545524E+04 0.  0.
        5    1    3    3  502    0  0.11854886016E+03  0.17989673540E+04  0.12310748710E+04  0.21830952341E+04  0.46999998093E+01 0. -1.
       -5    1    3    3    0  502 -0.11854886016E+03 -0.17989673540E+04 -0.17083942064E+03  0.18109515650E+04  0.46999998093E+01 0.  1.
</event>
<event>
 5   0  0.1372952E-07  0.3974861E+04  0.7818609E-02  0.8009637E-01
       -1   -1    0    0    0  501  0.00000000000E+00  0.00000000000E+00  0.16532468996E+04  0.16532468996E+04  0.50400001928E-02 0. -1.
        1   -1    0    0  501    0  0.00000000000E+00  0.00000000000E+00 -0.23891647945E+04  0.23891647945E+04  0.50400001928E-02 0.  1.
    10030    2    1    2    0    0  0.00000000000E+00  0.00000000000E+00 -0.73591789492E+03  0.40424116941E+04  0.39748606462E+04 0.  0.
        1    1    3    3  502    0 -0.26053240411E+03 -0.14203267055E+04  0.10207784016E+04  0.17683872962E+04  0.50400001928E-02 0. -1.
       -1    1    3    3    0  502  0.26053240411E+03  0.14203267055E+04 -0.17566962965E+04  0.22740243979E+04  0.50400001928E-02 0.  1.
</event>
<event>
 5   0  0.4077370E-07  0.3318824E+04  0.7818609E-02  0.8158122E-01
       -2   -1    0    0    0  501  0.00000000000E+00  0.00000000000E+00  0.17278391781E+04  0.17278391781E+04  0.25500000920E-02 0.  1.
        2   -1    0    0  501    0  0.00000000000E+00  0.00000000000E+00 -0.15936946380E+04  0.15936946381E+04  0.25500000920E-02 0. -1.
    10030    2    1    2    0    0  0.00000000000E+00  0.00000000000E+00  0.13414454008E+03  0.33215338162E+04  0.33188239083E+04 0.  0.
        3    1    3    3  502    0 -0.52351141778E+03  0.34336870995E+03 -0.14709589631E+04  0.15986514808E+04  0.10100000352E+00 0. -1.
       -3    1    3    3    0  502  0.52351141778E+03 -0.34336870995E+03  0.16051035032E+04  0.17228823354E+04  0.10100000352E+00 0.  1.
</event>
<event>
 5   0  0.4079777E-07  0.2760664E+04  0.7818609E-02  0.8315586E-01
       -2   -1    0    0    0  501  0.00000000000E+00  0.00000000000E+00  0.16434526610E+04  0.16434526610E+04  0.25500000920E-02 0. -1.
        2   -1    0    0  501    0  0.00000000000E+00  0.00000000000E+00 -0.11593377455E+04  0.11593377455E+04  0.25500000920E-02 0.  1.
    10030    2    1    2    0    0  0.00000000000E+00  0.00000000000E+00  0.48411491550E+03  0.28027904064E+04  0.27606641974E+04 0.  0.
        4    1    3    3  502    0 -0.53387617966E+03  0.11736769872E+04 -0.25818184238E+03  0.13149908449E+04  0.12699999809E+01 0.  1.
       -4    1    3    3    0  502  0.53387617966E+03 -0.11736769872E+04  0.74229675788E+03  0.14877995615E+04  0.12699999809E+01 0. -1.
</event>
<event>
 5   0  0.4079777E-07  0.3916586E+04  0.7818609E-02  0.8021588E-01
       -2   -1    0    0    0  501  0.00000000000E+00  0.00000000000E+00  0.17650304992E+04  0.17650304992E+04  0.25500000920E-02 0. -1.
        2   -1    0    0  501    0  0.00000000000E+00  0.00000000000E+00 -0.21727171157E+04  0.21727171157E+04  0.25500000920E-02 0.  1.
    10030    2    1    2    0    0  0.00000000000E+00  0.00000000000E+00 -0.40768661646E+03  0.39377476149E+04  0.39165862560E+04 0.  0.
        4    1    3    3  502    0 -0.98341906013E+03  0.26155733895E+03 -0.18860195805E+04  0.21430344748E+04  0.12699999809E+01 0.  1.
       -4    1    3    3    0  502  0.98341906013E+03 -0.26155733895E+03  0.14783329641E+04  0.17947131400E+04  0.12699999809E+01 0. -1.
</event>
<event>
 5   0  0.1351000E-07  0.4104380E+04  0.7818609E-02  0.7983815E-01
       -1   -1    0    0    0  501  0.00000000000E+00  0.00000000000E+00  0.20280873269E+04  0.20280873269E+04  0.50400001928E-02 0.  1.
        1   -1    0    0  501    0  0.00000000000E+00  0.00000000000E+00 -0.20765792982E+04  0.20765792982E+04  0.50400001928E-02 0. -1.
    10030    2    1    2    0    0  0.00000000000E+00  0.00000000000E+00 -0.48491971287E+02  0.41046666251E+04  0.41043801764E+04 0.  0.
        3    1    3    3  502    0 -0.14472157192E+04  0.17274728073E+03 -0.14690644981E+04  0.20694022013E+04  0.10100000352E+00 0. -1.
       -3    1    3    3    0  502  0.14472157192E+04 -0.17274728073E+03  0.14205725268E+04  0.20352644239E+04  0.10100000352E+00 0.  1.
</event>
<event>
 5   0  0.1351000E-07  0.3927921E+04  0.7818609E-02  0.8019247E-01
       -1   -1    0    0    0  501  0.00000000000E+00  0.00000000000E+00  0.22032971185E+04  0.22032971185E+04  0.50400001928E-02 0.  1.
        1   -1    0    0  501    0  0.00000000000E+00  0.00000000000E+00 -0.17506218944E+04  0.17506218944E+04  0.50400001928E-02 0. -1.
    10030    2    1    2    0    0  0.00000000000E+00  0.00000000000E+00  0.45267522407E+03  0.39539190129E+04  0.39279206588E+04 0.  0.
        3    1    3    3  502    0 -0.17395894876E+04 -0.90885224496E+03  0.15547152442E+03  0.19688462087E+04  0.10100000352E+00 0.  1.
       -3    1    3    3    0  502  0.17395894876E+04  0.90885224496E+03  0.29720369965E+03  0.19850728042E+04  0.10100000352E+00 0. -1.
</event>
<event>
 5   0  0.1372952E-07  0.4037594E+04  0.7818609E-02  0.7997005E-01
       -1   -1    0    0    0  501  0.00000000000E+00  0.00000000000E+00  0.27614071238E+04  0.27614071238E+04  0.50400001928E-02 0. -1.
        1   -1    0    0  501    0  0.00000000000E+00  0.00000000000E+00 -0.14758926956E+04  0.14758926957E+04  0.50400001928E-02 0.  1.
    10030    2    1    2    0    0  0.00000000000E+00  0.00000000000E+00  0.12855144282E+04  0.42372998195E+04  0.40375936417E+04 0.  0.
        1    1    3    3  502    0 -0.81433101538E+02  0.15646421971E+04 -0.69332087899E+03  0.17133097783E+04  0.50400001928E-02 0.  1.
       -1    1    3    3    0  502  0.81433101538E+02 -0.15646421971E+04  0.19788353072E+04  0.25239900412E+04  0.50400001928E-02 0. -1.
</event>
<event>
 5   0  0.1421304E-07  0.4009777E+04  0.7818609E-02  0.8002577E-01
        1   -1    0    0  501    0  0.00000000000E+00  0.00000000000E+00  0.14823976665E+04  0.14823976665E+04  0.50400001928E-02 0. -1.
       -1   -1    0    0    0  501  0.00000000000E+00  0.00000000000E+00 -0.27115376325E+04  0.27115376325E+04  0.50400001928E-02 0.  1.
    10030    2    1    2    0    0  0.00000000000E+00  0.00000000000E+00 -0.12291399660E+04  0.41939352990E+04  0.40097765819E+04 0.  0.
        2    1    3    3  502    0  0.55052764047E+03  0.10308884094E+03  0.13989066165E+04  0.15068668534E+04  0.25500000920E-02 0. -1.
       -2    1    3    3    0  502 -0.55052764047E+03 -0.10308884094E+03 -0.26280465825E+04  0.26870684457E+04  0.25500000920E-02 0.  1.
</event>
<event>
 5   0  0.4077370E-07  0.4203102E+04  0.7818609E-02  0.7964782E-01
        2   -1    0    0  501    0  0.00000000000E+00  0.00000000000E+00  0.28289191366E+04  0.28289191366E+04  0.25500000920E-02 0. -1.
       -2   -1    0    0    0  501  0.00000000000E+00  0.00000000000E+00 -0.15612031831E+04  0.15612031831E+04  0.25500000920E-02 0.  1.
    10030    2    1    2    0    0  0.00000000000E+00  0.00000000000E+00  0.12677159534E+04  0.43901223197E+04  0.42031024545E+04 0.  0.
        3    1    3    3  502    0  0.39341282342E+03  0.63795498392E+03 -0.14168563546E+04  0.16028855701E+04  0.10100000352E+00 0.  1.
       -3    1    3    3    0  502 -0.39341282342E+03 -0.63795498392E+03  0.26845723080E+04  0.27872367496E+04  0.10100000352E+00 0. -1.
</event>
<event>
 5   0  0.4077370E-07  0.4429433E+04  0.7818609E-02  0.7923109E-01
        2   -1    0    0  501    0  0.00000000000E+00  0.00000000000E+00  0.15333302787E+04  0.15333302787E+04  0.25500000920E-02 0.  1.
       -2   -1    0    0    0  501  0.00000000000E+00  0.00000000000E+00 -0.31988990414E+04  0.31988990414E+04  0.25500000920E-02 0. -1.
    10030    2    1    2    0    0  0.00000000000E+00  0.00000000000E+00 -0.16655687627E+04  0.47322293201E+04  0.44294328118E+04 0.  0.
        3    1    3    3  502    0  0.17035106073E+04 -0.81432402279E+03 -0.20694529695E+04  0.28013760202E+04  0.10100000352E+00 0. -1.
       -3    1    3    3    0  502 -0.17035106073E+04  0.81432402279E+03  0.40388420677E+03  0.19308532999E+04  0.10100000352E+00 0.  1.
</event>
<event>
 5   0  0.1351000E-07  0.3251725E+04  0.7818609E-02  0.8175289E-01
       -1   -1    0    0    0  501  0.00000000000E+00  0.00000000000E+00  0.13353109012E+04  0.13353109012E+04  0.50400001928E-02 0.  1.
        1   -1    0    0  501    0  0.00000000000E+00  0.00000000000E+00 -0.19796356032E+04  0.19796356032E+04  0.50400001928E-02 0. -1.
    10030    2    1    2    0    0  0.00000000000E+00  0.00000000000E+00 -0.64432470205E+03  0.33149465044E+04  0.32517250815E+04 0.  0.
        3    1    3    3  502    0 -0.11910897740E+03 -0.15385917282E+04 -0.84395112419E+03  0.17588931078E+04  0.10100000352E+00 0. -1.
       -3    1    3    3    0  502  0.11910897740E+03  0.15385917282E+04  0.19962642214E+03  0.15560533966E+04  0.10100000352E+00 0.  1.
</event>
<event>
 5   0  0.4149487E-07  0.4107210E+04  0.7818609E-02  0.7983261E-01
        2   -1    0    0  501    0  0.00000000000E+00  0.00000000000E+00  0.30273600304E+04  0.30273600304E+04  0.25500000920E-02 0.  1.
       -2   -1    0    0    0  501  0.00000000000E+00  0.00000000000E+00 -0.13930598402E+04  0.13930598402E+04  0.25500000920E-02 0. -1.
    10030    2    1    2    0    0  0.00000000000E+00  0.00000000000E+00  0.16343001902E+04  0.44204198705E+04  0.41072100896E+04 0.  0.
        2    1    3    3  502    0  0.52325557688E+03  0.11351015813E+04  0.25708378761E+04  0.28585764611E+04  0.25500000920E-02 0.  1.
       -2    1    3    3    0  502 -0.52325557688E+03 -0.11351015813E+04 -0.93653768591E+03  0.15618434095E+04  0.25500000920E-02 0. -1.
</event>
<event>
 5   0  0.4301754E-07  0.3980289E+04  0.7818609E-02  0.8008535E-01
       -2   -1    0    0    0  501  0.00000000000E+00  0.00000000000E+00  0.22192204191E+04  0.22192204191E+04  0.25500000920E-02 0.  1.
        2   -1    0    0  501    0  0.00000000000E+00  0.00000000000E+00 -0.17847142858E+04  0.17847142858E+04  0.25500000920E-02 0. -1.
    10030    2    1    2    0    0  0.00000000000E+00  0.00000000000E+00  0.43450613334E+03  0.40039347049E+04  0.39802886253E+04 0.  0.
        1    1    3    3  502    0 -0.90090492712E+03 -0.12010441058E+04 -0.10968528518E+04  0.18593608607E+04  0.50400001928E-02 0. -1.
       -1    1    3    3    0  502  0.90090492712E+03  0.12010441058E+04  0.15313589852E+04  0.21445738442E+04  0.50400001928E-02 0.  1.
</event>
<event>
 5   0  0.4079777E-07  0.4009008E+04  0.7818609E-02  0.8002732E-01
       -2   -1    0    0    0  501  0.00000000000E+00  0.00000000000E+00  0.27433540300E+04  0.27433540300E+04  0.25500000920E-02 0.  1.
        2   -1    0    0  501    0  0.00000000000E+00  0.00000000000E+00 -0.14646439462E+04  0.14646439462E+04  0.25500000920E-02 0. -1.
    10030    2    1    2    0    0  0.00000000000E+00  0.00000000000E+00  0.12787100837E+04  0.42079979762E+04  0.40090082925E+04 0.  0.
        4    1    3    3  502    0  0.39304106080E+03  0.17657096812E+04 -0.26712144370E+03  0.18285424338E+04  0.12699999809E+01 0. -1.
       -4    1    3    3    0  502 -0.39304106080E+03 -0.17657096812E+04  0.15458315274E+04  0.23794555423E+04  0.12699999809E+01 0.  1.
</event>
<event>
 5   0  0.1368865E-07  0.3033792E+04  0.7818609E-02  0.8234147E-01
        1   -1    0    0  501    0  0.00000000000E+00  0.00000000000E+00  0.24421190786E+04  0.24421190786E+04  0.50400001928E-02 0. -1.
       -1   -1    0    0    0  501  0.00000000000E+00  0.00000000000E+00 -0.94220394366E+03  0.94220394368E+03  0.50400001928E-02 0.  1.
    10030    2    1    2    0    0  0.00000000000E+00  0.00000000000E+00  0.14999151349E+04  0.33843230222E+04  0.30337924957E+04 0.  0.
        5    1    3    3  502    0  0.24981520535E+03  0.14432486345E+04  0.30995029074E+03  0.14971524740E+04  0.46999998093E+01 0. -1.
       -5    1    3    3    0  502 -0.24981520535E+03 -0.14432486345E+04  0.11899648441E+04  0.18871705482E+04  0.46999998093E+01 0.  1.
</event>
<event>
 5   0  0.4301754E-07  0.3830858E+04  0.7818609E-02  0.8039565E-01
        2   -1    0    0  501    0  0.00000000000E+00  0.00000000000E+00  0.24479001048E+04  0.24479001048E+04  0.25500000920E-02 0. -1.
       -2   -1    0    0    0  501  0.00000000000E+00  0.00000000000E+00 -0.14987818512E+04  0.14987818512E+04  0.25500000920E-02 0.  1.
    10030    2    1    2    0    0  0.00000000000E+00  0.00000000000E+00  0.94911825368E+03  0.39466819560E+04  0.38308579982E+04 0.  0.
        1    1    3    3  502    0  0.16165306714E+04  0.10053061652E+04  0.69324165987E+03  0.20259308715E+04  0.50400001928E-02 0.  1.
       -1    1    3    3    0  502 -0.16165306714E+04 -0.10053061652E+04  0.25587659381E+03  0.19207510845E+04  0.50400001928E-02 0. -1.
</event>
<event>
 5   0  0.4077370E-07  0.3902085E+04  0.7818609E-02  0.8024596E-01
        2   -1    0    0  501    0  0.00000000000E+00  0.00000000000E+00  0.23785300513E+04  0.23785300513E+04  0.25500000920E-02 0. -1.
       -2   -1    0    0    0  501  0.00000000000E+00  0.00000000000E+00 -0.16003865860E+04  0.16003865860E+04  0.25500000920E-02 0.  1.
    10030    2    1    2    0    0  0.00000000000E+00  0.00000000000E+00  0.77814346534E+03  0.39789166373E+04  0.39020853853E+04 0.  0.
        3    1    3    3  502    0 -0.15263805498E+03  0.19052354418E+04  0.78837776890E+03  0.20675492693E+04  0.10100000352E+00 0. -1.
       -3    1    3    3    0  502  0.15263805498E+03 -0.19052354418E+04 -0.10234303556E+02  0.19113673680E+04  0.10100000352E+00 0.  1.
</event>
<event>
 5   0  0.1351000E-07  0.3900890E+04  0.7818609E-02  0.8024844E-01
        1   -1    0    0  501    0  0.00000000000E+00  0.00000000000E+00  0.22385554870E+04  0.22385554870E+04  0.50400001928E-02 0.  1.
       -1   -1    0    0    0  501  0.00000000000E+00  0.00000000000E+00 -0.16994154057E+04  0.16994154057E+04  0.50400001928E-02 0. -1.
    10030    2    1    2    0    0  0.00000000000E+00  0.00000000000E+00  0.53914008126E+03  0.39379708927E+04  0.39008899913E+04 0.  0.
        4    1    3    3  502    0  0.33911964713E+03  0.49964629564E+03  0.21418114834E+04  0.22253104500E+04  0.12699999809E+01 0.  1.
       -4    1    3    3    0  502 -0.33911964713E+03 -0.49964629564E+03 -0.16026714021E+04  0.17126604426E+04  0.12699999809E+01 0. -1.
</event>
<event>
 5   0  0.4047916E-07  0.4030872E+04  0.7818609E-02  0.7998347E-01
        2   -1    0    0  501    0  0.00000000000E+00  0.00000000000E+00  0.12497780743E+04  0.12497780743E+04  0.25500000920E-02 0.  1.
       -2   -1    0    0    0  501  0.00000000000E+00  0.00000000000E+00 -0.32501632421E+04  0.32501632421E+04  0.25500000920E-02 0. -1.
    10030    2    1    2    0    0  0.00000000000E+00  0.00000000000E+00 -0.20003851679E+04  0.44999413164E+04  0.40308722420E+04 0.  0.
        5    1    3    3  502    0 -0.17562878484E+04 -0.49438401293E+03 -0.19559754569E+04  0.26748503951E+04  0.46999998093E+01 0.  1.
       -5    1    3    3    0  502  0.17562878484E+04  0.49438401293E+03 -0.44409711009E+02  0.18250909213E+04  0.46999998093E+01 0. -1.
</event>
<event>
 5   0  0.4149487E-07  0.2481334E+04  0.7818609E-02  0.8409666E-01
       -2   -1    0    0    0  501  0.00000000000E+00  0.00000000000E+00  0.78382763069E+03  0.78382763069E+03  0.25500000920E-02 0. -1.
        2   -1    0    0  501    0  0.00000000000E+00  0.00000000000E+00 -0.19637664688E+04  0.19637664688E+04  0.25500000920E-02 0.  1.
    10030    2    1    2    0    0  0.00000000000E+00  0.00000000000E+00 -0.11799388381E+04  0.27475940995E+04  0.24813338497E+04 0.  0.
        2    1    3    3  502    0  0.26760354907E+03  0.11570642795E+04 -0.19250232437E+03  0.12031070406E+04  0.25500000920E-02 0. -1.
       -2    1    3    3    0  502 -0.26760354907E+03 -0.11570642795E+04 -0.98743651371E+03  0.15444870588E+04  0.25500000920E-02 0.  1.
</event>
<event>
 5   0  0.4149487E-07  0.2612426E+04  0.7818609E-02  0.8363993E-01
        2   -1    0    0  501    0  0.00000000000E+00  0.00000000000E+00  0.15229037997E+04  0.15229037997E+04  0.25500000920E-02 0. -1.
       -2   -1    0    0    0  501  0.00000000000E+00  0.00000000000E+00 -0.11203544301E+04  0.11203544301E+04  0.25500000920E-02 0.  1.
    10030    2    1    2    0    0  0.00000000000E+00  0.00000000000E+00  0.40254936967E+03  0.26432582298E+04  0.26124257070E+04 0.  0.
        2    1    3    3  502    0 -0.11243929606E+03 -0.12921121196E+04  0.35800835356E+03  0.13454985344E+04  0.25500000920E-02 0. -1.
       -2    1    3    3    0  502  0.11243929606E+03  0.12921121196E+04  0.44541016104E+02  0.12977596954E+04  0.25500000920E-02 0.  1.
</event>
<event>
 5   0  0.1351000E-07  0.3870998E+04  0.7818609E-02  0.8031088E-01
        1   -1    0    0  501    0  0.00000000000E+00  0.00000000000E+00  0.19311788911E+04  0.19311788911E+04  0.50400001928E-02 0. -1.
       -1   -1    0    0    0  501  0.00000000000E+00  0.00000000000E+00 -0.19398289369E+04  0.19398289369E+04  0.50400001928E-02 0.  1.
    10030    2    1    2    0    0  0.00000000000E+00  0.00000000000E+00 -0.86500457750E+01  0.38710078280E+04  0.38709981634E+04 0.  0.
        3    1    3    3  502    0  0.79734935659E+03  0.14540250880E+04 -0.10024265741E+04  0.19377342438E+04  0.10100000352E+00 0.  1.
       -3    1    3    3    0  502 -0.79734935659E+03 -0.14540250880E+04  0.99377652832E+03  0.19332735842E+04  0.10100000352E+00 0. -1.
</event>
<event>
 5   0  0.1421304E-07  0.2746705E+04  0.7818609E-02  0.8320008E-01
        1   -1    0    0  501    0  0.00000000000E+00  0.00000000000E+00  0.18322022055E+04  0.18322022055E+04  0.50400001928E-02 0. -1.
       -1   -1    0    0    0  501  0.00000000000E+00  0.00000000000E+00 -0.10294151485E+04  0.10294151485E+04  0.50400001928E-02 0.  1.
    10030    2    1    2    0    0  0.00000000000E+00  0.00000000000E+00  0.80278705699E+03  0.28616173540E+04  0.27467047205E+04 0.  0.
        2    1    3    3  502    0 -0.44894523265E+03  0.76299065958E+03 -0.69248033710E+03  0.11239375364E+04  0.25500000920E-02 0.  1.
       -2    1    3    3    0  502  0.44894523265E+03 -0.76299065958E+03  0.14952673941E+04  0.17376798176E+04  0.25500000920E-02 0. -1.
</event>
<event>
 5   0  0.4301754E-07  0.3908838E+04  0.7818609E-02  0.8023194E-01
       -2   -1    0    0    0  501  0.00000000000E+00  0.00000000000E+00  0.21897191405E+04  0.21897191405E+04  0.25500000920E-02 0. -1.
        2   -1    0    0  501    0  0.00000000000E+00  0.00000000000E+00 -0.17444032977E+04  0.17444032977E+04  0.25500000920E-02 0.  1.
    10030    2    1    2    0    0  0.00000000000E+00  0.00000000000E+00  0.44531584274E+03  0.39341224382E+04  0.39088378271E+04 0.  0.
        1    1    3    3  502    0 -0.94091380309E+02 -0.11656079138E+04 -0.13534404688E+04  0.17886576249E+04  0.50400001928E-02 0.  1.
       -1    1    3    3    0  502  0.94091380309E+02  0.11656079138E+04  0.17987563116E+04  0.21454648133E+04  0.50400001928E-02 0. -1.
</event>
<event>
 5   0  0.4047916E-07  0.3971299E+04  0.7818609E-02  0.8010362E-01
        2   -1    0    0  501    0  0.00000000000E+00  0.00000000000E+00  0.32648335225E+04  0.32648335225E+04  0.25500000920E-02 0. -1.
       -2   -1    0    0    0  501  0.00000000000E+00  0.00000000000E+00 -0.12076587488E+04  0.12076587488E+04  0.25500000920E-02 0.  1.
    10030    2    1    2    0    0  0.00000000000E+00  0.00000000000E+00  0.20571747737E+04  0.44724922714E+04  0.39712994180E+04 0.  0.
        5    1    3    3  502    0  0.12933982139E+04 -0.88337702131E+03  0.24030860793E+04  0.28684627757E+04  0.46999998093E+01 0. -1.
       -5    1    3    3    0  502 -0.12933982139E+04  0.88337702131E+03 -0.34591130558E+03  0.16040294956E+04  0.46999998093E+01 0.  1.
</event>
<event>
 5   0  0.1368865E-07  0.4086019E+04  0.7818609E-02  0.7987415E-01
        1   -1    0    0  501    0  0.00000000000E+00  0.00000000000E+00  0.13848743484E+04  0.13848743484E+04  0.50400001928E-02 0.  1.
       -1   -1    0    0    0  501  0.00000000000E+00  0.00000000000E+00 -0.30139112367E+04  0.30139112367E+04  0.50400001928E-02 0. -1.
    10030    2    1    2    0    0  0.00000000000E+00  0.00000000000E+00 -0.16290368883E+04  0.43987855851E+04  0.40860192657E+04 0.  0.
        5    1    3    3  502    0  0.10785087440E+04  0.82403030016E+03  0.82934191215E+03  0.15906090481E+04  0.46999998093E+01 0.  1.
       -5    1    3    3    0  502 -0.10785087440E+04 -0.82403030016E+03 -0.24583788004E+04  0.28081765370E+04  0.46999998093E+01 0. -1.
</event>
<event>
 5   0  0.4047916E-07  0.3921803E+04  0.7818609E-02  0.8020510E-01
        2   -1    0    0  501    0  0.00000000000E+00  0.00000000000E+00  0.18109344360E+04  0.18109344360E+04  0.25500000920E-02 0.  1.
       -2   -1    0    0    0  501  0.00000000000E+00  0.00000000000E+00 -0.21232875543E+04  0.21232875543E+04  0.25500000920E-02 0. -1.
    10030    2    1    2    0    0  0.00000000000E+00  0.00000000000E+00 -0.31235311831E+03  0.39342219904E+04  0.39218029271E+04 0.  0.
        5    1    3    3  502    0  0.41198490549E+03  0.18618061213E+04 -0.61485400824E+03  0.20035271740E+04  0.46999998093E+01 0. -1.
       -5    1    3    3    0  502 -0.41198490549E+03 -0.18618061213E+04  0.30250088993E+03  0.19306948164E+04  0.46999998093E+01 0.  1.
</event>
<event>
 5   0  0.1421304E-07  0.3939136E+04  0.7818609E-02  0.8016939E-01
        1   -1    0    0  501    0  0.00000000000E+00  0.00000000000E+00  0.14527376196E+04  0.14527376196E+04  0.50400001928E-02 0. -1.
       -1   -1    0    0    0  501  0.00000000000E+00  0.00000000000E+00 -0.26702673346E+04  0.26702673346E+04  0.50400001928E-02 0.  1.
    10030    2    1    2    0    0  0.00000000000E+00  0.00000000000E+00 -0.12175297151E+04  0.41230049542E+04  0.39391358501E+04 0.  0.
        2    1    3    3  502    0 -0.16642374684E+04 -0.49617067213E+03 -0.15812888837E+04  0.23486903203E+04  0.25500000920E-02 0.  1.
       -2    1    3    3    0  502  0.16642374684E+04  0.49617067213E+03  0.36375916862E+03  0.17743146339E+04  0.25500000920E-02 0. -1.
</event>
<event>
 5   0  0.1351000E-07  0.3342648E+04  0.7818609E-02  0.8152128E-01
        1   -1    0    0  501    0  0.00000000000E+00  0.00000000000E+00  0.91893233261E+03  0.91893233263E+03  0.50400001928E-02 0.  1.
       -1   -1    0    0    0  501  0.00000000000E+00  0.00000000000E+00 -0.30397487824E+04  0.30397487824E+04  0.50400001928E-02 0. -1.
    10030    2    1    2    0    0  0.00000000000E+00  0.00000000000E+00 -0.21208164498E+04  0.39586811150E+04  0.33426477165E+04 0.  0.
        3    1    3    3  502    0  0.64613588834E+03  0.29932218477E+03  0.73028271876E+03  0.10199991255E+04  0.10100000352E+00 0.  1.
       -3    1    3    3    0  502 -0.64613588834E+03 -0.29932218477E+03 -0.28510991686E+04  0.29386819895E+04  0.10100000352E+00 0. -1.
</event>
<event>
 5   0  0.1368865E-07  0.2525937E+04  0.7818609E-02  0.8393803E-01
       -1   -1    0    0    0  501  0.00000000000E+00  0.00000000000E+00  0.11467146583E+04  0.11467146583E+04  0.50400001928E-02 0.  1.
        1   -1    0    0  501    0  0.00000000000E+00  0.00000000000E+00 -0.13910083410E+04  0.13910083410E+04  0.50400001928E-02 0. -1.
    10030    2    1    2    0    0  0.00000000000E+00  0.00000000000E+00 -0.24429368269E+03  0.25377229992E+04  0.25259371761E+04 0.  0.
        5    1    3    3  502    0 -0.25784140922E+03 -0.12018042958E+04 -0.41376279674E+03  0.12969338841E+04  0.46999998093E+01 0.  1.
       -5    1    3    3    0  502  0.25784140922E+03  0.12018042958E+04  0.16946911405E+03  0.12407891152E+04  0.46999998093E+01 0. -1.
</event>
<event>
 5   0  0.4149487E-07  0.3899225E+04  0.7818609E-02  0.8025190E-01
        2   -1    0    0  501    0  0.00000000000E+00  0.00000000000E+00  0.24196090770E+04  0.24196090770E+04  0.25500000920E-02 0.  1.
       -2   -1    0    0    0  501  0.00000000000E+00  0.00000000000E+00 -0.15709101659E+04  0.15709101659E+04  0.25500000920E-02 0. -1.
    10030    2    1    2    0    0  0.00000000000E+00  0.00000000000E+00  0.84869891102E+03  0.39905192429E+04  0.38992247930E+04 0.  0.
        2    1    3    3  502    0  0.15968799416E+04  0.50435456366E+03 -0.59731732579E+03  0.17779727392E+04  0.25500000920E-02 0. -1.
       -2    1    3    3    0  502 -0.15968799416E+04 -0.50435456366E+03  0.14460162368E+04  0.22125465037E+04  0.25500000920E-02 0.  1.
</event>
<event>
 5   0  0.4301754E-07  0.3593242E+04  0.7818609E-02  0.8092042E-01
       -2   -1    0    0    0  501  0.00000000000E+00  0.00000000000E+00  0.11603690227E+04  0.11603690227E+04  0.25500000920E-02 0. -1.
        2   -1    0    0  501    0  0.00000000000E+00  0.00000000000E+00 -0.27817412462E+04  0.27817412462E+04  0.25500000920E-02 0.  1.
    10030    2    1    2    0    0  0.00000000000E+00  0.00000000000E+00 -0.16213722235E+04  0.39421102689E+04  0.35932416402E+04 0.  0.
        1    1    3    3  502    0  0.57559643834E+03  0.53299540398E+03 -0.25839216310E+04  0.27003789282E+04  0.50400001928E-02 0.  1.
       -1    1    3    3    0  502 -0.57559643834E+03 -0.53299540398E+03  0.96254940749E+03  0.12417313407E+04  0.50400001928E-02 0. -1.
</event>
<event>
 5   0  0.1351000E-07  0.2672397E+04  0.7818609E-02  0.8344017E-01
        1   -1    0    0  501    0  0.00000000000E+00  0.00000000000E+00  0.15285655062E+04  0.15285655063E+04  0.50400001928E-02 0. -1.
       -1   -1    0    0    0  501  0.00000000000E+00  0.00000000000E+00 -0.11680404759E+04  0.11680404759E+04  0.50400001928E-02 0.  1.
    10030    2    1    2    0    0  0.00000000000E+00  0.00000000000E+00  0.36052503032E+03  0.26966059822E+04  0.26723969626E+04 0.  0.
        3    1    3    3  502    0  0.21062169647E+03 -0.60838295265E+03  0.13617386810E+04  0.15062614520E+04  0.10100000352E+00 0. -1.
       -3    1    3    3    0  502 -0.21062169647E+03  0.60838295265E+03 -0.10012136507E+04  0.11903445302E+04  0.10100000352E+00 0.  1.
</event>
<event>
 5   0  0.4301754E-07  0.3960141E+04  0.7818609E-02  0.8012636E-01
       -2   -1    0    0    0  501  0.00000000000E+00  0.00000000000E+00  0.22072749472E+04  0.22072749472E+04  0.25500000920E-02 0. -1.
        2   -1    0    0  501    0  0.00000000000E+00  0.00000000000E+00 -0.17762536283E+04  0.17762536283E+04  0.25500000920E-02 0.  1.
    10030    2    1    2    0    0  0.00000000000E+00  0.00000000000E+00  0.43102131896E+03  0.39835285755E+04  0.39601414791E+04 0.  0.
        1    1    3    3  502    0 -0.16805595136E+04  0.41344146462E+03 -0.75218205563E+03  0.18870590792E+04  0.50400001928E-02 0.  1.
       -1    1    3    3    0  502  0.16805595136E+04 -0.41344146462E+03  0.11832033746E+04  0.20964694963E+04  0.50400001928E-02 0. -1.
</event>
<event>
 5   0  0.4301754E-07  0.3961795E+04  0.7818609E-02  0.8012298E-01
       -2   -1    0    0    0  501  0.00000000000E+00  0.00000000000E+00  0.22476203683E+04  0.22476203683E+04  0.25500000920E-02 0. -1.
        2   -1    0    0  501    0  0.00000000000E+00  0.00000000000E+00 -0.17458259535E+04  0.17458259535E+04  0.25500000920E-02 0.  1.
    10030    2    1    2    0    0  0.00000000000E+00  0.00000000000E+00  0.50179441478E+03  0.39934463218E+04  0.39617945290E+04 0.  0.
        1    1    3    3  502    0  0.99349998556E+03  0.13387879928E+04  0.13292848273E+04  0.21322273948E+04  0.50400001928E-02 0. -1.
       -1    1    3    3    0  502 -0.99349998556E+03 -0.13387879928E+04 -0.82749041255E+03  0.18612189269E+04  0.50400001928E-02 0.  1.
</event>
<event>
 5   0  0.4047916E-07  0.3643835E+04  0.7818609E-02  0.8080524E-01
        2   -1    0    0  501    0  0.00000000000E+00  0.00000000000E+00  0.25196960031E+04  0.25196960031E+04  0.25500000920E-02 0. -1.
       -2   -1    0    0    0  501  0.00000000000E+00  0.00000000000E+00 -0.13173746602E+04  0.13173746602E+04  0.25500000920E-02 0.  1.
    10030    2    1    2    0    0  0.00000000000E+00  0.00000000000E+00  0.12023213429E+04  0.38370706633E+04  0.36438351587E+04 0.  0.
        5    1    3    3  502    0  0.27862173132E+03  0.14488184838E+04 -0.52447779021E+03  0.15658237802E+04  0.46999998093E+01 0.  1.
       -5    1    3    3    0  502 -0.27862173132E+03 -0.14488184838E+04  0.17267991331E+04  0.22712468831E+04  0.46999998093E+01 0. -1.
</event>
<event>
 5   0  0.4301754E-07  0.2580257E+04  0.7818609E-02  0.8374938E-01
       -2   -1    0    0    0  501  0.00000000000E+00  0.00000000000E+00  0.11533200447E+04  0.11533200447E+04  0.25500000920E-02 0.  1.
        2   -1    0    0  501    0  0.00000000000E+00  0.00000000000E+00 -0.14431655389E+04  0.14431655389E+04  0.25500000920E-02 0. -1.
    10030    2    1    2    0    0  0.00000000000E+00  0.00000000000E+00 -0.28984549428E+03  0.25964855836E+04  0.25802571529E+04 0.  0.
        1    1    3    3  502    0  0.63795778985E+03 -0.17897255948E+02  0.98334329120E+03  0.11722945371E+04  0.50400001928E-02 0.  1.
       -1    1    3    3    0  502 -0.63795778985E+03  0.17897255948E+02 -0.12731887855E+04  0.14241910465E+04  0.50400001928E-02 0. -1.
</event>
<event>
 5   0  0.1372952E-07  0.2599261E+04  0.7818609E-02  0.8368452E-01
        1   -1    0    0  501    0  0.00000000000E+00  0.00000000000E+00  0.16060713784E+04  0.16060713784E+04  0.50400001928E-02 0.  1.
       -1   -1    0    0    0  501  0.00000000000E+00  0.00000000000E+00 -0.10516591439E+04  0.10516591439E+04  0.50400001928E-02 0. -1.
    10030    2    1    2    0    0  0.00000000000E+00  0.00000000000E+00  0.55441223450E+03  0.26577305222E+04  0.25992611649E+04 0.  0.
        1    1    3    3  502    0  0.49745151076E+03 -0.93603977369E+02  0.15011368342E+04  0.15841816515E+04  0.50400001928E-02 0.  1.
       -1    1    3    3    0  502 -0.49745151076E+03  0.93603977369E+02 -0.94672459968E+03  0.10735488707E+04  0.50400001928E-02 0. -1.
</event>
<event>
 5   0  0.1372952E-07  0.2482500E+04  0.7818609E-02  0.8409247E-01
       -1   -1    0    0    0  501  0.00000000000E+00  0.00000000000E+00  0.10637176836E+04  0.10637176836E+04  0.50400001928E-02 0. -1.
        1   -1    0    0  501    0  0.00000000000E+00  0.00000000000E+00 -0.14484124474E+04  0.14484124474E+04  0.50400001928E-02 0.  1.
    10030    2    1    2    0    0  0.00000000000E+00  0.00000000000E+00 -0.38469476379E+03  0.25121301311E+04  0.24825002989E+04 0.  0.
        1    1    3    3  502    0  0.10576514053E+04 -0.15245366459E+03  0.44672277758E+03  0.11582011289E+04  0.50400001928E-02 0.  1.
       -1    1    3    3    0  502 -0.10576514053E+04  0.15245366459E+03 -0.83141754137E+03  0.13539290022E+04  0.50400001928E-02 0. -1.
</event>
<event>
 5   0  0.1372952E-07  0.4080062E+04  0.7818609E-02  0.7988587E-01
       -1   -1    0    0    0  501  0.00000000000E+00  0.00000000000E+00  0.20665949195E+04  0.20665949195E+04  0.50400001928E-02 0.  1.
        1   -1    0    0  501    0  0.00000000000E+00  0.00000000000E+00 -0.20138085019E+04  0.20138085019E+04  0.50400001928E-02 0. -1.
    10030    2    1    2    0    0  0.00000000000E+00  0.00000000000E+00  0.52786417622E+02  0.40804034214E+04  0.40800619695E+04 0.  0.
        1    1    3    3  502    0 -0.10310105821E+04 -0.91197822113E+03 -0.14794018589E+04  0.20207218899E+04  0.50400001928E-02 0. -1.
       -1    1    3    3    0  502  0.10310105821E+04  0.91197822113E+03  0.15321882766E+04  0.20596815314E+04  0.50400001928E-02 0.  1.
</event>
<event>
 5   0  0.4047916E-07  0.3960695E+04  0.7818609E-02  0.8012523E-01
       -2   -1    0    0    0  501  0.00000000000E+00  0.00000000000E+00  0.16345215416E+04  0.16345215416E+04  0.25500000920E-02 0. -1.
        2   -1    0    0  501    0  0.00000000000E+00  0.00000000000E+00 -0.23993417015E+04  0.23993417015E+04  0.25500000920E-02 0.  1.
    10030    2    1    2    0    0  0.00000000000E+00  0.00000000000E+00 -0.76482015989E+03  0.40338632432E+04  0.39606947355E+04 0.  0.
        5    1    3    3  502    0  0.65451305255E+03  0.18162317207E+04 -0.83177354608E+03  0.21021309001E+04  0.46999998093E+01 0.  1.
       -5    1    3    3    0  502 -0.65451305255E+03 -0.18162317207E+04  0.66953386190E+02  0.19317323431E+04  0.46999998093E+01 0. -1.
</event>
<event>
 5   0  0.4301754E-07  0.3849524E+04  0.7818609E-02  0.8035610E-01
       -2   -1    0    0    0  501  0.00000000000E+00  0.00000000000E+00  0.15725611589E+04  0.15725611589E+04  0.25500000920E-02 0. -1.
        2   -1    0    0  501    0  0.00000000000E+00  0.00000000000E+00 -0.23558441848E+04  0.23558441848E+04  0.25500000920E-02 0.  1.
    10030    2    1    2    0    0  0.00000000000E+00  0.00000000000E+00 -0.78328302588E+03  0.39284053437E+04  0.38495241583E+04 0.  0.
        1    1    3    3  502    0 -0.14509860454E+03 -0.40834964960E+03  0.15221279709E+04  0.15826170102E+04  0.50400001928E-02 0. -1.
       -1    1    3    3    0  502  0.14509860454E+03  0.40834964960E+03 -0.23054109967E+04  0.23457883334E+04  0.50400001928E-02 0.  1.
</event>
<event>
 5   0  0.1368865E-07  0.4026458E+04  0.7818609E-02  0.7999230E-01
        1   -1    0    0  501    0  0.00000000000E+00  0.00000000000E+00  0.31465895218E+04  0.31465895218E+04  0.50400001928E-02 0. -1.
       -1   -1    0    0    0  501  0.00000000000E+00  0.00000000000E+00 -0.12880900879E+04  0.12880900879E+04  0.50400001928E-02 0.  1.
    10030    2    1    2    0    0  0.00000000000E+00  0.00000000000E+00  0.18584994339E+04  0.44346796097E+04  0.40264578844E+04 0.  0.
        5    1    3    3  502    0  0.32930833543E+03  0.18627911437E+04  0.16880342089E+04  0.25353335886E+04  0.46999998093E+01 0. -1.
       -5    1    3    3    0  502 -0.32930833543E+03 -0.18627911437E+04  0.17046522501E+03  0.18993460211E+04  0.46999998093E+01 0.  1.
</event>
<event>
 5   0  0.1351000E-07  0.3990124E+04  0.7818609E-02  0.8006542E-01
       -1   -1    0    0    0  501  0.00000000000E+00  0.00000000000E+00  0.18570190298E+04  0.18570190298E+04  0.50400001928E-02 0.  1.
        1   -1    0    0  501    0  0.00000000000E+00  0.00000000000E+00 -0.21433661979E+04  0.21433661980E+04  0.50400001928E-02 0. -1.
    10030    2    1    2    0    0  0.00000000000E+00  0.00000000000E+00 -0.28634716811E+03  0.40003852278E+04  0.39901237161E+04 0.  0.
        3    1    3    3  502    0 -0.68913235507E+03 -0.23846474136E+03  0.17186166835E+04  0.18669258557E+04  0.10100000352E+00 0.  1.
       -3    1    3    3    0  502  0.68913235507E+03  0.23846474136E+03 -0.20049638516E+04  0.21334593721E+04  0.10100000352E+00 0. -1.
</event>
<event>
 5   0  0.4301754E-07  0.2511747E+04  0.7818609E-02  0.8398812E-01
        2   -1    0    0  501    0  0.00000000000E+00  0.00000000000E+00  0.56087675455E+03  0.56087675456E+03  0.25500000920E-02 0. -1.
       -2   -1    0    0    0  501  0.00000000000E+00  0.00000000000E+00 -0.28120592230E+04  0.28120592230E+04  0.25500000920E-02 0.  1.
    10030    2    1    2    0    0  0.00000000000E+00  0.00000000000E+00 -0.22511824684E+04  0.33729359775E+04  0.25117473206E+04 0.  0.
        1    1    3    3  502    0  0.85208508380E+03 -0.61019102560E+03 -0.19635570412E+03  0.10662727795E+04  0.50400001928E-02 0.  1.
       -1    1    3    3    0  502 -0.85208508380E+03  0.61019102560E+03 -0.20548267643E+04  0.23066631980E+04  0.50400001928E-02 0. -1.
</event>
<event>
 5   0  0.1372952E-07  0.3687579E+04  0.7818609E-02  0.8070720E-01
        1   -1    0    0  501    0  0.00000000000E+00  0.00000000000E+00  0.16883330159E+04  0.16883330159E+04  0.50400001928E-02 0.  1.
       -1   -1    0    0    0  501  0.00000000000E+00  0.00000000000E+00 -0.20135600432E+04  0.20135600432E+04  0.50400001928E-02 0. -1.
    10030    2    1    2    0    0  0.00000000000E+00  0.00000000000E+00 -0.32522702736E+03  0.37018930591E+04  0.36875790977E+04 0.  0.
        1    1    3    3  502    0 -0.11176615378E+04 -0.94984604464E+03 -0.12841722363E+04  0.19494802267E+04  0.50400001928E-02 0. -1.
       -1    1    3    3    0  502  0.11176615378E+04  0.94984604464E+03  0.95894520893E+03  0.17524128325E+04  0.50400001928E-02 0.  1.
</event>
<event>
 5   0  0.1421304E-07  0.2518020E+04  0.7818609E-02  0.8396594E-01
       -1   -1    0    0    0  501  0.00000000000E+00  0.00000000000E+00  0.16223073692E+04  0.16223073693E+04  0.50400001928E-02 0. -1.
        1   -1    0    0  501    0  0.00000000000E+00  0.00000000000E+00 -0.97706863097E+03  0.97706863099E+03  0.50400001928E-02 0.  1.
    10030    2    1    2    0    0  0.00000000000E+00  0.00000000000E+00  0.64523873827E+03  0.25993760002E+04  0.25180195713E+04 0.  0.
        2    1    3    3  502    0  0.54823336935E+03 -0.55652622095E+03 -0.69661296845E+03  0.10466856690E+04  0.25500000920E-02 0.  1.
       -2    1    3    3    0  502 -0.54823336935E+03  0.55652622095E+03  0.13418517067E+04  0.15526903312E+04  0.25500000920E-02 0. -1.
</event>
<event>
 5   0  0.1351000E-07  0.2986116E+04  0.7818609E-02  0.8247707E-01
        1   -1    0    0  501    0  0.00000000000E+00  0.00000000000E+00  0.16183959824E+04  0.16183959825E+04  0.50400001928E-02 0. -1.
       -1   -1    0    0    0  501  0.00000000000E+00  0.00000000000E+00 -0.13774270641E+04  0.13774270641E+04  0.50400001928E-02 0.  1.
    10030    2    1    2    0    0  0.00000000000E+00  0.00000000000E+00  0.24096891832E+03  0.29958230466E+04  0.29861161576E+04 0.  0.
        4    1    3    3  502    0 -0.56485037365E+03  0.75112404304E+03 -0.10434495730E+04  0.14042905315E+04  0.12699999809E+01 0.  1.
       -4    1    3    3    0  502  0.56485037365E+03 -0.75112404304E+03  0.12844184913E+04  0.15915325150E+04  0.12699999809E+01 0. -1.
</event>
<event>
 5   0  0.1351000E-07  0.3970076E+04  0.7818609E-02  0.8010611E-01
       -1   -1    0    0    0  501  0.00000000000E+00  0.00000000000E+00  0.14018190026E+04  0.14018190027E+04  0.50400001928E-02 0. -1.
        1   -1    0    0  501    0  0.00000000000E+00  0.00000000000E+00 -0.28109013296E+04  0.28109013296E+04  0.50400001928E-02 0.  1.
    10030    2    1    2    0    0  0.00000000000E+00  0.00000000000E+00 -0.14090823270E+04  0.42127203323E+04  0.39700755149E+04 0.  0.
        4    1    3    3  502    0  0.18075495519E+04 -0.65913413380E+03 -0.12229494845E+04  0.22797588126E+04  0.12699999809E+01 0.  1.
       -4    1    3    3    0  502 -0.18075495519E+04  0.65913413380E+03 -0.18613284245E+03  0.19329615197E+04  0.12699999809E+01 0. -1.
</event>
<event>
 5   0  0.1372952E-07  0.4012503E+04  0.7818609E-02  0.8002029E-01
       -1   -1    0    0    0  501  0.00000000000E+00  0.00000000000E+00  0.32094225767E+04  0.32094225767E+04  0.50400001928E-02 0. -1.
        1   -1    0    0  501    0  0.00000000000E+00  0.00000000000E+00 -0.12541334968E+04  0.12541334968E+04  0.50400001928E-02 0.  1.
    10030    2    1    2    0    0  0.00000000000E+00  0.00000000000E+00  0.19552890800E+04  0.44635560735E+04  0.40125026399E+04 0.  0.
        1    1    3    3  502    0  0.12427584060E+04 -0.87376116952E+03 -0.48005554018E+03  0.15932232608E+04  0.50400001928E-02 0.  1.
       -1    1    3    3    0  502 -0.12427584060E+04  0.87376116952E+03  0.24353446201E+04  0.28703328127E+04  0.50400001928E-02 0. -1.
</event>
<event>
 5   0  0.1351000E-07  0.3934993E+04  0.7818609E-02  0.8017791E-01
        1   -1    0    0  501    0  0.00000000000E+00  0.00000000000E+00  0.25136729783E+04  0.25136729783E+04  0.50400001928E-02 0. -1.
       -1   -1    0    0    0  501  0.00000000000E+00  0.00000000000E+00 -0.15399941090E+04  0.15399941090E+04  0.50400001928E-02 0.  1.
    10030    2    1    2    0    0  0.00000000000E+00  0.00000000000E+00  0.97367886930E+03  0.40536670874E+04  0.39349925432E+04 0.  0.
        3    1    3    3  502    0  0.13085192341E+04 -0.14490319815E+04  0.73732969272E+03  0.20870005643E+04  0.10100000352E+00 0. -1.
       -3    1    3    3    0  502 -0.13085192341E+04  0.14490319815E+04  0.23634917658E+03  0.19666665231E+04  0.10100000352E+00 0.  1.
</event>
<event>
 5   0  0.1351000E-07  0.3897087E+04  0.7818609E-02  0.8025635E-01
        1   -1    0    0  501    0  0.00000000000E+00  0.00000000000E+00  0.22277198450E+04  0.22277198450E+04  0.50400001928E-02 0. -1.
       -1   -1    0    0    0  501  0.00000000000E+00  0.00000000000E+00 -0.17043529195E+04  0.17043529195E+04  0.50400001928E-02 0.  1.
    10030    2    1    2    0    0  0.00000000000E+00  0.00000000000E+00  0.52336692550E+03  0.39320727645E+04  0.38970865126E+04 0.  0.
        4    1    3    3  502    0 -0.87170723791E+03  0.15148323709E+04 -0.60757782326E+03  0.18503359276E+04  0.12699999809E+01 0.  1.
       -4    1    3    3    0  502  0.87170723791E+03 -0.15148323709E+04  0.11309447488E+04  0.20817368369E+04  0.12699999809E+01 0. -1.
</event>
<event>
 5   0  0.4077370E-07  0.3122593E+04  0.7818609E-02  0.8209565E-01
        2   -1    0    0  501    0  0.00000000000E+00  0.00000000000E+00  0.22875896827E+04  0.22875896827E+04  0.25500000920E-02 0.  1.
       -2   -1    0    0    0  501  0.00000000000E+00  0.00000000000E+00 -0.10655958314E+04  0.10655958314E+04  0.25500000920E-02 0. -1.
    10030    2    1    2    0    0  0.00000000000E+00  0.00000000000E+00  0.12219938512E+04  0.33531855141E+04  0.31225925318E+04 0.  0.
        3    1    3    3  502    0  0.33077301742E+03  0.13963581833E+04  0.12715820092E+04  0.19173282926E+04  0.10100000352E+00 0.  1.
       -3    1    3    3    0  502 -0.33077301742E+03 -0.13963581833E+04 -0.49588157999E+02  0.14358572216E+04  0.10100000352E+00 0. -1.
</event>
<event>
 5   0  0.1421304E-07  0.2650319E+04  0.7818609E-02  0.8351307E-01
       -1   -1    0    0    0  501  0.00000000000E+00  0.00000000000E+00  0.10744121074E+04  0.10744121074E+04  0.50400001928E-02 0.  1.
        1   -1    0    0  501    0  0.00000000000E+00  0.00000000000E+00 -0.16344269034E+04  0.16344269034E+04  0.50400001928E-02 0. -1.
    10030    2    1    2    0    0  0.00000000000E+00  0.00000000000E+00 -0.56001479603E+03  0.27088390108E+04  0.26503192665E+04 0.  0.
        2    1    3    3  502    0 -0.75155824653E+03 -0.10903665560E+04 -0.32912076525E+03  0.13645730111E+04  0.25500000920E-02 0.  1.
       -2    1    3    3    0  502  0.75155824653E+03  0.10903665560E+04 -0.23089403079E+03  0.13442659997E+04  0.25500000920E-02 0. -1.
</event>
<event>
 5   0  0.1351000E-07  0.3996010E+04  0.7818609E-02  0.8005352E-01
       -1   -1    0    0    0  501  0.00000000000E+00  0.00000000000E+00  0.14209390561E+04  0.14209390561E+04  0.50400001928E-02 0.  1.
        1   -1    0    0  501    0  0.00000000000E+00  0.00000000000E+00 -0.28094262138E+04  0.28094262138E+04  0.50400001928E-02 0. -1.
    10030    2    1    2    0    0  0.00000000000E+00  0.00000000000E+00 -0.13884871577E+04  0.42303652699E+04  0.39960097259E+04 0.  0.
        3    1    3    3  502    0  0.11501217085E+04  0.11910866310E+04 -0.18781106026E+04  0.25037505372E+04  0.10100000352E+00 0. -1.
       -3    1    3    3    0  502 -0.11501217085E+04 -0.11910866310E+04  0.48962344494E+03  0.17266147326E+04  0.10100000352E+00 0.  1.
</event>
<event>
 5   0  0.1421304E-07  0.4144320E+04  0.7818609E-02  0.7976049E-01
       -1   -1    0    0    0  501  0.00000000000E+00  0.00000000000E+00  0.20582221800E+04  0.20582221800E+04  0.50400001928E-02 0.  1.
        1   -1    0    0  501    0  0.00000000000E+00  0.00000000000E+00 -0.20861917684E+04  0.20861917684E+04  0.50400001928E-02 0. -1.
    10030    2    1    2    0    0  0.00000000000E+00  0.00000000000E+00 -0.27969588381E+02  0.41444139484E+04  0.41443195675E+04 0.  0.
        2    1    3    3  502    0 -0.10294608806E+04  0.68006351966E+03  0.16508564332E+04  0.20609713871E+04  0.25500000920E-02 0.  1.
       -2    1    3    3    0  502  0.10294608806E+04 -0.68006351966E+03 -0.16788260216E+04  0.20834425613E+04  0.25500000920E-02 0. -1.
</event>
<event>
 5   0  0.4301754E-07  0.2631418E+04  0.7818609E-02  0.8357607E-01
        2   -1    0    0  501    0  0.00000000000E+00  0.00000000000E+00  0.14390903945E+04  0.14390903945E+04  0.25500000920E-02 0.  1.
       -2   -1    0    0    0  501  0.00000000000E+00  0.00000000000E+00 -0.12029059659E+04  0.12029059659E+04  0.25500000920E-02 0. -1.
    10030    2    1    2    0    0  0.00000000000E+00  0.00000000000E+00  0.23618442861E+03  0.26419963603E+04  0.26314181887E+04 0.  0.
        1    1    3    3  502    0  0.12727494144E+04 -0.90725413129E+01 -0.21659002864E+03  0.12910788603E+04  0.50400001928E-02 0.  1.
       -1    1    3    3    0  502 -0.12727494144E+04  0.90725413129E+01  0.45277445725E+03  0.13509175001E+04  0.50400001928E-02 0. -1.
</event>
<event>
 5   0  0.1372952E-07  0.4077210E+04  0.7818609E-02  0.7989149E-01
        1   -1    0    0  501    0  0.00000000000E+00  0.00000000000E+00  0.14735598587E+04  0.14735598587E+04  0.50400001928E-02 0. -1.
       -1   -1    0    0    0  501  0.00000000000E+00  0.00000000000E+00 -0.28203203381E+04  0.28203203381E+04  0.50400001928E-02 0.  1.
    10030    2    1    2    0    0  0.00000000000E+00  0.00000000000E+00 -0.13467604794E+04  0.42938801967E+04  0.40772102417E+04 0.  0.
        1    1    3    3  502    0 -0.14467736331E+04 -0.40091803870E+03  0.77904752107E+03  0.16913912200E+04  0.50400001928E-02 0. -1.
       -1    1    3    3    0  502  0.14467736331E+04  0.40091803870E+03 -0.21258080005E+04  0.26024889767E+04  0.50400001928E-02 0.  1.
</event>
<event>
 5   0  0.4149487E-07  0.2770582E+04  0.7818609E-02  0.8312460E-01
        2   -1    0    0  501    0  0.00000000000E+00  0.00000000000E+00  0.29461846344E+04  0.29461846344E+04  0.25500000920E-02 0. -1.
       -2   -1    0    0    0  501  0.00000000000E+00  0.00000000000E+00 -0.65136128002E+03  0.65136128002E+03  0.25500000920E-02 0.  1.
    10030    2    1    2    0    0  0.00000000000E+00  0.00000000000E+00  0.22948233544E+04  0.35975459145E+04  0.27705815957E+04 0.  0.
        2    1    3    3  502    0  0.10635108438E+04 -0.53817060727E+03  0.20640576181E+04  0.23834883612E+04  0.25500000920E-02 0. -1.
       -2    1    3    3    0  502 -0.10635108438E+04  0.53817060727E+03  0.23076573634E+03  0.12140575532E+04  0.25500000920E-02 0.  1.
</event>
<event>
 5   0  0.1351000E-07  0.3967415E+04  0.7818609E-02  0.8011152E-01
       -3   -1    0    0    0  501  0.00000000000E+00  0.00000000000E+00  0.13019891114E+04  0.13019891153E+04  0.10100000352E+00 0.  1.
        3   -1    0    0  501    0  0.00000000000E+00  0.00000000000E+00 -0.30223717792E+04  0.30223717809E+04  0.10100000352E+00 0. -1.
    10030    2    1    2    0    0  0.00000000000E+00  0.00000000000E+00 -0.17203826678E+04  0.43243608962E+04  0.39674148557E+04 0.  0.
        4    1    3    3  502    0  0.74999717447E+03 -0.18315211494E+04 -0.71343730656E+03  0.21037965409E+04  0.12699999809E+01 0. -1.
       -4    1    3    3    0  502 -0.74999717447E+03  0.18315211494E+04 -0.10069453612E+04  0.22205643552E+04  0.12699999809E+01 0.  1.
</event>
<event>
 5   0  0.1351000E-07  0.3465008E+04  0.7818609E-02  0.8122133E-01
        1   -1    0    0  501    0  0.00000000000E+00  0.00000000000E+00  0.21812487173E+04  0.21812487173E+04  0.50400001928E-02 0. -1.
       -1   -1    0    0    0  501  0.00000000000E+00  0.00000000000E+00 -0.13760789088E+04  0.13760789088E+04  0.50400001928E-02 0.  1.
    10030    2    1    2    0    0  0.00000000000E+00  0.00000000000E+00  0.80516980853E+03  0.35573276261E+04  0.34650081412E+04 0.  0.
        4    1    3    3  502    0 -0.54250180032E+03  0.14234792594E+04  0.12497786602E+04  0.19704186655E+04  0.12699999809E+01 0. -1.
       -4    1    3    3    0  502  0.54250180032E+03 -0.14234792594E+04 -0.44460885162E+03  0.15869089606E+04  0.12699999809E+01 0.  1.
</event>
<event>
 5   0  0.1351000E-07  0.4030233E+04  0.7818609E-02  0.7998475E-01
        1   -1    0    0  501    0  0.00000000000E+00  0.00000000000E+00  0.13122276771E+04  0.13122276771E+04  0.50400001928E-02 0. -1.
       -1   -1    0    0    0  501  0.00000000000E+00  0.00000000000E+00 -0.30945049512E+04  0.30945049512E+04  0.50400001928E-02 0.  1.
    10030    2    1    2    0    0  0.00000000000E+00  0.00000000000E+00 -0.17822772740E+04  0.44067326283E+04  0.40302332657E+04 0.  0.
        3    1    3    3  502    0  0.16990397751E+04  0.10802504427E+04 -0.79954004765E+03  0.21663197997E+04  0.10100000352E+00 0.  1.
       -3    1    3    3    0  502 -0.16990397751E+04 -0.10802504427E+04 -0.98273722638E+03  0.22404128286E+04  0.10100000352E+00 0. -1.
</event>
<event>
 5   0  0.4077370E-07  0.3909251E+04  0.7818609E-02  0.8023108E-01
        2   -1    0    0  501    0  0.00000000000E+00  0.00000000000E+00  0.26248952663E+04  0.26248952663E+04  0.25500000920E-02 0. -1.
       -2   -1    0    0    0  501  0.00000000000E+00  0.00000000000E+00 -0.14555095982E+04  0.14555095982E+04  0.25500000920E-02 0.  1.
    10030    2    1    2    0    0  0.00000000000E+00  0.00000000000E+00  0.11693856681E+04  0.40804048646E+04  0.39092506978E+04 0.  0.
        3    1    3    3  502    0 -0.11015065833E+04 -0.10829712824E+03 -0.10969026195E+04  0.15582812288E+04  0.10100000352E+00 0.  1.
       -3    1    3    3    0  502  0.11015065833E+04  0.10829712824E+03  0.22662882877E+04  0.25221236358E+04  0.10100000352E+00 0. -1.
</event>
<event>
 5   0  0.4079777E-07  0.3985923E+04  0.7818609E-02  0.8007392E-01
        2   -1    0    0  501    0  0.00000000000E+00  0.00000000000E+00  0.14961387816E+04  0.14961387816E+04  0.25500000920E-02 0.  1.
       -2   -1    0    0    0  501  0.00000000000E+00  0.00000000000E+00 -0.26547637959E+04  0.26547637959E+04  0.25500000920E-02 0. -1.
    10030    2    1    2    0    0  0.00000000000E+00  0.00000000000E+00 -0.11586250143E+04  0.41509025776E+04  0.39859227645E+04 0.  0.
        4    1    3    3  502    0 -0.87493038638E+02 -0.68915012432E+03 -0.25245985559E+04  0.26184312875E+04  0.12699999809E+01 0. -1.
       -4    1    3    3    0  502  0.87493038638E+02  0.68915012432E+03  0.13659735416E+04  0.15324712901E+04  0.12699999809E+01 0.  1.
</event>
<event>
 5   0  0.1372952E-07  0.2851185E+04  0.7818609E-02  0.8287551E-01
        1   -1    0    0  501    0  0.00000000000E+00  0.00000000000E+00  0.11330453307E+04  0.11330453307E+04  0.50400001928E-02 0.  1.
       -1   -1    0    0    0  501  0.00000000000E+00  0.00000000000E+00 -0.17936746152E+04  0.17936746152E+04  0.50400001928E-02 0. -1.
    10030    2    1    2    0    0  0.00000000000E+00  0.00000000000E+00 -0.66062928454E+03  0.29267199460E+04  0.28511854711E+04 0.  0.
        1    1    3    3  502    0 -0.11674340319E+04  0.41457768056E+03 -0.10543649261E+04  0.16267950914E+04  0.50400001928E-02 0. -1.
       -1    1    3    3    0  502  0.11674340319E+04 -0.41457768056E+03  0.39373564161E+03  0.12999248545E+04  0.50400001928E-02 0.  1.
</event>
<event>
 5   0  0.1368865E-07  0.3916757E+04  0.7818609E-02  0.8021553E-01
       -1   -1    0    0    0  501  0.00000000000E+00  0.00000000000E+00  0.19038515198E+04  0.19038515198E+04  0.50400001928E-02 0.  1.
        1   -1    0    0  501    0  0.00000000000E+00  0.00000000000E+00 -0.20144669652E+04  0.20144669652E+04  0.50400001928E-02 0. -1.
    10030    2    1    2    0    0  0.00000000000E+00  0.00000000000E+00 -0.11061544535E+03  0.39183184850E+04  0.39167568182E+04 0.  0.
        5    1    3    3  502    0  0.51798720822E+03 -0.98614377285E+03  0.15560590582E+04  0.19136698177E+04  0.46999998093E+01 0.  1.
       -5    1    3    3    0  502 -0.51798720822E+03  0.98614377285E+03 -0.16666745035E+04  0.20046486673E+04  0.46999998093E+01 0. -1.
</event>
<event>
 5   0  0.4077370E-07  0.3874279E+04  0.7818609E-02  0.8030400E-01
       -2   -1    0    0    0  501  0.00000000000E+00  0.00000000000E+00  0.28957335177E+04  0.28957335177E+04  0.25500000920E-02 0. -1.
        2   -1    0    0  501    0  0.00000000000E+00  0.00000000000E+00 -0.12958749980E+04  0.12958749980E+04  0.25500000920E-02 0.  1.
    10030    2    1    2    0    0  0.00000000000E+00  0.00000000000E+00  0.15998585197E+04  0.41916085157E+04  0.38742785994E+04 0.  0.
        3    1    3    3  502    0  0.42376466475E+03  0.11093804284E+04 -0.85585033045E+03  0.14638241781E+04  0.10100000352E+00 0.  1.
       -3    1    3    3    0  502 -0.42376466475E+03 -0.11093804284E+04  0.24557088501E+04  0.27277843377E+04  0.10100000352E+00 0. -1.
</event>
<event>
 5   0  0.1351000E-07  0.4146994E+04  0.7818609E-02  0.7975532E-01
       -1   -1    0    0    0  501  0.00000000000E+00  0.00000000000E+00  0.20479873861E+04  0.20479873861E+04  0.50400001928E-02 0.  1.
        1   -1    0    0  501    0  0.00000000000E+00  0.00000000000E+00 -0.20993246421E+04  0.20993246421E+04  0.50400001928E-02 0. -1.
    10030    2    1    2    0    0  0.00000000000E+00  0.00000000000E+00 -0.51337255942E+02  0.41473120282E+04  0.41469942785E+04 0.  0.
        4    1    3    3  502    0  0.13899780870E+04  0.86708915533E+03  0.12454543649E+04  0.20579214935E+04  0.12699999809E+01 0.  1.
       -4    1    3    3    0  502 -0.13899780870E+04 -0.86708915533E+03 -0.12967916209E+04  0.20893905347E+04  0.12699999809E+01 0. -1.
</event>
<event>
 5   0  0.4077370E-07  0.2765411E+04  0.7818609E-02  0.8314088E-01
        2   -1    0    0  501    0  0.00000000000E+00  0.00000000000E+00  0.18470267605E+04  0.18470267605E+04  0.25500000920E-02 0.  1.
       -2   -1    0    0    0  501  0.00000000000E+00  0.00000000000E+00 -0.10351095191E+04  0.10351095191E+04  0.25500000920E-02 0. -1.
    10030    2    1    2    0    0  0.00000000000E+00  0.00000000000E+00  0.81191724137E+03  0.28821362797E+04  0.27654113487E+04 0.  0.
        3    1    3    3  502    0  0.68892517437E+03  0.70759697795E+03  0.14145689398E+04  0.17252004738E+04  0.10100000352E+00 0.  1.
       -3    1    3    3    0  502 -0.68892517437E+03 -0.70759697795E+03 -0.60265169843E+03  0.11569358059E+04  0.10100000352E+00 0. -1.
</event>
<event>
 5   0  0.1368865E-07  0.4055143E+04  0.7818609E-02  0.7993514E-01
        1   -1    0    0  501    0  0.00000000000E+00  0.00000000000E+00  0.21063927788E+04  0.21063927788E+04  0.50400001928E-02 0. -1.
       -1   -1    0    0    0  501  0.00000000000E+00  0.00000000000E+00 -0.19516996530E+04  0.19516996530E+04  0.50400001928E-02 0.  1.
    10030    2    1    2    0    0  0.00000000000E+00  0.00000000000E+00  0.15469312581E+03  0.40580924318E+04  0.40551429348E+04 0.  0.
        5    1    3    3  502    0  0.45742503130E+03  0.10770282998E+04 -0.15796948590E+04  0.19658803513E+04  0.46999998093E+01 0.  1.
       -5    1    3    3    0  502 -0.45742503130E+03 -0.10770282998E+04  0.17343879849E+04  0.20922120805E+04  0.46999998093E+01 0. -1.
</event>
<event>
 5   0  0.1421304E-07  0.2484632E+04  0.7818609E-02  0.8408481E-01
       -1   -1    0    0    0  501  0.00000000000E+00  0.00000000000E+00  0.17114574946E+04  0.17114574946E+04  0.50400001928E-02 0. -1.
        1   -1    0    0  501    0  0.00000000000E+00  0.00000000000E+00 -0.90177454495E+03  0.90177454496E+03  0.50400001928E-02 0.  1.
    10030    2    1    2    0    0  0.00000000000E+00  0.00000000000E+00  0.80968294963E+03  0.26132320395E+04  0.24846318064E+04 0.  0.
        2    1    3    3  502    0  0.15068992857E+03  0.91777976563E+03 -0.46138962780E+03  0.10382232618E+04  0.25500000920E-02 0.  1.
       -2    1    3    3    0  502 -0.15068992857E+03 -0.91777976563E+03  0.12710725774E+04  0.15750087777E+04  0.25500000920E-02 0. -1.
</event>
<event>
 5   0  0.4047916E-07  0.3984524E+04  0.7818609E-02  0.8007676E-01
        2   -1    0    0  501    0  0.00000000000E+00  0.00000000000E+00  0.21986609415E+04  0.21986609415E+04  0.25500000920E-02 0. -1.
       -2   -1    0    0    0  501  0.00000000000E+00  0.00000000000E+00 -0.18052391438E+04  0.18052391438E+04  0.25500000920E-02 0.  1.
    10030    2    1    2    0    0  0.00000000000E+00  0.00000000000E+00  0.39342179766E+03  0.40039000853E+04  0.39845244613E+04 0.  0.
        5    1    3    3  502    0 -0.98087766564E+03 -0.32318444849E+03 -0.15152512538E+04  0.18337332507E+04  0.46999998093E+01 0.  1.
       -5    1    3    3    0  502  0.98087766564E+03  0.32318444849E+03  0.19086730514E+04  0.21701668346E+04  0.46999998093E+01 0. -1.
</event>
<event>
 5   0  0.1372952E-07  0.3952944E+04  0.7818609E-02  0.8014107E-01
        1   -1    0    0  501    0  0.00000000000E+00  0.00000000000E+00  0.18891744307E+04  0.18891744307E+04  0.50400001928E-02 0.  1.
       -1   -1    0    0    0  501  0.00000000000E+00  0.00000000000E+00 -0.20678036126E+04  0.20678036126E+04  0.50400001928E-02 0. -1.
    10030    2    1    2    0    0  0.00000000000E+00  0.00000000000E+00 -0.17862918186E+03  0.39569780433E+04  0.39529440738E+04 0.  0.
        1    1    3    3  502    0  0.11452653085E+04  0.19370880009E+03  0.15114689852E+04  0.19062251230E+04  0.50400001928E-02 0.  1.
       -1    1    3    3    0  502 -0.11452653085E+04 -0.19370880009E+03 -0.16900981671E+04  0.20507529204E+04  0.50400001928E-02 0. -1.
</event>
<event>
 5   0  0.1372952E-07  0.3933025E+04  0.7818609E-02  0.8018196E-01
       -1   -1    0    0    0  501  0.00000000000E+00  0.00000000000E+00  0.25460512201E+04  0.25460512201E+04  0.50400001928E-02 0. -1.
        1   -1    0    0  501    0  0.00000000000E+00  0.00000000000E+00 -0.15188897454E+04  0.15188897454E+04  0.50400001928E-02 0.  1.
    10030    2    1    2    0    0  0.00000000000E+00  0.00000000000E+00  0.10271614747E+04  0.40649409655E+04  0.39330248357E+04 0.  0.
        1    1    3    3  502    0  0.11810117267E+04  0.58584457339E+03 -0.99452771104E+03  0.16513896969E+04  0.50400001928E-02 0.  1.
       -1    1    3    3    0  502 -0.11810117267E+04 -0.58584457339E+03  0.20216891857E+04  0.24135512687E+04  0.50400001928E-02 0. -1.
</event>
<event>
 5   0  0.4077370E-07  0.4001844E+04  0.7818609E-02  0.8004175E-01
       -2   -1    0    0    0  501  0.00000000000E+00  0.00000000000E+00  0.25426187962E+04  0.25426187962E+04  0.25500000920E-02 0. -1.
        2   -1    0    0  501    0  0.00000000000E+00  0.00000000000E+00 -0.15746319962E+04  0.15746319962E+04  0.25500000920E-02 0.  1.
    10030    2    1    2    0    0  0.00000000000E+00  0.00000000000E+00  0.96798679994E+03  0.41172507924E+04  0.40018440303E+04 0.  0.
        3    1    3    3  502    0  0.15403789767E+03  0.29837890480E+03 -0.15454359760E+04  0.15814961305E+04  0.10100000352E+00 0.  1.
       -3    1    3    3    0  502 -0.15403789767E+03 -0.29837890480E+03  0.25134227759E+04  0.25357546619E+04  0.10100000352E+00 0. -1.
</event>
<event>
 5   0  0.1351000E-07  0.3365795E+04  0.7818609E-02  0.8146353E-01
       -1   -1    0    0    0  501  0.00000000000E+00  0.00000000000E+00  0.15073230308E+04  0.15073230308E+04  0.50400001928E-02 0. -1.
        1   -1    0    0  501    0  0.00000000000E+00  0.00000000000E+00 -0.18789229820E+04  0.18789229820E+04  0.50400001928E-02 0.  1.
    10030    2    1    2    0    0  0.00000000000E+00  0.00000000000E+00 -0.37159995120E+03  0.33862460128E+04  0.33657949337E+04 0.  0.
        4    1    3    3  502    0  0.10074120736E+04 -0.74412513276E+03 -0.13167033991E+04  0.18172261151E+04  0.12699999809E+01 0.  1.
       -4    1    3    3    0  502 -0.10074120736E+04  0.74412513276E+03  0.94510344788E+03  0.15690198977E+04  0.12699999809E+01 0. -1.
</event>
<event>
 5   0  0.1372952E-07  0.3998083E+04  0.7818609E-02  0.8004933E-01
        1   -1    0    0  501    0  0.00000000000E+00  0.00000000000E+00  0.16142518818E+04  0.16142518818E+04  0.50400001928E-02 0.  1.
       -1   -1    0    0    0  501  0.00000000000E+00  0.00000000000E+00 -0.24755534085E+04  0.24755534085E+04  0.50400001928E-02 0. -1.
    10030    2    1    2    0    0  0.00000000000E+00  0.00000000000E+00 -0.86130152676E+03  0.40898052903E+04  0.39980829147E+04 0.  0.
        1    1    3    3  502    0  0.15403922926E+04  0.12024530831E+04  0.27959428167E+00  0.19541499201E+04  0.50400001928E-02 0.  1.
       -1    1    3    3    0  502 -0.15403922926E+04 -0.12024530831E+04 -0.86158112104E+03  0.21356553702E+04  0.50400001928E-02 0. -1.
</event>
<event>
 5   0  0.4047916E-07  0.3940443E+04  0.7818609E-02  0.8016670E-01
        2   -1    0    0  501    0  0.00000000000E+00  0.00000000000E+00  0.26684733345E+04  0.26684733345E+04  0.25500000920E-02 0. -1.
       -2   -1    0    0    0  501  0.00000000000E+00  0.00000000000E+00 -0.14546795304E+04  0.14546795304E+04  0.25500000920E-02 0.  1.
    10030    2    1    2    0    0  0.00000000000E+00  0.00000000000E+00  0.12137938041E+04  0.41231528648E+04  0.39404433949E+04 0.  0.
        5    1    3    3  502    0 -0.41454106594E+03  0.16750890502E+04 -0.38796929126E+03  0.17687028813E+04  0.46999998093E+01 0.  1.
       -5    1    3    3    0  502  0.41454106594E+03 -0.16750890502E+04  0.16017630953E+04  0.23544499835E+04  0.46999998093E+01 0. -1.
</event>
<event>
 5   0  0.1368865E-07  0.4019652E+04  0.7818609E-02  0.8000594E-01
       -1   -1    0    0    0  501  0.00000000000E+00  0.00000000000E+00  0.19742390539E+04  0.19742390539E+04  0.50400001928E-02 0. -1.
        1   -1    0    0  501    0  0.00000000000E+00  0.00000000000E+00 -0.20460541612E+04  0.20460541612E+04  0.50400001928E-02 0.  1.
    10030    2    1    2    0    0  0.00000000000E+00  0.00000000000E+00 -0.71815107357E+02  0.40202932151E+04  0.40196517418E+04 0.  0.
        5    1    3    3  502    0  0.72131234207E+03 -0.13551068535E+04 -0.13333315371E+04  0.20333226889E+04  0.46999998093E+01 0.  1.
       -5    1    3    3    0  502 -0.72131234207E+03  0.13551068535E+04  0.12615164298E+04  0.19869705262E+04  0.46999998093E+01 0. -1.
</event>
<event>
 5   0  0.4077370E-07  0.3915152E+04  0.7818609E-02  0.8021885E-01
       -2   -1    0    0    0  501  0.00000000000E+00  0.00000000000E+00  0.15815875067E+04  0.15815875067E+04  0.25500000920E-02 0.  1.
        2   -1    0    0  501    0  0.00000000000E+00  0.00000000000E+00 -0.24229475763E+04  0.24229475763E+04  0.25500000920E-02 0. -1.
    10030    2    1    2    0    0  0.00000000000E+00  0.00000000000E+00 -0.84136006961E+03  0.40045350829E+04  0.39151519081E+04 0.  0.
        3    1    3    3  502    0 -0.53255320941E+03  0.46739980948E+03 -0.22871776301E+04  0.23944220648E+04  0.10100000352E+00 0. -1.
       -3    1    3    3    0  502  0.53255320941E+03 -0.46739980948E+03  0.14458175605E+04  0.16101130181E+04  0.10100000352E+00 0.  1.
</event>
<event>
 5   0  0.1421304E-07  0.2924952E+04  0.7818609E-02  0.8265492E-01
        1   -1    0    0  501    0  0.00000000000E+00  0.00000000000E+00  0.90563676024E+03  0.90563676026E+03  0.50400001928E-02 0.  1.
       -1   -1    0    0    0  501  0.00000000000E+00  0.00000000000E+00 -0.23616922808E+04  0.23616922808E+04  0.50400001928E-02 0. -1.
    10030    2    1    2    0    0  0.00000000000E+00  0.00000000000E+00 -0.14560555206E+04  0.32673290411E+04  0.29249515182E+04 0.  0.
        2    1    3    3  502    0  0.13403006909E+04 -0.56520030197E+03 -0.89735644204E+03  0.17091243101E+04  0.25500000920E-02 0.  1.
       -2    1    3    3    0  502 -0.13403006909E+04  0.56520030197E+03 -0.55869907852E+03  0.15582047310E+04  0.25500000920E-02 0. -1.
</event>
<event>
 5   0  0.1351000E-07  0.3016793E+04  0.7818609E-02  0.8238952E-01
        1   -1    0    0  501    0  0.00000000000E+00  0.00000000000E+00  0.15673750105E+04  0.15673750105E+04  0.50400001928E-02 0.  1.
       -1   -1    0    0    0  501  0.00000000000E+00  0.00000000000E+00 -0.14516371422E+04  0.14516371422E+04  0.50400001928E-02 0. -1.
    10030    2    1    2    0    0  0.00000000000E+00  0.00000000000E+00  0.11573786831E+03  0.30190121526E+04  0.30167928540E+04 0.  0.
        4    1    3    3  502    0 -0.29704544295E+03 -0.96755804773E+03  0.11771073586E+04  0.15524135781E+04  0.12699999809E+01 0.  1.
       -4    1    3    3    0  502  0.29704544295E+03  0.96755804773E+03 -0.10613694903E+04  0.14665985745E+04  0.12699999809E+01 0. -1.
</event>
<event>
 5   0  0.1372952E-07  0.3677119E+04  0.7818609E-02  0.8073051E-01
       -1   -1    0    0    0  501  0.00000000000E+00  0.00000000000E+00  0.13924657414E+04  0.13924657414E+04  0.50400001928E-02 0.  1.
        1   -1    0    0  501    0  0.00000000000E+00  0.00000000000E+00 -0.24275651650E+04  0.24275651650E+04  0.50400001928E-02 0. -1.
    10030    2    1    2    0    0  0.00000000000E+00  0.00000000000E+00 -0.10350994236E+04  0.38200309063E+04  0.36771191589E+04 0.  0.
        1    1    3    3  502    0 -0.17301449333E+04  0.62170037559E+03 -0.49707379159E+03  0.19044671700E+04  0.50400001928E-02 0.  1.
       -1    1    3    3    0  502  0.17301449333E+04 -0.62170037559E+03 -0.53802563201E+03  0.19155637363E+04  0.50400001928E-02 0. -1.
</event>
<event>
 5   0  0.1351000E-07  0.3830365E+04  0.7818609E-02  0.8039670E-01
        1   -1    0    0  501    0  0.00000000000E+00  0.00000000000E+00  0.13837288179E+04  0.13837288179E+04  0.50400001928E-02 0.  1.
       -1   -1    0    0    0  501  0.00000000000E+00  0.00000000000E+00 -0.26507535692E+04  0.26507535693E+04  0.50400001928E-02 0. -1.
    10030    2    1    2    0    0  0.00000000000E+00  0.00000000000E+00 -0.12670247513E+04  0.40344823872E+04  0.38303650494E+04 0.  0.
        4    1    3    3  502    0  0.18380198662E+04 -0.65422250289E+02 -0.70888875398E+02  0.18405499028E+04  0.12699999809E+01 0. -1.
       -4    1    3    3    0  502 -0.18380198662E+04  0.65422250289E+02 -0.11961358759E+04  0.21939324843E+04  0.12699999809E+01 0.  1.
</event>
<event>
 5   0  0.4149487E-07  0.3980457E+04  0.7818609E-02  0.8008501E-01
        2   -1    0    0  501    0  0.00000000000E+00  0.00000000000E+00  0.26163006925E+04  0.26163006925E+04  0.25500000920E-02 0.  1.
       -2   -1    0    0    0  501  0.00000000000E+00  0.00000000000E+00 -0.15139729882E+04  0.15139729882E+04  0.25500000920E-02 0. -1.
    10030    2    1    2    0    0  0.00000000000E+00  0.00000000000E+00  0.11023277042E+04  0.41302736807E+04  0.39804565454E+04 0.  0.
        2    1    3    3  502    0  0.17585638108E+03  0.52191628010E+03 -0.14333273730E+04  0.15354964762E+04  0.25500000920E-02 0. -1.
       -2    1    3    3    0  502 -0.17585638108E+03 -0.52191628010E+03  0.25356550772E+04  0.25947772045E+04  0.25500000920E-02 0.  1.
</event>
<event>
 5   0  0.4301754E-07  0.3905364E+04  0.7818609E-02  0.8023915E-01
        2   -1    0    0  501    0  0.00000000000E+00  0.00000000000E+00  0.22100700166E+04  0.22100700166E+04  0.25500000920E-02 0. -1.
       -2   -1    0    0    0  501  0.00000000000E+00  0.00000000000E+00 -0.17252697595E+04  0.17252697595E+04  0.25500000920E-02 0.  1.
    10030    2    1    2    0    0  0.00000000000E+00  0.00000000000E+00  0.48480025707E+03  0.39353397762E+04  0.39053639862E+04 0.  0.
        1    1    3    3  502    0  0.64127840954E+03 -0.11669798270E+04 -0.11968085815E+04  0.17903716642E+04  0.50400001928E-02 0.  1.
       -1    1    3    3    0  502 -0.64127840954E+03  0.11669798270E+04  0.16816088386E+04  0.21449681119E+04  0.50400001928E-02 0. -1.
</event>
<event>
 5   0  0.4077370E-07  0.4072704E+04  0.7818609E-02  0.7990038E-01
       -2   -1    0    0    0  501  0.00000000000E+00  0.00000000000E+00  0.25583810518E+04  0.25583810518E+04  0.25500000920E-02 0. -1.
        2   -1    0    0  501    0  0.00000000000E+00  0.00000000000E+00 -0.16208408909E+04  0.16208408909E+04  0.25500000920E-02 0.  1.
    10030    2    1    2    0    0  0.00000000000E+00  0.00000000000E+00  0.93754016086E+03  0.41792219427E+04  0.40727035852E+04 0.  0.
        3    1    3    3  502    0  0.79692518082E+03 -0.47180377658E+03 -0.13922335250E+04  0.16721252183E+04  0.10100000352E+00 0.  1.
       -3    1    3    3    0  502 -0.79692518082E+03  0.47180377658E+03  0.23297736859E+04  0.25070967243E+04  0.10100000352E+00 0. -1.
</event>
<event>
 5   0  0.4301754E-07  0.3871519E+04  0.7818609E-02  0.8030979E-01
        2   -1    0    0  501    0  0.00000000000E+00  0.00000000000E+00  0.12263211741E+04  0.12263211741E+04  0.25500000920E-02 0. -1.
       -2   -1    0    0    0  501  0.00000000000E+00  0.00000000000E+00 -0.30556149198E+04  0.30556149198E+04  0.25500000920E-02 0.  1.
    10030    2    1    2    0    0  0.00000000000E+00  0.00000000000E+00 -0.18292937457E+04  0.42819360939E+04  0.38715192243E+04 0.  0.
        1    1    3    3  502    0 -0.10218529774E+04  0.14945877345E+04 -0.15705937677E+03  0.18173177079E+04  0.50400001928E-02 0. -1.
       -1    1    3    3    0  502  0.10218529774E+04 -0.14945877345E+04 -0.16722343690E+04  0.24646183860E+04  0.50400001928E-02 0.  1.
</event>
<event>
 5   0  0.4079777E-07  0.3967026E+04  0.7818609E-02  0.8011232E-01
       -2   -1    0    0    0  501  0.00000000000E+00  0.00000000000E+00  0.14127708712E+04  0.14127708712E+04  0.25500000920E-02 0.  1.
        2   -1    0    0  501    0  0.00000000000E+00  0.00000000000E+00 -0.27848278050E+04  0.27848278050E+04  0.25500000920E-02 0. -1.
    10030    2    1    2    0    0  0.00000000000E+00  0.00000000000E+00 -0.13720569339E+04  0.41975986762E+04  0.39670258906E+04 0.  0.
        4    1    3    3  502    0  0.67644509348E+03  0.17383864759E+04 -0.13995799792E+04  0.23320358563E+04  0.12699999809E+01 0. -1.
       -4    1    3    3    0  502 -0.67644509348E+03 -0.17383864759E+04  0.27523045339E+02  0.18655628199E+04  0.12699999809E+01 0.  1.
</event>
<event>
 5   0  0.1351000E-07  0.3949624E+04  0.7818609E-02  0.8014787E-01
        1   -1    0    0  501    0  0.00000000000E+00  0.00000000000E+00  0.15375431562E+04  0.15375431562E+04  0.50400001928E-02 0.  1.
       -1   -1    0    0    0  501  0.00000000000E+00  0.00000000000E+00 -0.25364381159E+04  0.25364381159E+04  0.50400001928E-02 0. -1.
    10030    2    1    2    0    0  0.00000000000E+00  0.00000000000E+00 -0.99889495977E+03  0.40739812721E+04  0.39496243194E+04 0.  0.
        3    1    3    3  502    0 -0.11882812475E+04  0.16160715617E+03 -0.21178463019E+04  0.24338040523E+04  0.10100000352E+00 0. -1.
       -3    1    3    3    0  502  0.11882812475E+04 -0.16160715617E+03  0.11189513421E+04  0.16401772198E+04  0.10100000352E+00 0.  1.
</event>
<event>
 5   0  0.1372952E-07  0.2444335E+04  0.7818609E-02  0.8423089E-01
       -1   -1    0    0    0  501  0.00000000000E+00  0.00000000000E+00  0.76371095911E+03  0.76371095912E+03  0.50400001928E-02 0. -1.
        1   -1    0    0  501    0  0.00000000000E+00  0.00000000000E+00 -0.19558364841E+04  0.19558364842E+04  0.50400001928E-02 0.  1.
    10030    2    1    2    0    0  0.00000000000E+00  0.00000000000E+00 -0.11921255250E+04  0.27195474433E+04  0.24443352939E+04 0.  0.
        1    1    3    3  502    0  0.89158851086E+03  0.16443621013E+03 -0.15079296145E+04  0.17594945474E+04  0.50400001928E-02 0.  1.
       -1    1    3    3    0  502 -0.89158851086E+03 -0.16443621013E+03  0.31580408951E+03  0.96005289587E+03  0.50400001928E-02 0. -1.
</event>
<event>
 5   0  0.1351000E-07  0.3874907E+04  0.7818609E-02  0.8030268E-01
       -3   -1    0    0    0  501  0.00000000000E+00  0.00000000000E+00  0.20592173975E+04  0.20592174000E+04  0.10100000352E+00 0. -1.
        3   -1    0    0  501    0  0.00000000000E+00  0.00000000000E+00 -0.18228892505E+04  0.18228892533E+04  0.10100000352E+00 0.  1.
    10030    2    1    2    0    0  0.00000000000E+00  0.00000000000E+00  0.23632814705E+03  0.38821066533E+04  0.38749065891E+04 0.  0.
        4    1    3    3  502    0 -0.47862216518E+03 -0.14415202863E+04 -0.10868441855E+04  0.18676969265E+04  0.12699999809E+01 0.  1.
       -4    1    3    3    0  502  0.47862216518E+03  0.14415202863E+04  0.13231723326E+04  0.20144097268E+04  0.12699999809E+01 0. -1.
</event>
<event>
 5   0  0.1372952E-07  0.4035772E+04  0.7818609E-02  0.7997369E-01
       -1   -1    0    0    0  501  0.00000000000E+00  0.00000000000E+00  0.21235688456E+04  0.21235688457E+04  0.50400001928E-02 0.  1.
        1   -1    0    0  501    0  0.00000000000E+00  0.00000000000E+00 -0.19174625295E+04  0.19174625295E+04  0.50400001928E-02 0. -1.
    10030    2    1    2    0    0  0.00000000000E+00  0.00000000000E+00  0.20610631615E+03  0.40410313752E+04  0.40357718917E+04 0.  0.
        1    1    3    3  502    0 -0.67281322121E+03  0.12672429520E+04  0.15238037560E+04  0.20929787904E+04  0.50400001928E-02 0.  1.
       -1    1    3    3    0  502  0.67281322121E+03 -0.12672429520E+04 -0.13176974398E+04  0.19480525848E+04  0.50400001928E-02 0. -1.
</event>
<event>
 5   0  0.1351000E-07  0.3760353E+04  0.7818609E-02  0.8054717E-01
       -1   -1    0    0    0  501  0.00000000000E+00  0.00000000000E+00  0.23838972216E+04  0.23838972216E+04  0.50400001928E-02 0.  1.
        1   -1    0    0  501    0  0.00000000000E+00  0.00000000000E+00 -0.14828929754E+04  0.14828929754E+04  0.50400001928E-02 0. -1.
    10030    2    1    2    0    0  0.00000000000E+00  0.00000000000E+00  0.90100424620E+03  0.38667901971E+04  0.37603534111E+04 0.  0.
        4    1    3    3  502    0  0.10557689935E+04  0.13588180060E+04  0.12295938521E+04  0.21149319599E+04  0.12699999809E+01 0.  1.
       -4    1    3    3    0  502 -0.10557689935E+04 -0.13588180060E+04 -0.32858960591E+03  0.17518582371E+04  0.12699999809E+01 0. -1.
</event>
<event>
 5   0  0.1351000E-07  0.4027736E+04  0.7818609E-02  0.7998975E-01
        1   -1    0    0  501    0  0.00000000000E+00  0.00000000000E+00  0.24827347341E+04  0.24827347341E+04  0.50400001928E-02 0. -1.
       -1   -1    0    0    0  501  0.00000000000E+00  0.00000000000E+00 -0.16335473896E+04  0.16335473896E+04  0.50400001928E-02 0.  1.
    10030    2    1    2    0    0  0.00000000000E+00  0.00000000000E+00  0.84918734448E+03  0.41162821237E+04  0.40277362594E+04 0.  0.
        3    1    3    3  502    0 -0.19166422597E+04 -0.40997063976E+03  0.89744366732E+03  0.21556898254E+04  0.10100000352E+00 0. -1.
       -3    1    3    3    0  502  0.19166422597E+04  0.40997063976E+03 -0.48256322848E+02  0.19605922983E+04  0.10100000352E+00 0.  1.
</event>
<event>
 5   0  0.4079777E-07  0.3765536E+04  0.7818609E-02  0.8053591E-01
        2   -1    0    0  501    0  0.00000000000E+00  0.00000000000E+00  0.17962785132E+04  0.17962785132E+04  0.25500000920E-02 0.  1.
       -2   -1    0    0    0  501  0.00000000000E+00  0.00000000000E+00 -0.19734221646E+04  0.19734221646E+04  0.25500000920E-02 0. -1.
    10030    2    1    2    0    0  0.00000000000E+00  0.00000000000E+00 -0.17714365143E+03  0.37697006778E+04  0.37655362602E+04 0.  0.
        4    1    3    3  502    0  0.10899129949E+04  0.14243754500E+04  0.48482548872E+03  0.18579055752E+04  0.12699999809E+01 0.  1.
       -4    1    3    3    0  502 -0.10899129949E+04 -0.14243754500E+04 -0.66196914015E+03  0.19117951026E+04  0.12699999809E+01 0. -1.
</event>
<event>
 5   0  0.1421304E-07  0.4038134E+04  0.7818609E-02  0.7996898E-01
        1   -1    0    0  501    0  0.00000000000E+00  0.00000000000E+00  0.16489333548E+04  0.16489333548E+04  0.50400001928E-02 0.  1.
       -1   -1    0    0    0  501  0.00000000000E+00  0.00000000000E+00 -0.24722835106E+04  0.24722835106E+04  0.50400001928E-02 0. -1.
    10030    2    1    2    0    0  0.00000000000E+00  0.00000000000E+00 -0.82335015583E+03  0.41212168654E+04  0.40381336001E+04 0.  0.
        2    1    3    3  502    0  0.67329780279E+03 -0.12722171801E+04 -0.18567036709E+04  0.23493009612E+04  0.25500000920E-02 0. -1.
       -2    1    3    3    0  502 -0.67329780279E+03  0.12722171801E+04  0.10333535151E+04  0.17719159042E+04  0.25500000920E-02 0.  1.
</event>
<event>
 5   0  0.1351000E-07  0.3965931E+04  0.7818609E-02  0.8011455E-01
       -1   -1    0    0    0  501  0.00000000000E+00  0.00000000000E+00  0.22719609688E+04  0.22719609688E+04  0.50400001928E-02 0. -1.
        1   -1    0    0  501    0  0.00000000000E+00  0.00000000000E+00 -0.17307301980E+04  0.17307301980E+04  0.50400001928E-02 0.  1.
    10030    2    1    2    0    0  0.00000000000E+00  0.00000000000E+00  0.54123077087E+03  0.40026911668E+04  0.39659306385E+04 0.  0.
        3    1    3    3  502    0  0.12533293383E+04  0.54550041523E+03  0.17205056164E+04  0.21973949848E+04  0.10100000352E+00 0. -1.
       -3    1    3    3    0  502 -0.12533293383E+04 -0.54550041523E+03 -0.11792748455E+04  0.18052961820E+04  0.10100000352E+00 0.  1.
</event>
<event>
 5   0  0.4047916E-07  0.4057079E+04  0.7818609E-02  0.7993130E-01
        2   -1    0    0  501    0  0.00000000000E+00  0.00000000000E+00  0.33868904507E+04  0.33868904507E+04  0.25500000920E-02 0.  1.
       -2   -1    0    0    0  501  0.00000000000E+00  0.00000000000E+00 -0.12149706389E+04  0.12149706389E+04  0.25500000920E-02 0. -1.
    10030    2    1    2    0    0  0.00000000000E+00  0.00000000000E+00  0.21719198118E+04  0.46018610897E+04  0.40570789763E+04 0.  0.
        5    1    3    3  502    0 -0.51731187160E+03  0.19326644368E+04  0.70610843748E+03  0.21216537449E+04  0.46999998093E+01 0.  1.
       -5    1    3    3    0  502  0.51731187160E+03 -0.19326644368E+04  0.14658113743E+04  0.24802073447E+04  0.46999998093E+01 0. -1.
</event>
<event>
 5   0  0.1421304E-07  0.3995052E+04  0.7818609E-02  0.8005545E-01
        1   -1    0    0  501    0  0.00000000000E+00  0.00000000000E+00  0.15447131418E+04  0.15447131419E+04  0.50400001928E-02 0.  1.
       -1   -1    0    0    0  501  0.00000000000E+00  0.00000000000E+00 -0.25830750464E+04  0.25830750464E+04  0.50400001928E-02 0. -1.
    10030    2    1    2    0    0  0.00000000000E+00  0.00000000000E+00 -0.10383619045E+04  0.41277881882E+04  0.39950519248E+04 0.  0.
        2    1    3    3  502    0 -0.34156453607E+03  0.14541017328E+04 -0.18895319478E+04  0.24086114596E+04  0.25500000920E-02 0. -1.
       -2    1    3    3    0  502  0.34156453607E+03 -0.14541017328E+04  0.85117004327E+03  0.17191767286E+04  0.25500000920E-02 0.  1.
</event>
<event>
 5   0  0.1368865E-07  0.2652848E+04  0.7818609E-02  0.8350468E-01
        1   -1    0    0  501    0  0.00000000000E+00  0.00000000000E+00  0.11182658035E+04  0.11182658036E+04  0.50400001928E-02 0. -1.
       -1   -1    0    0    0  501  0.00000000000E+00  0.00000000000E+00 -0.15733290076E+04  0.15733290076E+04  0.50400001928E-02 0.  1.
    10030    2    1    2    0    0  0.00000000000E+00  0.00000000000E+00 -0.45506320402E+03  0.26915948111E+04  0.26528475470E+04 0.  0.
        5    1    3    3  502    0  0.11581181582E+04 -0.22626939343E+03  0.38707377575E+03  0.12418871546E+04  0.46999998093E+01 0. -1.
       -5    1    3    3    0  502 -0.11581181582E+04  0.22626939343E+03 -0.84213697977E+03  0.14497076566E+04  0.46999998093E+01 0.  1.
</event>
<event>
 5   0  0.1368865E-07  0.3844166E+04  0.7818609E-02  0.8036743E-01
       -1   -1    0    0    0  501  0.00000000000E+00  0.00000000000E+00  0.33497115024E+04  0.33497115024E+04  0.50400001928E-02 0.  1.
        1   -1    0    0  501    0  0.00000000000E+00  0.00000000000E+00 -0.11029021340E+04  0.11029021340E+04  0.50400001928E-02 0. -1.
    10030    2    1    2    0    0  0.00000000000E+00  0.00000000000E+00  0.22468093685E+04  0.44526136364E+04  0.38441664711E+04 0.  0.
        5    1    3    3  502    0  0.18068002628E+04  0.20010302154E+03  0.40023328129E+03  0.18613911943E+04  0.46999998093E+01 0. -1.
       -5    1    3    3    0  502 -0.18068002628E+04 -0.20010302154E+03  0.18465760872E+04  0.25912224421E+04  0.46999998093E+01 0.  1.
</event>
<event>
 5   0  0.4149487E-07  0.3992744E+04  0.7818609E-02  0.8006012E-01
       -2   -1    0    0    0  501  0.00000000000E+00  0.00000000000E+00  0.19187653924E+04  0.19187653924E+04  0.25500000920E-02 0. -1.
        2   -1    0    0  501    0  0.00000000000E+00  0.00000000000E+00 -0.20771172905E+04  0.20771172905E+04  0.25500000920E-02 0.  1.
    10030    2    1    2    0    0  0.00000000000E+00  0.00000000000E+00 -0.15835189803E+03  0.39958826829E+04  0.39927438049E+04 0.  0.
        2    1    3    3  502    0 -0.12964497626E+04  0.62835446037E+03  0.13038979972E+04  0.19431318283E+04  0.25500000920E-02 0. -1.
       -2    1    3    3    0  502  0.12964497626E+04 -0.62835446037E+03 -0.14622498953E+04  0.20527508546E+04  0.25500000920E-02 0.  1.
</event>
<event>
 5   0  0.4149487E-07  0.4132061E+04  0.7818609E-02  0.7978423E-01
       -2   -1    0    0    0  501  0.00000000000E+00  0.00000000000E+00  0.14156730877E+04  0.14156730877E+04  0.25500000920E-02 0. -1.
        2   -1    0    0  501    0  0.00000000000E+00  0.00000000000E+00 -0.30151602378E+04  0.30151602378E+04  0.25500000920E-02 0.  1.
    10030    2    1    2    0    0  0.00000000000E+00  0.00000000000E+00 -0.15994871501E+04  0.44308333254E+04  0.41320606015E+04 0.  0.
        2    1    3    3  502    0  0.14691738393E+04 -0.47755877142E+03 -0.22707766296E+04  0.27464450936E+04  0.25500000920E-02 0. -1.
       -2    1    3    3    0  502 -0.14691738393E+04  0.47755877142E+03  0.67128947955E+03  0.16843882319E+04  0.25500000920E-02 0.  1.
</event>
<event>
 5   0  0.4077370E-07  0.4021312E+04  0.7818609E-02  0.8000261E-01
       -2   -1    0    0    0  501  0.00000000000E+00  0.00000000000E+00  0.15489135078E+04  0.15489135078E+04  0.25500000920E-02 0.  1.
        2   -1    0    0  501    0  0.00000000000E+00  0.00000000000E+00 -0.26100475546E+04  0.26100475546E+04  0.25500000920E-02 0. -1.
    10030    2    1    2    0    0  0.00000000000E+00  0.00000000000E+00 -0.10611340468E+04  0.41589610624E+04  0.40213121806E+04 0.  0.
        3    1    3    3  502    0 -0.15976913301E+04  0.64432137793E+03 -0.16028645235E+04  0.23530708266E+04  0.10100000352E+00 0. -1.
       -3    1    3    3    0  502  0.15976913301E+04 -0.64432137793E+03  0.54173047668E+03  0.18058902358E+04  0.10100000352E+00 0.  1.
</event>
<event>
 5   0  0.4079777E-07  0.4112039E+04  0.7818609E-02  0.7982318E-01
       -2   -1    0    0    0  501  0.00000000000E+00  0.00000000000E+00  0.17937293435E+04  0.17937293435E+04  0.25500000920E-02 0. -1.
        2   -1    0    0  501    0  0.00000000000E+00  0.00000000000E+00 -0.23566634277E+04  0.23566634277E+04  0.25500000920E-02 0.  1.
    10030    2    1    2    0    0  0.00000000000E+00  0.00000000000E+00 -0.56293408421E+03  0.41503927712E+04  0.41120390771E+04 0.  0.
        4    1    3    3  502    0  0.10436215223E+04  0.62255211932E+03  0.13924641745E+04  0.18481545155E+04  0.12699999809E+01 0. -1.
       -4    1    3    3    0  502 -0.10436215223E+04 -0.62255211932E+03 -0.19553982587E+04  0.23022382557E+04  0.12699999809E+01 0.  1.
</event>
<event>
 5   0  0.1372952E-07  0.3971938E+04  0.7818609E-02  0.8010232E-01
       -1   -1    0    0    0  501  0.00000000000E+00  0.00000000000E+00  0.24084446305E+04  0.24084446305E+04  0.50400001928E-02 0. -1.
        1   -1    0    0  501    0  0.00000000000E+00  0.00000000000E+00 -0.16376016678E+04  0.16376016678E+04  0.50400001928E-02 0.  1.
    10030    2    1    2    0    0  0.00000000000E+00  0.00000000000E+00  0.77084296264E+03  0.40460462983E+04  0.39719380377E+04 0.  0.
        1    1    3    3  502    0  0.13388446893E+04  0.55803284706E+02  0.18785300791E+04  0.23074865908E+04  0.50400001928E-02 0. -1.
       -1    1    3    3    0  502 -0.13388446893E+04 -0.55803284706E+02 -0.11076871164E+04  0.17385597075E+04  0.50400001928E-02 0.  1.
</event>
<event>
 5   0  0.4079777E-07  0.4034057E+04  0.7818609E-02  0.7997711E-01
        2   -1    0    0  501    0  0.00000000000E+00  0.00000000000E+00  0.22851697295E+04  0.22851697295E+04  0.25500000920E-02 0.  1.
       -2   -1    0    0    0  501  0.00000000000E+00  0.00000000000E+00 -0.17803508724E+04  0.17803508724E+04  0.25500000920E-02 0. -1.
    10030    2    1    2    0    0  0.00000000000E+00  0.00000000000E+00  0.50481885711E+03  0.40655206019E+04  0.40340569760E+04 0.  0.
        4    1    3    3  502    0 -0.30805930057E+03 -0.83188992734E+03  0.20780183817E+04  0.22594475854E+04  0.12699999809E+01 0.  1.
       -4    1    3    3    0  502  0.30805930057E+03  0.83188992734E+03 -0.15731995245E+04  0.18060730165E+04  0.12699999809E+01 0. -1.
</event>
<event>
 5   0  0.1351000E-07  0.2799018E+04  0.7818609E-02  0.8303573E-01
        1   -1    0    0  501    0  0.00000000000E+00  0.00000000000E+00  0.11925132484E+04  0.11925132484E+04  0.50400001928E-02 0.  1.
       -1   -1    0    0    0  501  0.00000000000E+00  0.00000000000E+00 -0.16424348923E+04  0.16424348923E+04  0.50400001928E-02 0. -1.
    10030    2    1    2    0    0  0.00000000000E+00  0.00000000000E+00 -0.44992164394E+03  0.28349481407E+04  0.27990179483E+04 0.  0.
        4    1    3    3  502    0 -0.10370525684E+04 -0.21570776597E+03 -0.11513692319E+04  0.15645001089E+04  0.12699999809E+01 0. -1.
       -4    1    3    3    0  502  0.10370525684E+04  0.21570776597E+03  0.70144758792E+03  0.12704480318E+04  0.12699999809E+01 0.  1.
</event>
<event>
 5   0  0.4301754E-07  0.3769022E+04  0.7818609E-02  0.8052836E-01
       -2   -1    0    0    0  501  0.00000000000E+00  0.00000000000E+00  0.19100922312E+04  0.19100922312E+04  0.25500000920E-02 0.  1.
        2   -1    0    0  501    0  0.00000000000E+00  0.00000000000E+00 -0.18592718957E+04  0.18592718957E+04  0.25500000920E-02 0. -1.
    10030    2    1    2    0    0  0.00000000000E+00  0.00000000000E+00  0.50820335539E+02  0.37693641269E+04  0.37690215195E+04 0.  0.
        1    1    3    3  502    0 -0.15150754947E+04 -0.23190943580E+03 -0.10711132586E+04  0.18698982202E+04  0.50400001928E-02 0. -1.
       -1    1    3    3    0  502  0.15150754947E+04  0.23190943580E+03  0.11219335941E+04  0.18994659067E+04  0.50400001928E-02 0.  1.
</event>
<event>
 5   0  0.1351000E-07  0.4001706E+04  0.7818609E-02  0.8004202E-01
        1   -1    0    0  501    0  0.00000000000E+00  0.00000000000E+00  0.27393540900E+04  0.27393540900E+04  0.50400001928E-02 0.  1.
       -1   -1    0    0    0  501  0.00000000000E+00  0.00000000000E+00 -0.14614443969E+04  0.14614443969E+04  0.50400001928E-02 0. -1.
    10030    2    1    2    0    0  0.00000000000E+00  0.00000000000E+00  0.12779096931E+04  0.42007984869E+04  0.40017064790E+04 0.  0.
        3    1    3    3  502    0  0.18947598289E+04  0.63758776487E+03  0.55251297600E+03  0.20741030751E+04  0.10100000352E+00 0. -1.
       -3    1    3    3    0  502 -0.18947598289E+04 -0.63758776487E+03  0.72539671713E+03  0.21266954118E+04  0.10100000352E+00 0.  1.
</event>
<event>
 5   0  0.4077370E-07  0.3735699E+04  0.7818609E-02  0.8060096E-01
       -2   -1    0    0    0  501  0.00000000000E+00  0.00000000000E+00  0.11774483851E+04  0.11774483851E+04  0.25500000920E-02 0. -1.
        2   -1    0    0  501    0  0.00000000000E+00  0.00000000000E+00 -0.29630697184E+04  0.29630697184E+04  0.25500000920E-02 0.  1.
    10030    2    1    2    0    0  0.00000000000E+00  0.00000000000E+00 -0.17856213334E+04  0.41405181035E+04  0.37356989466E+04 0.  0.
        3    1    3    3  502    0 -0.66499963107E+03  0.10020631789E+04  0.69122349609E+03  0.13871355578E+04  0.10100000352E+00 0. -1.
       -3    1    3    3    0  502  0.66499963107E+03 -0.10020631789E+04 -0.24768448295E+04  0.27533825458E+04  0.10100000352E+00 0.  1.
</event>
<event>
 5   0  0.1368865E-07  0.3137848E+04  0.7818609E-02  0.8205427E-01
       -1   -1    0    0    0  501  0.00000000000E+00  0.00000000000E+00  0.10239915071E+04  0.10239915071E+04  0.50400001928E-02 0. -1.
        1   -1    0    0  501    0  0.00000000000E+00  0.00000000000E+00 -0.24038499429E+04  0.24038499429E+04  0.50400001928E-02 0.  1.
    10030    2    1    2    0    0  0.00000000000E+00  0.00000000000E+00 -0.13798584358E+04  0.34278414500E+04  0.31378476227E+04 0.  0.
        5    1    3    3  502    0 -0.91655759595E+03 -0.12051125250E+04 -0.11391851523E+04  0.18947661929E+04  0.46999998093E+01 0. -1.
       -5    1    3    3    0  502  0.91655759595E+03  0.12051125250E+04 -0.24067328346E+03  0.15330752571E+04  0.46999998093E+01 0.  1.
</event>
<event>
 5   0  0.4301754E-07  0.4032306E+04  0.7818609E-02  0.7998061E-01
       -2   -1    0    0    0  501  0.00000000000E+00  0.00000000000E+00  0.19397729077E+04  0.19397729077E+04  0.25500000920E-02 0.  1.
        2   -1    0    0  501    0  0.00000000000E+00  0.00000000000E+00 -0.20955401601E+04  0.20955401601E+04  0.25500000920E-02 0. -1.
    10030    2    1    2    0    0  0.00000000000E+00  0.00000000000E+00 -0.15576725247E+03  0.40353130678E+04  0.40323055587E+04 0.  0.
        1    1    3    3  502    0  0.12854113380E+04  0.10279956276E+04 -0.12431466625E+04  0.20626368907E+04  0.50400001928E-02 0. -1.
       -1    1    3    3    0  502 -0.12854113380E+04 -0.10279956276E+04  0.10873794101E+04  0.19726761771E+04  0.50400001928E-02 0.  1.
</event>
<event>
 5   0  0.4077370E-07  0.4007285E+04  0.7818609E-02  0.8003078E-01
        2   -1    0    0  501    0  0.00000000000E+00  0.00000000000E+00  0.14533587240E+04  0.14533587240E+04  0.25500000920E-02 0.  1.
       -2   -1    0    0    0  501  0.00000000000E+00  0.00000000000E+00 -0.27622801176E+04  0.27622801176E+04  0.25500000920E-02 0. -1.
    10030    2    1    2    0    0  0.00000000000E+00  0.00000000000E+00 -0.13089213936E+04  0.42156388416E+04  0.40072853191E+04 0.  0.
        3    1    3    3  502    0 -0.19749086689E+04 -0.31673289980E+03 -0.77893389792E+03  0.21464673321E+04  0.10100000352E+00 0. -1.
       -3    1    3    3    0  502  0.19749086689E+04  0.31673289980E+03 -0.52998749563E+03  0.20691715095E+04  0.10100000352E+00 0.  1.
</event>
<event>
 5   0  0.1351000E-07  0.3966365E+04  0.7818609E-02  0.8011366E-01
        3   -1    0    0  501    0  0.00000000000E+00  0.00000000000E+00  0.18921846675E+04  0.18921846702E+04  0.10100000352E+00 0.  1.
       -3   -1    0    0    0  501  0.00000000000E+00  0.00000000000E+00 -0.20785562873E+04  0.20785562898E+04  0.10100000352E+00 0. -1.
    10030    2    1    2    0    0  0.00000000000E+00  0.00000000000E+00 -0.18637161978E+03  0.39707409600E+04  0.39663647577E+04 0.  0.
        4    1    3    3  502    0  0.19273558950E+04 -0.92587691265E+01  0.37447440401E+03  0.19634202716E+04  0.12699999809E+01 0.  1.
       -4    1    3    3    0  502 -0.19273558950E+04  0.92587691265E+01 -0.56084602379E+03  0.20073206884E+04  0.12699999809E+01 0. -1.
</event>
<event>
 5   0  0.1351000E-07  0.3994412E+04  0.7818609E-02  0.8005675E-01
       -1   -1    0    0    0  501  0.00000000000E+00  0.00000000000E+00  0.18040990349E+04  0.18040990349E+04  0.50400001928E-02 0. -1.
        1   -1    0    0  501    0  0.00000000000E+00  0.00000000000E+00 -0.22109827405E+04  0.22109827405E+04  0.50400001928E-02 0.  1.
    10030    2    1    2    0    0  0.00000000000E+00  0.00000000000E+00 -0.40688370556E+03  0.40150817755E+04  0.39944120110E+04 0.  0.
        4    1    3    3  502    0 -0.14304535266E+04  0.94686216916E+03 -0.12315173640E+04  0.21117248613E+04  0.12699999809E+01 0.  1.
       -4    1    3    3    0  502  0.14304535266E+04 -0.94686216916E+03  0.82463365847E+03  0.19033569141E+04  0.12699999809E+01 0. -1.
</event>
<event>
 5   0  0.1421304E-07  0.3914813E+04  0.7818609E-02  0.8021955E-01
        1   -1    0    0  501    0  0.00000000000E+00  0.00000000000E+00  0.12636632715E+04  0.12636632715E+04  0.50400001928E-02 0.  1.
       -1   -1    0    0    0  501  0.00000000000E+00  0.00000000000E+00 -0.30320099241E+04  0.30320099241E+04  0.50400001928E-02 0. -1.
    10030    2    1    2    0    0  0.00000000000E+00  0.00000000000E+00 -0.17683466526E+04  0.42956731957E+04  0.39148126801E+04 0.  0.
        2    1    3    3  502    0  0.17605293583E+03 -0.13647644382E+04 -0.24116752990E+04  0.27766444417E+04  0.25500000920E-02 0. -1.
       -2    1    3    3    0  502 -0.17605293583E+03  0.13647644382E+04  0.64332864639E+03  0.15190287539E+04  0.25500000920E-02 0.  1.
</event>
<event>
 5   0  0.4079777E-07  0.3027460E+04  0.7818609E-02  0.8235933E-01
       -2   -1    0    0    0  501  0.00000000000E+00  0.00000000000E+00  0.11568317050E+04  0.11568317050E+04  0.25500000920E-02 0.  1.
        2   -1    0    0  501    0  0.00000000000E+00  0.00000000000E+00 -0.19807363696E+04  0.19807363696E+04  0.25500000920E-02 0. -1.
    10030    2    1    2    0    0  0.00000000000E+00  0.00000000000E+00 -0.82390466466E+03  0.31375680746E+04  0.30274600784E+04 0.  0.
        4    1    3    3  502    0  0.19037807622E+03 -0.27099286622E+03 -0.19427290819E+04  0.19707559068E+04  0.12699999809E+01 0. -1.
       -4    1    3    3    0  502 -0.19037807622E+03  0.27099286622E+03  0.11188244173E+04  0.11668121678E+04  0.12699999809E+01 0.  1.
</event>
<event>
 5   0  0.4301754E-07  0.4017466E+04  0.7818609E-02  0.8001032E-01
        2   -1    0    0  501    0  0.00000000000E+00  0.00000000000E+00  0.28294966150E+04  0.28294966150E+04  0.25500000920E-02 0.  1.
       -2   -1    0    0    0  501  0.00000000000E+00  0.00000000000E+00 -0.14260517017E+04  0.14260517017E+04  0.25500000920E-02 0. -1.
    10030    2    1    2    0    0  0.00000000000E+00  0.00000000000E+00  0.14034449132E+04  0.42555483167E+04  0.40174660983E+04 0.  0.
        1    1    3    3  502    0 -0.15440476341E+04  0.96708916093E+03  0.15978253240E+04  0.24233015305E+04  0.50400001928E-02 0.  1.
       -1    1    3    3    0  502  0.15440476341E+04 -0.96708916093E+03 -0.19438041074E+03  0.18322467862E+04  0.50400001928E-02 0. -1.
</event>
<event>
 5   0  0.1372952E-07  0.3521954E+04  0.7818609E-02  0.8108607E-01
        1   -1    0    0  501    0  0.00000000000E+00  0.00000000000E+00  0.19445211416E+04  0.19445211416E+04  0.50400001928E-02 0. -1.
       -1   -1    0    0    0  501  0.00000000000E+00  0.00000000000E+00 -0.15947577430E+04  0.15947577430E+04  0.50400001928E-02 0.  1.
    10030    2    1    2    0    0  0.00000000000E+00  0.00000000000E+00  0.34976339858E+03  0.35392788847E+04  0.35219540867E+04 0.  0.
        1    1    3    3  502    0  0.41576799424E+03 -0.17055617895E+04  0.35505166473E+02  0.17558657864E+04  0.50400001928E-02 0. -1.
       -1    1    3    3    0  502 -0.41576799424E+03  0.17055617895E+04  0.31425823211E+03  0.17834130983E+04  0.50400001928E-02 0.  1.
</event>
<event>
 5   0  0.4047916E-07  0.3960049E+04  0.7818609E-02  0.8012655E-01
       -2   -1    0    0    0  501  0.00000000000E+00  0.00000000000E+00  0.31473229045E+04  0.31473229045E+04  0.25500000920E-02 0.  1.
        2   -1    0    0  501    0  0.00000000000E+00  0.00000000000E+00 -0.12456610059E+04  0.12456610059E+04  0.25500000920E-02 0. -1.
    10030    2    1    2    0    0  0.00000000000E+00  0.00000000000E+00  0.19016618985E+04  0.43929839104E+04  0.39600491993E+04 0.  0.
        5    1    3    3  502    0  0.36891117993E+03  0.79473678692E+03 -0.10188931725E+04  0.13438256606E+04  0.46999998093E+01 0. -1.
       -5    1    3    3    0  502 -0.36891117993E+03 -0.79473678692E+03  0.29205550710E+04  0.30491582498E+04  0.46999998093E+01 0.  1.
</event>
<event>
 5   0  0.1351000E-07  0.2626891E+04  0.7818609E-02  0.8359124E-01
       -1   -1    0    0    0  501  0.00000000000E+00  0.00000000000E+00  0.93994341858E+03  0.93994341859E+03  0.50400001928E-02 0.  1.
        1   -1    0    0  501    0  0.00000000000E+00  0.00000000000E+00 -0.18353648019E+04  0.18353648019E+04  0.50400001928E-02 0. -1.
    10030    2    1    2    0    0  0.00000000000E+00  0.00000000000E+00 -0.89542138334E+03  0.27753082205E+04  0.26268909884E+04 0.  0.
        4    1    3    3  502    0  0.76689316056E+03 -0.36710724682E+03  0.60997355159E+03  0.10464044137E+04  0.12699999809E+01 0.  1.
       -4    1    3    3    0  502 -0.76689316056E+03  0.36710724682E+03 -0.15053949349E+04  0.17289038069E+04  0.12699999809E+01 0. -1.
</event>
<event>
 5   0  0.1351000E-07  0.3922101E+04  0.7818609E-02  0.8020448E-01
        1   -1    0    0  501    0  0.00000000000E+00  0.00000000000E+00  0.24997331771E+04  0.24997331771E+04  0.50400001928E-02 0.  1.
       -1   -1    0    0    0  501  0.00000000000E+00  0.00000000000E+00 -0.15384520852E+04  0.15384520852E+04  0.50400001928E-02 0. -1.
    10030    2    1    2    0    0  0.00000000000E+00  0.00000000000E+00  0.96128109191E+03  0.40381852624E+04  0.39221013342E+04 0.  0.
        3    1    3    3  502    0  0.22257173623E+02 -0.16337313718E+04 -0.63596060594E+03  0.17532881906E+04  0.10100000352E+00 0. -1.
       -3    1    3    3    0  502 -0.22257173623E+02  0.16337313718E+04  0.15972416978E+04  0.22848970717E+04  0.10100000352E+00 0.  1.
</event>
<event>
 5   0  0.1421304E-07  0.4028714E+04  0.7818609E-02  0.7998779E-01
       -1   -1    0    0    0  501  0.00000000000E+00  0.00000000000E+00  0.26388504322E+04  0.26388504322E+04  0.50400001928E-02 0.  1.
        1   -1    0    0  501    0  0.00000000000E+00  0.00000000000E+00 -0.15376519202E+04  0.15376519202E+04  0.50400001928E-02 0. -1.
    10030    2    1    2    0    0  0.00000000000E+00  0.00000000000E+00  0.11011985120E+04  0.41765023524E+04  0.40287136579E+04 0.  0.
        2    1    3    3  502    0 -0.12359731880E+04 -0.97584773128E+03  0.18527521241E+04  0.24315836300E+04  0.25500000920E-02 0.  1.
       -2    1    3    3    0  502  0.12359731880E+04  0.97584773128E+03 -0.75155361213E+03  0.17449187225E+04  0.25500000920E-02 0. -1.
</event>
<event>
 5   0  0.4079777E-07  0.3487245E+04  0.7818609E-02  0.8116819E-01
        2   -1    0    0  501    0  0.00000000000E+00  0.00000000000E+00  0.21217189360E+04  0.21217189360E+04  0.25500000920E-02 0. -1.
       -2   -1    0    0    0  501  0.00000000000E+00  0.00000000000E+00 -0.14329042393E+04  0.14329042393E+04  0.25500000920E-02 0.  1.
    10030    2    1    2    0    0  0.00000000000E+00  0.00000000000E+00  0.68881469674E+03  0.35546231753E+04  0.34872453644E+04 0.  0.
        4    1    3    3  502    0 -0.48182095440E+03  0.10555435733E+04  0.16710509811E+04  0.20343885228E+04  0.12699999809E+01 0. -1.
       -4    1    3    3    0  502  0.48182095440E+03 -0.10555435733E+04 -0.98223628437E+03  0.15202346525E+04  0.12699999809E+01 0.  1.
</event>
<event>
 5   0  0.1372952E-07  0.3953826E+04  0.7818609E-02  0.8013927E-01
        1   -1    0    0  501    0  0.00000000000E+00  0.00000000000E+00  0.20987268598E+04  0.20987268598E+04  0.50400001928E-02 0.  1.
       -1   -1    0    0    0  501  0.00000000000E+00  0.00000000000E+00 -0.18621697824E+04  0.18621697824E+04  0.50400001928E-02 0. -1.
    10030    2    1    2    0    0  0.00000000000E+00  0.00000000000E+00  0.23655707742E+03  0.39608966422E+04  0.39538263694E+04 0.  0.
        1    1    3    3  502    0  0.13498215519E+04  0.95698443407E+03 -0.96548237163E+03  0.19157227459E+04  0.50400001928E-02 0. -1.
       -1    1    3    3    0  502 -0.13498215519E+04 -0.95698443407E+03  0.12020394491E+04  0.20451738963E+04  0.50400001928E-02 0.  1.
</event>
<event>
 5   0  0.1351000E-07  0.4000406E+04  0.7818609E-02  0.8004465E-01
        1   -1    0    0  501    0  0.00000000000E+00  0.00000000000E+00  0.22091883772E+04  0.22091883772E+04  0.50400001928E-02 0.  1.
       -1   -1    0    0    0  501  0.00000000000E+00  0.00000000000E+00 -0.18109870550E+04  0.18109870550E+04  0.50400001928E-02 0. -1.
    10030    2    1    2    0    0  0.00000000000E+00  0.00000000000E+00  0.39820132217E+03  0.40201754322E+04  0.40004057560E+04 0.  0.
        3    1    3    3  502    0 -0.16886265413E+04 -0.36548288021E+03  0.12119376491E+04  0.21104099619E+04  0.10100000352E+00 0.  1.
       -3    1    3    3    0  502  0.16886265413E+04  0.36548288021E+03 -0.81373632688E+03  0.19097654703E+04  0.10100000352E+00 0. -1.
</event>
<event>
 5   0  0.4149487E-07  0.2518069E+04  0.7818609E-02  0.8396576E-01
       -2   -1    0    0    0  501  0.00000000000E+00  0.00000000000E+00  0.57623072226E+03  0.57623072226E+03  0.25500000920E-02 0. -1.
        2   -1    0    0  501    0  0.00000000000E+00  0.00000000000E+00 -0.27509265063E+04  0.27509265063E+04  0.25500000920E-02 0.  1.
    10030    2    1    2    0    0  0.00000000000E+00  0.00000000000E+00 -0.21746957840E+04  0.33271572285E+04  0.25180693935E+04 0.  0.
        2    1    3    3  502    0 -0.60059214123E+03  0.86471392692E+03 -0.19996540971E+04  0.22598799976E+04  0.25500000920E-02 0.  1.
       -2    1    3    3    0  502  0.60059214123E+03 -0.86471392692E+03 -0.17504168693E+03  0.10672772309E+04  0.25500000920E-02 0. -1.
</event>
<event>
 5   0  0.4079777E-07  0.4013026E+04  0.7818609E-02  0.8001924E-01
       -2   -1    0    0    0  501  0.00000000000E+00  0.00000000000E+00  0.24976264535E+04  0.24976264535E+04  0.25500000920E-02 0.  1.
        2   -1    0    0  501    0  0.00000000000E+00  0.00000000000E+00 -0.16119681306E+04  0.16119681306E+04  0.25500000920E-02 0. -1.
    10030    2    1    2    0    0  0.00000000000E+00  0.00000000000E+00  0.88565832287E+03  0.41095945841E+04  0.40130259133E+04 0.  0.
        4    1    3    3  502    0 -0.77638031787E+03 -0.16743444091E+03  0.23298016905E+04  0.24614585554E+04  0.12699999809E+01 0.  1.
       -4    1    3    3    0  502  0.77638031787E+03  0.16743444091E+03 -0.14441433676E+04  0.16481360287E+04  0.12699999809E+01 0. -1.
</event>
<event>
 5   0  0.1368865E-07  0.3778909E+04  0.7818609E-02  0.8050696E-01
        1   -1    0    0  501    0  0.00000000000E+00  0.00000000000E+00  0.13637669288E+04  0.13637669288E+04  0.50400001928E-02 0.  1.
       -1   -1    0    0    0  501  0.00000000000E+00  0.00000000000E+00 -0.26177769178E+04  0.26177769178E+04  0.50400001928E-02 0. -1.
    10030    2    1    2    0    0  0.00000000000E+00  0.00000000000E+00 -0.12540099889E+04  0.39815438466E+04  0.37789086189E+04 0.  0.
        5    1    3    3  502    0 -0.86035194255E+03 -0.14049675801E+04 -0.16017489937E+04  0.22977731165E+04  0.46999998093E+01 0. -1.
       -5    1    3    3    0  502  0.86035194255E+03  0.14049675801E+04  0.34773900471E+03  0.16837707301E+04  0.46999998093E+01 0.  1.
</event>
<event>
 5   0  0.4079777E-07  0.2457199E+04  0.7818609E-02  0.8418394E-01
        2   -1    0    0  501    0  0.00000000000E+00  0.00000000000E+00  0.11508534158E+04  0.11508534158E+04  0.25500000920E-02 0. -1.
       -2   -1    0    0    0  501  0.00000000000E+00  0.00000000000E+00 -0.13115975859E+04  0.13115975859E+04  0.25500000920E-02 0.  1.
    10030    2    1    2    0    0  0.00000000000E+00  0.00000000000E+00 -0.16074417016E+03  0.24624510017E+04  0.24571988620E+04 0.  0.
        4    1    3    3  502    0  0.36050865287E+03 -0.25194582040E+03  0.10692555046E+04  0.11561799739E+04  0.12699999809E+01 0. -1.
       -4    1    3    3    0  502 -0.36050865287E+03  0.25194582040E+03 -0.12299996747E+04  0.13062710277E+04  0.12699999809E+01 0.  1.
</event>
<event>
 5   0  0.1421304E-07  0.3964814E+04  0.7818609E-02  0.8011683E-01
       -1   -1    0    0    0  501  0.00000000000E+00  0.00000000000E+00  0.22751666687E+04  0.22751666687E+04  0.50400001928E-02 0.  1.
        1   -1    0    0  501    0  0.00000000000E+00  0.00000000000E+00 -0.17273182130E+04  0.17273182130E+04  0.50400001928E-02 0. -1.
    10030    2    1    2    0    0  0.00000000000E+00  0.00000000000E+00  0.54784845563E+03  0.40024848817E+04  0.39648136524E+04 0.  0.
        2    1    3    3  502    0 -0.10417867934E+04 -0.42723203516E+03 -0.13731693660E+04  0.17757930742E+04  0.25500000920E-02 0. -1.
       -2    1    3    3    0  502  0.10417867934E+04  0.42723203516E+03  0.19210178216E+04  0.22266918075E+04  0.25500000920E-02 0.  1.
</event>
<event>
 5   0  0.4047916E-07  0.4064249E+04  0.7818609E-02  0.7991709E-01
        2   -1    0    0  501    0  0.00000000000E+00  0.00000000000E+00  0.28076438243E+04  0.28076438243E+04  0.25500000920E-02 0.  1.
       -2   -1    0    0    0  501  0.00000000000E+00  0.00000000000E+00 -0.14708167561E+04  0.14708167561E+04  0.25500000920E-02 0. -1.
    10030    2    1    2    0    0  0.00000000000E+00  0.00000000000E+00  0.13368270682E+04  0.42784605804E+04  0.40642488024E+04 0.  0.
        5    1    3    3  502    0  0.10961753615E+04 -0.13580036229E+04  0.17643072671E+04  0.24816479375E+04  0.46999998093E+01 0.  1.
       -5    1    3    3    0  502 -0.10961753615E+04  0.13580036229E+04 -0.42748019895E+03  0.17968126429E+04  0.46999998093E+01 0. -1.
</event>
<event>
 5   0  0.1351000E-07  0.3996002E+04  0.7818609E-02  0.8005354E-01
       -1   -1    0    0    0  501  0.00000000000E+00  0.00000000000E+00  0.17701993983E+04  0.17701993983E+04  0.50400001928E-02 0.  1.
        1   -1    0    0  501    0  0.00000000000E+00  0.00000000000E+00 -0.22551178424E+04  0.22551178424E+04  0.50400001928E-02 0. -1.
    10030    2    1    2    0    0  0.00000000000E+00  0.00000000000E+00 -0.48491844414E+03  0.40253172407E+04  0.39960021260E+04 0.  0.
        4    1    3    3  502    0  0.98358670471E+03 -0.63347283984E+03 -0.18739942227E+04  0.22092049711E+04  0.12699999809E+01 0. -1.
       -4    1    3    3    0  502 -0.98358670471E+03  0.63347283984E+03  0.13890757786E+04  0.18161122697E+04  0.12699999809E+01 0.  1.
</event>
<event>
 5   0  0.4077370E-07  0.4048267E+04  0.7818609E-02  0.7994880E-01
       -2   -1    0    0    0  501  0.00000000000E+00  0.00000000000E+00  0.17575845683E+04  0.17575845683E+04  0.25500000920E-02 0.  1.
        2   -1    0    0  501    0  0.00000000000E+00  0.00000000000E+00 -0.23311065871E+04  0.23311065871E+04  0.25500000920E-02 0. -1.
    10030    2    1    2    0    0  0.00000000000E+00  0.00000000000E+00 -0.57352201877E+03  0.40886911554E+04  0.40482672661E+04 0.  0.
        3    1    3    3  502    0  0.11827526926E+04  0.74855357958E+03  0.11899885473E+04  0.18372014441E+04  0.10100000352E+00 0.  1.
       -3    1    3    3    0  502 -0.11827526926E+04 -0.74855357958E+03 -0.17635105660E+04  0.22514897113E+04  0.10100000352E+00 0. -1.
</event>
<event>
 5   0  0.4047916E-07  0.3994853E+04  0.7818609E-02  0.8005586E-01
       -2   -1    0    0    0  501  0.00000000000E+00  0.00000000000E+00  0.23926918431E+04  0.23926918431E+04  0.25500000920E-02 0. -1.
        2   -1    0    0  501    0  0.00000000000E+00  0.00000000000E+00 -0.16674581059E+04  0.16674581059E+04  0.25500000920E-02 0.  1.
    10030    2    1    2    0    0  0.00000000000E+00  0.00000000000E+00  0.72523373725E+03  0.40601499490E+04  0.39948533934E+04 0.  0.
        5    1    3    3  502    0 -0.39745310708E+03  0.13312889825E+04 -0.10958975845E+04  0.17695516192E+04  0.46999998093E+01 0. -1.
       -5    1    3    3    0  502  0.39745310708E+03 -0.13312889825E+04  0.18211313217E+04  0.22905983298E+04  0.46999998093E+01 0.  1.
</event>
<event>
 5   0  0.4149487E-07  0.3886591E+04  0.7818609E-02  0.8027824E-01
        2   -1    0    0  501    0  0.00000000000E+00  0.00000000000E+00  0.26242516492E+04  0.26242516492E+04  0.25500000920E-02 0. -1.
       -2   -1    0    0    0  501  0.00000000000E+00  0.00000000000E+00 -0.14390375415E+04  0.14390375415E+04  0.25500000920E-02 0.  1.
    10030    2    1    2    0    0  0.00000000000E+00  0.00000000000E+00  0.11852141077E+04  0.40632891908E+04  0.38865906096E+04 0.  0.
        2    1    3    3  502    0  0.18916276025E+04 -0.62380179834E+02  0.10533830657E+04  0.21660475886E+04  0.25500000920E-02 0.  1.
       -2    1    3    3    0  502 -0.18916276025E+04  0.62380179834E+02  0.13183104200E+03  0.18972416021E+04  0.25500000920E-02 0. -1.
</event>
<event>
 5   0  0.1351000E-07  0.2559024E+04  0.7818609E-02  0.8382254E-01
       -3   -1    0    0    0  501  0.00000000000E+00  0.00000000000E+00  0.10851147534E+04  0.10851147581E+04  0.10100000352E+00 0. -1.
        3   -1    0    0  501    0  0.00000000000E+00  0.00000000000E+00 -0.15087354346E+04  0.15087354380E+04  0.10100000352E+00 0.  1.
    10030    2    1    2    0    0  0.00000000000E+00  0.00000000000E+00 -0.42362068120E+03  0.25938501962E+04  0.25590241028E+04 0.  0.
        5    1    3    3  502    0  0.71612514017E+03  0.81405264479E+03  0.47685637656E+03  0.11844538905E+04  0.46999998093E+01 0. -1.
       -5    1    3    3    0  502 -0.71612514017E+03 -0.81405264479E+03 -0.90047705777E+03  0.14093963057E+04  0.46999998093E+01 0.  1.
</event>
<event>
 5   0  0.4079777E-07  0.4021252E+04  0.7818609E-02  0.8000273E-01
        2   -1    0    0  501    0  0.00000000000E+00  0.00000000000E+00  0.24850820659E+04  0.24850820659E+04  0.25500000920E-02 0. -1.
       -2   -1    0    0    0  501  0.00000000000E+00  0.00000000000E+00 -0.16267542746E+04  0.16267542746E+04  0.25500000920E-02 0.  1.
    10030    2    1    2    0    0  0.00000000000E+00  0.00000000000E+00  0.85832779129E+03  0.41118363405E+04  0.40212524782E+04 0.  0.
        4    1    3    3  502    0  0.59615711405E+03  0.73441316552E+03  0.22433486436E+04  0.24346212748E+04  0.12699999809E+01 0. -1.
       -4    1    3    3    0  502 -0.59615711405E+03 -0.73441316552E+03 -0.13850208523E+04  0.16772150657E+04  0.12699999809E+01 0.  1.
</event>
<event>
 5   0  0.4047916E-07  0.2624037E+04  0.7818609E-02  0.8360082E-01
       -2   -1    0    0    0  501  0.00000000000E+00  0.00000000000E+00  0.72141521691E+03  0.72141521692E+03  0.25500000920E-02 0. -1.
        2   -1    0    0  501    0  0.00000000000E+00  0.00000000000E+00 -0.23861321788E+04  0.23861321788E+04  0.25500000920E-02 0.  1.
    10030    2    1    2    0    0  0.00000000000E+00  0.00000000000E+00 -0.16647169619E+04  0.31075473957E+04  0.26240366334E+04 0.  0.
        5    1    3    3  502    0 -0.39925308096E+03 -0.97337749044E+03  0.95987680276E+02  0.10564575175E+04  0.46999998093E+01 0. -1.
       -5    1    3    3    0  502  0.39925308096E+03  0.97337749044E+03 -0.17607046422E+04  0.20510898782E+04  0.46999998093E+01 0.  1.
</event>
<event>
 5   0  0.1351000E-07  0.3739273E+04  0.7818609E-02  0.8059314E-01
       -1   -1    0    0    0  501  0.00000000000E+00  0.00000000000E+00  0.15972659416E+04  0.15972659416E+04  0.50400001928E-02 0. -1.
        1   -1    0    0  501    0  0.00000000000E+00  0.00000000000E+00 -0.21884521818E+04  0.21884521818E+04  0.50400001928E-02 0.  1.
    10030    2    1    2    0    0  0.00000000000E+00  0.00000000000E+00 -0.59118624028E+03  0.37857181234E+04  0.37392727286E+04 0.  0.
        4    1    3    3  502    0  0.10921812094E+04 -0.27681530854E+03 -0.18061211404E+04  0.21287465082E+04  0.12699999809E+01 0.  1.
       -4    1    3    3    0  502 -0.10921812094E+04  0.27681530854E+03  0.12149349002E+04  0.16569716152E+04  0.12699999809E+01 0. -1.
</event>
<event>
 5   0  0.4047916E-07  0.4108780E+04  0.7818609E-02  0.7982955E-01
        2   -1    0    0  501    0  0.00000000000E+00  0.00000000000E+00  0.21923562073E+04  0.21923562073E+04  0.25500000920E-02 0. -1.
       -2   -1    0    0    0  501  0.00000000000E+00  0.00000000000E+00 -0.19251061564E+04  0.19251061564E+04  0.25500000920E-02 0.  1.
    10030    2    1    2    0    0  0.00000000000E+00  0.00000000000E+00  0.26725005096E+03  0.41174623637E+04  0.41087800777E+04 0.  0.
        5    1    3    3  502    0 -0.14768614093E+04  0.14280076034E+04  0.14672950972E+03  0.20595817480E+04  0.46999998093E+01 0.  1.
       -5    1    3    3    0  502  0.14768614093E+04 -0.14280076034E+04  0.12052054124E+03  0.20578806157E+04  0.46999998093E+01 0. -1.
</event>
<event>
 5   0  0.4047916E-07  0.2650378E+04  0.7818609E-02  0.8351287E-01
        2   -1    0    0  501    0  0.00000000000E+00  0.00000000000E+00  0.13779693684E+04  0.13779693684E+04  0.25500000920E-02 0.  1.
       -2   -1    0    0    0  501  0.00000000000E+00  0.00000000000E+00 -0.12744303788E+04  0.12744303788E+04  0.25500000920E-02 0. -1.
    10030    2    1    2    0    0  0.00000000000E+00  0.00000000000E+00  0.10353898962E+03  0.26523997473E+04  0.26503781045E+04 0.  0.
        5    1    3    3  502    0 -0.91870431812E+03  0.92397763595E+03 -0.18997559963E+03  0.13167631201E+04  0.46999998093E+01 0.  1.
       -5    1    3    3    0  502  0.91870431812E+03 -0.92397763595E+03  0.29351458925E+03  0.13356366272E+04  0.46999998093E+01 0. -1.
</event>
<event>
 5   0  0.1351000E-07  0.4049251E+04  0.7818609E-02  0.7994684E-01
        1   -1    0    0  501    0  0.00000000000E+00  0.00000000000E+00  0.18653661304E+04  0.18653661304E+04  0.50400001928E-02 0.  1.
       -1   -1    0    0    0  501  0.00000000000E+00  0.00000000000E+00 -0.21974819684E+04  0.21974819684E+04  0.50400001928E-02 0. -1.
    10030    2    1    2    0    0  0.00000000000E+00  0.00000000000E+00 -0.33211583800E+03  0.40628480987E+04  0.40492510102E+04 0.  0.
        3    1    3    3  502    0 -0.44222556039E+03  0.18086819075E+04 -0.96384719396E+03  0.20966390038E+04  0.10100000352E+00 0. -1.
       -3    1    3    3    0  502  0.44222556039E+03 -0.18086819075E+04  0.63173135596E+03  0.19662090949E+04  0.10100000352E+00 0.  1.
</event>
<event>
 5   0  0.4301754E-07  0.3126052E+04  0.7818609E-02  0.8208624E-01
        2   -1    0    0  501    0  0.00000000000E+00  0.00000000000E+00  0.19509490040E+04  0.19509490040E+04  0.25500000920E-02 0.  1.
       -2   -1    0    0    0  501  0.00000000000E+00  0.00000000000E+00 -0.12522367436E+04  0.12522367436E+04  0.25500000920E-02 0. -1.
    10030    2    1    2    0    0  0.00000000000E+00  0.00000000000E+00  0.69871226043E+03  0.32031857476E+04  0.31260518407E+04 0.  0.
        1    1    3    3  502    0 -0.13967658555E+04 -0.59361901544E+03 -0.33646925222E+02  0.15180482555E+04  0.50400001928E-02 0. -1.
       -1    1    3    3    0  502  0.13967658555E+04  0.59361901544E+03  0.73235918566E+03  0.16851374921E+04  0.50400001928E-02 0.  1.
</event>
<event>
 5   0  0.1372952E-07  0.4012988E+04  0.7818609E-02  0.8001932E-01
       -1   -1    0    0    0  501  0.00000000000E+00  0.00000000000E+00  0.20144361571E+04  0.20144361571E+04  0.50400001928E-02 0.  1.
        1   -1    0    0  501    0  0.00000000000E+00  0.00000000000E+00 -0.19985833371E+04  0.19985833371E+04  0.50400001928E-02 0. -1.
    10030    2    1    2    0    0  0.00000000000E+00  0.00000000000E+00  0.15852820052E+02  0.40130194942E+04  0.40129881820E+04 0.  0.
        1    1    3    3  502    0  0.91690800324E+03 -0.62144781890E+02  0.17915984440E+04  0.20135558708E+04  0.50400001928E-02 0.  1.
       -1    1    3    3    0  502 -0.91690800324E+03  0.62144781890E+02 -0.17757456239E+04  0.19994636234E+04  0.50400001928E-02 0. -1.
</event>
<event>
 5   0  0.4301754E-07  0.3958402E+04  0.7818609E-02  0.8012991E-01
       -2   -1    0    0    0  501  0.00000000000E+00  0.00000000000E+00  0.21380860039E+04  0.21380860039E+04  0.25500000920E-02 0. -1.
        2   -1    0    0  501    0  0.00000000000E+00  0.00000000000E+00 -0.18321231576E+04  0.18321231576E+04  0.25500000920E-02 0.  1.
    10030    2    1    2    0    0  0.00000000000E+00  0.00000000000E+00  0.30596284637E+03  0.39702091615E+04  0.39584021426E+04 0.  0.
        1    1    3    3  502    0 -0.38282804742E+03 -0.19013448863E+04 -0.24261511099E+03  0.19546180656E+04  0.50400001928E-02 0. -1.
       -1    1    3    3    0  502  0.38282804742E+03  0.19013448863E+04  0.54857795736E+03  0.20155910959E+04  0.50400001928E-02 0.  1.
</event>
<event>
 5   0  0.4301754E-07  0.3989277E+04  0.7818609E-02  0.8006713E-01
       -2   -1    0    0    0  501  0.00000000000E+00  0.00000000000E+00  0.11941045961E+04  0.11941045961E+04  0.25500000920E-02 0. -1.
        2   -1    0    0  501    0  0.00000000000E+00  0.00000000000E+00 -0.33318539159E+04  0.33318539159E+04  0.25500000920E-02 0.  1.
    10030    2    1    2    0    0  0.00000000000E+00  0.00000000000E+00 -0.21377493198E+04  0.45259585120E+04  0.39892766635E+04 0.  0.
        1    1    3    3  502    0  0.13072945675E+04  0.13572550878E+04 -0.32714669630E+03  0.19126383402E+04  0.50400001928E-02 0. -1.
       -1    1    3    3    0  502 -0.13072945675E+04 -0.13572550878E+04 -0.18106026235E+04  0.26133201717E+04  0.50400001928E-02 0.  1.
</event>
<event>
 5   0  0.4047916E-07  0.4067252E+04  0.7818609E-02  0.7991115E-01
       -2   -1    0    0    0  501  0.00000000000E+00  0.00000000000E+00  0.17730595573E+04  0.17730595573E+04  0.25500000920E-02 0. -1.
        2   -1    0    0  501    0  0.00000000000E+00  0.00000000000E+00 -0.23324847004E+04  0.23324847004E+04  0.25500000920E-02 0.  1.
    10030    2    1    2    0    0  0.00000000000E+00  0.00000000000E+00 -0.55942514310E+03  0.41055442576E+04  0.40672517946E+04 0.  0.
        5    1    3    3  502    0 -0.11146280874E+04 -0.16583139301E+04 -0.66170818620E+03  0.21048231939E+04  0.46999998093E+01 0.  1.
       -5    1    3    3    0  502  0.11146280874E+04  0.16583139301E+04  0.10228304310E+03  0.20007210637E+04  0.46999998093E+01 0. -1.
</event>
<event>
 5   0  0.4077370E-07  0.4011758E+04  0.7818609E-02  0.8002179E-01
       -2   -1    0    0    0  501  0.00000000000E+00  0.00000000000E+00  0.18429106456E+04  0.18429106456E+04  0.25500000920E-02 0.  1.
        2   -1    0    0  501    0  0.00000000000E+00  0.00000000000E+00 -0.21832591039E+04  0.21832591040E+04  0.25500000920E-02 0. -1.
    10030    2    1    2    0    0  0.00000000000E+00  0.00000000000E+00 -0.34034845840E+03  0.40261697495E+04  0.40117584397E+04 0.  0.
        3    1    3    3  502    0  0.18880467545E+03  0.19712460315E+04 -0.49084247331E+03  0.20401922620E+04  0.10100000352E+00 0. -1.
       -3    1    3    3    0  502 -0.18880467545E+03 -0.19712460315E+04  0.15049401491E+03  0.19859774875E+04  0.10100000352E+00 0.  1.
</event>
<event>
 5   0  0.1421304E-07  0.3381028E+04  0.7818609E-02  0.8142578E-01
        1   -1    0    0  501    0  0.00000000000E+00  0.00000000000E+00  0.12871434694E+04  0.12871434694E+04  0.50400001928E-02 0. -1.
       -1   -1    0    0    0  501  0.00000000000E+00  0.00000000000E+00 -0.22202942559E+04  0.22202942559E+04  0.50400001928E-02 0.  1.
    10030    2    1    2    0    0  0.00000000000E+00  0.00000000000E+00 -0.93315078649E+03  0.35074377253E+04  0.33810278032E+04 0.  0.
        2    1    3    3  502    0 -0.61080751360E+03 -0.12165461404E+04  0.57328225673E+03  0.14770656303E+04  0.25500000920E-02 0. -1.
       -2    1    3    3    0  502  0.61080751360E+03  0.12165461404E+04 -0.15064330432E+04  0.20303720950E+04  0.25500000920E-02 0.  1.
</event>
<event>
 5   0  0.1351000E-07  0.3896835E+04  0.7818609E-02  0.8025688E-01
        1   -1    0    0  501    0  0.00000000000E+00  0.00000000000E+00  0.13098991068E+04  0.13098991068E+04  0.50400001928E-02 0. -1.
       -1   -1    0    0    0  501  0.00000000000E+00  0.00000000000E+00 -0.28981854702E+04  0.28981854702E+04  0.50400001928E-02 0.  1.
    10030    2    1    2    0    0  0.00000000000E+00  0.00000000000E+00 -0.15882863634E+04  0.42080845770E+04  0.38968348996E+04 0.  0.
        3    1    3    3  502    0  0.16862626807E+04 -0.54514369593E+03  0.80264854712E+02  0.17740084370E+04  0.10100000352E+00 0. -1.
       -3    1    3    3    0  502 -0.16862626807E+04  0.54514369593E+03 -0.16685512181E+04  0.24340761400E+04  0.10100000352E+00 0.  1.
</event>
<event>
 5   0  0.1421304E-07  0.3929949E+04  0.7818609E-02  0.8018829E-01
        1   -1    0    0  501    0  0.00000000000E+00  0.00000000000E+00  0.23354327929E+04  0.23354327929E+04  0.50400001928E-02 0.  1.
       -1   -1    0    0    0  501  0.00000000000E+00  0.00000000000E+00 -0.16532802016E+04  0.16532802016E+04  0.50400001928E-02 0. -1.
    10030    2    1    2    0    0  0.00000000000E+00  0.00000000000E+00  0.68215259130E+03  0.39887129946E+04  0.39299490067E+04 0.  0.
        2    1    3    3  502    0 -0.45488783208E+03 -0.16057929932E+04  0.13937104853E+04  0.21743787604E+04  0.25500000920E-02 0.  1.
       -2    1    3    3    0  502  0.45488783208E+03  0.16057929932E+04 -0.71155789404E+03  0.18143342342E+04  0.25500000920E-02 0. -1.
</event>
<event>
 5   0  0.1372952E-07  0.3976225E+04  0.7818609E-02  0.8009360E-01
       -1   -1    0    0    0  501  0.00000000000E+00  0.00000000000E+00  0.17384039486E+04  0.17384039486E+04  0.50400001928E-02 0.  1.
        1   -1    0    0  501    0  0.00000000000E+00  0.00000000000E+00 -0.22736901375E+04  0.22736901375E+04  0.50400001928E-02 0. -1.
    10030    2    1    2    0    0  0.00000000000E+00  0.00000000000E+00 -0.53528618894E+03  0.40120940861E+04  0.39762253019E+04 0.  0.
        1    1    3    3  502    0  0.23177519235E+03  0.11180630590E+04  0.13745540628E+04  0.17869481289E+04  0.50400001928E-02 0.  1.
       -1    1    3    3    0  502 -0.23177519235E+03 -0.11180630590E+04 -0.19098402517E+04  0.22251459572E+04  0.50400001928E-02 0. -1.
</event>
<event>
 5   0  0.4079777E-07  0.4034590E+04  0.7818609E-02  0.7997605E-01
       -2   -1    0    0    0  501  0.00000000000E+00  0.00000000000E+00  0.28870364356E+04  0.28870364356E+04  0.25500000920E-02 0. -1.
        2   -1    0    0  501    0  0.00000000000E+00  0.00000000000E+00 -0.14095694038E+04  0.14095694038E+04  0.25500000920E-02 0.  1.
    10030    2    1    2    0    0  0.00000000000E+00  0.00000000000E+00  0.14774670318E+04  0.42966058394E+04  0.40345895589E+04 0.  0.
        4    1    3    3  502    0 -0.13546418086E+04  0.49359556681E+03  0.22413162687E+04  0.26649936665E+04  0.12699999809E+01 0. -1.
       -4    1    3    3    0  502  0.13546418086E+04 -0.49359556681E+03 -0.76384923694E+03  0.16316121729E+04  0.12699999809E+01 0.  1.
</event>
<event>
 5   0  0.1351000E-07  0.3798990E+04  0.7818609E-02  0.8046372E-01
        1   -1    0    0  501    0  0.00000000000E+00  0.00000000000E+00  0.13745442054E+04  0.13745442054E+04  0.50400001928E-02 0.  1.
       -1   -1    0    0    0  501  0.00000000000E+00  0.00000000000E+00 -0.26249288598E+04  0.26249288598E+04  0.50400001928E-02 0. -1.
    10030    2    1    2    0    0  0.00000000000E+00  0.00000000000E+00 -0.12503846544E+04  0.39994730653E+04  0.37989897362E+04 0.  0.
        3    1    3    3  502    0 -0.97595513351E+03  0.10922978093E+04 -0.18983415223E+04  0.23977705212E+04  0.10100000352E+00 0. -1.
       -3    1    3    3    0  502  0.97595513351E+03 -0.10922978093E+04  0.64795686787E+03  0.16017025441E+04  0.10100000352E+00 0.  1.
</event>
<event>
 5   0  0.4149487E-07  0.4005275E+04  0.7818609E-02  0.8003483E-01
       -2   -1    0    0    0  501  0.00000000000E+00  0.00000000000E+00  0.19445326452E+04  0.19445326452E+04  0.25500000920E-02 0.  1.
        2   -1    0    0  501    0  0.00000000000E+00  0.00000000000E+00 -0.20624781316E+04  0.20624781316E+04  0.25500000920E-02 0. -1.
    10030    2    1    2    0    0  0.00000000000E+00  0.00000000000E+00 -0.11794548640E+03  0.40070107767E+04  0.40052745507E+04 0.  0.
        2    1    3    3  502    0 -0.11456443441E+04  0.65602958477E+02  0.15830038865E+04  0.19551741651E+04  0.25500000920E-02 0.  1.
       -2    1    3    3    0  502  0.11456443441E+04 -0.65602958477E+02 -0.17009493729E+04  0.20518366116E+04  0.25500000920E-02 0. -1.
</event>
<event>
 5   0  0.1368865E-07  0.3988397E+04  0.7818609E-02  0.8006891E-01
        1   -1    0    0  501    0  0.00000000000E+00  0.00000000000E+00  0.13883944402E+04  0.13883944402E+04  0.50400001928E-02 0. -1.
       -1   -1    0    0    0  501  0.00000000000E+00  0.00000000000E+00 -0.28643355200E+04  0.28643355200E+04  0.50400001928E-02 0.  1.
    10030    2    1    2    0    0  0.00000000000E+00  0.00000000000E+00 -0.14759410798E+04  0.42527299603E+04  0.39883969266E+04 0.  0.
        5    1    3    3  502    0 -0.79332985853E+03 -0.15686229748E+04  0.26617293978E+03  0.17778696311E+04  0.46999998093E+01 0. -1.
       -5    1    3    3    0  502  0.79332985853E+03  0.15686229748E+04 -0.17421140196E+04  0.24748603291E+04  0.46999998093E+01 0.  1.
</event>
<event>
 5   0  0.4079777E-07  0.3427413E+04  0.7818609E-02  0.8131211E-01
        2   -1    0    0  501    0  0.00000000000E+00  0.00000000000E+00  0.17703269964E+04  0.17703269964E+04  0.25500000920E-02 0.  1.
       -2   -1    0    0    0  501  0.00000000000E+00  0.00000000000E+00 -0.16588973676E+04  0.16588973676E+04  0.25500000920E-02 0. -1.
    10030    2    1    2    0    0  0.00000000000E+00  0.00000000000E+00  0.11142962882E+03  0.34292243639E+04  0.34274134819E+04 0.  0.
        4    1    3    3  502    0  0.17088904670E+04  0.12562971134E+03  0.82181171985E+02  0.17154721830E+04  0.12699999809E+01 0.  1.
       -4    1    3    3    0  502 -0.17088904670E+04 -0.12562971134E+03  0.29248456834E+02  0.17137521810E+04  0.12699999809E+01 0. -1.
</event>
<event>
 5   0  0.4301754E-07  0.3900560E+04  0.7818609E-02  0.8024913E-01
        2   -1    0    0  501    0  0.00000000000E+00  0.00000000000E+00  0.18835052465E+04  0.18835052465E+04  0.25500000920E-02 0. -1.
       -2   -1    0    0    0  501  0.00000000000E+00  0.00000000000E+00 -0.20194223486E+04  0.20194223486E+04  0.25500000920E-02 0.  1.
    10030    2    1    2    0    0  0.00000000000E+00  0.00000000000E+00 -0.13591710208E+03  0.39029275951E+04  0.39005602615E+04 0.  0.
        1    1    3    3  502    0 -0.13508261020E+04  0.13540497125E+04 -0.44951767604E+03  0.19647513642E+04  0.50400001928E-02 0.  1.
       -1    1    3    3    0  502  0.13508261020E+04 -0.13540497125E+04  0.31360057395E+03  0.19381762309E+04  0.50400001928E-02 0. -1.
</event>
<event>
 5   0  0.4301754E-07  0.3980699E+04  0.7818609E-02  0.8008451E-01
       -2   -1    0    0    0  501  0.00000000000E+00  0.00000000000E+00  0.19817063172E+04  0.19817063172E+04  0.25500000920E-02 0.  1.
        2   -1    0    0  501    0  0.00000000000E+00  0.00000000000E+00 -0.19990308734E+04  0.19990308734E+04  0.25500000920E-02 0. -1.
    10030    2    1    2    0    0  0.00000000000E+00  0.00000000000E+00 -0.17324556186E+02  0.39807371906E+04  0.39806994914E+04 0.  0.
        1    1    3    3  502    0 -0.11461712084E+04  0.13720747658E+04 -0.88342453260E+03  0.19941756459E+04  0.50400001928E-02 0. -1.
       -1    1    3    3    0  502  0.11461712084E+04 -0.13720747658E+04  0.86609997642E+03  0.19865615447E+04  0.50400001928E-02 0.  1.
</event>
<event>
 5   0  0.1351000E-07  0.3619231E+04  0.7818609E-02  0.8086101E-01
       -1   -1    0    0    0  501  0.00000000000E+00  0.00000000000E+00  0.16872497114E+04  0.16872497114E+04  0.50400001928E-02 0.  1.
        1   -1    0    0  501    0  0.00000000000E+00  0.00000000000E+00 -0.19408555340E+04  0.19408555340E+04  0.50400001928E-02 0. -1.
    10030    2    1    2    0    0  0.00000000000E+00  0.00000000000E+00 -0.25360582257E+03  0.36281052454E+04  0.36192308241E+04 0.  0.
        4    1    3    3  502    0  0.37414452084E+03  0.14615987459E+04  0.87487256288E+03  0.17440351576E+04  0.12699999809E+01 0.  1.
       -4    1    3    3    0  502 -0.37414452084E+03 -0.14615987459E+04 -0.11284783855E+04  0.18840700878E+04  0.12699999809E+01 0. -1.
</event>
<event>
 5   0  0.4079777E-07  0.4005182E+04  0.7818609E-02  0.8003502E-01
       -2   -1    0    0    0  501  0.00000000000E+00  0.00000000000E+00  0.17665417078E+04  0.17665417078E+04  0.25500000920E-02 0.  1.
        2   -1    0    0  501    0  0.00000000000E+00  0.00000000000E+00 -0.22701820157E+04  0.22701820157E+04  0.25500000920E-02 0. -1.
    10030    2    1    2    0    0  0.00000000000E+00  0.00000000000E+00 -0.50364030794E+03  0.40367237235E+04  0.40051822505E+04 0.  0.
        4    1    3    3  502    0 -0.33096505938E+03  0.10779148422E+04 -0.19198250289E+04  0.22264698588E+04  0.12699999809E+01 0. -1.
       -4    1    3    3    0  502  0.33096505938E+03 -0.10779148422E+04  0.14161847210E+04  0.18102538647E+04  0.12699999809E+01 0.  1.
</event>
<event>
 5   0  0.4079777E-07  0.3974534E+04  0.7818609E-02  0.8009704E-01
        2   -1    0    0  501    0  0.00000000000E+00  0.00000000000E+00  0.21387842687E+04  0.21387842687E+04  0.25500000920E-02 0.  1.
       -2   -1    0    0    0  501  0.00000000000E+00  0.00000000000E+00 -0.18464831824E+04  0.18464831824E+04  0.25500000920E-02 0. -1.
    10030    2    1    2    0    0  0.00000000000E+00  0.00000000000E+00  0.29230108634E+03  0.39852674512E+04  0.39745335238E+04 0.  0.
        4    1    3    3  502    0 -0.10252859975E+04  0.12781348121E+04 -0.98133613969E+03  0.19099377494E+04  0.12699999809E+01 0. -1.
       -4    1    3    3    0  502  0.10252859975E+04 -0.12781348121E+04  0.12736372260E+04  0.20753297018E+04  0.12699999809E+01 0.  1.
</event>
<event>
 5   0  0.4047916E-07  0.3838008E+04  0.7818609E-02  0.8038047E-01
        2   -1    0    0  501    0  0.00000000000E+00  0.00000000000E+00  0.13298417352E+04  0.13298417352E+04  0.25500000920E-02 0. -1.
       -2   -1    0    0    0  501  0.00000000000E+00  0.00000000000E+00 -0.27691838069E+04  0.27691838069E+04  0.25500000920E-02 0.  1.
    10030    2    1    2    0    0  0.00000000000E+00  0.00000000000E+00 -0.14393420718E+04  0.40990255421E+04  0.38380079201E+04 0.  0.
        5    1    3    3  502    0  0.66606492486E+02  0.99769888777E+03  0.10296196969E+04  0.14352624519E+04  0.46999998093E+01 0. -1.
       -5    1    3    3    0  502 -0.66606492486E+02 -0.99769888777E+03 -0.24689617687E+04  0.26637630902E+04  0.46999998093E+01 0.  1.
</event>
<event>
 5   0  0.4079777E-07  0.3961062E+04  0.7818609E-02  0.8012448E-01
       -2   -1    0    0    0  501  0.00000000000E+00  0.00000000000E+00  0.25304437274E+04  0.25304437274E+04  0.25500000920E-02 0. -1.
        2   -1    0    0  501    0  0.00000000000E+00  0.00000000000E+00 -0.15501242873E+04  0.15501242873E+04  0.25500000920E-02 0.  1.
    10030    2    1    2    0    0  0.00000000000E+00  0.00000000000E+00  0.98031944001E+03  0.40805680147E+04  0.39610616150E+04 0.  0.
        4    1    3    3  502    0  0.18359751637E+04  0.60773219193E+03  0.50242689059E+02  0.19345979323E+04  0.12699999809E+01 0.  1.
       -4    1    3    3    0  502 -0.18359751637E+04 -0.60773219193E+03  0.93007675096E+03  0.21459700824E+04  0.12699999809E+01 0. -1.
</event>
<event>
 5   0  0.1368865E-07  0.4077609E+04  0.7818609E-02  0.7989071E-01
       -1   -1    0    0    0  501  0.00000000000E+00  0.00000000000E+00  0.21028542380E+04  0.21028542380E+04  0.50400001928E-02 0. -1.
        1   -1    0    0  501    0  0.00000000000E+00  0.00000000000E+00 -0.19767054604E+04  0.19767054604E+04  0.50400001928E-02 0.  1.
    10030    2    1    2    0    0  0.00000000000E+00  0.00000000000E+00  0.12614877760E+03  0.40795596984E+04  0.40776088359E+04 0.  0.
        5    1    3    3  502    0  0.10692716500E+04 -0.11059946121E+04  0.14016739371E+04  0.20811722320E+04  0.46999998093E+01 0. -1.
       -5    1    3    3    0  502 -0.10692716500E+04  0.11059946121E+04 -0.12755251595E+04  0.19983874664E+04  0.46999998093E+01 0.  1.
</event>
<event>
 5   0  0.1368865E-07  0.3712515E+04  0.7818609E-02  0.8065194E-01
        1   -1    0    0  501    0  0.00000000000E+00  0.00000000000E+00  0.23914294581E+04  0.23914294581E+04  0.50400001928E-02 0.  1.
       -1   -1    0    0    0  501  0.00000000000E+00  0.00000000000E+00 -0.14408501302E+04  0.14408501302E+04  0.50400001928E-02 0. -1.
    10030    2    1    2    0    0  0.00000000000E+00  0.00000000000E+00  0.95057932790E+03  0.38322795884E+04  0.37125147522E+04 0.  0.
        5    1    3    3  502    0  0.16961409732E+04 -0.68770213690E+03  0.15572077048E+03  0.18368721998E+04  0.46999998093E+01 0. -1.
       -5    1    3    3    0  502 -0.16961409732E+04  0.68770213690E+03  0.79485855741E+03  0.19954073886E+04  0.46999998093E+01 0.  1.
</event>
<event>
 5   0  0.1368865E-07  0.3941389E+04  0.7818609E-02  0.8016476E-01
       -1   -1    0    0    0  501  0.00000000000E+00  0.00000000000E+00  0.20100448156E+04  0.20100448156E+04  0.50400001928E-02 0. -1.
        1   -1    0    0  501    0  0.00000000000E+00  0.00000000000E+00 -0.19321146786E+04  0.19321146786E+04  0.50400001928E-02 0.  1.
    10030    2    1    2    0    0  0.00000000000E+00  0.00000000000E+00  0.77930136996E+02  0.39421594942E+04  0.39413891424E+04 0.  0.
        5    1    3    3  502    0  0.84598668575E+03 -0.13132339425E+04  0.12405899701E+04  0.19948339340E+04  0.46999998093E+01 0. -1.
       -5    1    3    3    0  502 -0.84598668575E+03  0.13132339425E+04 -0.11626598331E+04  0.19473255603E+04  0.46999998093E+01 0.  1.
</event>
<event>
 5   0  0.1421304E-07  0.4019505E+04  0.7818609E-02  0.8000623E-01
       -1   -1    0    0    0  501  0.00000000000E+00  0.00000000000E+00  0.16376428793E+04  0.16376428793E+04  0.50400001928E-02 0.  1.
        1   -1    0    0  501    0  0.00000000000E+00  0.00000000000E+00 -0.24664141006E+04  0.24664141006E+04  0.50400001928E-02 0. -1.
    10030    2    1    2    0    0  0.00000000000E+00  0.00000000000E+00 -0.82877122127E+03  0.41040569799E+04  0.40195051881E+04 0.  0.
        2    1    3    3  502    0 -0.23726074963E+03  0.96312198381E+03 -0.21990692459E+04  0.24124266139E+04  0.25500000920E-02 0. -1.
       -2    1    3    3    0  502  0.23726074963E+03 -0.96312198381E+03  0.13702980246E+04  0.16916303661E+04  0.25500000920E-02 0.  1.
</event>
<event>
 5   0  0.4077370E-07  0.4018758E+04  0.7818609E-02  0.8000773E-01
        2   -1    0    0  501    0  0.00000000000E+00  0.00000000000E+00  0.20616551764E+04  0.20616551764E+04  0.25500000920E-02 0.  1.
       -2   -1    0    0    0  501  0.00000000000E+00  0.00000000000E+00 -0.19584279427E+04  0.19584279427E+04  0.25500000920E-02 0. -1.
    10030    2    1    2    0    0  0.00000000000E+00  0.00000000000E+00  0.10322723379E+03  0.40200831191E+04  0.40187575720E+04 0.  0.
        3    1    3    3  502    0  0.39743084126E+03  0.70762730732E+03  0.18904025625E+04  0.20572577714E+04  0.10100000352E+00 0.  1.
       -3    1    3    3    0  502 -0.39743084126E+03 -0.70762730732E+03 -0.17871753287E+04  0.19628253477E+04  0.10100000352E+00 0. -1.
</event>
<event>
 5   0  0.4047916E-07  0.3965191E+04  0.7818609E-02  0.8011606E-01
       -2   -1    0    0    0  501  0.00000000000E+00  0.00000000000E+00  0.19694361959E+04  0.19694361959E+04  0.25500000920E-02 0. -1.
        2   -1    0    0  501    0  0.00000000000E+00  0.00000000000E+00 -0.19958427605E+04  0.19958427605E+04  0.25500000920E-02 0.  1.
    10030    2    1    2    0    0  0.00000000000E+00  0.00000000000E+00 -0.26406564635E+02  0.39652789564E+04  0.39651910289E+04 0.  0.
        5    1    3    3  502    0  0.19268390843E+03  0.35727987069E+03  0.19274290649E+04  0.19697159402E+04  0.46999998093E+01 0. -1.
       -5    1    3    3    0  502 -0.19268390843E+03 -0.35727987069E+03 -0.19538356296E+04  0.19955630163E+04  0.46999998093E+01 0.  1.
</event>
<event>
 5   0  0.4149487E-07  0.2513605E+04  0.7818609E-02  0.8398155E-01
        2   -1    0    0  501    0  0.00000000000E+00  0.00000000000E+00  0.21212761135E+04  0.21212761135E+04  0.25500000920E-02 0.  1.
       -2   -1    0    0    0  501  0.00000000000E+00  0.00000000000E+00 -0.74462359475E+03  0.74462359475E+03  0.25500000920E-02 0. -1.
    10030    2    1    2    0    0  0.00000000000E+00  0.00000000000E+00  0.13766525187E+04  0.28658997082E+04  0.25136047781E+04 0.  0.
        2    1    3    3  502    0  0.44191606020E+03 -0.87642109684E+03 -0.20664006368E+03  0.10030472866E+04  0.25500000920E-02 0. -1.
       -2    1    3    3    0  502 -0.44191606020E+03  0.87642109684E+03  0.15832925824E+04  0.18628524216E+04  0.25500000920E-02 0.  1.
</event>
<event>
 5   0  0.1421304E-07  0.4058305E+04  0.7818609E-02  0.7992887E-01
       -1   -1    0    0    0  501  0.00000000000E+00  0.00000000000E+00  0.27242109447E+04  0.27242109447E+04  0.50400001928E-02 0. -1.
        1   -1    0    0  501    0  0.00000000000E+00  0.00000000000E+00 -0.15114318197E+04  0.15114318197E+04  0.50400001928E-02 0.  1.
    10030    2    1    2    0    0  0.00000000000E+00  0.00000000000E+00  0.12127791250E+04  0.42356427644E+04  0.40583046241E+04 0.  0.
        2    1    3    3  502    0  0.68405327896E+03  0.19102270374E+04  0.58162768188E+03  0.21107313858E+04  0.25500000920E-02 0. -1.
       -2    1    3    3    0  502 -0.68405327896E+03 -0.19102270374E+04  0.63115144314E+03  0.21249113786E+04  0.25500000920E-02 0.  1.
</event>
<event>
 5   0  0.4301754E-07  0.4027811E+04  0.7818609E-02  0.7998960E-01
       -2   -1    0    0    0  501  0.00000000000E+00  0.00000000000E+00  0.15726131519E+04  0.15726131519E+04  0.25500000920E-02 0.  1.
        2   -1    0    0  501    0  0.00000000000E+00  0.00000000000E+00 -0.25790296402E+04  0.25790296402E+04  0.25500000920E-02 0. -1.
    10030    2    1    2    0    0  0.00000000000E+00  0.00000000000E+00 -0.10064164883E+04  0.41516427922E+04  0.40278112823E+04 0.  0.
        1    1    3    3  502    0 -0.33524731390E+03  0.72012907034E+03  0.14043199437E+04  0.16134097879E+04  0.50400001928E-02 0.  1.
       -1    1    3    3    0  502  0.33524731390E+03 -0.72012907034E+03 -0.24107364320E+04  0.25382330043E+04  0.50400001928E-02 0. -1.
</event>
<event>
 5   0  0.4047916E-07  0.3998429E+04  0.7818609E-02  0.8004864E-01
       -2   -1    0    0    0  501  0.00000000000E+00  0.00000000000E+00  0.13975056096E+04  0.13975056096E+04  0.25500000920E-02 0. -1.
        2   -1    0    0  501    0  0.00000000000E+00  0.00000000000E+00 -0.28599943471E+04  0.28599943471E+04  0.25500000920E-02 0.  1.
    10030    2    1    2    0    0  0.00000000000E+00  0.00000000000E+00 -0.14624887375E+04  0.42574999567E+04  0.39984287632E+04 0.  0.
        5    1    3    3  502    0 -0.92201643962E+02  0.17140187004E+04 -0.18225794340E+04  0.25036331864E+04  0.46999998093E+01 0.  1.
       -5    1    3    3    0  502  0.92201643962E+02 -0.17140187004E+04  0.36009069652E+03  0.17538667704E+04  0.46999998093E+01 0. -1.
</event>
<event>
 5   0  0.1372952E-07  0.4028698E+04  0.7818609E-02  0.7998782E-01
       -1   -1    0    0    0  501  0.00000000000E+00  0.00000000000E+00  0.18564023060E+04  0.18564023060E+04  0.50400001928E-02 0.  1.
        1   -1    0    0  501    0  0.00000000000E+00  0.00000000000E+00 -0.21857346325E+04  0.21857346325E+04  0.50400001928E-02 0. -1.
    10030    2    1    2    0    0  0.00000000000E+00  0.00000000000E+00 -0.32933232646E+03  0.40421369385E+04  0.40286984558E+04 0.  0.
        1    1    3    3  502    0  0.14259938741E+04 -0.12332324362E+04 -0.87645631873E+03  0.20790614347E+04  0.50400001928E-02 0. -1.
       -1    1    3    3    0  502 -0.14259938741E+04  0.12332324362E+04  0.54712399228E+03  0.19630755038E+04  0.50400001928E-02 0.  1.
</event>
<event>
 5   0  0.1351000E-07  0.4035071E+04  0.7818609E-02  0.7997509E-01
       -1   -1    0    0    0  501  0.00000000000E+00  0.00000000000E+00  0.27992239383E+04  0.27992239383E+04  0.50400001928E-02 0.  1.
        1   -1    0    0  501    0  0.00000000000E+00  0.00000000000E+00 -0.14541347351E+04  0.14541347351E+04  0.50400001928E-02 0. -1.
    10030    2    1    2    0    0  0.00000000000E+00  0.00000000000E+00  0.13450892032E+04  0.42533586734E+04  0.40350706363E+04 0.  0.
        3    1    3    3  502    0  0.19415665721E+04  0.27167073686E+03  0.17036576835E+03  0.19678694693E+04  0.10100000352E+00 0.  1.
       -3    1    3    3    0  502 -0.19415665721E+04 -0.27167073686E+03  0.11747234349E+04  0.22854892040E+04  0.10100000352E+00 0. -1.
</event>
<event>
 5   0  0.1421304E-07  0.3996300E+04  0.7818609E-02  0.8005293E-01
       -1   -1    0    0    0  501  0.00000000000E+00  0.00000000000E+00  0.13451648908E+04  0.13451648909E+04  0.50400001928E-02 0. -1.
        1   -1    0    0  501    0  0.00000000000E+00  0.00000000000E+00 -0.29681152080E+04  0.29681152080E+04  0.50400001928E-02 0.  1.
    10030    2    1    2    0    0  0.00000000000E+00  0.00000000000E+00 -0.16229503171E+04  0.43132800989E+04  0.39963004741E+04 0.  0.
        2    1    3    3  502    0  0.16934224521E+04  0.96468852628E+03 -0.33571634889E+03  0.19776271188E+04  0.25500000920E-02 0. -1.
       -2    1    3    3    0  502 -0.16934224521E+04 -0.96468852628E+03 -0.12872339683E+04  0.23356529800E+04  0.25500000920E-02 0.  1.
</event>
<event>
 5   0  0.1351000E-07  0.3957222E+04  0.7818609E-02  0.8013232E-01
       -1   -1    0    0    0  501  0.00000000000E+00  0.00000000000E+00  0.17082952857E+04  0.17082952858E+04  0.50400001928E-02 0.  1.
        1   -1    0    0  501    0  0.00000000000E+00  0.00000000000E+00 -0.22917012529E+04  0.22917012529E+04  0.50400001928E-02 0. -1.
    10030    2    1    2    0    0  0.00000000000E+00  0.00000000000E+00 -0.58340596710E+03  0.39999965386E+04  0.39572224838E+04 0.  0.
        3    1    3    3  502    0 -0.14777547518E+04 -0.45930527742E+03  0.95458078651E+03  0.18182257650E+04  0.10100000352E+00 0.  1.
       -3    1    3    3    0  502  0.14777547518E+04  0.45930527742E+03 -0.15379867536E+04  0.21817707736E+04  0.10100000352E+00 0. -1.
</event>
<event>
 5   0  0.1351000E-07  0.4198607E+04  0.7818609E-02  0.7965637E-01
        1   -1    0    0  501    0  0.00000000000E+00  0.00000000000E+00  0.25805326075E+04  0.25805326075E+04  0.50400001928E-02 0. -1.
       -1   -1    0    0    0  501  0.00000000000E+00  0.00000000000E+00 -0.17078165051E+04  0.17078165051E+04  0.50400001928E-02 0.  1.
    10030    2    1    2    0    0  0.00000000000E+00  0.00000000000E+00  0.87271610239E+03  0.42883491126E+04  0.41986074734E+04 0.  0.
        4    1    3    3  502    0  0.16444871667E+04 -0.12409766140E+04  0.84835760316E+03  0.22280200254E+04  0.12699999809E+01 0. -1.
       -4    1    3    3    0  502 -0.16444871667E+04  0.12409766140E+04  0.24358499234E+02  0.20603290872E+04  0.12699999809E+01 0.  1.
</event>
<event>
 5   0  0.1421304E-07  0.3997015E+04  0.7818609E-02  0.8005149E-01
        1   -1    0    0  501    0  0.00000000000E+00  0.00000000000E+00  0.19905905978E+04  0.19905905978E+04  0.50400001928E-02 0.  1.
       -1   -1    0    0    0  501  0.00000000000E+00  0.00000000000E+00 -0.20064563455E+04  0.20064563455E+04  0.50400001928E-02 0. -1.
    10030    2    1    2    0    0  0.00000000000E+00  0.00000000000E+00 -0.15865747632E+02  0.39970469433E+04  0.39970154547E+04 0.  0.
        2    1    3    3  502    0 -0.18905015301E+04 -0.20550791013E+03  0.60672927117E+03  0.19960836518E+04  0.25500000920E-02 0.  1.
       -2    1    3    3    0  502  0.18905015301E+04  0.20550791013E+03 -0.62259501880E+03  0.20009632915E+04  0.25500000920E-02 0. -1.
</event>
<event>
 5   0  0.4149487E-07  0.3629629E+04  0.7818609E-02  0.8083738E-01
       -2   -1    0    0    0  501  0.00000000000E+00  0.00000000000E+00  0.13937843774E+04  0.13937843774E+04  0.25500000920E-02 0. -1.
        2   -1    0    0  501    0  0.00000000000E+00  0.00000000000E+00 -0.23630278594E+04  0.23630278594E+04  0.25500000920E-02 0.  1.
    10030    2    1    2    0    0  0.00000000000E+00  0.00000000000E+00 -0.96924348205E+03  0.37568122368E+04  0.36296288040E+04 0.  0.
        2    1    3    3  502    0  0.56990462157E+03 -0.13469029427E+04  0.62755908703E+03  0.15914676316E+04  0.25500000920E-02 0.  1.
       -2    1    3    3    0  502 -0.56990462157E+03  0.13469029427E+04 -0.15968025691E+04  0.21653446052E+04  0.25500000920E-02 0. -1.
</event>
<event>
 5   0  0.1421304E-07  0.3820197E+04  0.7818609E-02  0.8041835E-01
        1   -1    0    0  501    0  0.00000000000E+00  0.00000000000E+00  0.21180304758E+04  0.21180304758E+04  0.50400001928E-02 0. -1.
       -1   -1    0    0    0  501  0.00000000000E+00  0.00000000000E+00 -0.17225797209E+04  0.17225797209E+04  0.50400001928E-02 0.  1.
    10030    2    1    2    0    0  0.00000000000E+00  0.00000000000E+00  0.39545075484E+03  0.38406101967E+04  0.38201970346E+04 0.  0.
        2    1    3    3  502    0  0.13384102058E+04 -0.66145410177E+03 -0.10001163611E+04  0.17969685983E+04  0.25500000920E-02 0.  1.
       -2    1    3    3    0  502 -0.13384102058E+04  0.66145410177E+03  0.13955671159E+04  0.20436415984E+04  0.25500000920E-02 0. -1.
</event>
<event>
 5   0  0.1368865E-07  0.4003798E+04  0.7818609E-02  0.8003781E-01
        1   -1    0    0  501    0  0.00000000000E+00  0.00000000000E+00  0.22213134780E+04  0.22213134780E+04  0.50400001928E-02 0. -1.
       -1   -1    0    0    0  501  0.00000000000E+00  0.00000000000E+00 -0.18041578890E+04  0.18041578890E+04  0.50400001928E-02 0.  1.
    10030    2    1    2    0    0  0.00000000000E+00  0.00000000000E+00  0.41715558905E+03  0.40254713670E+04  0.40037983142E+04 0.  0.
        5    1    3    3  502    0  0.13085960427E+04  0.98089462174E+03 -0.95222827527E+03  0.18924425065E+04  0.46999998093E+01 0.  1.
       -5    1    3    3    0  502 -0.13085960427E+04 -0.98089462174E+03  0.13693838643E+04  0.21330288605E+04  0.46999998093E+01 0. -1.
</event>
<event>
 5   0  0.4077370E-07  0.3602514E+04  0.7818609E-02  0.8089916E-01
        2   -1    0    0  501    0  0.00000000000E+00  0.00000000000E+00  0.23321926093E+04  0.23321926093E+04  0.25500000920E-02 0.  1.
       -2   -1    0    0    0  501  0.00000000000E+00  0.00000000000E+00 -0.13911917097E+04  0.13911917097E+04  0.25500000920E-02 0. -1.
    10030    2    1    2    0    0  0.00000000000E+00  0.00000000000E+00  0.94100089964E+03  0.37233843190E+04  0.36025141351E+04 0.  0.
        3    1    3    3  502    0  0.98343440506E+03 -0.10388352357E+04 -0.66085158036E+03  0.15757686053E+04  0.10100000352E+00 0. -1.
       -3    1    3    3    0  502 -0.98343440506E+03  0.10388352357E+04  0.16018524800E+04  0.21476157137E+04  0.10100000352E+00 0.  1.
</event>
<event>
 5   0  0.4077370E-07  0.3862434E+04  0.7818609E-02  0.8032888E-01
       -2   -1    0    0    0  501  0.00000000000E+00  0.00000000000E+00  0.14236716891E+04  0.14236716891E+04  0.25500000920E-02 0. -1.
        2   -1    0    0  501    0  0.00000000000E+00  0.00000000000E+00 -0.26197039861E+04  0.26197039861E+04  0.25500000920E-02 0.  1.
    10030    2    1    2    0    0  0.00000000000E+00  0.00000000000E+00 -0.11960322970E+04  0.40433756753E+04  0.38624336364E+04 0.  0.
        3    1    3    3  502    0  0.97755477214E+03  0.90562381738E+03 -0.20612930339E+04  0.24545257817E+04  0.10100000352E+00 0.  1.
       -3    1    3    3    0  502 -0.97755477214E+03 -0.90562381738E+03  0.86526073695E+03  0.15888498936E+04  0.10100000352E+00 0. -1.
</event>
<event>
 5   0  0.4079777E-07  0.4056135E+04  0.7818609E-02  0.7993317E-01
        2   -1    0    0  501    0  0.00000000000E+00  0.00000000000E+00  0.22511935353E+04  0.22511935353E+04  0.25500000920E-02 0.  1.
       -2   -1    0    0    0  501  0.00000000000E+00  0.00000000000E+00 -0.18270568391E+04  0.18270568391E+04  0.25500000920E-02 0. -1.
    10030    2    1    2    0    0  0.00000000000E+00  0.00000000000E+00  0.42413669622E+03  0.40782503744E+04  0.40561353749E+04 0.  0.
        4    1    3    3  502    0  0.59844893243E+03  0.15732616104E+04 -0.92536600096E+03  0.19208323894E+04  0.12699999809E+01 0.  1.
       -4    1    3    3    0  502 -0.59844893243E+03 -0.15732616104E+04  0.13495026972E+04  0.21574179850E+04  0.12699999809E+01 0. -1.
</event>
<event>
 5   0  0.4077370E-07  0.2987184E+04  0.7818609E-02  0.8247400E-01
        2   -1    0    0  501    0  0.00000000000E+00  0.00000000000E+00  0.16332146069E+04  0.16332146069E+04  0.25500000920E-02 0. -1.
       -2   -1    0    0    0  501  0.00000000000E+00  0.00000000000E+00 -0.13659051951E+04  0.13659051951E+04  0.25500000920E-02 0.  1.
    10030    2    1    2    0    0  0.00000000000E+00  0.00000000000E+00  0.26730941180E+03  0.29991198021E+04  0.29871835005E+04 0.  0.
        3    1    3    3  502    0 -0.20758127002E+03  0.95835792936E+03  0.12647781801E+04  0.16003761306E+04  0.10100000352E+00 0. -1.
       -3    1    3    3    0  502  0.20758127002E+03 -0.95835792936E+03 -0.99746876830E+03  0.13987436714E+04  0.10100000352E+00 0.  1.
</event>
<event>
 5   0  0.4301754E-07  0.2637778E+04  0.7818609E-02  0.8355481E-01
       -2   -1    0    0    0  501  0.00000000000E+00  0.00000000000E+00  0.73276052715E+03  0.73276052715E+03  0.25500000920E-02 0.  1.
        2   -1    0    0  501    0  0.00000000000E+00  0.00000000000E+00 -0.23738561755E+04  0.23738561755E+04  0.25500000920E-02 0. -1.
    10030    2    1    2    0    0  0.00000000000E+00  0.00000000000E+00 -0.16410956483E+04  0.31066167026E+04  0.26377779304E+04 0.  0.
        1    1    3    3  502    0 -0.48165065764E+03  0.11184735288E+04 -0.22407427388E+03  0.12382163263E+04  0.50400001928E-02 0.  1.
       -1    1    3    3    0  502  0.48165065764E+03 -0.11184735288E+04 -0.14170213744E+04  0.18684003763E+04  0.50400001928E-02 0. -1.
</event>
<event>
 5   0  0.4077370E-07  0.2823833E+04  0.7818609E-02  0.8295907E-01
        2   -1    0    0  501    0  0.00000000000E+00  0.00000000000E+00  0.14085804596E+04  0.14085804596E+04  0.25500000920E-02 0. -1.
       -2   -1    0    0    0  501  0.00000000000E+00  0.00000000000E+00 -0.14152601143E+04  0.14152601143E+04  0.25500000920E-02 0.  1.
    10030    2    1    2    0    0  0.00000000000E+00  0.00000000000E+00 -0.66796546509E+01  0.28238405739E+04  0.28238326737E+04 0.  0.
        3    1    3    3  502    0  0.58080986571E+03  0.25402122859E+03 -0.12649458487E+04  0.14149045534E+04  0.10100000352E+00 0.  1.
       -3    1    3    3    0  502 -0.58080986571E+03 -0.25402122859E+03  0.12582661941E+04  0.14089360206E+04  0.10100000352E+00 0. -1.
</event>
<event>
 5   0  0.4047916E-07  0.2617451E+04  0.7818609E-02  0.8362297E-01
        2   -1    0    0  501    0  0.00000000000E+00  0.00000000000E+00  0.15809431235E+04  0.15809431235E+04  0.25500000920E-02 0.  1.
       -2   -1    0    0    0  501  0.00000000000E+00  0.00000000000E+00 -0.10833803515E+04  0.10833803515E+04  0.25500000920E-02 0. -1.
    10030    2    1    2    0    0  0.00000000000E+00  0.00000000000E+00  0.49756277194E+03  0.26643234750E+04  0.26174512159E+04 0.  0.
        5    1    3    3  502    0 -0.52724219382E+03  0.10212172364E+04 -0.38842523408E+03  0.12131633144E+04  0.46999998093E+01 0. -1.
       -5    1    3    3    0  502  0.52724219382E+03 -0.10212172364E+04  0.88598800602E+03  0.14511601606E+04  0.46999998093E+01 0.  1.
</event>
<event>
 5   0  0.1351000E-07  0.3989559E+04  0.7818609E-02  0.8006656E-01
       -1   -1    0    0    0  501  0.00000000000E+00  0.00000000000E+00  0.18623158734E+04  0.18623158734E+04  0.50400001928E-02 0. -1.
        1   -1    0    0  501    0  0.00000000000E+00  0.00000000000E+00 -0.21366647863E+04  0.21366647863E+04  0.50400001928E-02 0.  1.
    10030    2    1    2    0    0  0.00000000000E+00  0.00000000000E+00 -0.27434891290E+03  0.39989806598E+04  0.39895587464E+04 0.  0.
        3    1    3    3  502    0 -0.12669401829E+04  0.25670103850E+02  0.14070313576E+04  0.18935505361E+04  0.10100000352E+00 0. -1.
       -3    1    3    3    0  502  0.12669401829E+04 -0.25670103850E+02 -0.16813802705E+04  0.21054301237E+04  0.10100000352E+00 0.  1.
</event>
<event>
 5   0  0.1372952E-07  0.3830963E+04  0.7818609E-02  0.8039543E-01
       -1   -1    0    0    0  501  0.00000000000E+00  0.00000000000E+00  0.27759396306E+04  0.27759396306E+04  0.50400001928E-02 0.  1.
        1   -1    0    0  501    0  0.00000000000E+00  0.00000000000E+00 -0.13217398644E+04  0.13217398644E+04  0.50400001928E-02 0. -1.
    10030    2    1    2    0    0  0.00000000000E+00  0.00000000000E+00  0.14541997661E+04  0.40976794950E+04  0.38309633624E+04 0.  0.
        1    1    3    3  502    0  0.16546361467E+04  0.80274266404E+03  0.15422461844E+03  0.18455356392E+04  0.50400001928E-02 0. -1.
       -1    1    3    3    0  502 -0.16546361467E+04 -0.80274266404E+03  0.12999751477E+04  0.22521438558E+04  0.50400001928E-02 0.  1.
</event>
<event>
 5   0  0.1351000E-07  0.4028707E+04  0.7818609E-02  0.7998780E-01
        1   -1    0    0  501    0  0.00000000000E+00  0.00000000000E+00  0.19417107338E+04  0.19417107338E+04  0.50400001928E-02 0.  1.
       -1   -1    0    0    0  501  0.00000000000E+00  0.00000000000E+00 -0.20897140131E+04  0.20897140131E+04  0.50400001928E-02 0. -1.
    10030    2    1    2    0    0  0.00000000000E+00  0.00000000000E+00 -0.14800327924E+03  0.40314247469E+04  0.40287070531E+04 0.  0.
        3    1    3    3  502    0  0.19091132367E+04  0.30513609611E+03  0.49188734119E+03  0.19949372307E+04  0.10100000352E+00 0. -1.
       -3    1    3    3    0  502 -0.19091132367E+04 -0.30513609611E+03 -0.63989062043E+03  0.20364875163E+04  0.10100000352E+00 0.  1.
</event>
<event>
 5   0  0.1372952E-07  0.3996994E+04  0.7818609E-02  0.8005153E-01
        1   -1    0    0  501    0  0.00000000000E+00  0.00000000000E+00  0.16341058788E+04  0.16341058788E+04  0.50400001928E-02 0. -1.
       -1   -1    0    0    0  501  0.00000000000E+00  0.00000000000E+00 -0.24441442668E+04  0.24441442669E+04  0.50400001928E-02 0.  1.
    10030    2    1    2    0    0  0.00000000000E+00  0.00000000000E+00 -0.81003838806E+03  0.40782501456E+04  0.39969941281E+04 0.  0.
        1    1    3    3  502    0 -0.18416692706E+04 -0.75223185478E+03 -0.21037403533E+03  0.20004638713E+04  0.50400001928E-02 0.  1.
       -1    1    3    3    0  502  0.18416692706E+04  0.75223185478E+03 -0.59966435273E+03  0.20777862743E+04  0.50400001928E-02 0. -1.
</event>
<event>
 5   0  0.1351000E-07  0.4021248E+04  0.7818609E-02  0.8000274E-01
       -1   -1    0    0    0  501  0.00000000000E+00  0.00000000000E+00  0.21569359114E+04  0.21569359114E+04  0.50400001928E-02 0. -1.
        1   -1    0    0  501    0  0.00000000000E+00  0.00000000000E+00 -0.18742369069E+04  0.18742369069E+04  0.50400001928E-02 0.  1.
    10030    2    1    2    0    0  0.00000000000E+00  0.00000000000E+00  0.28269900451E+03  0.40311728183E+04  0.40212480108E+04 0.  0.
        4    1    3    3  502    0  0.76010468145E+03 -0.91703224657E+03 -0.14824940997E+04  0.19017091356E+04  0.12699999809E+01 0.  1.
       -4    1    3    3    0  502 -0.76010468145E+03  0.91703224657E+03  0.17651931042E+04  0.21294636827E+04  0.12699999809E+01 0. -1.
</event>
<event>
 5   0  0.4079777E-07  0.2506853E+04  0.7818609E-02  0.8400548E-01
       -2   -1    0    0    0  501  0.00000000000E+00  0.00000000000E+00  0.56546683327E+03  0.56546683327E+03  0.25500000920E-02 0.  1.
        2   -1    0    0  501    0  0.00000000000E+00  0.00000000000E+00 -0.27783735241E+04  0.27783735242E+04  0.25500000920E-02 0. -1.
    10030    2    1    2    0    0  0.00000000000E+00  0.00000000000E+00 -0.22129066909E+04  0.33438403574E+04  0.25068530698E+04 0.  0.
        4    1    3    3  502    0 -0.72761258867E+03  0.10163040367E+04 -0.98144888315E+03  0.15891939773E+04  0.12699999809E+01 0.  1.
       -4    1    3    3    0  502  0.72761258867E+03 -0.10163040367E+04 -0.12314578077E+04  0.17546463802E+04  0.12699999809E+01 0. -1.
</event>
<event>
 5   0  0.4077370E-07  0.4047878E+04  0.7818609E-02  0.7994957E-01
       -2   -1    0    0    0  501  0.00000000000E+00  0.00000000000E+00  0.15889728964E+04  0.15889728964E+04  0.25500000920E-02 0.  1.
        2   -1    0    0  501    0  0.00000000000E+00  0.00000000000E+00 -0.25779730706E+04  0.25779730706E+04  0.25500000920E-02 0. -1.
    10030    2    1    2    0    0  0.00000000000E+00  0.00000000000E+00 -0.98900017415E+03  0.41669459670E+04  0.40478781290E+04 0.  0.
        3    1    3    3  502    0  0.16552929128E+04 -0.10800435082E+04 -0.94302350871E+03  0.21899273857E+04  0.10100000352E+00 0.  1.
       -3    1    3    3    0  502 -0.16552929128E+04  0.10800435082E+04 -0.45976665433E+02  0.19770185813E+04  0.10100000352E+00 0. -1.
</event>
<event>
 5   0  0.1372952E-07  0.2475147E+04  0.7818609E-02  0.8411893E-01
        1   -1    0    0  501    0  0.00000000000E+00  0.00000000000E+00  0.17147773818E+04  0.17147773818E+04  0.50400001928E-02 0.  1.
       -1   -1    0    0    0  501  0.00000000000E+00  0.00000000000E+00 -0.89317041038E+03  0.89317041039E+03  0.50400001928E-02 0. -1.
    10030    2    1    2    0    0  0.00000000000E+00  0.00000000000E+00  0.82160697140E+03  0.26079477922E+04  0.24751472019E+04 0.  0.
        1    1    3    3  502    0 -0.65815706784E+03  0.42097518683E+03  0.14220900931E+04  0.16225692795E+04  0.50400001928E-02 0.  1.
       -1    1    3    3    0  502  0.65815706784E+03 -0.42097518683E+03 -0.60048312166E+03  0.98537851271E+03  0.50400001928E-02 0. -1.
</event>
<event>
 5   0  0.4077370E-07  0.2532858E+04  0.7818609E-02  0.8391372E-01
       -2   -1    0    0    0  501  0.00000000000E+00  0.00000000000E+00  0.51880255510E+03  0.51880255510E+03  0.25500000920E-02 0. -1.
        2   -1    0    0  501    0  0.00000000000E+00  0.00000000000E+00 -0.30914311821E+04  0.30914311821E+04  0.25500000920E-02 0.  1.
    10030    2    1    2    0    0  0.00000000000E+00  0.00000000000E+00 -0.25726286270E+04  0.36102337372E+04  0.25328579875E+04 0.  0.
        3    1    3    3  502    0  0.12574899824E+03  0.10579631350E+04 -0.31044391074E+03  0.11097180892E+04  0.10100000352E+00 0. -1.
       -3    1    3    3    0  502 -0.12574899824E+03 -0.10579631350E+04 -0.22621847163E+04  0.25005156481E+04  0.10100000352E+00 0.  1.
</event>
<event>
 5   0  0.4301754E-07  0.2641823E+04  0.7818609E-02  0.8354132E-01
       -2   -1    0    0    0  501  0.00000000000E+00  0.00000000000E+00  0.15225814081E+04  0.15225814081E+04  0.25500000920E-02 0. -1.
        2   -1    0    0  501    0  0.00000000000E+00  0.00000000000E+00 -0.11459531777E+04  0.11459531777E+04  0.25500000920E-02 0.  1.
    10030    2    1    2    0    0  0.00000000000E+00  0.00000000000E+00  0.37662823034E+03  0.26685345858E+04  0.26418228578E+04 0.  0.
        1    1    3    3  502    0  0.83811004906E+02  0.64967091595E+03  0.13469562007E+04  0.14977942416E+04  0.50400001928E-02 0. -1.
       -1    1    3    3    0  502 -0.83811004906E+02 -0.64967091595E+03 -0.97032797034E+03  0.11707403442E+04  0.50400001928E-02 0.  1.
</event>
<event>
 5   0  0.4149487E-07  0.4157877E+04  0.7818609E-02  0.7973434E-01
       -2   -1    0    0    0  501  0.00000000000E+00  0.00000000000E+00  0.21690832720E+04  0.21690832720E+04  0.25500000920E-02 0.  1.
        2   -1    0    0  501    0  0.00000000000E+00  0.00000000000E+00 -0.19925403072E+04  0.19925403072E+04  0.25500000920E-02 0. -1.
    10030    2    1    2    0    0  0.00000000000E+00  0.00000000000E+00  0.17654296473E+03  0.41616235792E+04  0.41578772705E+04 0.  0.
        2    1    3    3  502    0 -0.96995200719E+03 -0.18280726747E+04  0.28676620113E+03  0.20892322643E+04  0.25500000920E-02 0.  1.
       -2    1    3    3    0  502  0.96995200719E+03  0.18280726747E+04 -0.11022323640E+03  0.20723913149E+04  0.25500000920E-02 0. -1.
</event>
<event>
 5   0  0.4047916E-07  0.3973830E+04  0.7818609E-02  0.8009847E-01
       -2   -1    0    0    0  501  0.00000000000E+00  0.00000000000E+00  0.12147057293E+04  0.12147057293E+04  0.25500000920E-02 0.  1.
        2   -1    0    0  501    0  0.00000000000E+00  0.00000000000E+00 -0.32500303807E+04  0.32500303807E+04  0.25500000920E-02 0. -1.
    10030    2    1    2    0    0  0.00000000000E+00  0.00000000000E+00 -0.20353246514E+04  0.44647361099E+04  0.39738296509E+04 0.  0.
        5    1    3    3  502    0  0.11094266012E+04 -0.79514064777E+03 -0.26398896303E+04  0.29718875118E+04  0.46999998093E+01 0. -1.
       -5    1    3    3    0  502 -0.11094266012E+04  0.79514064777E+03  0.60456497885E+03  0.14928485981E+04  0.46999998093E+01 0.  1.
</event>
<event>
 5   0  0.1351000E-07  0.3188789E+04  0.7818609E-02  0.8191784E-01
       -1   -1    0    0    0  501  0.00000000000E+00  0.00000000000E+00  0.13744392840E+04  0.13744392840E+04  0.50400001928E-02 0.  1.
        1   -1    0    0  501    0  0.00000000000E+00  0.00000000000E+00 -0.18495502173E+04  0.18495502173E+04  0.50400001928E-02 0. -1.
    10030    2    1    2    0    0  0.00000000000E+00  0.00000000000E+00 -0.47511093326E+03  0.32239895013E+04  0.31887894107E+04 0.  0.
        4    1    3    3  502    0  0.92386712237E+03 -0.11297276217E+04 -0.88673199595E+03  0.17076622045E+04  0.12699999809E+01 0.  1.
       -4    1    3    3    0  502 -0.92386712237E+03  0.11297276217E+04  0.41162106268E+03  0.15163272968E+04  0.12699999809E+01 0. -1.
</event>
<event>
 5   0  0.4047916E-07  0.3826570E+04  0.7818609E-02  0.8040477E-01
       -2   -1    0    0    0  501  0.00000000000E+00  0.00000000000E+00  0.26746897145E+04  0.26746897145E+04  0.25500000920E-02 0.  1.
        2   -1    0    0  501    0  0.00000000000E+00  0.00000000000E+00 -0.13686297683E+04  0.13686297683E+04  0.25500000920E-02 0. -1.
    10030    2    1    2    0    0  0.00000000000E+00  0.00000000000E+00  0.13060599463E+04  0.40433194828E+04  0.38265702472E+04 0.  0.
        5    1    3    3  502    0 -0.96636113757E+03  0.16160533717E+04  0.10115973380E+04  0.21374830087E+04  0.46999998093E+01 0. -1.
       -5    1    3    3    0  502  0.96636113757E+03 -0.16160533717E+04  0.29446260830E+03  0.19058364741E+04  0.46999998093E+01 0.  1.
</event>
<event>
 5   0  0.4047916E-07  0.3835980E+04  0.7818609E-02  0.8038477E-01
        2   -1    0    0  501    0  0.00000000000E+00  0.00000000000E+00  0.23259155257E+04  0.23259155257E+04  0.25500000920E-02 0.  1.
       -2   -1    0    0    0  501  0.00000000000E+00  0.00000000000E+00 -0.15816076403E+04  0.15816076403E+04  0.25500000920E-02 0. -1.
    10030    2    1    2    0    0  0.00000000000E+00  0.00000000000E+00  0.74430788543E+03  0.39075231660E+04  0.38359800657E+04 0.  0.
        5    1    3    3  502    0 -0.11856164748E+04  0.82689433896E+03 -0.91200163102E+03  0.17091546852E+04  0.46999998093E+01 0. -1.
       -5    1    3    3    0  502  0.11856164748E+04 -0.82689433896E+03  0.16563095165E+04  0.21983684808E+04  0.46999998093E+01 0.  1.
</event>
<event>
 5   0  0.1368865E-07  0.3971772E+04  0.7818609E-02  0.8010265E-01
       -1   -1    0    0    0  501  0.00000000000E+00  0.00000000000E+00  0.15558080427E+04  0.15558080427E+04  0.50400001928E-02 0.  1.
        1   -1    0    0  501    0  0.00000000000E+00  0.00000000000E+00 -0.25348516995E+04  0.25348516995E+04  0.50400001928E-02 0. -1.
    10030    2    1    2    0    0  0.00000000000E+00  0.00000000000E+00 -0.97904365679E+03  0.40906597422E+04  0.39717717261E+04 0.  0.
        5    1    3    3  502    0  0.10400083314E+04  0.16818631263E+04 -0.67786073440E+03  0.20904062213E+04  0.46999998093E+01 0.  1.
       -5    1    3    3    0  502 -0.10400083314E+04 -0.16818631263E+04 -0.30118292238E+03  0.20002535208E+04  0.46999998093E+01 0. -1.
</event>
<event>
 5   0  0.1351000E-07  0.3893409E+04  0.7818609E-02  0.8026401E-01
       -1   -1    0    0    0  501  0.00000000000E+00  0.00000000000E+00  0.22112680341E+04  0.22112680341E+04  0.50400001928E-02 0.  1.
        1   -1    0    0  501    0  0.00000000000E+00  0.00000000000E+00 -0.17137941739E+04  0.17137941740E+04  0.50400001928E-02 0. -1.
    10030    2    1    2    0    0  0.00000000000E+00  0.00000000000E+00  0.49747386015E+03  0.39250622081E+04  0.38934089299E+04 0.  0.
        4    1    3    3  502    0  0.87706100818E+03 -0.15188251484E+04  0.11003477096E+04  0.20704667441E+04  0.12699999809E+01 0.  1.
       -4    1    3    3    0  502 -0.87706100818E+03  0.15188251484E+04 -0.60287384945E+03  0.18545954639E+04  0.12699999809E+01 0. -1.
</event>
<event>
 5   0  0.1351000E-07  0.4007761E+04  0.7818609E-02  0.8002983E-01
        1   -1    0    0  501    0  0.00000000000E+00  0.00000000000E+00  0.22619815951E+04  0.22619815951E+04  0.50400001928E-02 0.  1.
       -1   -1    0    0    0  501  0.00000000000E+00  0.00000000000E+00 -0.17752299369E+04  0.17752299369E+04  0.50400001928E-02 0. -1.
    10030    2    1    2    0    0  0.00000000000E+00  0.00000000000E+00  0.48675165821E+03  0.40372115320E+04  0.40077611926E+04 0.  0.
        3    1    3    3  502    0  0.14767440785E+04  0.11773599483E+04 -0.43131289682E+03  0.19372610424E+04  0.10100000352E+00 0. -1.
       -3    1    3    3    0  502 -0.14767440785E+04 -0.11773599483E+04  0.91806455502E+03  0.20999504896E+04  0.10100000352E+00 0.  1.
</event>
<event>
 5   0  0.1368865E-07  0.3773282E+04  0.7818609E-02  0.8051913E-01
        1   -1    0    0  501    0  0.00000000000E+00  0.00000000000E+00  0.15523629019E+04  0.15523629019E+04  0.50400001928E-02 0.  1.
       -1   -1    0    0    0  501  0.00000000000E+00  0.00000000000E+00 -0.22929007853E+04  0.22929007853E+04  0.50400001928E-02 0. -1.
    10030    2    1    2    0    0  0.00000000000E+00  0.00000000000E+00 -0.74053788336E+03  0.38452636872E+04  0.37732819226E+04 0.  0.
        5    1    3    3  502    0 -0.15741821128E+04 -0.17898507653E+03  0.67362930016E+03  0.17215933044E+04  0.46999998093E+01 0.  1.
       -5    1    3    3    0  502  0.15741821128E+04  0.17898507653E+03 -0.14141671835E+04  0.21236703828E+04  0.46999998093E+01 0. -1.
</event>
<event>
 5   0  0.1372952E-07  0.3656993E+04  0.7818609E-02  0.8077560E-01
       -1   -1    0    0    0  501  0.00000000000E+00  0.00000000000E+00  0.24180336640E+04  0.24180336640E+04  0.50400001928E-02 0.  1.
        1   -1    0    0  501    0  0.00000000000E+00  0.00000000000E+00 -0.13826935881E+04  0.13826935881E+04  0.50400001928E-02 0. -1.
    10030    2    1    2    0    0  0.00000000000E+00  0.00000000000E+00  0.10353400758E+04  0.38007272521E+04  0.36569931053E+04 0.  0.
        1    1    3    3  502    0 -0.12759071971E+04  0.71816217226E+03 -0.62068972738E+03  0.15902678450E+04  0.50400001928E-02 0. -1.
       -1    1    3    3    0  502  0.12759071971E+04 -0.71816217226E+03  0.16560298032E+04  0.22104594071E+04  0.50400001928E-02 0.  1.
</event>
<event>
 5   0  0.4301754E-07  0.3649933E+04  0.7818609E-02  0.8079149E-01
       -2   -1    0    0    0  501  0.00000000000E+00  0.00000000000E+00  0.15798901541E+04  0.15798901541E+04  0.25500000920E-02 0. -1.
        2   -1    0    0  501    0  0.00000000000E+00  0.00000000000E+00 -0.21080596841E+04  0.21080596841E+04  0.25500000920E-02 0.  1.
    10030    2    1    2    0    0  0.00000000000E+00  0.00000000000E+00 -0.52816952997E+03  0.36879498382E+04  0.36499330072E+04 0.  0.
        1    1    3    3  502    0  0.15482155104E+04  0.83600428119E+03 -0.75351446755E+03  0.19140685666E+04  0.50400001928E-02 0. -1.
       -1    1    3    3    0  502 -0.15482155104E+04 -0.83600428119E+03  0.22534493758E+03  0.17738812716E+04  0.50400001928E-02 0.  1.
</event>
<event>
 5   0  0.1372952E-07  0.3217968E+04  0.7818609E-02  0.8184088E-01
       -1   -1    0    0    0  501  0.00000000000E+00  0.00000000000E+00  0.19049363244E+04  0.19049363244E+04  0.50400001928E-02 0. -1.
        1   -1    0    0  501    0  0.00000000000E+00  0.00000000000E+00 -0.13590113916E+04  0.13590113916E+04  0.50400001928E-02 0.  1.
    10030    2    1    2    0    0  0.00000000000E+00  0.00000000000E+00  0.54592493275E+03  0.32639477160E+04  0.32179684058E+04 0.  0.
        1    1    3    3  502    0 -0.15325200262E+04  0.34581367637E+03  0.62523668858E+03  0.16908949247E+04  0.50400001928E-02 0.  1.
       -1    1    3    3    0  502  0.15325200262E+04 -0.34581367637E+03 -0.79311755823E+02  0.15730527913E+04  0.50400001928E-02 0. -1.
</event>
<event>
 5   0  0.4079777E-07  0.3987464E+04  0.7818609E-02  0.8007080E-01
       -2   -1    0    0    0  501  0.00000000000E+00  0.00000000000E+00  0.27997424791E+04  0.27997424791E+04  0.25500000920E-02 0. -1.
        2   -1    0    0  501    0  0.00000000000E+00  0.00000000000E+00 -0.14197616487E+04  0.14197616487E+04  0.25500000920E-02 0.  1.
    10030    2    1    2    0    0  0.00000000000E+00  0.00000000000E+00  0.13799808303E+04  0.42195041278E+04  0.39874638547E+04 0.  0.
        4    1    3    3  502    0  0.12110733670E+04  0.14522871573E+04  0.21460055801E+02  0.18911104765E+04  0.12699999809E+01 0.  1.
       -4    1    3    3    0  502 -0.12110733670E+04 -0.14522871573E+04  0.13585207745E+04  0.23283936513E+04  0.12699999809E+01 0. -1.
</event>
<event>
 5   0  0.4047916E-07  0.3981727E+04  0.7818609E-02  0.8008243E-01
        2   -1    0    0  501    0  0.00000000000E+00  0.00000000000E+00  0.27836789207E+04  0.27836789207E+04  0.25500000920E-02 0. -1.
       -2   -1    0    0    0  501  0.00000000000E+00  0.00000000000E+00 -0.14238489028E+04  0.14238489028E+04  0.25500000920E-02 0.  1.
    10030    2    1    2    0    0  0.00000000000E+00  0.00000000000E+00  0.13598300179E+04  0.42075278234E+04  0.39817273522E+04 0.  0.
        5    1    3    3  502    0 -0.14065725239E+04  0.13026532655E+04  0.12471663874E+04  0.22870937635E+04  0.46999998093E+01 0.  1.
       -5    1    3    3    0  502  0.14065725239E+04 -0.13026532655E+04  0.11266363051E+03  0.19204340600E+04  0.46999998093E+01 0. -1.
</event>
<event>
 5   0  0.1421304E-07  0.3965073E+04  0.7818609E-02  0.8011630E-01
       -1   -1    0    0    0  501  0.00000000000E+00  0.00000000000E+00  0.15558186548E+04  0.15558186548E+04  0.50400001928E-02 0.  1.
        1   -1    0    0  501    0  0.00000000000E+00  0.00000000000E+00 -0.25262916826E+04  0.25262916826E+04  0.50400001928E-02 0. -1.
    10030    2    1    2    0    0  0.00000000000E+00  0.00000000000E+00 -0.97047302777E+03  0.40821103374E+04  0.39650733800E+04 0.  0.
        2    1    3    3  502    0  0.14466173006E+04 -0.12429651595E+04 -0.10423067344E+04  0.21734919670E+04  0.25500000920E-02 0.  1.
       -2    1    3    3    0  502 -0.14466173006E+04  0.12429651595E+04  0.71833706624E+02  0.19086183704E+04  0.25500000920E-02 0. -1.
</event>
<event>
 5   0  0.1372952E-07  0.3816319E+04  0.7818609E-02  0.8042662E-01
       -1   -1    0    0    0  501  0.00000000000E+00  0.00000000000E+00  0.12651041254E+04  0.12651041254E+04  0.50400001928E-02 0.  1.
        1   -1    0    0  501    0  0.00000000000E+00  0.00000000000E+00 -0.28780820714E+04  0.28780820714E+04  0.50400001928E-02 0. -1.
    10030    2    1    2    0    0  0.00000000000E+00  0.00000000000E+00 -0.16129779460E+04  0.41431861968E+04  0.38163194320E+04 0.  0.
        1    1    3    3  502    0  0.12963055902E+04 -0.18288291568E+03  0.70065688563E+03  0.14848482803E+04  0.50400001928E-02 0.  1.
       -1    1    3    3    0  502 -0.12963055902E+04  0.18288291568E+03 -0.23136348317E+04  0.26583379165E+04  0.50400001928E-02 0. -1.
</event>
<event>
 5   0  0.4149487E-07  0.2619587E+04  0.7818609E-02  0.8361578E-01
       -2   -1    0    0    0  501  0.00000000000E+00  0.00000000000E+00  0.82395807315E+03  0.82395807316E+03  0.25500000920E-02 0. -1.
        2   -1    0    0  501    0  0.00000000000E+00  0.00000000000E+00 -0.20820947872E+04  0.20820947872E+04  0.25500000920E-02 0.  1.
    10030    2    1    2    0    0  0.00000000000E+00  0.00000000000E+00 -0.12581367140E+04  0.29060528603E+04  0.26195868445E+04 0.  0.
        2    1    3    3  502    0  0.23283061482E+03  0.12649514873E+04 -0.90361185582E+03  0.15718863656E+04  0.25500000920E-02 0.  1.
       -2    1    3    3    0  502 -0.23283061482E+03 -0.12649514873E+04 -0.35452485819E+03  0.13341664947E+04  0.25500000920E-02 0. -1.
</event>
<event>
 5   0  0.1351000E-07  0.3978510E+04  0.7818609E-02  0.8008896E-01
       -1   -1    0    0    0  501  0.00000000000E+00  0.00000000000E+00  0.19225645453E+04  0.19225645453E+04  0.50400001928E-02 0.  1.
        1   -1    0    0  501    0  0.00000000000E+00  0.00000000000E+00 -0.20582583857E+04  0.20582583857E+04  0.50400001928E-02 0. -1.
    10030    2    1    2    0    0  0.00000000000E+00  0.00000000000E+00 -0.13569384040E+03  0.39808229309E+04  0.39785095688E+04 0.  0.
        3    1    3    3  502    0 -0.17234102520E+04 -0.65549032237E+03  0.67912861109E+03  0.19649493989E+04  0.10100000352E+00 0.  1.
       -3    1    3    3    0  502  0.17234102520E+04  0.65549032237E+03 -0.81482245148E+03  0.20158735320E+04  0.10100000352E+00 0. -1.
</event>
<event>
 5   0  0.1351000E-07  0.4132501E+04  0.7818609E-02  0.7978338E-01
        1   -1    0    0  501    0  0.00000000000E+00  0.00000000000E+00  0.26694273706E+04  0.26694273706E+04  0.50400001928E-02 0. -1.
       -1   -1    0    0    0  501  0.00000000000E+00  0.00000000000E+00 -0.15993658729E+04  0.15993658729E+04  0.50400001928E-02 0.  1.
    10030    2    1    2    0    0  0.00000000000E+00  0.00000000000E+00  0.10700614977E+04  0.42687932435E+04  0.41325009555E+04 0.  0.
        3    1    3    3  502    0 -0.51480546539E+03  0.12650657592E+04 -0.10665805719E+04  0.17329195506E+04  0.10100000352E+00 0.  1.
       -3    1    3    3    0  502  0.51480546539E+03 -0.12650657592E+04  0.21366420696E+04  0.25358736929E+04  0.10100000352E+00 0. -1.
</event>
<event>
 5   0  0.4149487E-07  0.4014513E+04  0.7818609E-02  0.8001625E-01
        2   -1    0    0  501    0  0.00000000000E+00  0.00000000000E+00  0.19258866365E+04  0.19258866365E+04  0.25500000920E-02 0.  1.
       -2   -1    0    0    0  501  0.00000000000E+00  0.00000000000E+00 -0.20920640154E+04  0.20920640154E+04  0.25500000920E-02 0. -1.
    10030    2    1    2    0    0  0.00000000000E+00  0.00000000000E+00 -0.16617737895E+03  0.40179506519E+04  0.40145127376E+04 0.  0.
        2    1    3    3  502    0 -0.14504064563E+04 -0.10307635849E+04  0.84664475422E+03  0.19705227216E+04  0.25500000920E-02 0.  1.
       -2    1    3    3    0  502  0.14504064563E+04  0.10307635849E+04 -0.10128221332E+04  0.20474279303E+04  0.25500000920E-02 0. -1.
</event>
<event>
 5   0  0.1368865E-07  0.3998395E+04  0.7818609E-02  0.8004870E-01
       -1   -1    0    0    0  501  0.00000000000E+00  0.00000000000E+00  0.26717869022E+04  0.26717869022E+04  0.50400001928E-02 0.  1.
        1   -1    0    0  501    0  0.00000000000E+00  0.00000000000E+00 -0.14959241971E+04  0.14959241971E+04  0.50400001928E-02 0. -1.
    10030    2    1    2    0    0  0.00000000000E+00  0.00000000000E+00  0.11758627052E+04  0.41677110993E+04  0.39983950163E+04 0.  0.
        5    1    3    3  502    0 -0.10200765525E+04  0.11514594279E+04  0.19188539914E+04  0.24593571756E+04  0.46999998093E+01 0.  1.
       -5    1    3    3    0  502  0.10200765525E+04 -0.11514594279E+04 -0.74299128620E+03  0.17083539237E+04  0.46999998093E+01 0. -1.
</event>
<event>
 5   0  0.4077370E-07  0.4127553E+04  0.7818609E-02  0.7979298E-01
        2   -1    0    0  501    0  0.00000000000E+00  0.00000000000E+00  0.21597920096E+04  0.21597920096E+04  0.25500000920E-02 0.  1.
       -2   -1    0    0    0  501  0.00000000000E+00  0.00000000000E+00 -0.19720297086E+04  0.19720297086E+04  0.25500000920E-02 0. -1.
    10030    2    1    2    0    0  0.00000000000E+00  0.00000000000E+00  0.18776230103E+03  0.41318217182E+04  0.41275532740E+04 0.  0.
        3    1    3    3  502    0  0.41984051272E+03  0.14411002220E+04 -0.13239656215E+04  0.20014796734E+04  0.10100000352E+00 0. -1.
       -3    1    3    3    0  502 -0.41984051272E+03 -0.14411002220E+04  0.15117279226E+04  0.21303420448E+04  0.10100000352E+00 0.  1.
</event>
<event>
 5   0  0.4077370E-07  0.3859585E+04  0.7818609E-02  0.8033488E-01
       -2   -1    0    0    0  501  0.00000000000E+00  0.00000000000E+00  0.12802272730E+04  0.12802272730E+04  0.25500000920E-02 0.  1.
        2   -1    0    0  501    0  0.00000000000E+00  0.00000000000E+00 -0.29089353936E+04  0.29089353936E+04  0.25500000920E-02 0. -1.
    10030    2    1    2    0    0  0.00000000000E+00  0.00000000000E+00 -0.16287081206E+04  0.41891626666E+04  0.38595846545E+04 0.  0.
        3    1    3    3  502    0 -0.17499201895E+03  0.30637561195E+03 -0.28736292637E+04  0.28952086933E+04  0.10100000352E+00 0. -1.
       -3    1    3    3    0  502  0.17499201895E+03 -0.30637561195E+03  0.12449211431E+04  0.12939539733E+04  0.10100000352E+00 0.  1.
</event>
<event>
 5   0  0.4149487E-07  0.3988880E+04  0.7818609E-02  0.8006794E-01
        2   -1    0    0  501    0  0.00000000000E+00  0.00000000000E+00  0.23267495095E+04  0.23267495095E+04  0.25500000920E-02 0.  1.
       -2   -1    0    0    0  501  0.00000000000E+00  0.00000000000E+00 -0.17095911427E+04  0.17095911427E+04  0.25500000920E-02 0. -1.
    10030    2    1    2    0    0  0.00000000000E+00  0.00000000000E+00  0.61715836682E+03  0.40363406523E+04  0.39888797188E+04 0.  0.
        2    1    3    3  502    0  0.11548693257E+04  0.82071909493E+03  0.17290218141E+04  0.22353566663E+04  0.25500000920E-02 0.  1.
       -2    1    3    3    0  502 -0.11548693257E+04 -0.82071909493E+03 -0.11118634473E+04  0.18009839859E+04  0.25500000920E-02 0. -1.
</event>
<event>
 5   0  0.1351000E-07  0.4038836E+04  0.7818609E-02  0.7996758E-01
       -1   -1    0    0    0  501  0.00000000000E+00  0.00000000000E+00  0.27428770442E+04  0.27428770442E+04  0.50400001928E-02 0.  1.
        1   -1    0    0  501    0  0.00000000000E+00  0.00000000000E+00 -0.14867776299E+04  0.14867776299E+04  0.50400001928E-02 0. -1.
    10030    2    1    2    0    0  0.00000000000E+00  0.00000000000E+00  0.12560994142E+04  0.42296546741E+04  0.40388355901E+04 0.  0.
        4    1    3    3  502    0  0.14698215684E+04 -0.95551284796E+03  0.16777363472E+04  0.24265574605E+04  0.12699999809E+01 0.  1.
       -4    1    3    3    0  502 -0.14698215684E+04  0.95551284796E+03 -0.42163693293E+03  0.18030972136E+04  0.12699999809E+01 0. -1.
</event>
<event>
 5   0  0.4301754E-07  0.2606391E+04  0.7818609E-02  0.8366034E-01
       -2   -1    0    0    0  501  0.00000000000E+00  0.00000000000E+00  0.14878844289E+04  0.14878844289E+04  0.25500000920E-02 0. -1.
        2   -1    0    0  501    0  0.00000000000E+00  0.00000000000E+00 -0.11414315871E+04  0.11414315871E+04  0.25500000920E-02 0.  1.
    10030    2    1    2    0    0  0.00000000000E+00  0.00000000000E+00  0.34645284178E+03  0.26293160160E+04  0.26063908265E+04 0.  0.
        1    1    3    3  502    0  0.65720809892E+03  0.61412868272E+03  0.11245169509E+04  0.14400051726E+04  0.50400001928E-02 0. -1.
       -1    1    3    3    0  502 -0.65720809892E+03 -0.61412868272E+03 -0.77806410913E+03  0.11893108434E+04  0.50400001928E-02 0.  1.
</event>
<event>
 5   0  0.4149487E-07  0.3864911E+04  0.7818609E-02  0.8032367E-01
        2   -1    0    0  501    0  0.00000000000E+00  0.00000000000E+00  0.17956501486E+04  0.17956501486E+04  0.25500000920E-02 0. -1.
       -2   -1    0    0    0  501  0.00000000000E+00  0.00000000000E+00 -0.20796838821E+04  0.20796838821E+04  0.25500000920E-02 0.  1.
    10030    2    1    2    0    0  0.00000000000E+00  0.00000000000E+00 -0.28403373351E+03  0.38753340308E+04  0.38649112135E+04 0.  0.
        2    1    3    3  502    0  0.18651957495E+02  0.55013448253E+03  0.17153794797E+04  0.18015334035E+04  0.25500000920E-02 0. -1.
       -2    1    3    3    0  502 -0.18651957495E+02 -0.55013448253E+03 -0.19994132132E+04  0.20738006273E+04  0.25500000920E-02 0.  1.
</event>
<event>
 5   0  0.4079777E-07  0.3975883E+04  0.7818609E-02  0.8009430E-01
        2   -1    0    0  501    0  0.00000000000E+00  0.00000000000E+00  0.25644896944E+04  0.25644896944E+04  0.25500000920E-02 0. -1.
       -2   -1    0    0    0  501  0.00000000000E+00  0.00000000000E+00 -0.15410125754E+04  0.15410125754E+04  0.25500000920E-02 0.  1.
    10030    2    1    2    0    0  0.00000000000E+00  0.00000000000E+00  0.10234771190E+04  0.41055022699E+04  0.39758827290E+04 0.  0.
        4    1    3    3  502    0  0.19796257237E+03 -0.99164838602E+03 -0.12555954146E+04  0.16121653636E+04  0.12699999809E+01 0.  1.
       -4    1    3    3    0  502 -0.19796257237E+03  0.99164838602E+03  0.22790725336E+04  0.24933369062E+04  0.12699999809E+01 0. -1.
</event>
<event>
 5   0  0.4077370E-07  0.3609371E+04  0.7818609E-02  0.8088349E-01
       -2   -1    0    0    0  501  0.00000000000E+00  0.00000000000E+00  0.17216742008E+04  0.17216742008E+04  0.25500000920E-02 0.  1.
        2   -1    0    0  501    0  0.00000000000E+00  0.00000000000E+00 -0.18916988835E+04  0.18916988835E+04  0.25500000920E-02 0. -1.
    10030    2    1    2    0    0  0.00000000000E+00  0.00000000000E+00 -0.17002468275E+03  0.36133730843E+04  0.36093706728E+04 0.  0.
        3    1    3    3  502    0 -0.47747307243E+03  0.84104789892E+03 -0.16103643029E+04  0.18784608863E+04  0.10100000352E+00 0. -1.
       -3    1    3    3    0  502  0.47747307243E+03 -0.84104789892E+03  0.14403396201E+04  0.17349121980E+04  0.10100000352E+00 0.  1.
</event>
<event>
 5   0  0.1421304E-07  0.3965469E+04  0.7818609E-02  0.8011549E-01
        1   -1    0    0  501    0  0.00000000000E+00  0.00000000000E+00  0.25361689377E+04  0.25361689377E+04  0.50400001928E-02 0. -1.
       -1   -1    0    0    0  501  0.00000000000E+00  0.00000000000E+00 -0.15500689493E+04  0.15500689493E+04  0.50400001928E-02 0.  1.
    10030    2    1    2    0    0  0.00000000000E+00  0.00000000000E+00  0.98609998840E+03  0.40862378870E+04  0.39654693142E+04 0.  0.
        2    1    3    3  502    0 -0.83680988683E+02  0.15926557410E+04 -0.72082513962E+03  0.17501839043E+04  0.25500000920E-02 0.  1.
       -2    1    3    3    0  502  0.83680988683E+02 -0.15926557410E+04  0.17069251280E+04  0.23360539826E+04  0.25500000920E-02 0. -1.
</event>
<event>
 5   0  0.4301754E-07  0.2845683E+04  0.7818609E-02  0.8289224E-01
        2   -1    0    0  501    0  0.00000000000E+00  0.00000000000E+00  0.12949491805E+04  0.12949491805E+04  0.25500000920E-02 0. -1.
       -2   -1    0    0    0  501  0.00000000000E+00  0.00000000000E+00 -0.15633642876E+04  0.15633642876E+04  0.25500000920E-02 0.  1.
    10030    2    1    2    0    0  0.00000000000E+00  0.00000000000E+00 -0.26841510710E+03  0.28583134681E+04  0.28456825565E+04 0.  0.
        1    1    3    3  502    0  0.64466495849E+03 -0.12401139242E+04 -0.40185199857E+03  0.14542903708E+04  0.50400001928E-02 0.  1.
       -1    1    3    3    0  502 -0.64466495849E+03  0.12401139242E+04  0.13343689147E+03  0.14040230973E+04  0.50400001928E-02 0. -1.
</event>
<event>
 5   0  0.4079777E-07  0.2882616E+04  0.7818609E-02  0.8278069E-01
       -2   -1    0    0    0  501  0.00000000000E+00  0.00000000000E+00  0.12975780378E+04  0.12975780378E+04  0.25500000920E-02 0.  1.
        2   -1    0    0  501    0  0.00000000000E+00  0.00000000000E+00 -0.16009588274E+04  0.16009588274E+04  0.25500000920E-02 0. -1.
    10030    2    1    2    0    0  0.00000000000E+00  0.00000000000E+00 -0.30338078961E+03  0.28985368652E+04  0.28826161825E+04 0.  0.
        4    1    3    3  502    0 -0.12813543014E+04 -0.65498461138E+03 -0.70661746952E+02  0.14407874174E+04  0.12699999809E+01 0. -1.
       -4    1    3    3    0  502  0.12813543014E+04  0.65498461138E+03 -0.23271904266E+03  0.14577494478E+04  0.12699999809E+01 0.  1.
</event>
<event>
 5   0  0.1372952E-07  0.3988374E+04  0.7818609E-02  0.8006896E-01
        1   -1    0    0  501    0  0.00000000000E+00  0.00000000000E+00  0.16691938205E+04  0.16691938205E+04  0.50400001928E-02 0. -1.
       -1   -1    0    0    0  501  0.00000000000E+00  0.00000000000E+00 -0.23824570041E+04  0.23824570041E+04  0.50400001928E-02 0.  1.
    10030    2    1    2    0    0  0.00000000000E+00  0.00000000000E+00 -0.71326318355E+03  0.40516508246E+04  0.39883743600E+04 0.  0.
        1    1    3    3  502    0 -0.13230628599E+04 -0.11329474385E+04 -0.13429720064E+04  0.21994633527E+04  0.50400001928E-02 0.  1.
       -1    1    3    3    0  502  0.13230628599E+04  0.11329474385E+04  0.62970882282E+03  0.18521874720E+04  0.50400001928E-02 0. -1.
</event>
<event>
 5   0  0.1421304E-07  0.3961765E+04  0.7818609E-02  0.8012304E-01
        1   -1    0    0  501    0  0.00000000000E+00  0.00000000000E+00  0.21593200636E+04  0.21593200636E+04  0.50400001928E-02 0.  1.
       -1   -1    0    0    0  501  0.00000000000E+00  0.00000000000E+00 -0.18171906437E+04  0.18171906437E+04  0.50400001928E-02 0. -1.
    10030    2    1    2    0    0  0.00000000000E+00  0.00000000000E+00  0.34212941986E+03  0.39765107073E+04  0.39617653724E+04 0.  0.
        2    1    3    3  502    0  0.96037325189E+03  0.90407551905E+02  0.19076503688E+04  0.21376670082E+04  0.25500000920E-02 0.  1.
       -2    1    3    3    0  502 -0.96037325189E+03 -0.90407551905E+02 -0.15655209489E+04  0.18388436992E+04  0.25500000920E-02 0. -1.
</event>
<event>
 5   0  0.1368865E-07  0.4011501E+04  0.7818609E-02  0.8002230E-01
       -1   -1    0    0    0  501  0.00000000000E+00  0.00000000000E+00  0.26893116876E+04  0.26893116876E+04  0.50400001928E-02 0. -1.
        1   -1    0    0  501    0  0.00000000000E+00  0.00000000000E+00 -0.14959348377E+04  0.14959348378E+04  0.50400001928E-02 0.  1.
    10030    2    1    2    0    0  0.00000000000E+00  0.00000000000E+00  0.11933768498E+04  0.41852465253E+04  0.40115009874E+04 0.  0.
        5    1    3    3  502    0 -0.44324817492E+03 -0.17364618415E+04 -0.34301317297E+03  0.18246777245E+04  0.46999998093E+01 0. -1.
       -5    1    3    3    0  502  0.44324817492E+03  0.17364618415E+04  0.15363900228E+04  0.23605688008E+04  0.46999998093E+01 0.  1.
</event>
<event>
 5   0  0.1351000E-07  0.2547796E+04  0.7818609E-02  0.8386153E-01
       -3   -1    0    0    0  501  0.00000000000E+00  0.00000000000E+00  0.95664179055E+03  0.95664179589E+03  0.10100000352E+00 0.  1.
        3   -1    0    0  501    0  0.00000000000E+00  0.00000000000E+00 -0.16963670855E+04  0.16963670885E+04  0.10100000352E+00 0. -1.
    10030    2    1    2    0    0  0.00000000000E+00  0.00000000000E+00 -0.73972529495E+03  0.26530088844E+04  0.25477956411E+04 0.  0.
        5    1    3    3  502    0  0.22839255102E+03 -0.10103598001E+04  0.40224500696E+03  0.11112214985E+04  0.46999998093E+01 0.  1.
       -5    1    3    3    0  502 -0.22839255102E+03  0.10103598001E+04 -0.11419703019E+04  0.15417873859E+04  0.46999998093E+01 0. -1.
</event>
<event>
 5   0  0.1351000E-07  0.3913172E+04  0.7818609E-02  0.8022295E-01
       -1   -1    0    0    0  501  0.00000000000E+00  0.00000000000E+00  0.32879742100E+04  0.32879742100E+04  0.50400001928E-02 0.  1.
        1   -1    0    0  501    0  0.00000000000E+00  0.00000000000E+00 -0.11643122114E+04  0.11643122114E+04  0.50400001928E-02 0. -1.
    10030    2    1    2    0    0  0.00000000000E+00  0.00000000000E+00  0.21236619986E+04  0.44522864214E+04  0.39131718713E+04 0.  0.
        3    1    3    3  502    0 -0.30995034224E+03  0.17099750251E+04  0.39012109627E+02  0.17382766627E+04  0.10100000352E+00 0. -1.
       -3    1    3    3    0  502  0.30995034224E+03 -0.17099750251E+04  0.20846498890E+04  0.27140097588E+04  0.10100000352E+00 0.  1.
</event>
<event>
 5   0  0.4079777E-07  0.3881902E+04  0.7818609E-02  0.8028804E-01
       -2   -1    0    0    0  501  0.00000000000E+00  0.00000000000E+00  0.14637722060E+04  0.14637722060E+04  0.25500000920E-02 0. -1.
        2   -1    0    0  501    0  0.00000000000E+00  0.00000000000E+00 -0.25736868537E+04  0.25736868537E+04  0.25500000920E-02 0.  1.
    10030    2    1    2    0    0  0.00000000000E+00  0.00000000000E+00 -0.11099146477E+04  0.40374590597E+04  0.38819022571E+04 0.  0.
        4    1    3    3  502    0 -0.34122715356E+03  0.16614932180E+04 -0.15363216247E+04  0.22885107452E+04  0.12699999809E+01 0.  1.
       -4    1    3    3    0  502  0.34122715356E+03 -0.16614932180E+04  0.42640697700E+03  0.17489483144E+04  0.12699999809E+01 0. -1.
</event>
<event>
 5   0  0.1372952E-07  0.2508580E+04  0.7818609E-02  0.8399935E-01
        1   -1    0    0  501    0  0.00000000000E+00  0.00000000000E+00  0.10678536370E+04  0.10678536370E+04  0.50400001928E-02 0.  1.
       -1   -1    0    0    0  501  0.00000000000E+00  0.00000000000E+00 -0.14732766148E+04  0.14732766148E+04  0.50400001928E-02 0. -1.
    10030    2    1    2    0    0  0.00000000000E+00  0.00000000000E+00 -0.40542297779E+03  0.25411302519E+04  0.25085803089E+04 0.  0.
        1    1    3    3  502    0  0.88118378750E+03  0.63350409836E+03  0.43428133301E+03  0.11689365193E+04  0.50400001928E-02 0.  1.
       -1    1    3    3    0  502 -0.88118378750E+03 -0.63350409836E+03 -0.83970431080E+03  0.13721937325E+04  0.50400001928E-02 0. -1.
</event>
<event>
 5   0  0.4047916E-07  0.3972342E+04  0.7818609E-02  0.8010149E-01
        2   -1    0    0  501    0  0.00000000000E+00  0.00000000000E+00  0.20925269975E+04  0.20925269975E+04  0.25500000920E-02 0.  1.
       -2   -1    0    0    0  501  0.00000000000E+00  0.00000000000E+00 -0.18852204514E+04  0.18852204514E+04  0.25500000920E-02 0. -1.
    10030    2    1    2    0    0  0.00000000000E+00  0.00000000000E+00  0.20730654602E+03  0.39777474489E+04  0.39723417229E+04 0.  0.
        5    1    3    3  502    0 -0.13164179100E+04 -0.23086194914E+03  0.15748698670E+04  0.20655484843E+04  0.46999998093E+01 0.  1.
       -5    1    3    3    0  502  0.13164179100E+04  0.23086194914E+03 -0.13675633209E+04  0.19121989646E+04  0.46999998093E+01 0. -1.
</event>
<event>
 5   0  0.4047916E-07  0.3741555E+04  0.7818609E-02  0.8058815E-01
        2   -1    0    0  501    0  0.00000000000E+00  0.00000000000E+00  0.14105309184E+04  0.14105309184E+04  0.25500000920E-02 0.  1.
       -2   -1    0    0    0  501  0.00000000000E+00  0.00000000000E+00 -0.24811998104E+04  0.24811998104E+04  0.25500000920E-02 0. -1.
    10030    2    1    2    0    0  0.00000000000E+00  0.00000000000E+00 -0.10706688920E+04  0.38917307288E+04  0.37415553168E+04 0.  0.
        5    1    3    3  502    0 -0.34297294290E+03 -0.17162825968E+04  0.15188895923E+03  0.17568007109E+04  0.46999998093E+01 0.  1.
       -5    1    3    3    0  502  0.34297294290E+03  0.17162825968E+04 -0.12225578512E+04  0.21349300179E+04  0.46999998093E+01 0. -1.
</event>
<event>
 5   0  0.4047916E-07  0.3819525E+04  0.7818609E-02  0.8041978E-01
        2   -1    0    0  501    0  0.00000000000E+00  0.00000000000E+00  0.24126816797E+04  0.24126816797E+04  0.25500000920E-02 0. -1.
       -2   -1    0    0    0  501  0.00000000000E+00  0.00000000000E+00 -0.15116758057E+04  0.15116758057E+04  0.25500000920E-02 0.  1.
    10030    2    1    2    0    0  0.00000000000E+00  0.00000000000E+00  0.90100587402E+03  0.39243574853E+04  0.38195248510E+04 0.  0.
        5    1    3    3  502    0 -0.15754334635E+04 -0.10447212266E+04  0.72950223524E+03  0.20262350901E+04  0.46999998093E+01 0.  1.
       -5    1    3    3    0  502  0.15754334635E+04  0.10447212266E+04  0.17150363878E+03  0.18981223952E+04  0.46999998093E+01 0. -1.
</event>
<event>
 5   0  0.4149487E-07  0.3865571E+04  0.7818609E-02  0.8032228E-01
        2   -1    0    0  501    0  0.00000000000E+00  0.00000000000E+00  0.16471824144E+04  0.16471824144E+04  0.25500000920E-02 0. -1.
       -2   -1    0    0    0  501  0.00000000000E+00  0.00000000000E+00 -0.22679089081E+04  0.22679089081E+04  0.25500000920E-02 0.  1.
    10030    2    1    2    0    0  0.00000000000E+00  0.00000000000E+00 -0.62072649370E+03  0.39150913225E+04  0.38655709388E+04 0.  0.
        2    1    3    3  502    0  0.50525325828E+03 -0.14083619259E+04  0.92878706573E+03  0.17610819353E+04  0.25500000920E-02 0. -1.
       -2    1    3    3    0  502 -0.50525325828E+03  0.14083619259E+04 -0.15495135594E+04  0.21540093872E+04  0.25500000920E-02 0.  1.
</event>
<event>
 5   0  0.1351000E-07  0.2703818E+04  0.7818609E-02  0.8333767E-01
       -1   -1    0    0    0  501  0.00000000000E+00  0.00000000000E+00  0.12329946850E+04  0.12329946850E+04  0.50400001928E-02 0. -1.
        1   -1    0    0  501    0  0.00000000000E+00  0.00000000000E+00 -0.14822921850E+04  0.14822921850E+04  0.50400001928E-02 0.  1.
    10030    2    1    2    0    0  0.00000000000E+00  0.00000000000E+00 -0.24929749998E+03  0.27152868700E+04  0.27038183265E+04 0.  0.
        4    1    3    3  502    0  0.92870834846E+03  0.97033503926E+03  0.29650246088E+02  0.13434768457E+04  0.12699999809E+01 0. -1.
       -4    1    3    3    0  502 -0.92870834846E+03 -0.97033503926E+03 -0.27894774607E+03  0.13718100243E+04  0.12699999809E+01 0.  1.
</event>
<event>
 5   0  0.4301754E-07  0.3991432E+04  0.7818609E-02  0.8006277E-01
        2   -1    0    0  501    0  0.00000000000E+00  0.00000000000E+00  0.26728608700E+04  0.26728608700E+04  0.25500000920E-02 0. -1.
       -2   -1    0    0    0  501  0.00000000000E+00  0.00000000000E+00 -0.14901196177E+04  0.14901196177E+04  0.25500000920E-02 0.  1.
    10030    2    1    2    0    0  0.00000000000E+00  0.00000000000E+00  0.11827412523E+04  0.41629804877E+04  0.39914320326E+04 0.  0.
        1    1    3    3  502    0 -0.41849274212E+03  0.54512170424E+02  0.26257882412E+04  0.26594871009E+04  0.50400001928E-02 0. -1.
       -1    1    3    3    0  502  0.41849274212E+03 -0.54512170424E+02 -0.14430469889E+04  0.15034933868E+04  0.50400001928E-02 0.  1.
</event>
<event>
 5   0  0.4047916E-07  0.4005316E+04  0.7818609E-02  0.8003475E-01
       -2   -1    0    0    0  501  0.00000000000E+00  0.00000000000E+00  0.14181778427E+04  0.14181778427E+04  0.25500000920E-02 0. -1.
        2   -1    0    0  501    0  0.00000000000E+00  0.00000000000E+00 -0.28280223617E+04  0.28280223617E+04  0.25500000920E-02 0.  1.
    10030    2    1    2    0    0  0.00000000000E+00  0.00000000000E+00 -0.14098445191E+04  0.42462002044E+04  0.40053157938E+04 0.  0.
        5    1    3    3  502    0  0.14778885995E+04 -0.12780676242E+04 -0.11706670232E+04  0.22777389960E+04  0.46999998093E+01 0.  1.
       -5    1    3    3    0  502 -0.14778885995E+04  0.12780676242E+04 -0.23917749582E+03  0.19684612084E+04  0.46999998093E+01 0. -1.
</event>
<event>
 5   0  0.4079777E-07  0.4003098E+04  0.7818609E-02  0.8003922E-01
        2   -1    0    0  501    0  0.00000000000E+00  0.00000000000E+00  0.13114904144E+04  0.13114904144E+04  0.25500000920E-02 0.  1.
       -2   -1    0    0    0  501  0.00000000000E+00  0.00000000000E+00 -0.30546911655E+04  0.30546911655E+04  0.25500000920E-02 0. -1.
    10030    2    1    2    0    0  0.00000000000E+00  0.00000000000E+00 -0.17432007511E+04  0.43661815799E+04  0.40030978916E+04 0.  0.
        4    1    3    3  502    0  0.13102350267E+04  0.48951428379E+03 -0.24331914334E+04  0.28065570053E+04  0.12699999809E+01 0. -1.
       -4    1    3    3    0  502 -0.13102350267E+04 -0.48951428379E+03  0.68999068235E+03  0.15596245746E+04  0.12699999809E+01 0.  1.
</event>
<event>
 5   0  0.4077370E-07  0.4044398E+04  0.7818609E-02  0.7995649E-01
        2   -1    0    0  501    0  0.00000000000E+00  0.00000000000E+00  0.19780118905E+04  0.19780118905E+04  0.25500000920E-02 0.  1.
       -2   -1    0    0    0  501  0.00000000000E+00  0.00000000000E+00 -0.20673732115E+04  0.20673732115E+04  0.25500000920E-02 0. -1.
    10030    2    1    2    0    0  0.00000000000E+00  0.00000000000E+00 -0.89361321020E+02  0.40453851020E+04  0.40443979994E+04 0.  0.
        3    1    3    3  502    0 -0.13642306973E+04 -0.93876398208E+03  0.11161565867E+04  0.19970500108E+04  0.10100000352E+00 0.  1.
       -3    1    3    3    0  502  0.13642306973E+04  0.93876398208E+03 -0.12055179077E+04  0.20483350911E+04  0.10100000352E+00 0. -1.
</event>
<event>
 5   0  0.4047916E-07  0.3566564E+04  0.7818609E-02  0.8098194E-01
        2   -1    0    0  501    0  0.00000000000E+00  0.00000000000E+00  0.23209455204E+04  0.23209455204E+04  0.25500000920E-02 0.  1.
       -2   -1    0    0    0  501  0.00000000000E+00  0.00000000000E+00 -0.13701719621E+04  0.13701719621E+04  0.25500000920E-02 0. -1.
    10030    2    1    2    0    0  0.00000000000E+00  0.00000000000E+00  0.95077355827E+03  0.36911174825E+04  0.35665638801E+04 0.  0.
        5    1    3    3  502    0  0.10161171793E+04  0.19031415898E+03 -0.10284090685E+04  0.14582046850E+04  0.46999998093E+01 0. -1.
       -5    1    3    3    0  502 -0.10161171793E+04 -0.19031415898E+03  0.19791826268E+04  0.22329127975E+04  0.46999998093E+01 0.  1.
</event>
<event>
 5   0  0.1351000E-07  0.3998092E+04  0.7818609E-02  0.8004932E-01
        1   -1    0    0  501    0  0.00000000000E+00  0.00000000000E+00  0.27271150836E+04  0.27271150836E+04  0.50400001928E-02 0. -1.
       -1   -1    0    0    0  501  0.00000000000E+00  0.00000000000E+00 -0.14653525197E+04  0.14653525197E+04  0.50400001928E-02 0.  1.
    10030    2    1    2    0    0  0.00000000000E+00  0.00000000000E+00  0.12617625639E+04  0.41924676033E+04  0.39980920246E+04 0.  0.
        4    1    3    3  502    0  0.24516490379E+03 -0.15058195365E+04 -0.72365643362E+03  0.16885729340E+04  0.12699999809E+01 0.  1.
       -4    1    3    3    0  502 -0.24516490379E+03  0.15058195365E+04  0.19854189975E+04  0.25038946693E+04  0.12699999809E+01 0. -1.
</event>
<event>
 5   0  0.1351000E-07  0.4143450E+04  0.7818609E-02  0.7976217E-01
       -1   -1    0    0    0  501  0.00000000000E+00  0.00000000000E+00  0.18301171971E+04  0.18301171971E+04  0.50400001928E-02 0.  1.
        1   -1    0    0  501    0  0.00000000000E+00  0.00000000000E+00 -0.23452287766E+04  0.23452287766E+04  0.50400001928E-02 0. -1.
    10030    2    1    2    0    0  0.00000000000E+00  0.00000000000E+00 -0.51511157953E+03  0.41753459738E+04  0.41434495365E+04 0.  0.
        3    1    3    3  502    0 -0.15116505334E+04  0.10595982184E+04  0.69000609015E+03  0.19707724714E+04  0.10100000352E+00 0. -1.
       -3    1    3    3    0  502  0.15116505334E+04 -0.10595982184E+04 -0.12051176697E+04  0.22045735024E+04  0.10100000352E+00 0.  1.
</event>
<event>
 5   0  0.1368865E-07  0.4000245E+04  0.7818609E-02  0.8004497E-01
       -1   -1    0    0    0  501  0.00000000000E+00  0.00000000000E+00  0.17446822575E+04  0.17446822575E+04  0.50400001928E-02 0.  1.
        1   -1    0    0  501    0  0.00000000000E+00  0.00000000000E+00 -0.22929624040E+04  0.22929624040E+04  0.50400001928E-02 0. -1.
    10030    2    1    2    0    0  0.00000000000E+00  0.00000000000E+00 -0.54828014653E+03  0.40376446616E+04  0.40002454042E+04 0.  0.
        5    1    3    3  502    0  0.12259529297E+04 -0.12243108843E+04 -0.12827678793E+04  0.21557859934E+04  0.46999998093E+01 0.  1.
       -5    1    3    3    0  502 -0.12259529297E+04  0.12243108843E+04  0.73448773281E+03  0.18818586681E+04  0.46999998093E+01 0. -1.
</event>
<event>
 5   0  0.4301754E-07  0.3958452E+04  0.7818609E-02  0.8012981E-01
        2   -1    0    0  501    0  0.00000000000E+00  0.00000000000E+00  0.20761129730E+04  0.20761129731E+04  0.25500000920E-02 0. -1.
       -2   -1    0    0    0  501  0.00000000000E+00  0.00000000000E+00 -0.18868602393E+04  0.18868602393E+04  0.25500000920E-02 0.  1.
    10030    2    1    2    0    0  0.00000000000E+00  0.00000000000E+00  0.18925273374E+03  0.39629732124E+04  0.39584517282E+04 0.  0.
        1    1    3    3  502    0  0.19774803145E+04 -0.18042666566E+02  0.13409791918E+02  0.19776080892E+04  0.50400001928E-02 0. -1.
       -1    1    3    3    0  502 -0.19774803145E+04  0.18042666566E+02  0.17584294183E+03  0.19853651231E+04  0.50400001928E-02 0.  1.
</event>
<event>
 5   0  0.4047916E-07  0.4060010E+04  0.7818609E-02  0.7992549E-01
        2   -1    0    0  501    0  0.00000000000E+00  0.00000000000E+00  0.29933901375E+04  0.29933901375E+04  0.25500000920E-02 0. -1.
       -2   -1    0    0    0  501  0.00000000000E+00  0.00000000000E+00 -0.13766732745E+04  0.13766732745E+04  0.25500000920E-02 0.  1.
    10030    2    1    2    0    0  0.00000000000E+00  0.00000000000E+00  0.16167168630E+04  0.43700634120E+04  0.40600099520E+04 0.  0.
        5    1    3    3  502    0 -0.15971727794E+04 -0.11215292439E+04  0.20702679723E+03  0.19625674299E+04  0.46999998093E+01 0.  1.
       -5    1    3    3    0  502  0.15971727794E+04  0.11215292439E+04  0.14096900657E+04  0.24074959821E+04  0.46999998093E+01 0. -1.
</event>
<event>
 5   0  0.1368865E-07  0.4015776E+04  0.7818609E-02  0.8001372E-01
       -1   -1    0    0    0  501  0.00000000000E+00  0.00000000000E+00  0.21112815397E+04  0.21112815397E+04  0.50400001928E-02 0.  1.
        1   -1    0    0  501    0  0.00000000000E+00  0.00000000000E+00 -0.19095581596E+04  0.19095581596E+04  0.50400001928E-02 0. -1.
    10030    2    1    2    0    0  0.00000000000E+00  0.00000000000E+00  0.20172338015E+03  0.40208396993E+04  0.40157763341E+04 0.  0.
        5    1    3    3  502    0 -0.49112933655E+03 -0.66700989171E+03  0.19322339420E+04  0.21022988174E+04  0.46999998093E+01 0.  1.
       -5    1    3    3    0  502  0.49112933655E+03  0.66700989171E+03 -0.17305105619E+04  0.19185408819E+04  0.46999998093E+01 0. -1.
</event>
<event>
 5   0  0.1372952E-07  0.3942321E+04  0.7818609E-02  0.8016284E-01
        1   -1    0    0  501    0  0.00000000000E+00  0.00000000000E+00  0.19062903905E+04  0.19062903905E+04  0.50400001928E-02 0.  1.
       -1   -1    0    0    0  501  0.00000000000E+00  0.00000000000E+00 -0.20382382401E+04  0.20382382401E+04  0.50400001928E-02 0. -1.
    10030    2    1    2    0    0  0.00000000000E+00  0.00000000000E+00 -0.13194784966E+03  0.39445286306E+04  0.39423211288E+04 0.  0.
        1    1    3    3  502    0 -0.15677164003E+04 -0.37298923025E+03 -0.12017828084E+04  0.20102580919E+04  0.50400001928E-02 0. -1.
       -1    1    3    3    0  502  0.15677164003E+04  0.37298923025E+03  0.10698349588E+04  0.19342705386E+04  0.50400001928E-02 0.  1.
</event>
<event>
 5   0  0.4149487E-07  0.3925371E+04  0.7818609E-02  0.8019773E-01
       -2   -1    0    0    0  501  0.00000000000E+00  0.00000000000E+00  0.17515849711E+04  0.17515849711E+04  0.25500000920E-02 0. -1.
        2   -1    0    0  501    0  0.00000000000E+00  0.00000000000E+00 -0.21992276271E+04  0.21992276271E+04  0.25500000920E-02 0.  1.
    10030    2    1    2    0    0  0.00000000000E+00  0.00000000000E+00 -0.44764265598E+03  0.39508125982E+04  0.39253708409E+04 0.  0.
        2    1    3    3  502    0 -0.98144845568E+03 -0.10153901146E+04 -0.15956948970E+04  0.21308449874E+04  0.25500000920E-02 0.  1.
       -2    1    3    3    0  502  0.98144845568E+03  0.10153901146E+04  0.11480522410E+04  0.18199676107E+04  0.25500000920E-02 0. -1.
</event>
<event>
 5   0  0.1372952E-07  0.3339351E+04  0.7818609E-02  0.8152954E-01
        1   -1    0    0  501    0  0.00000000000E+00  0.00000000000E+00  0.13243494003E+04  0.13243494003E+04  0.50400001928E-02 0. -1.
       -1   -1    0    0    0  501  0.00000000000E+00  0.00000000000E+00 -0.21050456406E+04  0.21050456406E+04  0.50400001928E-02 0.  1.
    10030    2    1    2    0    0  0.00000000000E+00  0.00000000000E+00 -0.78069624028E+03  0.34293950409E+04  0.33393507943E+04 0.  0.
        1    1    3    3  502    0  0.14242415201E+04 -0.42422233858E+03 -0.11720479313E+04  0.18926502195E+04  0.50400001928E-02 0.  1.
       -1    1    3    3    0  502 -0.14242415201E+04  0.42422233858E+03  0.39135169106E+03  0.15367448214E+04  0.50400001928E-02 0. -1.
</event>
<event>
 5   0  0.4079777E-07  0.4212773E+04  0.7818609E-02  0.7962947E-01
       -2   -1    0    0    0  501  0.00000000000E+00  0.00000000000E+00  0.28645290699E+04  0.28645290699E+04  0.25500000920E-02 0. -1.
        2   -1    0    0  501    0  0.00000000000E+00  0.00000000000E+00 -0.15488983964E+04  0.15488983964E+04  0.25500000920E-02 0.  1.
    10030    2    1    2    0    0  0.00000000000E+00  0.00000000000E+00  0.13156306735E+04  0.44134274663E+04  0.42127731877E+04 0.  0.
        4    1    3    3  502    0  0.11937397017E+04 -0.17352264843E+04  0.62749839312E+03  0.21976763350E+04  0.12699999809E+01 0.  1.
       -4    1    3    3    0  502 -0.11937397017E+04  0.17352264843E+04  0.68813228043E+03  0.22157511312E+04  0.12699999809E+01 0. -1.
</event>
<event>
 5   0  0.4301754E-07  0.4041787E+04  0.7818609E-02  0.7996169E-01
       -2   -1    0    0    0  501  0.00000000000E+00  0.00000000000E+00  0.15834167652E+04  0.15834167652E+04  0.25500000920E-02 0.  1.
        2   -1    0    0  501    0  0.00000000000E+00  0.00000000000E+00 -0.25792388783E+04  0.25792388783E+04  0.25500000920E-02 0. -1.
    10030    2    1    2    0    0  0.00000000000E+00  0.00000000000E+00 -0.99582211309E+03  0.41626556436E+04  0.40417867739E+04 0.  0.
        1    1    3    3  502    0 -0.10740028924E+04 -0.65393533296E+03  0.11314544869E+04  0.16915386157E+04  0.50400001928E-02 0.  1.
       -1    1    3    3    0  502  0.10740028924E+04  0.65393533296E+03 -0.21272766000E+04  0.24711170279E+04  0.50400001928E-02 0. -1.
</event>
<event>
 5   0  0.4047916E-07  0.4008906E+04  0.7818609E-02  0.8002752E-01
       -2   -1    0    0    0  501  0.00000000000E+00  0.00000000000E+00  0.19223322365E+04  0.19223322365E+04  0.25500000920E-02 0. -1.
        2   -1    0    0  501    0  0.00000000000E+00  0.00000000000E+00 -0.20900820552E+04  0.20900820552E+04  0.25500000920E-02 0.  1.
    10030    2    1    2    0    0  0.00000000000E+00  0.00000000000E+00 -0.16774981874E+03  0.40124142917E+04  0.40089061409E+04 0.  0.
        5    1    3    3  502    0  0.57148926869E+02 -0.16263530809E+04 -0.12551637853E+04  0.20551760415E+04  0.46999998093E+01 0.  1.
       -5    1    3    3    0  502 -0.57148926869E+02  0.16263530809E+04  0.10874139665E+04  0.19572382502E+04  0.46999998093E+01 0. -1.
</event>
<event>
 5   0  0.1372952E-07  0.2942312E+04  0.7818609E-02  0.8260399E-01
       -1   -1    0    0    0  501  0.00000000000E+00  0.00000000000E+00  0.12007544247E+04  0.12007544248E+04  0.50400001928E-02 0.  1.
        1   -1    0    0  501    0  0.00000000000E+00  0.00000000000E+00 -0.18024496493E+04  0.18024496493E+04  0.50400001928E-02 0. -1.
    10030    2    1    2    0    0  0.00000000000E+00  0.00000000000E+00 -0.60169522452E+03  0.30032040740E+04  0.29423116026E+04 0.  0.
        1    1    3    3  502    0 -0.88774880247E+03 -0.68217577986E+03 -0.12749770544E+04  0.16967699374E+04  0.50400001928E-02 0. -1.
       -1    1    3    3    0  502  0.88774880247E+03  0.68217577986E+03  0.67328182993E+03  0.13064341367E+04  0.50400001928E-02 0.  1.
</event>
<event>
 5   0  0.1351000E-07  0.3928563E+04  0.7818609E-02  0.8019115E-01
        3   -1    0    0  501    0  0.00000000000E+00  0.00000000000E+00  0.27287803046E+04  0.27287803065E+04  0.10100000352E+00 0. -1.
       -3   -1    0    0    0  501  0.00000000000E+00  0.00000000000E+00 -0.14139655890E+04  0.14139655926E+04  0.10100000352E+00 0.  1.
    10030    2    1    2    0    0  0.00000000000E+00  0.00000000000E+00  0.13148147156E+04  0.41427458991E+04  0.39285628222E+04 0.  0.
        1    1    3    3  502    0  0.41518997476E+03 -0.15266421195E+04 -0.57027366988E+03  0.16817345019E+04  0.50400001928E-02 0.  1.
       -1    1    3    3    0  502 -0.41518997476E+03  0.15266421195E+04  0.18850883855E+04  0.24610113973E+04  0.50400001928E-02 0. -1.
</event>
<event>
 5   0  0.4079777E-07  0.3969961E+04  0.7818609E-02  0.8010634E-01
       -2   -1    0    0    0  501  0.00000000000E+00  0.00000000000E+00  0.30369883034E+04  0.30369883034E+04  0.25500000920E-02 0. -1.
        2   -1    0    0  501    0  0.00000000000E+00  0.00000000000E+00 -0.12973867099E+04  0.12973867099E+04  0.25500000920E-02 0.  1.
    10030    2    1    2    0    0  0.00000000000E+00  0.00000000000E+00  0.17396015935E+04  0.43343750133E+04  0.39699613413E+04 0.  0.
        4    1    3    3  502    0  0.16263840776E+04 -0.58361773087E+03  0.19364168418E+04  0.25952739011E+04  0.12699999809E+01 0. -1.
       -4    1    3    3    0  502 -0.16263840776E+04  0.58361773087E+03 -0.19681524825E+03  0.17391011122E+04  0.12699999809E+01 0.  1.
</event>
<event>
 5   0  0.1351000E-07  0.2884125E+04  0.7818609E-02  0.8277616E-01
       -1   -1    0    0    0  501  0.00000000000E+00  0.00000000000E+00  0.19539590008E+04  0.19539590008E+04  0.50400001928E-02 0. -1.
        1   -1    0    0  501    0  0.00000000000E+00  0.00000000000E+00 -0.10642721086E+04  0.10642721086E+04  0.50400001928E-02 0.  1.
    10030    2    1    2    0    0  0.00000000000E+00  0.00000000000E+00  0.88968689223E+03  0.30182311093E+04  0.28841248696E+04 0.  0.
        4    1    3    3  502    0 -0.94926002389E+03 -0.10263140842E+04  0.81502468107E+03  0.16182342340E+04  0.12699999809E+01 0. -1.
       -4    1    3    3    0  502  0.94926002389E+03  0.10263140842E+04  0.74662211157E+02  0.13999968754E+04  0.12699999809E+01 0.  1.
</event>
<event>
 5   0  0.4079777E-07  0.2940012E+04  0.7818609E-02  0.8261071E-01
       -2   -1    0    0    0  501  0.00000000000E+00  0.00000000000E+00  0.23026999464E+04  0.23026999464E+04  0.25500000920E-02 0.  1.
        2   -1    0    0  501    0  0.00000000000E+00  0.00000000000E+00 -0.93842750202E+03  0.93842750202E+03  0.25500000920E-02 0. -1.
    10030    2    1    2    0    0  0.00000000000E+00  0.00000000000E+00  0.13642724443E+04  0.32411274484E+04  0.29400115364E+04 0.  0.
        4    1    3    3  502    0 -0.42577260021E+03 -0.94892106120E+03 -0.46309819768E+03  0.11385056175E+04  0.12699999809E+01 0. -1.
       -4    1    3    3    0  502  0.42577260021E+03  0.94892106120E+03  0.18273706420E+04  0.21026218309E+04  0.12699999809E+01 0.  1.
</event>
<event>
 5   0  0.1421304E-07  0.4004928E+04  0.7818609E-02  0.8003553E-01
        1   -1    0    0  501    0  0.00000000000E+00  0.00000000000E+00  0.25960416133E+04  0.25960416133E+04  0.50400001928E-02 0. -1.
       -1   -1    0    0    0  501  0.00000000000E+00  0.00000000000E+00 -0.15446062858E+04  0.15446062858E+04  0.50400001928E-02 0.  1.
    10030    2    1    2    0    0  0.00000000000E+00  0.00000000000E+00  0.10514353275E+04  0.41406478991E+04  0.40049280613E+04 0.  0.
        2    1    3    3  502    0 -0.78074640625E+03 -0.51643470111E+03 -0.13044666884E+04  0.16055849690E+04  0.25500000920E-02 0.  1.
       -2    1    3    3    0  502  0.78074640625E+03  0.51643470111E+03  0.23559020159E+04  0.25350629302E+04  0.25500000920E-02 0. -1.
</event>
<event>
 5   0  0.4301754E-07  0.3712802E+04  0.7818609E-02  0.8065131E-01
       -2   -1    0    0    0  501  0.00000000000E+00  0.00000000000E+00  0.16309223584E+04  0.16309223584E+04  0.25500000920E-02 0.  1.
        2   -1    0    0  501    0  0.00000000000E+00  0.00000000000E+00 -0.21130520940E+04  0.21130520940E+04  0.25500000920E-02 0. -1.
    10030    2    1    2    0    0  0.00000000000E+00  0.00000000000E+00 -0.48212973565E+03  0.37439744524E+04  0.37128015862E+04 0.  0.
        1    1    3    3  502    0  0.52073215243E+03  0.11086759282E+04 -0.16477320386E+04  0.20531305753E+04  0.50400001928E-02 0. -1.
       -1    1    3    3    0  502 -0.52073215243E+03 -0.11086759282E+04  0.11656023029E+04  0.16908438771E+04  0.50400001928E-02 0.  1.
</event>
<event>
 5   0  0.1351000E-07  0.3613527E+04  0.7818609E-02  0.8087400E-01
       -1   -1    0    0    0  501  0.00000000000E+00  0.00000000000E+00  0.12319433594E+04  0.12319433594E+04  0.50400001928E-02 0.  1.
        1   -1    0    0  501    0  0.00000000000E+00  0.00000000000E+00 -0.26497925054E+04  0.26497925054E+04  0.50400001928E-02 0. -1.
    10030    2    1    2    0    0  0.00000000000E+00  0.00000000000E+00 -0.14178491460E+04  0.38817358649E+04  0.36135269646E+04 0.  0.
        3    1    3    3  502    0 -0.37764089918E+03 -0.78310219242E+03 -0.24103172263E+04  0.25623213761E+04  0.10100000352E+00 0. -1.
       -3    1    3    3    0  502  0.37764089918E+03  0.78310219242E+03  0.99246808036E+03  0.13194144888E+04  0.10100000352E+00 0.  1.
</event>
<event>
 5   0  0.1372952E-07  0.2824459E+04  0.7818609E-02  0.8295715E-01
        1   -1    0    0  501    0  0.00000000000E+00  0.00000000000E+00  0.12937643784E+04  0.12937643784E+04  0.50400001928E-02 0. -1.
       -1   -1    0    0    0  501  0.00000000000E+00  0.00000000000E+00 -0.15415423387E+04  0.15415423387E+04  0.50400001928E-02 0.  1.
    10030    2    1    2    0    0  0.00000000000E+00  0.00000000000E+00 -0.24777796031E+03  0.28353067171E+04  0.28244592867E+04 0.  0.
        1    1    3    3  502    0 -0.39392537180E+02  0.86457967963E+03 -0.12441240897E+04  0.15155509048E+04  0.50400001928E-02 0.  1.
       -1    1    3    3    0  502  0.39392537180E+02 -0.86457967963E+03  0.99634612940E+03  0.13197558123E+04  0.50400001928E-02 0. -1.
</event>
<event>
 5   0  0.1351000E-07  0.3298976E+04  0.7818609E-02  0.8163156E-01
        1   -1    0    0  501    0  0.00000000000E+00  0.00000000000E+00  0.21265715486E+04  0.21265715486E+04  0.50400001928E-02 0.  1.
       -1   -1    0    0    0  501  0.00000000000E+00  0.00000000000E+00 -0.12794355716E+04  0.12794355716E+04  0.50400001928E-02 0. -1.
    10030    2    1    2    0    0  0.00000000000E+00  0.00000000000E+00  0.84713597699E+03  0.34060071203E+04  0.32989763776E+04 0.  0.
        3    1    3    3  502    0  0.14307304562E+04  0.78946945831E+03  0.65571773146E+03  0.17607434275E+04  0.10100000352E+00 0.  1.
       -3    1    3    3    0  502 -0.14307304562E+04 -0.78946945831E+03  0.19141824552E+03  0.16452636928E+04  0.10100000352E+00 0. -1.
</event>
<event>
 5   0  0.4077370E-07  0.2822625E+04  0.7818609E-02  0.8296278E-01
       -2   -1    0    0    0  501  0.00000000000E+00  0.00000000000E+00  0.87950741701E+03  0.87950741701E+03  0.25500000920E-02 0.  1.
        2   -1    0    0  501    0  0.00000000000E+00  0.00000000000E+00 -0.22646806696E+04  0.22646806696E+04  0.25500000920E-02 0. -1.
    10030    2    1    2    0    0  0.00000000000E+00  0.00000000000E+00 -0.13851732526E+04  0.31441880866E+04  0.28226253355E+04 0.  0.
        3    1    3    3  502    0 -0.79450380046E+03  0.93321686557E+03 -0.14720730432E+04  0.19154970795E+04  0.10100000352E+00 0. -1.
       -3    1    3    3    0  502  0.79450380046E+03 -0.93321686557E+03  0.86899790539E+02  0.12286910071E+04  0.10100000352E+00 0.  1.
</event>
<event>
 5   0  0.4149487E-07  0.2759235E+04  0.7818609E-02  0.8316037E-01
        2   -1    0    0  501    0  0.00000000000E+00  0.00000000000E+00  0.17810816959E+04  0.17810816959E+04  0.25500000920E-02 0.  1.
       -2   -1    0    0    0  501  0.00000000000E+00  0.00000000000E+00 -0.10686455919E+04  0.10686455919E+04  0.25500000920E-02 0. -1.
    10030    2    1    2    0    0  0.00000000000E+00  0.00000000000E+00  0.71243610400E+03  0.28497272879E+04  0.27592354762E+04 0.  0.
        2    1    3    3  502    0 -0.36796958119E+03 -0.69380770383E+03  0.15276902388E+04  0.17177334509E+04  0.25500000920E-02 0.  1.
       -2    1    3    3    0  502  0.36796958119E+03  0.69380770383E+03 -0.81525413482E+03  0.11319938370E+04  0.25500000920E-02 0. -1.
</event>
<event>
 5   0  0.1351000E-07  0.3391792E+04  0.7818609E-02  0.8139924E-01
       -1   -1    0    0    0  501  0.00000000000E+00  0.00000000000E+00  0.12817604774E+04  0.12817604774E+04  0.50400001928E-02 0. -1.
        1   -1    0    0  501    0  0.00000000000E+00  0.00000000000E+00 -0.22438380558E+04  0.22438380558E+04  0.50400001928E-02 0.  1.
    10030    2    1    2    0    0  0.00000000000E+00  0.00000000000E+00 -0.96207757838E+03  0.35255985333E+04  0.33917918201E+04 0.  0.
        4    1    3    3  502    0 -0.12273407118E+04 -0.10269542509E+04 -0.10644852895E+04  0.19220121750E+04  0.12699999809E+01 0.  1.
       -4    1    3    3    0  502  0.12273407118E+04  0.10269542509E+04  0.10240771116E+03  0.16035863583E+04  0.12699999809E+01 0. -1.
</event>
<event>
 5   0  0.4079777E-07  0.4011526E+04  0.7818609E-02  0.8002225E-01
       -2   -1    0    0    0  501  0.00000000000E+00  0.00000000000E+00  0.18896991768E+04  0.18896991768E+04  0.25500000920E-02 0.  1.
        2   -1    0    0  501    0  0.00000000000E+00  0.00000000000E+00 -0.21289550357E+04  0.21289550357E+04  0.25500000920E-02 0. -1.
    10030    2    1    2    0    0  0.00000000000E+00  0.00000000000E+00 -0.23925585884E+03  0.40186542125E+04  0.40115256840E+04 0.  0.
        4    1    3    3  502    0  0.10637245649E+03 -0.53061696365E+03 -0.20544360723E+04  0.21245184513E+04  0.12699999809E+01 0. -1.
       -4    1    3    3    0  502 -0.10637245649E+03  0.53061696365E+03  0.18151802135E+04  0.18941357612E+04  0.12699999809E+01 0.  1.
</event>
<event>
 5   0  0.4047916E-07  0.3698681E+04  0.7818609E-02  0.8068254E-01
        2   -1    0    0  501    0  0.00000000000E+00  0.00000000000E+00  0.29942097276E+04  0.29942097276E+04  0.25500000920E-02 0. -1.
       -2   -1    0    0    0  501  0.00000000000E+00  0.00000000000E+00 -0.11422245817E+04  0.11422245817E+04  0.25500000920E-02 0.  1.
    10030    2    1    2    0    0  0.00000000000E+00  0.00000000000E+00  0.18519851459E+04  0.41364343092E+04  0.36986808208E+04 0.  0.
        5    1    3    3  502    0 -0.32182580518E+03  0.13898066107E+03  0.29567060672E+04  0.29774184004E+04  0.46999998093E+01 0. -1.
       -5    1    3    3    0  502  0.32182580518E+03 -0.13898066107E+03 -0.11047209213E+04  0.11590159089E+04  0.46999998093E+01 0.  1.
</event>
<event>
 5   0  0.1351000E-07  0.3727779E+04  0.7818609E-02  0.8061833E-01
        1   -1    0    0  501    0  0.00000000000E+00  0.00000000000E+00  0.22400732024E+04  0.22400732024E+04  0.50400001928E-02 0. -1.
       -1   -1    0    0    0  501  0.00000000000E+00  0.00000000000E+00 -0.15508798788E+04  0.15508798788E+04  0.50400001928E-02 0.  1.
    10030    2    1    2    0    0  0.00000000000E+00  0.00000000000E+00  0.68919332363E+03  0.37909530812E+04  0.37277792084E+04 0.  0.
        4    1    3    3  502    0  0.16631474925E+04 -0.83234351064E+03  0.21910550209E+03  0.18726623122E+04  0.12699999809E+01 0.  1.
       -4    1    3    3    0  502 -0.16631474925E+04  0.83234351064E+03  0.47008782154E+03  0.19182907690E+04  0.12699999809E+01 0. -1.
</event>
<event>
 5   0  0.4079777E-07  0.4175162E+04  0.7818609E-02  0.7970114E-01
       -2   -1    0    0    0  501  0.00000000000E+00  0.00000000000E+00  0.30332462144E+04  0.30332462144E+04  0.25500000920E-02 0.  1.
        2   -1    0    0  501    0  0.00000000000E+00  0.00000000000E+00 -0.14367426623E+04  0.14367426623E+04  0.25500000920E-02 0. -1.
    10030    2    1    2    0    0  0.00000000000E+00  0.00000000000E+00  0.15965035521E+04  0.44699888767E+04  0.41751619090E+04 0.  0.
        4    1    3    3  502    0 -0.11402570870E+04  0.90663064532E+03 -0.80260414204E+03  0.16632319060E+04  0.12699999809E+01 0. -1.
       -4    1    3    3    0  502  0.11402570870E+04 -0.90663064532E+03  0.23991076942E+04  0.28067569707E+04  0.12699999809E+01 0.  1.
</event>
<event>
 5   0  0.1372952E-07  0.3374866E+04  0.7818609E-02  0.8144103E-01
        1   -1    0    0  501    0  0.00000000000E+00  0.00000000000E+00  0.20906706500E+04  0.20906706500E+04  0.50400001928E-02 0.  1.
       -1   -1    0    0    0  501  0.00000000000E+00  0.00000000000E+00 -0.13619695953E+04  0.13619695953E+04  0.50400001928E-02 0. -1.
    10030    2    1    2    0    0  0.00000000000E+00  0.00000000000E+00  0.72870105477E+03  0.34526402453E+04  0.33748658398E+04 0.  0.
        1    1    3    3  502    0  0.29825308167E+03  0.97296140837E+03  0.17414092697E+04  0.20169568779E+04  0.50400001928E-02 0.  1.
       -1    1    3    3    0  502 -0.29825308167E+03 -0.97296140837E+03 -0.10127082149E+04  0.14356833674E+04  0.50400001928E-02 0. -1.
</event>
<event>
 5   0  0.4301754E-07  0.3945176E+04  0.7818609E-02  0.8015699E-01
       -2   -1    0    0    0  501  0.00000000000E+00  0.00000000000E+00  0.15371441709E+04  0.15371441709E+04  0.25500000920E-02 0.  1.
        2   -1    0    0  501    0  0.00000000000E+00  0.00000000000E+00 -0.25313844233E+04  0.25313844233E+04  0.25500000920E-02 0. -1.
    10030    2    1    2    0    0  0.00000000000E+00  0.00000000000E+00 -0.99424025234E+03  0.40685285942E+04  0.39451756922E+04 0.  0.
        1    1    3    3  502    0  0.55384847655E+03  0.11852280523E+04  0.10253835209E+04  0.16622048719E+04  0.50400001928E-02 0.  1.
       -1    1    3    3    0  502 -0.55384847655E+03 -0.11852280523E+04 -0.20196237732E+04  0.24063237223E+04  0.50400001928E-02 0. -1.
</event>
<event>
 5   0  0.1351000E-07  0.2701058E+04  0.7818609E-02  0.8334662E-01
        1   -1    0    0  501    0  0.00000000000E+00  0.00000000000E+00  0.23759124414E+04  0.23759124414E+04  0.50400001928E-02 0. -1.
       -1   -1    0    0    0  501  0.00000000000E+00  0.00000000000E+00 -0.76767505411E+03  0.76767505413E+03  0.50400001928E-02 0.  1.
    10030    2    1    2    0    0  0.00000000000E+00  0.00000000000E+00  0.16082373873E+04  0.31435874955E+04  0.27010580979E+04 0.  0.
        4    1    3    3  502    0 -0.13185689257E+04 -0.26772025449E+03  0.66824891434E+03  0.15022837185E+04  0.12699999809E+01 0.  1.
       -4    1    3    3    0  502  0.13185689257E+04  0.26772025449E+03  0.93998847296E+03  0.16413037771E+04  0.12699999809E+01 0. -1.
</event>
<event>
 5   0  0.4149487E-07  0.3961642E+04  0.7818609E-02  0.8012330E-01
       -2   -1    0    0    0  501  0.00000000000E+00  0.00000000000E+00  0.18704804521E+04  0.18704804521E+04  0.25500000920E-02 0.  1.
        2   -1    0    0  501    0  0.00000000000E+00  0.00000000000E+00 -0.20976707592E+04  0.20976707592E+04  0.25500000920E-02 0. -1.
    10030    2    1    2    0    0  0.00000000000E+00  0.00000000000E+00 -0.22719030710E+03  0.39681512112E+04  0.39616421594E+04 0.  0.
        2    1    3    3  502    0  0.24349587379E+03  0.82784107648E+03  0.16723208832E+04  0.18818257690E+04  0.25500000920E-02 0.  1.
       -2    1    3    3    0  502 -0.24349587379E+03 -0.82784107648E+03 -0.18995111903E+04  0.20863254422E+04  0.25500000920E-02 0. -1.
</event>
<event>
 5   0  0.4149487E-07  0.3005598E+04  0.7818609E-02  0.8242134E-01
       -2   -1    0    0    0  501  0.00000000000E+00  0.00000000000E+00  0.11435922864E+04  0.11435922864E+04  0.25500000920E-02 0. -1.
        2   -1    0    0  501    0  0.00000000000E+00  0.00000000000E+00 -0.19748338113E+04  0.19748338113E+04  0.25500000920E-02 0.  1.
    10030    2    1    2    0    0  0.00000000000E+00  0.00000000000E+00 -0.83124152489E+03  0.31184260977E+04  0.30055979196E+04 0.  0.
        2    1    3    3  502    0 -0.91703892386E+03  0.73352723437E+03  0.55733566400E+03  0.12998636982E+04  0.25500000920E-02 0. -1.
       -2    1    3    3    0  502  0.91703892386E+03 -0.73352723437E+03 -0.13885771889E+04  0.18185623995E+04  0.25500000920E-02 0.  1.
</event>
<event>
 5   0  0.1351000E-07  0.3914848E+04  0.7818609E-02  0.8021948E-01
       -1   -1    0    0    0  501  0.00000000000E+00  0.00000000000E+00  0.15509310298E+04  0.15509310298E+04  0.50400001928E-02 0. -1.
        1   -1    0    0  501    0  0.00000000000E+00  0.00000000000E+00 -0.24704565815E+04  0.24704565815E+04  0.50400001928E-02 0.  1.
    10030    2    1    2    0    0  0.00000000000E+00  0.00000000000E+00 -0.91952555174E+03  0.40213876113E+04  0.39148475168E+04 0.  0.
        4    1    3    3  502    0  0.27255574417E+03  0.18164566864E+04  0.23518750921E+03  0.18517873271E+04  0.12699999809E+01 0. -1.
       -4    1    3    3    0  502 -0.27255574417E+03 -0.18164566864E+04 -0.11547130609E+04  0.21696002842E+04  0.12699999809E+01 0.  1.
</event>
<event>
 5   0  0.1368865E-07  0.4042871E+04  0.7818609E-02  0.7995953E-01
       -1   -1    0    0    0  501  0.00000000000E+00  0.00000000000E+00  0.24231730006E+04  0.24231730006E+04  0.50400001928E-02 0. -1.
        1   -1    0    0  501    0  0.00000000000E+00  0.00000000000E+00 -0.16863022953E+04  0.16863022953E+04  0.50400001928E-02 0.  1.
    10030    2    1    2    0    0  0.00000000000E+00  0.00000000000E+00  0.73687070532E+03  0.41094752960E+04  0.40428713524E+04 0.  0.
        5    1    3    3  502    0  0.65127979827E+03  0.11378440017E+04 -0.11955240074E+04  0.17743038325E+04  0.46999998093E+01 0.  1.
       -5    1    3    3    0  502 -0.65127979827E+03 -0.11378440017E+04  0.19323947128E+04  0.23351714634E+04  0.46999998093E+01 0. -1.
</event>
<event>
 5   0  0.1421304E-07  0.3977509E+04  0.7818609E-02  0.8009099E-01
       -1   -1    0    0    0  501  0.00000000000E+00  0.00000000000E+00  0.18448782537E+04  0.18448782537E+04  0.50400001928E-02 0. -1.
        1   -1    0    0  501    0  0.00000000000E+00  0.00000000000E+00 -0.21438511192E+04  0.21438511192E+04  0.50400001928E-02 0.  1.
    10030    2    1    2    0    0  0.00000000000E+00  0.00000000000E+00 -0.29897286549E+03  0.39887293729E+04  0.39775089234E+04 0.  0.
        2    1    3    3  502    0  0.13923473182E+04 -0.13773743210E+04  0.19696351845E+03  0.19683967340E+04  0.25500000920E-02 0. -1.
       -2    1    3    3    0  502 -0.13923473182E+04  0.13773743210E+04 -0.49593638393E+03  0.20203326389E+04  0.25500000920E-02 0.  1.
</event>
<event>
 5   0  0.4077370E-07  0.3437996E+04  0.7818609E-02  0.8128643E-01
       -2   -1    0    0    0  501  0.00000000000E+00  0.00000000000E+00  0.18668585486E+04  0.18668585486E+04  0.25500000920E-02 0. -1.
        2   -1    0    0  501    0  0.00000000000E+00  0.00000000000E+00 -0.15828487718E+04  0.15828487718E+04  0.25500000920E-02 0.  1.
    10030    2    1    2    0    0  0.00000000000E+00  0.00000000000E+00  0.28400977678E+03  0.34497073204E+04  0.34379963705E+04 0.  0.
        3    1    3    3  502    0  0.26049482026E+03  0.12546095300E+04  0.12917930165E+04  0.18195141747E+04  0.10100000352E+00 0. -1.
       -3    1    3    3    0  502 -0.26049482026E+03 -0.12546095300E+04 -0.10077832397E+04  0.16301931458E+04  0.10100000352E+00 0.  1.
</event>
<event>
 5   0  0.1421304E-07  0.4024310E+04  0.7818609E-02  0.7999660E-01
       -1   -1    0    0    0  501  0.00000000000E+00  0.00000000000E+00  0.12976802712E+04  0.12976802712E+04  0.50400001928E-02 0.  1.
        1   -1    0    0  501    0  0.00000000000E+00  0.00000000000E+00 -0.31200036594E+04  0.31200036594E+04  0.50400001928E-02 0. -1.
    10030    2    1    2    0    0  0.00000000000E+00  0.00000000000E+00 -0.18223233882E+04  0.44176839306E+04  0.40243097271E+04 0.  0.
        2    1    3    3  502    0  0.10037932880E+04 -0.14707688966E+04 -0.19397740979E+04  0.26331512799E+04  0.25500000920E-02 0. -1.
       -2    1    3    3    0  502 -0.10037932880E+04  0.14707688966E+04  0.11745070971E+03  0.17845326507E+04  0.25500000920E-02 0.  1.
</event>
<event>
 5   0  0.1372952E-07  0.3954749E+04  0.7818609E-02  0.8013738E-01
        1   -1    0    0  501    0  0.00000000000E+00  0.00000000000E+00  0.25829663584E+04  0.25829663584E+04  0.50400001928E-02 0. -1.
       -1   -1    0    0    0  501  0.00000000000E+00  0.00000000000E+00 -0.15137672082E+04  0.15137672082E+04  0.50400001928E-02 0.  1.
    10030    2    1    2    0    0  0.00000000000E+00  0.00000000000E+00  0.10691991502E+04  0.40967335666E+04  0.39547489291E+04 0.  0.
        1    1    3    3  502    0  0.81395525196E+03  0.13310237882E+04 -0.72386710713E+03  0.17199218197E+04  0.50400001928E-02 0.  1.
       -1    1    3    3    0  502 -0.81395525196E+03 -0.13310237882E+04  0.17930662574E+04  0.23768117469E+04  0.50400001928E-02 0. -1.
</event>
<event>
 5   0  0.4301754E-07  0.3888074E+04  0.7818609E-02  0.8027514E-01
        2   -1    0    0  501    0  0.00000000000E+00  0.00000000000E+00  0.25898680305E+04  0.25898680305E+04  0.25500000920E-02 0.  1.
       -2   -1    0    0    0  501  0.00000000000E+00  0.00000000000E+00 -0.14592559732E+04  0.14592559732E+04  0.25500000920E-02 0. -1.
    10030    2    1    2    0    0  0.00000000000E+00  0.00000000000E+00  0.11306120573E+04  0.40491240037E+04  0.38880742757E+04 0.  0.
        1    1    3    3  502    0 -0.67846773856E+03  0.45835514138E+03  0.24015398355E+04  0.25372823039E+04  0.50400001928E-02 0.  1.
       -1    1    3    3    0  502  0.67846773856E+03 -0.45835514138E+03 -0.12709277782E+04  0.15118416999E+04  0.50400001928E-02 0. -1.
</event>
<event>
 5   0  0.1368865E-07  0.4010922E+04  0.7818609E-02  0.8002347E-01
       -1   -1    0    0    0  501  0.00000000000E+00  0.00000000000E+00  0.15682003418E+04  0.15682003418E+04  0.50400001928E-02 0.  1.
        1   -1    0    0  501    0  0.00000000000E+00  0.00000000000E+00 -0.25646424606E+04  0.25646424606E+04  0.50400001928E-02 0. -1.
    10030    2    1    2    0    0  0.00000000000E+00  0.00000000000E+00 -0.99644211876E+03  0.41328428024E+04  0.40109216812E+04 0.  0.
        5    1    3    3  502    0 -0.14302670988E+03 -0.84129807650E+03  0.13717759973E+04  0.16155589033E+04  0.46999998093E+01 0.  1.
       -5    1    3    3    0  502  0.14302670988E+03  0.84129807650E+03 -0.23682181161E+04  0.25172838991E+04  0.46999998093E+01 0. -1.
</event>
<event>
 5   0  0.1368865E-07  0.3913038E+04  0.7818609E-02  0.8022323E-01
        1   -1    0    0  501    0  0.00000000000E+00  0.00000000000E+00  0.21756626317E+04  0.21756626318E+04  0.50400001928E-02 0. -1.
       -1   -1    0    0    0  501  0.00000000000E+00  0.00000000000E+00 -0.17594487255E+04  0.17594487255E+04  0.50400001928E-02 0.  1.
    10030    2    1    2    0    0  0.00000000000E+00  0.00000000000E+00  0.41621390625E+03  0.39351113573E+04  0.39130381264E+04 0.  0.
        5    1    3    3  502    0  0.17200586189E+04  0.18410365126E+03  0.11272919042E+04  0.20647772117E+04  0.46999998093E+01 0. -1.
       -5    1    3    3    0  502 -0.17200586189E+04 -0.18410365126E+03 -0.71107799800E+03  0.18703341455E+04  0.46999998093E+01 0.  1.
</event>
<event>
 5   0  0.4149487E-07  0.3767652E+04  0.7818609E-02  0.8053132E-01
        2   -1    0    0  501    0  0.00000000000E+00  0.00000000000E+00  0.12831054018E+04  0.12831054018E+04  0.25500000920E-02 0.  1.
       -2   -1    0    0    0  501  0.00000000000E+00  0.00000000000E+00 -0.27657908837E+04  0.27657908837E+04  0.25500000920E-02 0. -1.
    10030    2    1    2    0    0  0.00000000000E+00  0.00000000000E+00 -0.14826854819E+04  0.40488962855E+04  0.37676524379E+04 0.  0.
        2    1    3    3  502    0 -0.15025088792E+04  0.61149937789E+03  0.28792942365E+03  0.16475338462E+04  0.25500000920E-02 0.  1.
       -2    1    3    3    0  502  0.15025088792E+04 -0.61149937789E+03 -0.17706149055E+04  0.24013624393E+04  0.25500000920E-02 0. -1.
</event>
<event>
 5   0  0.4149487E-07  0.4022937E+04  0.7818609E-02  0.7999935E-01
        2   -1    0    0  501    0  0.00000000000E+00  0.00000000000E+00  0.24139716950E+04  0.24139716950E+04  0.25500000920E-02 0. -1.
       -2   -1    0    0    0  501  0.00000000000E+00  0.00000000000E+00 -0.16760783175E+04  0.16760783175E+04  0.25500000920E-02 0.  1.
    10030    2    1    2    0    0  0.00000000000E+00  0.00000000000E+00  0.73789337756E+03  0.40900500125E+04  0.40229370450E+04 0.  0.
        2    1    3    3  502    0 -0.36533882301E+03  0.50412366766E+03  0.23135478043E+04  0.23958540379E+04  0.25500000920E-02 0. -1.
       -2    1    3    3    0  502  0.36533882301E+03 -0.50412366766E+03 -0.15756544268E+04  0.16941959747E+04  0.25500000920E-02 0.  1.
</event>
<event>
 5   0  0.1351000E-07  0.3960897E+04  0.7818609E-02  0.8012482E-01
        1   -1    0    0  501    0  0.00000000000E+00  0.00000000000E+00  0.21355717903E+04  0.21355717903E+04  0.50400001928E-02 0.  1.
       -1   -1    0    0    0  501  0.00000000000E+00  0.00000000000E+00 -0.18365927245E+04  0.18365927245E+04  0.50400001928E-02 0. -1.
    10030    2    1    2    0    0  0.00000000000E+00  0.00000000000E+00  0.29897906583E+03  0.39721645148E+04  0.39608966725E+04 0.  0.
        3    1    3    3  502    0  0.66514405202E+03 -0.13877513604E+04 -0.11006139575E+04  0.18919887795E+04  0.10100000352E+00 0. -1.
       -3    1    3    3    0  502 -0.66514405202E+03  0.13877513604E+04  0.13995930233E+04  0.20801757352E+04  0.10100000352E+00 0.  1.
</event>
<event>
 5   0  0.4047916E-07  0.3750069E+04  0.7818609E-02  0.8056956E-01
        2   -1    0    0  501    0  0.00000000000E+00  0.00000000000E+00  0.29140587592E+04  0.29140587592E+04  0.25500000920E-02 0. -1.
       -2   -1    0    0    0  501  0.00000000000E+00  0.00000000000E+00 -0.12064804008E+04  0.12064804008E+04  0.25500000920E-02 0.  1.
    10030    2    1    2    0    0  0.00000000000E+00  0.00000000000E+00  0.17075783584E+04  0.41205391599E+04  0.37500692152E+04 0.  0.
        5    1    3    3  502    0 -0.15088315824E+04 -0.10810906609E+04  0.11453372180E+04  0.21810889927E+04  0.46999998093E+01 0. -1.
       -5    1    3    3    0  502  0.15088315824E+04  0.10810906609E+04  0.56224114041E+03  0.19394501672E+04  0.46999998093E+01 0.  1.
</event>
<event>
 5   0  0.1458905E-07  0.2477754E+04  0.7818609E-02  0.8410954E-01
        1   -1    0    0  501    0  0.00000000000E+00  0.00000000000E+00  0.17401863897E+04  0.17401863897E+04  0.50400001928E-02 0. -1.
       -1   -1    0    0    0  501  0.00000000000E+00  0.00000000000E+00 -0.88198397266E+03  0.88198397267E+03  0.50400001928E-02 0.  1.
    10030    2    1    2    0    0  0.00000000000E+00  0.00000000000E+00  0.85820241707E+03  0.26221703624E+04  0.24777542293E+04 0.  0.
        4    1    3    3  502    0  0.35569770199E+03  0.11679241682E+04  0.65171160811E+03  0.13839426834E+04  0.12699999809E+01 0.  1.
       -4    1    3    3    0  502 -0.35569770199E+03 -0.11679241682E+04  0.20649080895E+03  0.12382276790E+04  0.12699999809E+01 0. -1.
</event>
<event>
 5   0  0.4149487E-07  0.3972813E+04  0.7818609E-02  0.8010054E-01
       -2   -1    0    0    0  501  0.00000000000E+00  0.00000000000E+00  0.15071318986E+04  0.15071318986E+04  0.25500000920E-02 0. -1.
        2   -1    0    0  501    0  0.00000000000E+00  0.00000000000E+00 -0.26180921319E+04  0.26180921319E+04  0.25500000920E-02 0.  1.
    10030    2    1    2    0    0  0.00000000000E+00  0.00000000000E+00 -0.11109602332E+04  0.41252240305E+04  0.39728126890E+04 0.  0.
        2    1    3    3  502    0 -0.17352091030E+04  0.11152295286E+03  0.44179346570E+03  0.17940371977E+04  0.25500000920E-02 0. -1.
       -2    1    3    3    0  502  0.17352091030E+04 -0.11152295286E+03 -0.15527536989E+04  0.23311868329E+04  0.25500000920E-02 0.  1.
</event>
<event>
 5   0  0.1368865E-07  0.4012438E+04  0.7818609E-02  0.8002042E-01
       -1   -1    0    0    0  501  0.00000000000E+00  0.00000000000E+00  0.25335140464E+04  0.25335140464E+04  0.50400001928E-02 0. -1.
        1   -1    0    0  501    0  0.00000000000E+00  0.00000000000E+00 -0.15886691612E+04  0.15886691612E+04  0.50400001928E-02 0.  1.
    10030    2    1    2    0    0  0.00000000000E+00  0.00000000000E+00  0.94484488519E+03  0.41221832077E+04  0.40124384781E+04 0.  0.
        5    1    3    3  502    0  0.76263381456E+03 -0.16617184118E+04 -0.37598246467E+03  0.18666288648E+04  0.46999998093E+01 0.  1.
       -5    1    3    3    0  502 -0.76263381456E+03  0.16617184118E+04  0.13208273499E+04  0.22555543428E+04  0.46999998093E+01 0. -1.
</event>
<event>
 5   0  0.1351000E-07  0.4010404E+04  0.7818609E-02  0.8002451E-01
        3   -1    0    0  501    0  0.00000000000E+00  0.00000000000E+00  0.25323168644E+04  0.25323168664E+04  0.10100000352E+00 0. -1.
       -3   -1    0    0    0  501  0.00000000000E+00  0.00000000000E+00 -0.15878088511E+04  0.15878088543E+04  0.10100000352E+00 0.  1.
    10030    2    1    2    0    0  0.00000000000E+00  0.00000000000E+00  0.94450801336E+03  0.41201257207E+04  0.40104040404E+04 0.  0.
        2    1    3    3  502    0  0.43293634103E+03 -0.12025383182E+04  0.20596164406E+04  0.24239538289E+04  0.25500000920E-02 0. -1.
       -2    1    3    3    0  502 -0.43293634103E+03  0.12025383182E+04 -0.11151084272E+04  0.16961718918E+04  0.25500000920E-02 0.  1.
</event>
<event>
 5   0  0.1421304E-07  0.4012854E+04  0.7818609E-02  0.8001959E-01
       -1   -1    0    0    0  501  0.00000000000E+00  0.00000000000E+00  0.22878419442E+04  0.22878419442E+04  0.50400001928E-02 0.  1.
        1   -1    0    0  501    0  0.00000000000E+00  0.00000000000E+00 -0.17596272959E+04  0.17596272959E+04  0.50400001928E-02 0. -1.
    10030    2    1    2    0    0  0.00000000000E+00  0.00000000000E+00  0.52821464830E+03  0.40474692400E+04  0.40128539139E+04 0.  0.
        2    1    3    3  502    0 -0.11824250743E+04 -0.87675910188E+03 -0.11110734886E+04  0.18442667584E+04  0.25500000920E-02 0. -1.
       -2    1    3    3    0  502  0.11824250743E+04  0.87675910188E+03  0.16392881369E+04  0.22032024816E+04  0.25500000920E-02 0.  1.
</event>
<event>
 5   0  0.1368865E-07  0.3996907E+04  0.7818609E-02  0.8005171E-01
       -1   -1    0    0    0  501  0.00000000000E+00  0.00000000000E+00  0.12994769987E+04  0.12994769988E+04  0.50400001928E-02 0.  1.
        1   -1    0    0  501    0  0.00000000000E+00  0.00000000000E+00 -0.30734030243E+04  0.30734030243E+04  0.50400001928E-02 0. -1.
    10030    2    1    2    0    0  0.00000000000E+00  0.00000000000E+00 -0.17739260256E+04  0.43728800231E+04  0.39969070732E+04 0.  0.
        5    1    3    3  502    0 -0.13759394739E+04 -0.12915298354E+04 -0.16065022613E+04  0.24783321725E+04  0.46999998093E+01 0. -1.
       -5    1    3    3    0  502  0.13759394739E+04  0.12915298354E+04 -0.16742376432E+03  0.18945478506E+04  0.46999998093E+01 0.  1.
</event>
<event>
 5   0  0.4149487E-07  0.3978253E+04  0.7818609E-02  0.8008948E-01
       -2   -1    0    0    0  501  0.00000000000E+00  0.00000000000E+00  0.13329542128E+04  0.13329542128E+04  0.25500000920E-02 0.  1.
        2   -1    0    0  501    0  0.00000000000E+00  0.00000000000E+00 -0.29683129286E+04  0.29683129286E+04  0.25500000920E-02 0. -1.
    10030    2    1    2    0    0  0.00000000000E+00  0.00000000000E+00 -0.16353587158E+04  0.43012671414E+04  0.39782534978E+04 0.  0.
        2    1    3    3  502    0  0.13256111032E+04  0.13273155772E+04 -0.15329155132E+04  0.24225691753E+04  0.25500000920E-02 0. -1.
       -2    1    3    3    0  502 -0.13256111032E+04 -0.13273155772E+04 -0.10244320255E+03  0.18786979661E+04  0.25500000920E-02 0.  1.
</event>
<event>
 5   0  0.4149487E-07  0.4056151E+04  0.7818609E-02  0.7993314E-01
        2   -1    0    0  501    0  0.00000000000E+00  0.00000000000E+00  0.21318498272E+04  0.21318498272E+04  0.25500000920E-02 0. -1.
       -2   -1    0    0    0  501  0.00000000000E+00  0.00000000000E+00 -0.19293524690E+04  0.19293524690E+04  0.25500000920E-02 0.  1.
    10030    2    1    2    0    0  0.00000000000E+00  0.00000000000E+00  0.20249735824E+03  0.40612022962E+04  0.40561507504E+04 0.  0.
        2    1    3    3  502    0  0.50438382151E+03 -0.17361927387E+04 -0.81876535025E+03  0.19847279320E+04  0.25500000920E-02 0.  1.
       -2    1    3    3    0  502 -0.50438382151E+03  0.17361927387E+04  0.10212627085E+04  0.20764743642E+04  0.25500000920E-02 0. -1.
</event>
<event>
 5   0  0.1351000E-07  0.4042935E+04  0.7818609E-02  0.7995941E-01
        1   -1    0    0  501    0  0.00000000000E+00  0.00000000000E+00  0.27316658093E+04  0.27316658093E+04  0.50400001928E-02 0. -1.
       -1   -1    0    0    0  501  0.00000000000E+00  0.00000000000E+00 -0.14959113892E+04  0.14959113892E+04  0.50400001928E-02 0.  1.
    10030    2    1    2    0    0  0.00000000000E+00  0.00000000000E+00  0.12357544201E+04  0.42275771985E+04  0.40429345756E+04 0.  0.
        4    1    3    3  502    0  0.28850813999E+03  0.39677070097E+03  0.26684751985E+04  0.27131946915E+04  0.12699999809E+01 0. -1.
       -4    1    3    3    0  502 -0.28850813999E+03 -0.39677070097E+03 -0.14327207784E+04  0.15143825071E+04  0.12699999809E+01 0.  1.
</event>
<event>
 5   0  0.4079777E-07  0.3878477E+04  0.7818609E-02  0.8029520E-01
        2   -1    0    0  501    0  0.00000000000E+00  0.00000000000E+00  0.19190278455E+04  0.19190278455E+04  0.25500000920E-02 0. -1.
       -2   -1    0    0    0  501  0.00000000000E+00  0.00000000000E+00 -0.19596622798E+04  0.19596622798E+04  0.25500000920E-02 0.  1.
    10030    2    1    2    0    0  0.00000000000E+00  0.00000000000E+00 -0.40634434287E+02  0.38786901253E+04  0.38784772696E+04 0.  0.
        4    1    3    3  502    0  0.18269524764E+04  0.57372506287E+03  0.28585162418E+03  0.19361375371E+04  0.12699999809E+01 0. -1.
       -4    1    3    3    0  502 -0.18269524764E+04 -0.57372506287E+03 -0.32648605847E+03  0.19425525882E+04  0.12699999809E+01 0.  1.
</event>
<event>
 5   0  0.1351000E-07  0.3951800E+04  0.7818609E-02  0.8014341E-01
       -3   -1    0    0    0  501  0.00000000000E+00  0.00000000000E+00  0.13479405370E+04  0.13479405408E+04  0.10100000352E+00 0.  1.
        3   -1    0    0  501    0  0.00000000000E+00  0.00000000000E+00 -0.28964041942E+04  0.28964041959E+04  0.10100000352E+00 0. -1.
    10030    2    1    2    0    0  0.00000000000E+00  0.00000000000E+00 -0.15484636572E+04  0.42443447367E+04  0.39517999123E+04 0.  0.
        3    1    3    3  502    0  0.14314352428E+04  0.73537148019E+03  0.45711359828E+03  0.16729408000E+04  0.10100000352E+00 0.  1.
       -3    1    3    3    0  502 -0.14314352428E+04 -0.73537148019E+03 -0.20055772554E+04  0.25714039368E+04  0.10100000352E+00 0. -1.
</event>
<event>
 5   0  0.1351000E-07  0.3108499E+04  0.7818609E-02  0.8213409E-01
        3   -1    0    0  501    0  0.00000000000E+00  0.00000000000E+00  0.94637034875E+03  0.94637035414E+03  0.10100000352E+00 0. -1.
       -3   -1    0    0    0  501  0.00000000000E+00  0.00000000000E+00 -0.25525855637E+04  0.25525855657E+04  0.10100000352E+00 0.  1.
    10030    2    1    2    0    0  0.00000000000E+00  0.00000000000E+00 -0.16062152149E+04  0.34989559198E+04  0.31084988680E+04 0.  0.
        2    1    3    3  502    0  0.75005715732E+03  0.81177238798E+03 -0.20331321363E+04  0.23141275749E+04  0.25500000920E-02 0.  1.
       -2    1    3    3    0  502 -0.75005715732E+03 -0.81177238798E+03  0.42691692141E+03  0.11848283449E+04  0.25500000920E-02 0. -1.
</event>
<event>
 5   0  0.1351000E-07  0.4014681E+04  0.7818609E-02  0.8001592E-01
        1   -1    0    0  501    0  0.00000000000E+00  0.00000000000E+00  0.16103817561E+04  0.16103817561E+04  0.50400001928E-02 0.  1.
       -1   -1    0    0    0  501  0.00000000000E+00  0.00000000000E+00 -0.25021489456E+04  0.25021489456E+04  0.50400001928E-02 0. -1.
    10030    2    1    2    0    0  0.00000000000E+00  0.00000000000E+00 -0.89176718948E+03  0.41125307016E+04  0.40146805666E+04 0.  0.
        3    1    3    3  502    0 -0.10318194257E+04  0.10706108467E+04 -0.18272901347E+04  0.23558115712E+04  0.10100000352E+00 0. -1.
       -3    1    3    3    0  502  0.10318194257E+04 -0.10706108467E+04  0.93552294524E+03  0.17567191305E+04  0.10100000352E+00 0.  1.
</event>
<event>
 5   0  0.4149487E-07  0.4086507E+04  0.7818609E-02  0.7987319E-01
        2   -1    0    0  501    0  0.00000000000E+00  0.00000000000E+00  0.20780406229E+04  0.20780406229E+04  0.25500000920E-02 0. -1.
       -2   -1    0    0    0  501  0.00000000000E+00  0.00000000000E+00 -0.20090491967E+04  0.20090491967E+04  0.25500000920E-02 0.  1.
    10030    2    1    2    0    0  0.00000000000E+00  0.00000000000E+00  0.68991426258E+02  0.40870898196E+04  0.40865074791E+04 0.  0.
        2    1    3    3  502    0 -0.93118154129E+02 -0.24145769363E+03  0.20615832546E+04  0.20777628171E+04  0.25500000920E-02 0. -1.
       -2    1    3    3    0  502  0.93118154129E+02  0.24145769363E+03 -0.19925918284E+04  0.20093270025E+04  0.25500000920E-02 0.  1.
</event>
<event>
 5   0  0.1372952E-07  0.3976405E+04  0.7818609E-02  0.8009323E-01
       -1   -1    0    0    0  501  0.00000000000E+00  0.00000000000E+00  0.17641740749E+04  0.17641740749E+04  0.50400001928E-02 0.  1.
        1   -1    0    0  501    0  0.00000000000E+00  0.00000000000E+00 -0.22406797313E+04  0.22406797313E+04  0.50400001928E-02 0. -1.
    10030    2    1    2    0    0  0.00000000000E+00  0.00000000000E+00 -0.47650565639E+03  0.40048538063E+04  0.39764049554E+04 0.  0.
        1    1    3    3  502    0  0.30741910291E+03 -0.84668679388E+03 -0.20233794257E+04  0.22148248987E+04  0.50400001928E-02 0. -1.
       -1    1    3    3    0  502 -0.30741910291E+03  0.84668679388E+03  0.15468737693E+04  0.17900289075E+04  0.50400001928E-02 0.  1.
</event>
<event>
 5   0  0.4149487E-07  0.3937964E+04  0.7818609E-02  0.8017180E-01
        2   -1    0    0  501    0  0.00000000000E+00  0.00000000000E+00  0.22126837013E+04  0.22126837013E+04  0.25500000920E-02 0. -1.
       -2   -1    0    0    0  501  0.00000000000E+00  0.00000000000E+00 -0.17521208728E+04  0.17521208728E+04  0.25500000920E-02 0.  1.
    10030    2    1    2    0    0  0.00000000000E+00  0.00000000000E+00  0.46056282845E+03  0.39648045741E+04  0.39379635844E+04 0.  0.
        2    1    3    3  502    0 -0.25934142686E+03  0.34710849427E+03  0.21640881617E+04  0.22070387070E+04  0.25500000920E-02 0. -1.
       -2    1    3    3    0  502  0.25934142686E+03 -0.34710849427E+03 -0.17035253333E+04  0.17577658671E+04  0.25500000920E-02 0.  1.
</event>
<event>
 5   0  0.4149487E-07  0.3691819E+04  0.7818609E-02  0.8069777E-01
       -2   -1    0    0    0  501  0.00000000000E+00  0.00000000000E+00  0.17619569974E+04  0.17619569974E+04  0.25500000920E-02 0. -1.
        2   -1    0    0  501    0  0.00000000000E+00  0.00000000000E+00 -0.19338618697E+04  0.19338618697E+04  0.25500000920E-02 0.  1.
    10030    2    1    2    0    0  0.00000000000E+00  0.00000000000E+00 -0.17190487240E+03  0.36958188671E+04  0.36918187677E+04 0.  0.
        2    1    3    3  502    0 -0.65653886556E+03  0.16586124427E+04 -0.56116977653E+03  0.18700133784E+04  0.25500000920E-02 0.  1.
       -2    1    3    3    0  502  0.65653886556E+03 -0.16586124427E+04  0.38926490413E+03  0.18258054887E+04  0.25500000920E-02 0. -1.
</event>
<event>
 5   0  0.1351000E-07  0.4179327E+04  0.7818609E-02  0.7969316E-01
       -1   -1    0    0    0  501  0.00000000000E+00  0.00000000000E+00  0.19438008410E+04  0.19438008410E+04  0.50400001928E-02 0. -1.
        1   -1    0    0  501    0  0.00000000000E+00  0.00000000000E+00 -0.22464716650E+04  0.22464716650E+04  0.50400001928E-02 0.  1.
    10030    2    1    2    0    0  0.00000000000E+00  0.00000000000E+00 -0.30267082402E+03  0.41902725061E+04  0.41793269850E+04 0.  0.
        3    1    3    3  502    0 -0.20570421628E+04 -0.12950156110E+03 -0.49647581492E+03  0.21200663572E+04  0.10100000352E+00 0.  1.
       -3    1    3    3    0  502  0.20570421628E+04  0.12950156110E+03  0.19380499090E+03  0.20702061488E+04  0.10100000352E+00 0. -1.
</event>
<event>
 5   0  0.1372952E-07  0.2750324E+04  0.7818609E-02  0.8318859E-01
       -1   -1    0    0    0  501  0.00000000000E+00  0.00000000000E+00  0.13541058236E+04  0.13541058236E+04  0.50400001928E-02 0. -1.
        1   -1    0    0  501    0  0.00000000000E+00  0.00000000000E+00 -0.13965452358E+04  0.13965452358E+04  0.50400001928E-02 0.  1.
    10030    2    1    2    0    0  0.00000000000E+00  0.00000000000E+00 -0.42439412148E+02  0.27506510594E+04  0.27503236440E+04 0.  0.
        1    1    3    3  502    0  0.13137846794E+04 -0.25565029080E+02  0.38427434285E+03  0.13690692185E+04  0.50400001928E-02 0. -1.
       -1    1    3    3    0  502 -0.13137846794E+04  0.25565029080E+02 -0.42671375500E+03  0.13815818409E+04  0.50400001928E-02 0.  1.
</event>
<event>
 5   0  0.1351000E-07  0.4037235E+04  0.7818609E-02  0.7997077E-01
        1   -1    0    0  501    0  0.00000000000E+00  0.00000000000E+00  0.13011873349E+04  0.13011873349E+04  0.50400001928E-02 0. -1.
       -1   -1    0    0    0  501  0.00000000000E+00  0.00000000000E+00 -0.31316144940E+04  0.31316144940E+04  0.50400001928E-02 0.  1.
    10030    2    1    2    0    0  0.00000000000E+00  0.00000000000E+00 -0.18304271591E+04  0.44328018289E+04  0.40372352506E+04 0.  0.
        3    1    3    3  502    0 -0.81545539893E+03  0.77664327340E+03 -0.27546734145E+04  0.29759650389E+04  0.10100000352E+00 0.  1.
       -3    1    3    3    0  502  0.81545539893E+03 -0.77664327340E+03  0.92424625541E+03  0.14568367900E+04  0.10100000352E+00 0. -1.
</event>
<event>
 5   0  0.1351000E-07  0.4079628E+04  0.7818609E-02  0.7988673E-01
       -3   -1    0    0    0  501  0.00000000000E+00  0.00000000000E+00  0.19283601605E+04  0.19283601631E+04  0.10100000352E+00 0.  1.
        3   -1    0    0  501    0  0.00000000000E+00  0.00000000000E+00 -0.21577098888E+04  0.21577098911E+04  0.10100000352E+00 0. -1.
    10030    2    1    2    0    0  0.00000000000E+00  0.00000000000E+00 -0.22934972830E+03  0.40860700542E+04  0.40796283152E+04 0.  0.
        1    1    3    3  502    0  0.12359656400E+04 -0.30773032198E+03  0.14811182949E+04  0.19534636975E+04  0.50400001928E-02 0.  1.
       -1    1    3    3    0  502 -0.12359656400E+04  0.30773032198E+03 -0.17104680232E+04  0.21326063567E+04  0.50400001928E-02 0. -1.
</event>
<event>
 5   0  0.1351000E-07  0.3013338E+04  0.7818609E-02  0.8239932E-01
        1   -1    0    0  501    0  0.00000000000E+00  0.00000000000E+00  0.21118004447E+04  0.21118004447E+04  0.50400001928E-02 0. -1.
       -1   -1    0    0    0  501  0.00000000000E+00  0.00000000000E+00 -0.10749364198E+04  0.10749364198E+04  0.50400001928E-02 0.  1.
    10030    2    1    2    0    0  0.00000000000E+00  0.00000000000E+00  0.10368640249E+04  0.31867368646E+04  0.30133378234E+04 0.  0.
        4    1    3    3  502    0  0.11167887697E+04  0.55303802967E+03 -0.37704062428E+03  0.13020097787E+04  0.12699999809E+01 0.  1.
       -4    1    3    3    0  502 -0.11167887697E+04 -0.55303802967E+03  0.14139046492E+04  0.18847270859E+04  0.12699999809E+01 0. -1.
</event>
<event>
 5   0  0.1351000E-07  0.3446355E+04  0.7818609E-02  0.8126622E-01
       -1   -1    0    0    0  501  0.00000000000E+00  0.00000000000E+00  0.14542951340E+04  0.14542951340E+04  0.50400001928E-02 0. -1.
        1   -1    0    0  501    0  0.00000000000E+00  0.00000000000E+00 -0.20417731581E+04  0.20417731581E+04  0.50400001928E-02 0.  1.
    10030    2    1    2    0    0  0.00000000000E+00  0.00000000000E+00 -0.58747802411E+03  0.34960682921E+04  0.34463550418E+04 0.  0.
        4    1    3    3  502    0  0.10331289695E+04  0.12005379962E+04 -0.98227290724E+03  0.18637351274E+04  0.12699999809E+01 0.  1.
       -4    1    3    3    0  502 -0.10331289695E+04 -0.12005379962E+04  0.39479488312E+03  0.16323331647E+04  0.12699999809E+01 0. -1.
</event>
<event>
 5   0  0.4301754E-07  0.3991119E+04  0.7818609E-02  0.8006341E-01
        2   -1    0    0  501    0  0.00000000000E+00  0.00000000000E+00  0.14799777270E+04  0.14799777270E+04  0.25500000920E-02 0. -1.
       -2   -1    0    0    0  501  0.00000000000E+00  0.00000000000E+00 -0.26907550688E+04  0.26907550688E+04  0.25500000920E-02 0.  1.
    10030    2    1    2    0    0  0.00000000000E+00  0.00000000000E+00 -0.12107773418E+04  0.41707327958E+04  0.39911189262E+04 0.  0.
        1    1    3    3  502    0 -0.83660555620E+03 -0.29913528724E+03  0.12618855357E+04  0.15432906019E+04  0.50400001928E-02 0. -1.
       -1    1    3    3    0  502  0.83660555620E+03  0.29913528724E+03 -0.24726628775E+04  0.26274421939E+04  0.50400001928E-02 0.  1.
</event>
<event>
 5   0  0.4077370E-07  0.3971291E+04  0.7818609E-02  0.8010363E-01
        2   -1    0    0  501    0  0.00000000000E+00  0.00000000000E+00  0.20688715531E+04  0.20688715531E+04  0.25500000920E-02 0. -1.
       -2   -1    0    0    0  501  0.00000000000E+00  0.00000000000E+00 -0.19057671164E+04  0.19057671164E+04  0.25500000920E-02 0.  1.
    10030    2    1    2    0    0  0.00000000000E+00  0.00000000000E+00  0.16310443666E+03  0.39746386695E+04  0.39712906586E+04 0.  0.
        3    1    3    3  502    0  0.39294352501E+03 -0.19430808145E+04  0.19487177867E+03  0.19919695494E+04  0.10100000352E+00 0. -1.
       -3    1    3    3    0  502 -0.39294352501E+03  0.19430808145E+04 -0.31767342014E+02  0.19826691201E+04  0.10100000352E+00 0.  1.
</event>
<event>
 5   0  0.1351000E-07  0.3412874E+04  0.7818609E-02  0.8134754E-01
       -3   -1    0    0    0  501  0.00000000000E+00  0.00000000000E+00  0.11157301931E+04  0.11157301977E+04  0.10100000352E+00 0. -1.
        3   -1    0    0  501    0  0.00000000000E+00  0.00000000000E+00 -0.26098844429E+04  0.26098844449E+04  0.10100000352E+00 0.  1.
    10030    2    1    2    0    0  0.00000000000E+00  0.00000000000E+00 -0.14941542498E+04  0.37256146426E+04  0.34128737953E+04 0.  0.
        2    1    3    3  502    0  0.12328455568E+04  0.42947474503E+02  0.54002296411E+03  0.13466170407E+04  0.25500000920E-02 0. -1.
       -2    1    3    3    0  502 -0.12328455568E+04 -0.42947474503E+02 -0.20341772139E+04  0.23789976019E+04  0.25500000920E-02 0.  1.
</event>
<event>
 5   0  0.4149487E-07  0.3842733E+04  0.7818609E-02  0.8037046E-01
       -2   -1    0    0    0  501  0.00000000000E+00  0.00000000000E+00  0.19045723245E+04  0.19045723245E+04  0.25500000920E-02 0. -1.
        2   -1    0    0  501    0  0.00000000000E+00  0.00000000000E+00 -0.19383092101E+04  0.19383092101E+04  0.25500000920E-02 0.  1.
    10030    2    1    2    0    0  0.00000000000E+00  0.00000000000E+00 -0.33736885563E+02  0.38428815346E+04  0.38427334426E+04 0.  0.
        2    1    3    3  502    0 -0.14025382170E+04 -0.24504891426E+03 -0.13070684088E+04  0.19327675095E+04  0.25500000920E-02 0.  1.
       -2    1    3    3    0  502  0.14025382170E+04  0.24504891426E+03  0.12733315233E+04  0.19101140250E+04  0.25500000920E-02 0. -1.
</event>
<event>
 5   0  0.4079777E-07  0.2906254E+04  0.7818609E-02  0.8271019E-01
       -2   -1    0    0    0  501  0.00000000000E+00  0.00000000000E+00  0.10329176111E+04  0.10329176112E+04  0.25500000920E-02 0.  1.
        2   -1    0    0  501    0  0.00000000000E+00  0.00000000000E+00 -0.20442855901E+04  0.20442855901E+04  0.25500000920E-02 0. -1.
    10030    2    1    2    0    0  0.00000000000E+00  0.00000000000E+00 -0.10113679790E+04  0.30772032013E+04  0.29062543511E+04 0.  0.
        4    1    3    3  502    0  0.10771269032E+02 -0.13045697633E+04 -0.11832952689E+04  0.17613084891E+04  0.12699999809E+01 0. -1.
       -4    1    3    3    0  502 -0.10771269032E+02  0.13045697633E+04  0.17192728996E+03  0.13158947121E+04  0.12699999809E+01 0.  1.
</event>
<event>
 5   0  0.1351000E-07  0.3989430E+04  0.7818609E-02  0.8006682E-01
        1   -1    0    0  501    0  0.00000000000E+00  0.00000000000E+00  0.11629644945E+04  0.11629644946E+04  0.50400001928E-02 0. -1.
       -1   -1    0    0    0  501  0.00000000000E+00  0.00000000000E+00 -0.34213321525E+04  0.34213321526E+04  0.50400001928E-02 0.  1.
    10030    2    1    2    0    0  0.00000000000E+00  0.00000000000E+00 -0.22583676580E+04  0.45842966471E+04  0.39894299430E+04 0.  0.
        4    1    3    3  502    0 -0.14303254758E+04  0.99249008507E+03 -0.22480298320E+04  0.28433267969E+04  0.12699999809E+01 0. -1.
       -4    1    3    3    0  502  0.14303254758E+04 -0.99249008507E+03 -0.10337826049E+02  0.17409698502E+04  0.12699999809E+01 0.  1.
</event>
<event>
 5   0  0.4047916E-07  0.3019433E+04  0.7818609E-02  0.8238203E-01
        2   -1    0    0  501    0  0.00000000000E+00  0.00000000000E+00  0.25910477702E+04  0.25910477702E+04  0.25500000920E-02 0.  1.
       -2   -1    0    0    0  501  0.00000000000E+00  0.00000000000E+00 -0.87966119376E+03  0.87966119376E+03  0.25500000920E-02 0. -1.
    10030    2    1    2    0    0  0.00000000000E+00  0.00000000000E+00  0.17113865764E+04  0.34707089639E+04  0.30194331750E+04 0.  0.
        5    1    3    3  502    0  0.11622526405E+04  0.95479137639E+03  0.10045216287E+04  0.18087408785E+04  0.46999998093E+01 0. -1.
       -5    1    3    3    0  502 -0.11622526405E+04 -0.95479137639E+03  0.70686494770E+03  0.16619680855E+04  0.46999998093E+01 0.  1.
</event>
<event>
 5   0  0.4301754E-07  0.4167329E+04  0.7818609E-02  0.7971616E-01
       -2   -1    0    0    0  501  0.00000000000E+00  0.00000000000E+00  0.16317742509E+04  0.16317742509E+04  0.25500000920E-02 0.  1.
        2   -1    0    0  501    0  0.00000000000E+00  0.00000000000E+00 -0.26606976051E+04  0.26606976051E+04  0.25500000920E-02 0. -1.
    10030    2    1    2    0    0  0.00000000000E+00  0.00000000000E+00 -0.10289233542E+04  0.42924718560E+04  0.41673290446E+04 0.  0.
        1    1    3    3  502    0  0.20511786464E+04 -0.36626173721E+03 -0.50078353044E+03  0.21429572194E+04  0.50400001928E-02 0. -1.
       -1    1    3    3    0  502 -0.20511786464E+04  0.36626173721E+03 -0.52813982380E+03  0.21495146366E+04  0.50400001928E-02 0.  1.
</event>
<event>
 5   0  0.1351000E-07  0.3047868E+04  0.7818609E-02  0.8230192E-01
        1   -1    0    0  501    0  0.00000000000E+00  0.00000000000E+00  0.25239561139E+04  0.25239561139E+04  0.50400001928E-02 0.  1.
       -1   -1    0    0    0  501  0.00000000000E+00  0.00000000000E+00 -0.92013281016E+03  0.92013281018E+03  0.50400001928E-02 0. -1.
    10030    2    1    2    0    0  0.00000000000E+00  0.00000000000E+00  0.16038233037E+04  0.34440889240E+04  0.30478679970E+04 0.  0.
        4    1    3    3  502    0  0.24979471157E+02  0.12515154735E+04  0.17840743606E+04  0.21794122812E+04  0.12699999809E+01 0.  1.
       -4    1    3    3    0  502 -0.24979471157E+02 -0.12515154735E+04 -0.18025105690E+03  0.12646766428E+04  0.12699999809E+01 0. -1.
</event>
<event>
 5   0  0.1351000E-07  0.4530674E+04  0.7818609E-02  0.7905289E-01
        1   -1    0    0  501    0  0.00000000000E+00  0.00000000000E+00  0.17796309053E+04  0.17796309053E+04  0.50400001928E-02 0. -1.
       -1   -1    0    0    0  501  0.00000000000E+00  0.00000000000E+00 -0.28836040964E+04  0.28836040964E+04  0.50400001928E-02 0.  1.
    10030    2    1    2    0    0  0.00000000000E+00  0.00000000000E+00 -0.11039731912E+04  0.46632350017E+04  0.45306736667E+04 0.  0.
        3    1    3    3  502    0 -0.15785478993E+04  0.12050861174E+04  0.56971877937E+03  0.20660652261E+04  0.10100000352E+00 0. -1.
       -3    1    3    3    0  502  0.15785478993E+04 -0.12050861174E+04 -0.16736919705E+04  0.25971697756E+04  0.10100000352E+00 0.  1.
</event>
<event>
 5   0  0.4079777E-07  0.4036568E+04  0.7818609E-02  0.7997210E-01
       -2   -1    0    0    0  501  0.00000000000E+00  0.00000000000E+00  0.22776358149E+04  0.22776358149E+04  0.25500000920E-02 0.  1.
        2   -1    0    0  501    0  0.00000000000E+00  0.00000000000E+00 -0.17884640335E+04  0.17884640335E+04  0.25500000920E-02 0. -1.
    10030    2    1    2    0    0  0.00000000000E+00  0.00000000000E+00  0.48917178144E+03  0.40660998484E+04  0.40365677184E+04 0.  0.
        4    1    3    3  502    0  0.89818699531E+03 -0.31423837365E+03 -0.15483187139E+04  0.18173546948E+04  0.12699999809E+01 0. -1.
       -4    1    3    3    0  502 -0.89818699531E+03  0.31423837365E+03  0.20374904954E+04  0.22487451536E+04  0.12699999809E+01 0.  1.
</event>
<event>
 5   0  0.4077370E-07  0.3981594E+04  0.7818609E-02  0.8008270E-01
        2   -1    0    0  501    0  0.00000000000E+00  0.00000000000E+00  0.18543111733E+04  0.18543111733E+04  0.25500000920E-02 0. -1.
       -2   -1    0    0    0  501  0.00000000000E+00  0.00000000000E+00 -0.21373284999E+04  0.21373284999E+04  0.25500000920E-02 0.  1.
    10030    2    1    2    0    0  0.00000000000E+00  0.00000000000E+00 -0.28301732658E+03  0.39916396731E+04  0.39815937102E+04 0.  0.
        3    1    3    3  502    0 -0.10498060917E+04  0.46469591194E+03  0.14890134086E+04  0.18802117067E+04  0.10100000352E+00 0. -1.
       -3    1    3    3    0  502  0.10498060917E+04 -0.46469591194E+03 -0.17720307352E+04  0.21114279664E+04  0.10100000352E+00 0.  1.
</event>
<event>
 5   0  0.4149487E-07  0.3418149E+04  0.7818609E-02  0.8133466E-01
       -2   -1    0    0    0  501  0.00000000000E+00  0.00000000000E+00  0.12755370835E+04  0.12755370835E+04  0.25500000920E-02 0.  1.
        2   -1    0    0  501    0  0.00000000000E+00  0.00000000000E+00 -0.22899657698E+04  0.22899657698E+04  0.25500000920E-02 0. -1.
    10030    2    1    2    0    0  0.00000000000E+00  0.00000000000E+00 -0.10144286863E+04  0.35655028533E+04  0.34181493585E+04 0.  0.
        2    1    3    3  502    0 -0.29863006430E+03 -0.15191364747E+04 -0.12622846716E+04  0.19975780676E+04  0.25500000920E-02 0. -1.
       -2    1    3    3    0  502  0.29863006430E+03  0.15191364747E+04  0.24785598524E+03  0.15679247857E+04  0.25500000920E-02 0.  1.
</event>
<event>
 5   0  0.4149487E-07  0.3766398E+04  0.7818609E-02  0.8053404E-01
        2   -1    0    0  501    0  0.00000000000E+00  0.00000000000E+00  0.19727419000E+04  0.19727419000E+04  0.25500000920E-02 0. -1.
       -2   -1    0    0    0  501  0.00000000000E+00  0.00000000000E+00 -0.17977207101E+04  0.17977207101E+04  0.25500000920E-02 0.  1.
    10030    2    1    2    0    0  0.00000000000E+00  0.00000000000E+00  0.17502118995E+03  0.37704626101E+04  0.37663982632E+04 0.  0.
        2    1    3    3  502    0  0.13618141829E+04 -0.12237988954E+04  0.52868715035E+03  0.19057102896E+04  0.25500000920E-02 0. -1.
       -2    1    3    3    0  502 -0.13618141829E+04  0.12237988954E+04 -0.35366596040E+03  0.18647523204E+04  0.25500000920E-02 0.  1.
</event>
<event>
 5   0  0.4079777E-07  0.3285975E+04  0.7818609E-02  0.8166473E-01
       -2   -1    0    0    0  501  0.00000000000E+00  0.00000000000E+00  0.20084043801E+04  0.20084043801E+04  0.25500000920E-02 0.  1.
        2   -1    0    0  501    0  0.00000000000E+00  0.00000000000E+00 -0.13440562937E+04  0.13440562937E+04  0.25500000920E-02 0. -1.
    10030    2    1    2    0    0  0.00000000000E+00  0.00000000000E+00  0.66434808634E+03  0.33524606738E+04  0.32859753787E+04 0.  0.
        4    1    3    3  502    0  0.12119627164E+04 -0.10795326779E+04  0.59260839915E+03  0.17278399105E+04  0.12699999809E+01 0.  1.
       -4    1    3    3    0  502 -0.12119627164E+04  0.10795326779E+04  0.71739687189E+02  0.16246207633E+04  0.12699999809E+01 0. -1.
</event>
<event>
 5   0  0.4047916E-07  0.2954417E+04  0.7818609E-02  0.8256868E-01
       -2   -1    0    0    0  501  0.00000000000E+00  0.00000000000E+00  0.13353429369E+04  0.13353429369E+04  0.25500000920E-02 0.  1.
        2   -1    0    0  501    0  0.00000000000E+00  0.00000000000E+00 -0.16341458036E+04  0.16341458036E+04  0.25500000920E-02 0. -1.
    10030    2    1    2    0    0  0.00000000000E+00  0.00000000000E+00 -0.29880286678E+03  0.29694887405E+04  0.29544170706E+04 0.  0.
        5    1    3    3  502    0 -0.72343153926E+03 -0.12832844268E+04 -0.25927908345E+03  0.14958007371E+04  0.46999998093E+01 0.  1.
       -5    1    3    3    0  502  0.72343153926E+03  0.12832844268E+04 -0.39523783332E+02  0.14736880034E+04  0.46999998093E+01 0. -1.
</event>
<event>
 5   0  0.4047916E-07  0.4023523E+04  0.7818609E-02  0.7999818E-01
       -2   -1    0    0    0  501  0.00000000000E+00  0.00000000000E+00  0.14507453860E+04  0.14507453860E+04  0.25500000920E-02 0.  1.
        2   -1    0    0  501    0  0.00000000000E+00  0.00000000000E+00 -0.27897281107E+04  0.27897281107E+04  0.25500000920E-02 0. -1.
    10030    2    1    2    0    0  0.00000000000E+00  0.00000000000E+00 -0.13389827247E+04  0.42404734966E+04  0.40235234234E+04 0.  0.
        5    1    3    3  502    0 -0.14725108016E+04  0.12265442503E+04 -0.13144219753E+04  0.23238816833E+04  0.46999998093E+01 0. -1.
       -5    1    3    3    0  502  0.14725108016E+04 -0.12265442503E+04 -0.24560749331E+02  0.19165918134E+04  0.46999998093E+01 0.  1.
</event>
<event>
 5   0  0.4077370E-07  0.4236051E+04  0.7818609E-02  0.7958550E-01
       -2   -1    0    0    0  501  0.00000000000E+00  0.00000000000E+00  0.33473984457E+04  0.33473984457E+04  0.25500000920E-02 0. -1.
        2   -1    0    0  501    0  0.00000000000E+00  0.00000000000E+00 -0.13401548290E+04  0.13401548290E+04  0.25500000920E-02 0.  1.
    10030    2    1    2    0    0  0.00000000000E+00  0.00000000000E+00  0.20072436167E+04  0.46875532747E+04  0.42360510816E+04 0.  0.
        3    1    3    3  502    0  0.95716944143E+03  0.35043663885E+03  0.30581353530E+04  0.32235339342E+04  0.10100000352E+00 0. -1.
       -3    1    3    3    0  502 -0.95716944143E+03 -0.35043663885E+03 -0.10508917364E+04  0.14640193405E+04  0.10100000352E+00 0.  1.
</event>
<event>
 5   0  0.1372952E-07  0.4046809E+04  0.7818609E-02  0.7995170E-01
       -1   -1    0    0    0  501  0.00000000000E+00  0.00000000000E+00  0.20557259781E+04  0.20557259781E+04  0.50400001928E-02 0. -1.
        1   -1    0    0  501    0  0.00000000000E+00  0.00000000000E+00 -0.19915914706E+04  0.19915914706E+04  0.50400001928E-02 0.  1.
    10030    2    1    2    0    0  0.00000000000E+00  0.00000000000E+00  0.64134507428E+02  0.40473174487E+04  0.40468092734E+04 0.  0.
        1    1    3    3  502    0 -0.25356301113E+03  0.18647325373E+04 -0.71142685669E+03  0.20118771853E+04  0.50400001928E-02 0.  1.
       -1    1    3    3    0  502  0.25356301113E+03 -0.18647325373E+04  0.77556136412E+03  0.20354402634E+04  0.50400001928E-02 0. -1.
</event>
<event>
 5   0  0.1372952E-07  0.4027293E+04  0.7818609E-02  0.7999063E-01
       -1   -1    0    0    0  501  0.00000000000E+00  0.00000000000E+00  0.16505310551E+04  0.16505310551E+04  0.50400001928E-02 0.  1.
        1   -1    0    0  501    0  0.00000000000E+00  0.00000000000E+00 -0.24566465184E+04  0.24566465184E+04  0.50400001928E-02 0. -1.
    10030    2    1    2    0    0  0.00000000000E+00  0.00000000000E+00 -0.80611546328E+03  0.41071775736E+04  0.40272925745E+04 0.  0.
        1    1    3    3  502    0  0.59749694848E+03  0.80404777776E+03  0.13783816165E+04  0.17039458070E+04  0.50400001928E-02 0.  1.
       -1    1    3    3    0  502 -0.59749694848E+03 -0.80404777776E+03 -0.21844970798E+04  0.24032317666E+04  0.50400001928E-02 0. -1.
</event>
<event>
 5   0  0.4149487E-07  0.3979989E+04  0.7818609E-02  0.8008596E-01
       -2   -1    0    0    0  501  0.00000000000E+00  0.00000000000E+00  0.14217194954E+04  0.14217194954E+04  0.25500000920E-02 0. -1.
        2   -1    0    0  501    0  0.00000000000E+00  0.00000000000E+00 -0.27854143510E+04  0.27854143510E+04  0.25500000920E-02 0.  1.
    10030    2    1    2    0    0  0.00000000000E+00  0.00000000000E+00 -0.13636948556E+04  0.42071338464E+04  0.39799888872E+04 0.  0.
        2    1    3    3  502    0 -0.65769450609E+03  0.57116597140E+03  0.12094797211E+04  0.14905146179E+04  0.25500000920E-02 0. -1.
       -2    1    3    3    0  502  0.65769450609E+03 -0.57116597140E+03 -0.25731745768E+04  0.27166192285E+04  0.25500000920E-02 0.  1.
</event>
<event>
 5   0  0.4079777E-07  0.3993439E+04  0.7818609E-02  0.8005871E-01
        2   -1    0    0  501    0  0.00000000000E+00  0.00000000000E+00  0.17487498078E+04  0.17487498078E+04  0.25500000920E-02 0. -1.
       -2   -1    0    0    0  501  0.00000000000E+00  0.00000000000E+00 -0.22798509458E+04  0.22798509458E+04  0.25500000920E-02 0.  1.
    10030    2    1    2    0    0  0.00000000000E+00  0.00000000000E+00 -0.53110113810E+03  0.40286007536E+04  0.39934390709E+04 0.  0.
        4    1    3    3  502    0 -0.70402968405E+03 -0.15600031183E+04 -0.13030119666E+04  0.21510716685E+04  0.12699999809E+01 0.  1.
       -4    1    3    3    0  502  0.70402968405E+03  0.15600031183E+04  0.77191082848E+03  0.18775290851E+04  0.12699999809E+01 0. -1.
</event>
<event>
 5   0  0.1368865E-07  0.3968684E+04  0.7818609E-02  0.8010894E-01
       -1   -1    0    0    0  501  0.00000000000E+00  0.00000000000E+00  0.19116110325E+04  0.19116110325E+04  0.50400001928E-02 0. -1.
        1   -1    0    0  501    0  0.00000000000E+00  0.00000000000E+00 -0.20598406687E+04  0.20598406687E+04  0.50400001928E-02 0.  1.
    10030    2    1    2    0    0  0.00000000000E+00  0.00000000000E+00 -0.14822963626E+03  0.39714517012E+04  0.39686844911E+04 0.  0.
        5    1    3    3  502    0  0.16494333620E+04 -0.97883282520E+03 -0.58324057601E+03  0.20047283544E+04  0.46999998093E+01 0.  1.
       -5    1    3    3    0  502 -0.16494333620E+04  0.97883282520E+03  0.43501093975E+03  0.19667233468E+04  0.46999998093E+01 0. -1.
</event>
<event>
 5   0  0.4079777E-07  0.3991869E+04  0.7818609E-02  0.8006189E-01
       -2   -1    0    0    0  501  0.00000000000E+00  0.00000000000E+00  0.17454604417E+04  0.17454604417E+04  0.25500000920E-02 0.  1.
        2   -1    0    0  501    0  0.00000000000E+00  0.00000000000E+00 -0.22823519187E+04  0.22823519187E+04  0.25500000920E-02 0. -1.
    10030    2    1    2    0    0  0.00000000000E+00  0.00000000000E+00 -0.53689147700E+03  0.40278123604E+04  0.39918692304E+04 0.  0.
        4    1    3    3  502    0  0.81961125837E+03 -0.15984038568E+04  0.60950139118E+03  0.18968792959E+04  0.12699999809E+01 0.  1.
       -4    1    3    3    0  502 -0.81961125837E+03  0.15984038568E+04 -0.11463928682E+04  0.21309330645E+04  0.12699999809E+01 0. -1.
</event>
<event>
 5   0  0.1368865E-07  0.3746082E+04  0.7818609E-02  0.8057826E-01
       -1   -1    0    0    0  501  0.00000000000E+00  0.00000000000E+00  0.12696970668E+04  0.12696970668E+04  0.50400001928E-02 0. -1.
        1   -1    0    0  501    0  0.00000000000E+00  0.00000000000E+00 -0.27630857231E+04  0.27630857231E+04  0.50400001928E-02 0.  1.
    10030    2    1    2    0    0  0.00000000000E+00  0.00000000000E+00 -0.14933886562E+04  0.40327827899E+04  0.37460815998E+04 0.  0.
        5    1    3    3  502    0 -0.24927585468E+02  0.56962518826E+03 -0.26673840306E+04  0.27276462191E+04  0.46999998093E+01 0.  1.
       -5    1    3    3    0  502  0.24927585468E+02 -0.56962518826E+03  0.11739953744E+04  0.13051365709E+04  0.46999998093E+01 0. -1.
</event>
<event>
 5   0  0.1351000E-07  0.2666698E+04  0.7818609E-02  0.8345892E-01
        1   -1    0    0  501    0  0.00000000000E+00  0.00000000000E+00  0.10432526863E+04  0.10432526864E+04  0.50400001928E-02 0. -1.
       -1   -1    0    0    0  501  0.00000000000E+00  0.00000000000E+00 -0.17041117423E+04  0.17041117424E+04  0.50400001928E-02 0.  1.
    10030    2    1    2    0    0  0.00000000000E+00  0.00000000000E+00 -0.66085905600E+03  0.27473644287E+04  0.26666976979E+04 0.  0.
        4    1    3    3  502    0 -0.70110750102E+03 -0.60274999696E+03 -0.13201977678E+04  0.16117639547E+04  0.12699999809E+01 0. -1.
       -4    1    3    3    0  502  0.70110750102E+03  0.60274999696E+03  0.65933871176E+03  0.11356004740E+04  0.12699999809E+01 0.  1.
</event>
<event>
 5   0  0.1372952E-07  0.3916597E+04  0.7818609E-02  0.8021586E-01
        1   -1    0    0  501    0  0.00000000000E+00  0.00000000000E+00  0.12411537352E+04  0.12411537352E+04  0.50400001928E-02 0. -1.
       -1   -1    0    0    0  501  0.00000000000E+00  0.00000000000E+00 -0.30898126911E+04  0.30898126911E+04  0.50400001928E-02 0.  1.
    10030    2    1    2    0    0  0.00000000000E+00  0.00000000000E+00 -0.18486589559E+04  0.43309664263E+04  0.39165967689E+04 0.  0.
        1    1    3    3  502    0 -0.76604111581E+03 -0.13292007926E+02  0.10685440900E+04  0.13148316017E+04  0.50400001928E-02 0. -1.
       -1    1    3    3    0  502  0.76604111581E+03  0.13292007926E+02 -0.29172030459E+04  0.30161348245E+04  0.50400001928E-02 0.  1.
</event>
<event>
 5   0  0.1372952E-07  0.4000057E+04  0.7818609E-02  0.8004535E-01
       -1   -1    0    0    0  501  0.00000000000E+00  0.00000000000E+00  0.27496329668E+04  0.27496329668E+04  0.50400001928E-02 0.  1.
        1   -1    0    0  501    0  0.00000000000E+00  0.00000000000E+00 -0.14547811055E+04  0.14547811055E+04  0.50400001928E-02 0. -1.
    10030    2    1    2    0    0  0.00000000000E+00  0.00000000000E+00  0.12948518613E+04  0.42044140723E+04  0.40000570431E+04 0.  0.
        1    1    3    3  502    0  0.10274400778E+04 -0.61657044669E+03 -0.10357346965E+04  0.15838366679E+04  0.50400001928E-02 0. -1.
       -1    1    3    3    0  502 -0.10274400778E+04  0.61657044669E+03  0.23305865577E+04  0.26205774044E+04  0.50400001928E-02 0.  1.
</event>
<event>
 5   0  0.1372952E-07  0.3957673E+04  0.7818609E-02  0.8013140E-01
        1   -1    0    0  501    0  0.00000000000E+00  0.00000000000E+00  0.23898178807E+04  0.23898178807E+04  0.50400001928E-02 0. -1.
       -1   -1    0    0    0  501  0.00000000000E+00  0.00000000000E+00 -0.16385325874E+04  0.16385325874E+04  0.50400001928E-02 0.  1.
    10030    2    1    2    0    0  0.00000000000E+00  0.00000000000E+00  0.75128529331E+03  0.40283504681E+04  0.39576732940E+04 0.  0.
        1    1    3    3  502    0  0.12041690551E+04 -0.81780927169E+01 -0.12226555859E+04  0.17160934346E+04  0.50400001928E-02 0.  1.
       -1    1    3    3    0  502 -0.12041690551E+04  0.81780927169E+01  0.19739408792E+04  0.23122570335E+04  0.50400001928E-02 0. -1.
</event>
<event>
 5   0  0.4047916E-07  0.3884528E+04  0.7818609E-02  0.8028255E-01
       -2   -1    0    0    0  501  0.00000000000E+00  0.00000000000E+00  0.28801372669E+04  0.28801372669E+04  0.25500000920E-02 0.  1.
        2   -1    0    0  501    0  0.00000000000E+00  0.00000000000E+00 -0.13097948439E+04  0.13097948439E+04  0.25500000920E-02 0. -1.
    10030    2    1    2    0    0  0.00000000000E+00  0.00000000000E+00  0.15703424230E+04  0.41899321107E+04  0.38845277405E+04 0.  0.
        5    1    3    3  502    0  0.11769595645E+04  0.76707545304E+03 -0.66143904819E+03  0.15527917670E+04  0.46999998093E+01 0. -1.
       -5    1    3    3    0  502 -0.11769595645E+04 -0.76707545304E+03  0.22317814712E+04  0.26371403437E+04  0.46999998093E+01 0.  1.
</event>
<event>
 5   0  0.1368865E-07  0.4057501E+04  0.7818609E-02  0.7993046E-01
       -1   -1    0    0    0  501  0.00000000000E+00  0.00000000000E+00  0.21899759594E+04  0.21899759594E+04  0.50400001928E-02 0.  1.
        1   -1    0    0  501    0  0.00000000000E+00  0.00000000000E+00 -0.18793939761E+04  0.18793939761E+04  0.50400001928E-02 0. -1.
    10030    2    1    2    0    0  0.00000000000E+00  0.00000000000E+00  0.31058198332E+03  0.40693699355E+04  0.40575005242E+04 0.  0.
        5    1    3    3  502    0 -0.52923694074E+03  0.49287068091E+03 -0.17457200638E+04  0.18895962210E+04  0.46999998093E+01 0. -1.
       -5    1    3    3    0  502  0.52923694074E+03 -0.49287068091E+03  0.20563020471E+04  0.21797737145E+04  0.46999998093E+01 0.  1.
</event>
<event>
 5   0  0.4077370E-07  0.4024706E+04  0.7818609E-02  0.7999581E-01
       -2   -1    0    0    0  501  0.00000000000E+00  0.00000000000E+00  0.20090014420E+04  0.20090014420E+04  0.25500000920E-02 0.  1.
        2   -1    0    0  501    0  0.00000000000E+00  0.00000000000E+00 -0.20157098745E+04  0.20157098745E+04  0.25500000920E-02 0. -1.
    10030    2    1    2    0    0  0.00000000000E+00  0.00000000000E+00 -0.67084324723E+01  0.40247113165E+04  0.40247057257E+04 0.  0.
        3    1    3    3  502    0  0.16787323202E+04  0.36346618670E+03  0.10451290773E+04  0.20106080349E+04  0.10100000352E+00 0.  1.
       -3    1    3    3    0  502 -0.16787323202E+04 -0.36346618670E+03 -0.10518375098E+04  0.20141032816E+04  0.10100000352E+00 0. -1.
</event>
<event>
 5   0  0.1351000E-07  0.3966672E+04  0.7818609E-02  0.8011304E-01
       -1   -1    0    0    0  501  0.00000000000E+00  0.00000000000E+00  0.23959936356E+04  0.23959936356E+04  0.50400001928E-02 0.  1.
        1   -1    0    0  501    0  0.00000000000E+00  0.00000000000E+00 -0.16417495597E+04  0.16417495597E+04  0.50400001928E-02 0. -1.
    10030    2    1    2    0    0  0.00000000000E+00  0.00000000000E+00  0.75424407592E+03  0.40377431953E+04  0.39666719028E+04 0.  0.
        3    1    3    3  502    0 -0.44191341463E+03  0.21145601321E+03 -0.15791918703E+04  0.16534352376E+04  0.10100000352E+00 0. -1.
       -3    1    3    3    0  502  0.44191341463E+03 -0.21145601321E+03  0.23334359462E+04  0.23843079576E+04  0.10100000352E+00 0.  1.
</event>
<event>
 5   0  0.1421304E-07  0.2922428E+04  0.7818609E-02  0.8266236E-01
        1   -1    0    0  501    0  0.00000000000E+00  0.00000000000E+00  0.14229102615E+04  0.14229102615E+04  0.50400001928E-02 0.  1.
       -1   -1    0    0    0  501  0.00000000000E+00  0.00000000000E+00 -0.15005488658E+04  0.15005488658E+04  0.50400001928E-02 0. -1.
    10030    2    1    2    0    0  0.00000000000E+00  0.00000000000E+00 -0.77638604252E+02  0.29234591273E+04  0.29224280173E+04 0.  0.
        2    1    3    3  502    0  0.10433038360E+04  0.25675293157E+02 -0.10619236518E+04  0.14889002509E+04  0.25500000920E-02 0. -1.
       -2    1    3    3    0  502 -0.10433038360E+04 -0.25675293157E+02  0.98428504759E+03  0.14345588764E+04  0.25500000920E-02 0.  1.
</event>
<event>
 5   0  0.4047916E-07  0.3896148E+04  0.7818609E-02  0.8025831E-01
        2   -1    0    0  501    0  0.00000000000E+00  0.00000000000E+00  0.16041322729E+04  0.16041322729E+04  0.25500000920E-02 0. -1.
       -2   -1    0    0    0  501  0.00000000000E+00  0.00000000000E+00 -0.23657600480E+04  0.23657600480E+04  0.25500000920E-02 0.  1.
    10030    2    1    2    0    0  0.00000000000E+00  0.00000000000E+00 -0.76162777508E+03  0.39698923210E+04  0.38961478632E+04 0.  0.
        5    1    3    3  502    0 -0.12306750268E+04 -0.10563375044E+04 -0.14803873066E+04  0.21959004104E+04  0.46999998093E+01 0.  1.
       -5    1    3    3    0  502  0.12306750268E+04  0.10563375044E+04  0.71875953153E+03  0.17739919106E+04  0.46999998093E+01 0. -1.
</event>
<event>
 5   0  0.4077370E-07  0.3914729E+04  0.7818609E-02  0.8021973E-01
       -2   -1    0    0    0  501  0.00000000000E+00  0.00000000000E+00  0.15048144849E+04  0.15048144849E+04  0.25500000920E-02 0.  1.
        2   -1    0    0  501    0  0.00000000000E+00  0.00000000000E+00 -0.25460117534E+04  0.25460117534E+04  0.25500000920E-02 0. -1.
    10030    2    1    2    0    0  0.00000000000E+00  0.00000000000E+00 -0.10411972684E+04  0.40508262383E+04  0.39147287851E+04 0.  0.
        3    1    3    3  502    0 -0.56039805085E+02  0.19553045031E+04 -0.44802331103E+03  0.20067588438E+04  0.10100000352E+00 0. -1.
       -3    1    3    3    0  502  0.56039805085E+02 -0.19553045031E+04 -0.59317395742E+03  0.20440673946E+04  0.10100000352E+00 0.  1.
</event>
<event>
 5   0  0.1372952E-07  0.4052195E+04  0.7818609E-02  0.7994099E-01
        1   -1    0    0  501    0  0.00000000000E+00  0.00000000000E+00  0.22335090314E+04  0.22335090314E+04  0.50400001928E-02 0.  1.
       -1   -1    0    0    0  501  0.00000000000E+00  0.00000000000E+00 -0.18379472652E+04  0.18379472652E+04  0.50400001928E-02 0. -1.
    10030    2    1    2    0    0  0.00000000000E+00  0.00000000000E+00  0.39556176622E+03  0.40714562967E+04  0.40521953636E+04 0.  0.
        1    1    3    3  502    0  0.22305129009E+03  0.28879733199E+02 -0.18253654643E+04  0.18391696483E+04  0.50400001928E-02 0. -1.
       -1    1    3    3    0  502 -0.22305129009E+03 -0.28879733199E+02  0.22209272305E+04  0.22322866483E+04  0.50400001928E-02 0.  1.
</event>
<event>
 5   0  0.4079777E-07  0.4253460E+04  0.7818609E-02  0.7955280E-01
        2   -1    0    0  501    0  0.00000000000E+00  0.00000000000E+00  0.26859461932E+04  0.26859461932E+04  0.25500000920E-02 0.  1.
       -2   -1    0    0    0  501  0.00000000000E+00  0.00000000000E+00 -0.16839431564E+04  0.16839431564E+04  0.25500000920E-02 0. -1.
    10030    2    1    2    0    0  0.00000000000E+00  0.00000000000E+00  0.10020030368E+04  0.43698893496E+04  0.42534601023E+04 0.  0.
        4    1    3    3  502    0 -0.20013553018E+04 -0.67916499226E+03  0.74475309308E+03  0.22408362085E+04  0.12699999809E+01 0. -1.
       -4    1    3    3    0  502  0.20013553018E+04  0.67916499226E+03  0.25724994367E+03  0.21290531410E+04  0.12699999809E+01 0.  1.
</event>
<event>
 5   0  0.4301754E-07  0.3909086E+04  0.7818609E-02  0.8023142E-01
       -2   -1    0    0    0  501  0.00000000000E+00  0.00000000000E+00  0.18232761311E+04  0.18232761311E+04  0.25500000920E-02 0. -1.
        2   -1    0    0  501    0  0.00000000000E+00  0.00000000000E+00 -0.20952609378E+04  0.20952609378E+04  0.25500000920E-02 0.  1.
    10030    2    1    2    0    0  0.00000000000E+00  0.00000000000E+00 -0.27198480669E+03  0.39185370688E+04  0.39090864693E+04 0.  0.
        1    1    3    3  502    0  0.13469959580E+04 -0.90334591459E+03  0.95742755685E+03  0.18833744925E+04  0.50400001928E-02 0.  1.
       -1    1    3    3    0  502 -0.13469959580E+04  0.90334591459E+03 -0.12294123635E+04  0.20351625763E+04  0.50400001928E-02 0. -1.
</event>
<event>
 5   0  0.4077370E-07  0.4030977E+04  0.7818609E-02  0.7998327E-01
        2   -1    0    0  501    0  0.00000000000E+00  0.00000000000E+00  0.16505726041E+04  0.16505726041E+04  0.25500000920E-02 0.  1.
       -2   -1    0    0    0  501  0.00000000000E+00  0.00000000000E+00 -0.24610813708E+04  0.24610813708E+04  0.25500000920E-02 0. -1.
    10030    2    1    2    0    0  0.00000000000E+00  0.00000000000E+00 -0.81050876673E+03  0.41116539749E+04  0.40309767983E+04 0.  0.
        3    1    3    3  502    0  0.96393219067E+03  0.15211643577E+01 -0.22107159683E+04  0.24117281531E+04  0.10100000352E+00 0. -1.
       -3    1    3    3    0  502 -0.96393219067E+03 -0.15211643577E+01  0.14002072015E+04  0.16999258218E+04  0.10100000352E+00 0.  1.
</event>
<event>
 5   0  0.1368865E-07  0.3380081E+04  0.7818609E-02  0.8142812E-01
       -1   -1    0    0    0  501  0.00000000000E+00  0.00000000000E+00  0.15512308753E+04  0.15512308753E+04  0.50400001928E-02 0.  1.
        1   -1    0    0  501    0  0.00000000000E+00  0.00000000000E+00 -0.18412717518E+04  0.18412717518E+04  0.50400001928E-02 0. -1.
    10030    2    1    2    0    0  0.00000000000E+00  0.00000000000E+00 -0.29004087651E+03  0.33925026271E+04  0.33800814140E+04 0.  0.
        5    1    3    3  502    0 -0.11599965426E+04  0.11806466498E+04  0.19784435898E+03  0.16669382025E+04  0.46999998093E+01 0. -1.
       -5    1    3    3    0  502  0.11599965426E+04 -0.11806466498E+04 -0.48788523549E+03  0.17255644246E+04  0.46999998093E+01 0.  1.
</event>
<event>
 5   0  0.1421304E-07  0.4476567E+04  0.7818609E-02  0.7914752E-01
       -1   -1    0    0    0  501  0.00000000000E+00  0.00000000000E+00  0.25205521175E+04  0.25205521175E+04  0.50400001928E-02 0. -1.
        1   -1    0    0  501    0  0.00000000000E+00  0.00000000000E+00 -0.19876248410E+04  0.19876248410E+04  0.50400001928E-02 0.  1.
    10030    2    1    2    0    0  0.00000000000E+00  0.00000000000E+00  0.53292727649E+03  0.45081769585E+04  0.44765665423E+04 0.  0.
        2    1    3    3  502    0  0.78615105374E+03  0.15144027643E+03 -0.18384979138E+04  0.20052536537E+04  0.25500000920E-02 0.  1.
       -2    1    3    3    0  502 -0.78615105374E+03 -0.15144027643E+03  0.23714251903E+04  0.25029233048E+04  0.25500000920E-02 0. -1.
</event>
<event>
 5   0  0.1372952E-07  0.2878111E+04  0.7818609E-02  0.8279420E-01
       -1   -1    0    0    0  501  0.00000000000E+00  0.00000000000E+00  0.92351378463E+03  0.92351378465E+03  0.50400001928E-02 0.  1.
        1   -1    0    0  501    0  0.00000000000E+00  0.00000000000E+00 -0.22423924263E+04  0.22423924263E+04  0.50400001928E-02 0. -1.
    10030    2    1    2    0    0  0.00000000000E+00  0.00000000000E+00 -0.13188786417E+04  0.31659062109E+04  0.28781107111E+04 0.  0.
        1    1    3    3  502    0 -0.86360730603E+03 -0.96480554222E+03  0.31207507465E+02  0.12952379016E+04  0.50400001928E-02 0.  1.
       -1    1    3    3    0  502  0.86360730603E+03  0.96480554222E+03 -0.13500861491E+04  0.18706683093E+04  0.50400001928E-02 0. -1.
</event>
<event>
 5   0  0.4149487E-07  0.3848094E+04  0.7818609E-02  0.8035912E-01
       -2   -1    0    0    0  501  0.00000000000E+00  0.00000000000E+00  0.16381073817E+04  0.16381073817E+04  0.25500000920E-02 0. -1.
        2   -1    0    0  501    0  0.00000000000E+00  0.00000000000E+00 -0.22598988935E+04  0.22598988935E+04  0.25500000920E-02 0.  1.
    10030    2    1    2    0    0  0.00000000000E+00  0.00000000000E+00 -0.62179151182E+03  0.38980062752E+04  0.38480941045E+04 0.  0.
        2    1    3    3  502    0  0.11787075412E+04  0.11064825959E+04  0.74585248811E+03  0.17804356593E+04  0.25500000920E-02 0. -1.
       -2    1    3    3    0  502 -0.11787075412E+04 -0.11064825959E+04 -0.13676439999E+04  0.21175706159E+04  0.25500000920E-02 0.  1.
</event>
<event>
 5   0  0.4079777E-07  0.3975807E+04  0.7818609E-02  0.8009445E-01
       -2   -1    0    0    0  501  0.00000000000E+00  0.00000000000E+00  0.14798873210E+04  0.14798873210E+04  0.25500000920E-02 0. -1.
        2   -1    0    0  501    0  0.00000000000E+00  0.00000000000E+00 -0.26703113961E+04  0.26703113961E+04  0.25500000920E-02 0.  1.
    10030    2    1    2    0    0  0.00000000000E+00  0.00000000000E+00 -0.11904240752E+04  0.41501987171E+04  0.39758068254E+04 0.  0.
        4    1    3    3  502    0  0.16956989845E+04 -0.10359347584E+04 -0.65428488383E+03  0.20920435444E+04  0.12699999809E+01 0. -1.
       -4    1    3    3    0  502 -0.16956989845E+04  0.10359347584E+04 -0.53613919134E+03  0.20581551727E+04  0.12699999809E+01 0.  1.
</event>
<event>
 5   0  0.1421304E-07  0.4058794E+04  0.7818609E-02  0.7992790E-01
       -1   -1    0    0    0  501  0.00000000000E+00  0.00000000000E+00  0.31405802432E+04  0.31405802432E+04  0.50400001928E-02 0.  1.
        1   -1    0    0  501    0  0.00000000000E+00  0.00000000000E+00 -0.13113668516E+04  0.13113668516E+04  0.50400001928E-02 0. -1.
    10030    2    1    2    0    0  0.00000000000E+00  0.00000000000E+00  0.18292133916E+04  0.44519470949E+04  0.40587943165E+04 0.  0.
        2    1    3    3  502    0 -0.43930680391E+03 -0.37020237515E+03 -0.12203132023E+04  0.13487789212E+04  0.25500000920E-02 0. -1.
       -2    1    3    3    0  502  0.43930680391E+03  0.37020237515E+03  0.30495265940E+04  0.31031681736E+04  0.25500000920E-02 0.  1.
</event>
<event>
 5   0  0.1368865E-07  0.3988738E+04  0.7818609E-02  0.8006822E-01
        1   -1    0    0  501    0  0.00000000000E+00  0.00000000000E+00  0.23567807019E+04  0.23567807019E+04  0.50400001928E-02 0.  1.
       -1   -1    0    0    0  501  0.00000000000E+00  0.00000000000E+00 -0.16876871835E+04  0.16876871835E+04  0.50400001928E-02 0. -1.
    10030    2    1    2    0    0  0.00000000000E+00  0.00000000000E+00  0.66909351837E+03  0.40444678854E+04  0.39887384396E+04 0.  0.
        5    1    3    3  502    0 -0.44603237753E+03 -0.17850618023E+04  0.11147753976E+04  0.21513104837E+04  0.46999998093E+01 0.  1.
       -5    1    3    3    0  502  0.44603237753E+03  0.17850618023E+04 -0.44568187927E+03  0.18931574017E+04  0.46999998093E+01 0. -1.
</event>
<event>
 5   0  0.1421304E-07  0.4041878E+04  0.7818609E-02  0.7996151E-01
       -1   -1    0    0    0  501  0.00000000000E+00  0.00000000000E+00  0.16508409591E+04  0.16508409591E+04  0.50400001928E-02 0.  1.
        1   -1    0    0  501    0  0.00000000000E+00  0.00000000000E+00 -0.24740082025E+04  0.24740082025E+04  0.50400001928E-02 0. -1.
    10030    2    1    2    0    0  0.00000000000E+00  0.00000000000E+00 -0.82316724347E+03  0.41248491616E+04  0.40418778180E+04 0.  0.
        2    1    3    3  502    0  0.10897835997E+04  0.84145994632E+03  0.10981462618E+04  0.17611383670E+04  0.25500000920E-02 0.  1.
       -2    1    3    3    0  502 -0.10897835997E+04 -0.84145994632E+03 -0.19213135052E+04  0.23637107947E+04  0.25500000920E-02 0. -1.
</event>
<event>
 5   0  0.4149487E-07  0.3192616E+04  0.7818609E-02  0.8190770E-01
       -2   -1    0    0    0  501  0.00000000000E+00  0.00000000000E+00  0.12421284215E+04  0.12421284215E+04  0.25500000920E-02 0. -1.
        2   -1    0    0  501    0  0.00000000000E+00  0.00000000000E+00 -0.20514775583E+04  0.20514775583E+04  0.25500000920E-02 0.  1.
    10030    2    1    2    0    0  0.00000000000E+00  0.00000000000E+00 -0.80934913672E+03  0.32936059798E+04  0.31926155931E+04 0.  0.
        2    1    3    3  502    0 -0.92497096578E+03 -0.11366820767E+04 -0.10576100457E+04  0.18072510727E+04  0.25500000920E-02 0.  1.
       -2    1    3    3    0  502  0.92497096578E+03  0.11366820767E+04  0.24826090897E+03  0.14863549071E+04  0.25500000920E-02 0. -1.
</event>
<event>
 5   0  0.4077370E-07  0.4240373E+04  0.7818609E-02  0.7957737E-01
       -2   -1    0    0    0  501  0.00000000000E+00  0.00000000000E+00  0.32279659051E+04  0.32279659051E+04  0.25500000920E-02 0. -1.
        2   -1    0    0  501    0  0.00000000000E+00  0.00000000000E+00 -0.13925771134E+04  0.13925771134E+04  0.25500000920E-02 0.  1.
    10030    2    1    2    0    0  0.00000000000E+00  0.00000000000E+00  0.18353887918E+04  0.46205430185E+04  0.42403733054E+04 0.  0.
        3    1    3    3  502    0  0.57346448893E+03  0.19469215991E+04  0.24968518336E+03  0.20449224763E+04  0.10100000352E+00 0.  1.
       -3    1    3    3    0  502 -0.57346448893E+03 -0.19469215991E+04  0.15857036084E+04  0.25756205421E+04  0.10100000352E+00 0. -1.
</event>
<event>
 5   0  0.4149487E-07  0.3974454E+04  0.7818609E-02  0.8009720E-01
       -2   -1    0    0    0  501  0.00000000000E+00  0.00000000000E+00  0.26138046666E+04  0.26138046667E+04  0.25500000920E-02 0.  1.
        2   -1    0    0  501    0  0.00000000000E+00  0.00000000000E+00 -0.15108513590E+04  0.15108513590E+04  0.25500000920E-02 0. -1.
    10030    2    1    2    0    0  0.00000000000E+00  0.00000000000E+00  0.11029533076E+04  0.41246560257E+04  0.39744535890E+04 0.  0.
        2    1    3    3  502    0  0.11258224271E+04 -0.13565001504E+04  0.15034784406E+04  0.23168979729E+04  0.25500000920E-02 0. -1.
       -2    1    3    3    0  502 -0.11258224271E+04  0.13565001504E+04 -0.40052513294E+03  0.18077580528E+04  0.25500000920E-02 0.  1.
</event>
<event>
 5   0  0.1351000E-07  0.3421934E+04  0.7818609E-02  0.8132544E-01
        1   -1    0    0  501    0  0.00000000000E+00  0.00000000000E+00  0.18015191288E+04  0.18015191288E+04  0.50400001928E-02 0. -1.
       -1   -1    0    0    0  501  0.00000000000E+00  0.00000000000E+00 -0.16249659786E+04  0.16249659787E+04  0.50400001928E-02 0.  1.
    10030    2    1    2    0    0  0.00000000000E+00  0.00000000000E+00  0.17655315013E+03  0.34264851074E+04  0.34219335436E+04 0.  0.
        3    1    3    3  502    0 -0.79622541736E+03 -0.11000544115E+04 -0.95393090764E+03  0.16595417471E+04  0.10100000352E+00 0.  1.
       -3    1    3    3    0  502  0.79622541736E+03  0.11000544115E+04  0.11304840578E+04  0.17669433604E+04  0.10100000352E+00 0. -1.
</event>
<event>
 5   0  0.1368865E-07  0.4052391E+04  0.7818609E-02  0.7994060E-01
       -1   -1    0    0    0  501  0.00000000000E+00  0.00000000000E+00  0.21240589056E+04  0.21240589056E+04  0.50400001928E-02 0. -1.
        1   -1    0    0  501    0  0.00000000000E+00  0.00000000000E+00 -0.19328406491E+04  0.19328406491E+04  0.50400001928E-02 0.  1.
    10030    2    1    2    0    0  0.00000000000E+00  0.00000000000E+00  0.19121825644E+03  0.40568995547E+04  0.40523906000E+04 0.  0.
        5    1    3    3  502    0  0.14608719350E+04 -0.13114817354E+04 -0.40626109338E+03  0.20047945827E+04  0.46999998093E+01 0. -1.
       -5    1    3    3    0  502 -0.14608719350E+04  0.13114817354E+04  0.59747934981E+03  0.20521049720E+04  0.46999998093E+01 0.  1.
</event>
<event>
 5   0  0.4077370E-07  0.4466859E+04  0.7818609E-02  0.7916465E-01
        2   -1    0    0  501    0  0.00000000000E+00  0.00000000000E+00  0.25244212132E+04  0.25244212132E+04  0.25500000920E-02 0.  1.
       -2   -1    0    0    0  501  0.00000000000E+00  0.00000000000E+00 -0.19759807913E+04  0.19759807913E+04  0.25500000920E-02 0. -1.
    10030    2    1    2    0    0  0.00000000000E+00  0.00000000000E+00  0.54844042189E+03  0.45004020044E+04  0.44668592216E+04 0.  0.
        3    1    3    3  502    0  0.20672755855E+04  0.73616203054E+03 -0.14440556374E+03  0.21991852716E+04  0.10100000352E+00 0.  1.
       -3    1    3    3    0  502 -0.20672755855E+04 -0.73616203054E+03  0.69284598563E+03  0.23012167329E+04  0.10100000352E+00 0. -1.
</event>
<event>
 5   0  0.1368865E-07  0.3723318E+04  0.7818609E-02  0.8062814E-01
       -1   -1    0    0    0  501  0.00000000000E+00  0.00000000000E+00  0.19053254001E+04  0.19053254001E+04  0.50400001928E-02 0.  1.
        1   -1    0    0  501    0  0.00000000000E+00  0.00000000000E+00 -0.18189932887E+04  0.18189932887E+04  0.50400001928E-02 0. -1.
    10030    2    1    2    0    0  0.00000000000E+00  0.00000000000E+00  0.86332111387E+02  0.37243186888E+04  0.37233179373E+04 0.  0.
        5    1    3    3  502    0 -0.14712752747E+04 -0.10614734071E+04 -0.37452886567E+03  0.18524769065E+04  0.46999998093E+01 0. -1.
       -5    1    3    3    0  502  0.14712752747E+04  0.10614734071E+04  0.46086097706E+03  0.18718417823E+04  0.46999998093E+01 0.  1.
</event>
<event>
 5   0  0.1421304E-07  0.4031253E+04  0.7818609E-02  0.7998271E-01
       -1   -1    0    0    0  501  0.00000000000E+00  0.00000000000E+00  0.14489050077E+04  0.14489050077E+04  0.50400001928E-02 0. -1.
        1   -1    0    0  501    0  0.00000000000E+00  0.00000000000E+00 -0.28040135486E+04  0.28040135486E+04  0.50400001928E-02 0.  1.
    10030    2    1    2    0    0  0.00000000000E+00  0.00000000000E+00 -0.13551085409E+04  0.42529185563E+04  0.40312525459E+04 0.  0.
        2    1    3    3  502    0  0.64853578189E+03  0.16691654976E+04  0.29854360362E+03  0.18154449598E+04  0.25500000920E-02 0. -1.
       -2    1    3    3    0  502 -0.64853578189E+03 -0.16691654976E+04 -0.16536521445E+04  0.24374735965E+04  0.25500000920E-02 0.  1.
</event>
<event>
 5   0  0.4047916E-07  0.3622495E+04  0.7818609E-02  0.8085358E-01
        2   -1    0    0  501    0  0.00000000000E+00  0.00000000000E+00  0.21422777521E+04  0.21422777521E+04  0.25500000920E-02 0. -1.
       -2   -1    0    0    0  501  0.00000000000E+00  0.00000000000E+00 -0.15313692877E+04  0.15313692877E+04  0.25500000920E-02 0.  1.
    10030    2    1    2    0    0  0.00000000000E+00  0.00000000000E+00  0.61090846438E+03  0.36736470398E+04  0.36224954688E+04 0.  0.
        5    1    3    3  502    0 -0.62361250934E+03 -0.11722713078E+04  0.15547106571E+04  0.20445683892E+04  0.46999998093E+01 0. -1.
       -5    1    3    3    0  502  0.62361250934E+03  0.11722713078E+04 -0.94380219273E+03  0.16290786506E+04  0.46999998093E+01 0.  1.
</event>
<event>
 5   0  0.1372952E-07  0.4020989E+04  0.7818609E-02  0.8000326E-01
        1   -1    0    0  501    0  0.00000000000E+00  0.00000000000E+00  0.16567218219E+04  0.16567218219E+04  0.50400001928E-02 0. -1.
       -1   -1    0    0    0  501  0.00000000000E+00  0.00000000000E+00 -0.24398108079E+04  0.24398108079E+04  0.50400001928E-02 0.  1.
    10030    2    1    2    0    0  0.00000000000E+00  0.00000000000E+00 -0.78308898600E+03  0.40965326298E+04  0.40209888369E+04 0.  0.
        1    1    3    3  502    0  0.99256741725E+03 -0.88590660181E+03 -0.19272011941E+04  0.23418208786E+04  0.50400001928E-02 0.  1.
       -1    1    3    3    0  502 -0.99256741725E+03  0.88590660181E+03  0.11441122081E+04  0.17547117512E+04  0.50400001928E-02 0. -1.
</event>
<event>
 5   0  0.4077370E-07  0.4042847E+04  0.7818609E-02  0.7995958E-01
       -2   -1    0    0    0  501  0.00000000000E+00  0.00000000000E+00  0.20780025850E+04  0.20780025850E+04  0.25500000920E-02 0. -1.
        2   -1    0    0  501    0  0.00000000000E+00  0.00000000000E+00 -0.19663845259E+04  0.19663845259E+04  0.25500000920E-02 0.  1.
    10030    2    1    2    0    0  0.00000000000E+00  0.00000000000E+00  0.11161805907E+03  0.40443871110E+04  0.40428465853E+04 0.  0.
        3    1    3    3  502    0  0.19502813345E+04  0.52936514709E+03  0.75477713743E+01  0.20208616286E+04  0.10100000352E+00 0.  1.
       -3    1    3    3    0  502 -0.19502813345E+04 -0.52936514709E+03  0.10407028769E+03  0.20235254824E+04  0.10100000352E+00 0. -1.
</event>
<event>
 5   0  0.4079777E-07  0.3627222E+04  0.7818609E-02  0.8084285E-01
       -2   -1    0    0    0  501  0.00000000000E+00  0.00000000000E+00  0.14949958306E+04  0.14949958306E+04  0.25500000920E-02 0. -1.
        2   -1    0    0  501    0  0.00000000000E+00  0.00000000000E+00 -0.22001295611E+04  0.22001295611E+04  0.25500000920E-02 0.  1.
    10030    2    1    2    0    0  0.00000000000E+00  0.00000000000E+00 -0.70513373049E+03  0.36951253917E+04  0.36272218132E+04 0.  0.
        4    1    3    3  502    0  0.86671758290E+03  0.16841967327E+03  0.12612673054E+04  0.15395977992E+04  0.12699999809E+01 0. -1.
       -4    1    3    3    0  502 -0.86671758290E+03 -0.16841967327E+03 -0.19664010359E+04  0.21555275924E+04  0.12699999809E+01 0.  1.
</event>
<event>
 5   0  0.4077370E-07  0.2482609E+04  0.7818609E-02  0.8409208E-01
       -2   -1    0    0    0  501  0.00000000000E+00  0.00000000000E+00  0.18214931648E+04  0.18214931648E+04  0.25500000920E-02 0.  1.
        2   -1    0    0  501    0  0.00000000000E+00  0.00000000000E+00 -0.84591941966E+03  0.84591941966E+03  0.25500000920E-02 0. -1.
    10030    2    1    2    0    0  0.00000000000E+00  0.00000000000E+00  0.97557374515E+03  0.26674125845E+04  0.24826086610E+04 0.  0.
        3    1    3    3  502    0  0.23132710147E+03  0.65601681295E+03 -0.61683202271E+03  0.92970535181E+03  0.10100000352E+00 0. -1.
       -3    1    3    3    0  502 -0.23132710147E+03 -0.65601681295E+03  0.15924057679E+04  0.17377072327E+04  0.10100000352E+00 0.  1.
</event>
<event>
 5   0  0.1351000E-07  0.3437786E+04  0.7818609E-02  0.8128694E-01
       -4   -1    0    0    0  501  0.00000000000E+00  0.00000000000E+00  0.20459674512E+04  0.20459678454E+04  0.12699999809E+01 0. -1.
        4   -1    0    0  501    0  0.00000000000E+00  0.00000000000E+00 -0.14441047358E+04  0.14441052942E+04  0.12699999809E+01 0.  1.
    10030    2    1    2    0    0  0.00000000000E+00  0.00000000000E+00  0.60186271543E+03  0.34900731396E+04  0.34377858851E+04 0.  0.
        1    1    3    3  502    0  0.13181034324E+04 -0.11000799084E+04  0.21586864180E+03  0.17303675141E+04  0.50400001928E-02 0.  1.
       -1    1    3    3    0  502 -0.13181034324E+04  0.11000799084E+04  0.38599407363E+03  0.17597056255E+04  0.50400001928E-02 0. -1.
</event>
<event>
 5   0  0.4079777E-07  0.3800282E+04  0.7818609E-02  0.8046094E-01
       -2   -1    0    0    0  501  0.00000000000E+00  0.00000000000E+00  0.24539288048E+04  0.24539288048E+04  0.25500000920E-02 0.  1.
        2   -1    0    0  501    0  0.00000000000E+00  0.00000000000E+00 -0.14713284168E+04  0.14713284168E+04  0.25500000920E-02 0. -1.
    10030    2    1    2    0    0  0.00000000000E+00  0.00000000000E+00  0.98260038800E+03  0.39252572216E+04  0.38002816649E+04 0.  0.
        4    1    3    3  502    0 -0.12306792414E+04  0.44860007691E+01  0.19866471480E+04  0.23369552891E+04  0.12699999809E+01 0.  1.
       -4    1    3    3    0  502  0.12306792414E+04 -0.44860007691E+01 -0.10040467600E+04  0.15883019325E+04  0.12699999809E+01 0. -1.
</event>
<event>
 5   0  0.1368865E-07  0.3738249E+04  0.7818609E-02  0.8059538E-01
        1   -1    0    0  501    0  0.00000000000E+00  0.00000000000E+00  0.15893883827E+04  0.15893883828E+04  0.50400001928E-02 0. -1.
       -1   -1    0    0    0  501  0.00000000000E+00  0.00000000000E+00 -0.21980943735E+04  0.21980943735E+04  0.50400001928E-02 0.  1.
    10030    2    1    2    0    0  0.00000000000E+00  0.00000000000E+00 -0.60870599075E+03  0.37874827563E+04  0.37382486067E+04 0.  0.
        5    1    3    3  502    0  0.98676387524E+03  0.13854430144E+04  0.48073852493E+03  0.17675652494E+04  0.46999998093E+01 0.  1.
       -5    1    3    3    0  502 -0.98676387524E+03 -0.13854430144E+04 -0.10894445157E+04  0.20199175068E+04  0.46999998093E+01 0. -1.
</event>
<event>
 5   0  0.4047916E-07  0.3910557E+04  0.7818609E-02  0.8022837E-01
       -2   -1    0    0    0  501  0.00000000000E+00  0.00000000000E+00  0.14577161597E+04  0.14577161597E+04  0.25500000920E-02 0.  1.
        2   -1    0    0  501    0  0.00000000000E+00  0.00000000000E+00 -0.26226741898E+04  0.26226741898E+04  0.25500000920E-02 0. -1.
    10030    2    1    2    0    0  0.00000000000E+00  0.00000000000E+00 -0.11649580301E+04  0.40803903496E+04  0.39105572739E+04 0.  0.
        5    1    3    3  502    0 -0.17238301490E+04  0.16414445175E+03  0.36500925764E+03  0.17696857438E+04  0.46999998093E+01 0.  1.
       -5    1    3    3    0  502  0.17238301490E+04 -0.16414445175E+03 -0.15299672878E+04  0.23107046058E+04  0.46999998093E+01 0. -1.
</event>
<event>
 5   0  0.1421304E-07  0.3934803E+04  0.7818609E-02  0.8017830E-01
       -1   -1    0    0    0  501  0.00000000000E+00  0.00000000000E+00  0.15164915510E+04  0.15164915510E+04  0.50400001928E-02 0.  1.
        1   -1    0    0  501    0  0.00000000000E+00  0.00000000000E+00 -0.25523838628E+04  0.25523838628E+04  0.50400001928E-02 0. -1.
    10030    2    1    2    0    0  0.00000000000E+00  0.00000000000E+00 -0.10358923118E+04  0.40688754138E+04  0.39348029495E+04 0.  0.
        2    1    3    3  502    0 -0.10214888931E+04  0.13489829850E+04 -0.15558767374E+04  0.22986837700E+04  0.25500000920E-02 0. -1.
       -2    1    3    3    0  502  0.10214888931E+04 -0.13489829850E+04  0.51998442557E+03  0.17701916437E+04  0.25500000920E-02 0.  1.
</event>
<event>
 5   0  0.1351000E-07  0.3842477E+04  0.7818609E-02  0.8037100E-01
        1   -1    0    0  501    0  0.00000000000E+00  0.00000000000E+00  0.30956169905E+04  0.30956169905E+04  0.50400001928E-02 0.  1.
       -1   -1    0    0    0  501  0.00000000000E+00  0.00000000000E+00 -0.11923818110E+04  0.11923818110E+04  0.50400001928E-02 0. -1.
    10030    2    1    2    0    0  0.00000000000E+00  0.00000000000E+00  0.19032351794E+04  0.42879988015E+04  0.38424770101E+04 0.  0.
        3    1    3    3  502    0 -0.82551680950E+03 -0.17113551835E+04  0.12691094043E+04  0.22849186544E+04  0.10100000352E+00 0.  1.
       -3    1    3    3    0  502  0.82551680950E+03  0.17113551835E+04  0.63412577515E+03  0.20030801471E+04  0.10100000352E+00 0. -1.
</event>
<event>
 5   0  0.1368865E-07  0.3633338E+04  0.7818609E-02  0.8082898E-01
       -1   -1    0    0    0  501  0.00000000000E+00  0.00000000000E+00  0.11890222311E+04  0.11890222311E+04  0.50400001928E-02 0.  1.
        1   -1    0    0  501    0  0.00000000000E+00  0.00000000000E+00 -0.27756307745E+04  0.27756307745E+04  0.50400001928E-02 0. -1.
    10030    2    1    2    0    0  0.00000000000E+00  0.00000000000E+00 -0.15866085434E+04  0.39646530056E+04  0.36333382426E+04 0.  0.
        5    1    3    3  502    0  0.13269517677E+04 -0.98900960256E+03 -0.16108386250E+04  0.23094943502E+04  0.46999998093E+01 0. -1.
       -5    1    3    3    0  502 -0.13269517677E+04  0.98900960256E+03  0.24230081557E+02  0.16551586554E+04  0.46999998093E+01 0.  1.
</event>
<event>
 5   0  0.4047916E-07  0.3966293E+04  0.7818609E-02  0.8011381E-01
        2   -1    0    0  501    0  0.00000000000E+00  0.00000000000E+00  0.17842685374E+04  0.17842685374E+04  0.25500000920E-02 0.  1.
       -2   -1    0    0    0  501  0.00000000000E+00  0.00000000000E+00 -0.22041917010E+04  0.22041917010E+04  0.25500000920E-02 0. -1.
    10030    2    1    2    0    0  0.00000000000E+00  0.00000000000E+00 -0.41992316363E+03  0.39884602385E+04  0.39662929305E+04 0.  0.
        5    1    3    3  502    0 -0.28463039919E+03 -0.67735188875E+02  0.17624403511E+04  0.17865667078E+04  0.46999998093E+01 0.  1.
       -5    1    3    3    0  502  0.28463039919E+03  0.67735188875E+02 -0.21823635148E+04  0.22018935307E+04  0.46999998093E+01 0. -1.
</event>
<event>
 5   0  0.1372952E-07  0.3913490E+04  0.7818609E-02  0.8022229E-01
       -1   -1    0    0    0  501  0.00000000000E+00  0.00000000000E+00  0.13837909404E+04  0.13837909404E+04  0.50400001928E-02 0. -1.
        1   -1    0    0  501    0  0.00000000000E+00  0.00000000000E+00 -0.27669286436E+04  0.27669286436E+04  0.50400001928E-02 0.  1.
    10030    2    1    2    0    0  0.00000000000E+00  0.00000000000E+00 -0.13831377032E+04  0.41507195840E+04  0.39134898951E+04 0.  0.
        1    1    3    3  502    0  0.18500438138E+04 -0.63355370926E+03 -0.61809949475E+03  0.20508777147E+04  0.50400001928E-02 0. -1.
       -1    1    3    3    0  502 -0.18500438138E+04  0.63355370926E+03 -0.76503820842E+03  0.20998418692E+04  0.50400001928E-02 0.  1.
</event>
<event>
 5   0  0.1368865E-07  0.3318891E+04  0.7818609E-02  0.8158105E-01
        1   -1    0    0  501    0  0.00000000000E+00  0.00000000000E+00  0.25618628798E+04  0.25618628798E+04  0.50400001928E-02 0.  1.
       -1   -1    0    0    0  501  0.00000000000E+00  0.00000000000E+00 -0.10749050379E+04  0.10749050379E+04  0.50400001928E-02 0. -1.
    10030    2    1    2    0    0  0.00000000000E+00  0.00000000000E+00  0.14869578419E+04  0.36367679178E+04  0.33188909690E+04 0.  0.
        5    1    3    3  502    0 -0.11166329981E+04  0.14137377823E+03 -0.59268816772E+03  0.12720680610E+04  0.46999998093E+01 0. -1.
       -5    1    3    3    0  502  0.11166329981E+04 -0.14137377823E+03  0.20796460096E+04  0.23646998568E+04  0.46999998093E+01 0.  1.
</event>
<event>
 5   0  0.1351000E-07  0.2740372E+04  0.7818609E-02  0.8322023E-01
        1   -1    0    0  501    0  0.00000000000E+00  0.00000000000E+00  0.23423184107E+04  0.23423184107E+04  0.50400001928E-02 0. -1.
       -1   -1    0    0    0  501  0.00000000000E+00  0.00000000000E+00 -0.80151780536E+03  0.80151780538E+03  0.50400001928E-02 0.  1.
    10030    2    1    2    0    0  0.00000000000E+00  0.00000000000E+00  0.15408006053E+04  0.31438362161E+04  0.27403721733E+04 0.  0.
        4    1    3    3  502    0  0.99800440057E+03  0.28731746282E+03 -0.25497158058E+03  0.10693812359E+04  0.12699999809E+01 0.  1.
       -4    1    3    3    0  502 -0.99800440057E+03 -0.28731746282E+03  0.17957721859E+04  0.20744549801E+04  0.12699999809E+01 0. -1.
</event>
<event>
 5   0  0.1421304E-07  0.3974997E+04  0.7818609E-02  0.8009610E-01
        1   -1    0    0  501    0  0.00000000000E+00  0.00000000000E+00  0.18617231269E+04  0.18617231269E+04  0.50400001928E-02 0. -1.
       -1   -1    0    0    0  501  0.00000000000E+00  0.00000000000E+00 -0.21217706222E+04  0.21217706222E+04  0.50400001928E-02 0.  1.
    10030    2    1    2    0    0  0.00000000000E+00  0.00000000000E+00 -0.26004749523E+03  0.39834937491E+04  0.39749965723E+04 0.  0.
        2    1    3    3  502    0  0.17606765051E+04 -0.49678094552E+03 -0.90845727315E+03  0.20425639967E+04  0.25500000920E-02 0.  1.
       -2    1    3    3    0  502 -0.17606765051E+04  0.49678094552E+03  0.64840977792E+03  0.19409297524E+04  0.25500000920E-02 0. -1.
</event>
<event>
 5   0  0.4149487E-07  0.4066698E+04  0.7818609E-02  0.7991225E-01
        2   -1    0    0  501    0  0.00000000000E+00  0.00000000000E+00  0.19943343682E+04  0.19943343682E+04  0.25500000920E-02 0. -1.
       -2   -1    0    0    0  501  0.00000000000E+00  0.00000000000E+00 -0.20731273001E+04  0.20731273001E+04  0.25500000920E-02 0.  1.
    10030    2    1    2    0    0  0.00000000000E+00  0.00000000000E+00 -0.78792931903E+02  0.40674616683E+04  0.40666984271E+04 0.  0.
        2    1    3    3  502    0  0.13421924526E+04  0.43259227177E+03 -0.15045578673E+04  0.20621132436E+04  0.25500000920E-02 0.  1.
       -2    1    3    3    0  502 -0.13421924526E+04 -0.43259227177E+03  0.14257649354E+04  0.20053484247E+04  0.25500000920E-02 0. -1.
</event>
<event>
 5   0  0.4077370E-07  0.4104516E+04  0.7818609E-02  0.7983788E-01
       -2   -1    0    0    0  501  0.00000000000E+00  0.00000000000E+00  0.31880647831E+04  0.31880647831E+04  0.25500000920E-02 0. -1.
        2   -1    0    0  501    0  0.00000000000E+00  0.00000000000E+00 -0.13211035823E+04  0.13211035823E+04  0.25500000920E-02 0.  1.
    10030    2    1    2    0    0  0.00000000000E+00  0.00000000000E+00  0.18669612008E+04  0.45091683654E+04  0.41045164419E+04 0.  0.
        3    1    3    3  502    0 -0.14454476579E+04  0.98413347407E+03 -0.24663204216E+03  0.17659742356E+04  0.10100000352E+00 0.  1.
       -3    1    3    3    0  502  0.14454476579E+04 -0.98413347407E+03  0.21135932429E+04  0.27431941297E+04  0.10100000352E+00 0. -1.
</event>
<event>
 5   0  0.4079777E-07  0.2863759E+04  0.7818609E-02  0.8283742E-01
       -2   -1    0    0    0  501  0.00000000000E+00  0.00000000000E+00  0.78460713488E+03  0.78460713488E+03  0.25500000920E-02 0.  1.
        2   -1    0    0  501    0  0.00000000000E+00  0.00000000000E+00 -0.26131288641E+04  0.26131288641E+04  0.25500000920E-02 0. -1.
    10030    2    1    2    0    0  0.00000000000E+00  0.00000000000E+00 -0.18285217292E+04  0.33977359990E+04  0.28637594530E+04 0.  0.
        4    1    3    3  502    0  0.26707310254E+03  0.13198876731E+04 -0.33684792238E+03  0.13881281092E+04  0.12699999809E+01 0.  1.
       -4    1    3    3    0  502 -0.26707310254E+03 -0.13198876731E+04 -0.14916738069E+04  0.20096078898E+04  0.12699999809E+01 0. -1.
</event>
<event>
 5   0  0.1368865E-07  0.3893494E+04  0.7818609E-02  0.8026384E-01
        1   -1    0    0  501    0  0.00000000000E+00  0.00000000000E+00  0.13834916159E+04  0.13834916160E+04  0.50400001928E-02 0.  1.
       -1   -1    0    0    0  501  0.00000000000E+00  0.00000000000E+00 -0.27393179714E+04  0.27393179714E+04  0.50400001928E-02 0. -1.
    10030    2    1    2    0    0  0.00000000000E+00  0.00000000000E+00 -0.13558263555E+04  0.41228095874E+04  0.38934937765E+04 0.  0.
        5    1    3    3  502    0 -0.15816039412E+04 -0.23379050955E+03  0.49821242501E+03  0.16746243577E+04  0.46999998093E+01 0.  1.
       -5    1    3    3    0  502  0.15816039412E+04  0.23379050955E+03 -0.18540387805E+04  0.24481852297E+04  0.46999998093E+01 0. -1.
</event>
<event>
 5   0  0.4301754E-07  0.3961765E+04  0.7818609E-02  0.8012304E-01
       -2   -1    0    0    0  501  0.00000000000E+00  0.00000000000E+00  0.28249799287E+04  0.28249799287E+04  0.25500000920E-02 0.  1.
        2   -1    0    0  501    0  0.00000000000E+00  0.00000000000E+00 -0.13889996610E+04  0.13889996611E+04  0.25500000920E-02 0. -1.
    10030    2    1    2    0    0  0.00000000000E+00  0.00000000000E+00  0.14359802676E+04  0.42139795897E+04  0.39617653456E+04 0.  0.
        1    1    3    3  502    0  0.15594098543E+04 -0.97611847219E+03  0.14991337480E+04  0.23731768497E+04  0.50400001928E-02 0.  1.
       -1    1    3    3    0  502 -0.15594098543E+04  0.97611847219E+03 -0.63153480397E+02  0.18408027400E+04  0.50400001928E-02 0. -1.
</event>
<event>
 5   0  0.4047916E-07  0.3995160E+04  0.7818609E-02  0.8005524E-01
        2   -1    0    0  501    0  0.00000000000E+00  0.00000000000E+00  0.27910897534E+04  0.27910897534E+04  0.25500000920E-02 0. -1.
       -2   -1    0    0    0  501  0.00000000000E+00  0.00000000000E+00 -0.14296656922E+04  0.14296656922E+04  0.25500000920E-02 0.  1.
    10030    2    1    2    0    0  0.00000000000E+00  0.00000000000E+00  0.13614240612E+04  0.42207554456E+04  0.39951597036E+04 0.  0.
        5    1    3    3  502    0 -0.48809240315E+03 -0.80326718822E+03  0.25428628230E+04  0.27110230165E+04  0.46999998093E+01 0. -1.
       -5    1    3    3    0  502  0.48809240315E+03  0.80326718822E+03 -0.11814387617E+04  0.15097324291E+04  0.46999998093E+01 0.  1.
</event>
<event>
 5   0  0.1351000E-07  0.4001694E+04  0.7818609E-02  0.8004205E-01
       -1   -1    0    0    0  501  0.00000000000E+00  0.00000000000E+00  0.13584696708E+04  0.13584696708E+04  0.50400001928E-02 0. -1.
        1   -1    0    0  501    0  0.00000000000E+00  0.00000000000E+00 -0.29469844699E+04  0.29469844699E+04  0.50400001928E-02 0.  1.
    10030    2    1    2    0    0  0.00000000000E+00  0.00000000000E+00 -0.15885147991E+04  0.43054541407E+04  0.40016941526E+04 0.  0.
        4    1    3    3  502    0  0.82221753835E+03  0.17524581048E+04 -0.13388796991E+04  0.23536676807E+04  0.12699999809E+01 0.  1.
       -4    1    3    3    0  502 -0.82221753835E+03 -0.17524581048E+04 -0.24963510000E+03  0.19517864600E+04  0.12699999809E+01 0. -1.
</event>
<event>
 5   0  0.1421304E-07  0.3775315E+04  0.7818609E-02  0.8051473E-01
        1   -1    0    0  501    0  0.00000000000E+00  0.00000000000E+00  0.16024917425E+04  0.16024917425E+04  0.50400001928E-02 0. -1.
       -1   -1    0    0    0  501  0.00000000000E+00  0.00000000000E+00 -0.22235691006E+04  0.22235691006E+04  0.50400001928E-02 0.  1.
    10030    2    1    2    0    0  0.00000000000E+00  0.00000000000E+00 -0.62107735806E+03  0.38260608431E+04  0.37753151512E+04 0.  0.
        2    1    3    3  502    0  0.17373946477E+04 -0.99067726501E+02  0.43065815908E+03  0.17927133140E+04  0.25500000920E-02 0. -1.
       -2    1    3    3    0  502 -0.17373946477E+04  0.99067726501E+02 -0.10517355171E+04  0.20333475291E+04  0.25500000920E-02 0.  1.
</event>
<event>
 5   0  0.1421304E-07  0.4021794E+04  0.7818609E-02  0.8000164E-01
        1   -1    0    0  501    0  0.00000000000E+00  0.00000000000E+00  0.15864523938E+04  0.15864523938E+04  0.50400001928E-02 0. -1.
       -1   -1    0    0    0  501  0.00000000000E+00  0.00000000000E+00 -0.25488984973E+04  0.25488984973E+04  0.50400001928E-02 0.  1.
    10030    2    1    2    0    0  0.00000000000E+00  0.00000000000E+00 -0.96244610351E+03  0.41353508911E+04  0.40217936907E+04 0.  0.
        2    1    3    3  502    0  0.10326301483E+04 -0.56567845859E+03  0.11949549725E+04  0.16775680397E+04  0.25500000920E-02 0. -1.
       -2    1    3    3    0  502 -0.10326301483E+04  0.56567845859E+03 -0.21574010760E+04  0.24577828514E+04  0.25500000920E-02 0.  1.
</event>
<event>
 5   0  0.1368865E-07  0.3963540E+04  0.7818609E-02  0.8011942E-01
       -1   -1    0    0    0  501  0.00000000000E+00  0.00000000000E+00  0.14831895534E+04  0.14831895534E+04  0.50400001928E-02 0.  1.
        1   -1    0    0  501    0  0.00000000000E+00  0.00000000000E+00 -0.26479502345E+04  0.26479502345E+04  0.50400001928E-02 0. -1.
    10030    2    1    2    0    0  0.00000000000E+00  0.00000000000E+00 -0.11647606811E+04  0.41311397879E+04  0.39635398954E+04 0.  0.
        5    1    3    3  502    0 -0.14108103668E+04 -0.12866236876E+04 -0.29277636349E+02  0.19096244853E+04  0.46999998093E+01 0.  1.
       -5    1    3    3    0  502  0.14108103668E+04  0.12866236876E+04 -0.11354830448E+04  0.22215153026E+04  0.46999998093E+01 0. -1.
</event>
<event>
 5   0  0.1421304E-07  0.4611802E+04  0.7818609E-02  0.7891351E-01
        1   -1    0    0  501    0  0.00000000000E+00  0.00000000000E+00  0.16622839878E+04  0.16622839878E+04  0.50400001928E-02 0. -1.
       -1   -1    0    0    0  501  0.00000000000E+00  0.00000000000E+00 -0.31987186911E+04  0.31987186911E+04  0.50400001928E-02 0.  1.
    10030    2    1    2    0    0  0.00000000000E+00  0.00000000000E+00 -0.15364347033E+04  0.48610026789E+04  0.46118017571E+04 0.  0.
        2    1    3    3  502    0  0.41413661104E+03  0.47794080833E+03  0.15690911298E+04  0.16917397916E+04  0.25500000920E-02 0. -1.
       -2    1    3    3    0  502 -0.41413661104E+03 -0.47794080833E+03 -0.31055258331E+04  0.31692628873E+04  0.25500000920E-02 0.  1.
</event>
<event>
 5   0  0.4149487E-07  0.3990823E+04  0.7818609E-02  0.8006400E-01
        2   -1    0    0  501    0  0.00000000000E+00  0.00000000000E+00  0.27714716588E+04  0.27714716588E+04  0.25500000920E-02 0. -1.
       -2   -1    0    0    0  501  0.00000000000E+00  0.00000000000E+00 -0.14366619350E+04  0.14366619350E+04  0.25500000920E-02 0.  1.
    10030    2    1    2    0    0  0.00000000000E+00  0.00000000000E+00  0.13348097237E+04  0.42081335938E+04  0.39908233918E+04 0.  0.
        2    1    3    3  502    0  0.45773764101E+03  0.44742505206E+02  0.27148198342E+04  0.27535018380E+04  0.25500000920E-02 0. -1.
       -2    1    3    3    0  502 -0.45773764101E+03 -0.44742505206E+02 -0.13800101105E+04  0.14546317558E+04  0.25500000920E-02 0.  1.
</event>
<event>
 5   0  0.4149487E-07  0.3997613E+04  0.7818609E-02  0.8005028E-01
       -2   -1    0    0    0  501  0.00000000000E+00  0.00000000000E+00  0.16634928469E+04  0.16634928469E+04  0.25500000920E-02 0.  1.
        2   -1    0    0  501    0  0.00000000000E+00  0.00000000000E+00 -0.24017095455E+04  0.24017095455E+04  0.25500000920E-02 0. -1.
    10030    2    1    2    0    0  0.00000000000E+00  0.00000000000E+00 -0.73821669862E+03  0.40652023925E+04  0.39976126122E+04 0.  0.
        2    1    3    3  502    0 -0.58172722730E+03 -0.62630038608E+03 -0.22064686119E+04  0.23662549473E+04  0.25500000920E-02 0. -1.
       -2    1    3    3    0  502  0.58172722730E+03  0.62630038608E+03  0.14682519132E+04  0.16989474451E+04  0.25500000920E-02 0.  1.
</event>
<event>
 5   0  0.4077370E-07  0.3982509E+04  0.7818609E-02  0.8008084E-01
       -2   -1    0    0    0  501  0.00000000000E+00  0.00000000000E+00  0.13478553910E+04  0.13478553910E+04  0.25500000920E-02 0. -1.
        2   -1    0    0  501    0  0.00000000000E+00  0.00000000000E+00 -0.29417805654E+04  0.29417805654E+04  0.25500000920E-02 0.  1.
    10030    2    1    2    0    0  0.00000000000E+00  0.00000000000E+00 -0.15939251744E+04  0.42896359564E+04  0.39825091559E+04 0.  0.
        3    1    3    3  502    0 -0.98400289195E+03  0.67981821016E+03 -0.25118090747E+04  0.27820135385E+04  0.10100000352E+00 0.  1.
       -3    1    3    3    0  502  0.98400289195E+03 -0.67981821016E+03  0.91788390037E+03  0.15076224179E+04  0.10100000352E+00 0. -1.
</event>
<event>
 5   0  0.1372952E-07  0.3975333E+04  0.7818609E-02  0.8009541E-01
        1   -1    0    0  501    0  0.00000000000E+00  0.00000000000E+00  0.24195678723E+04  0.24195678723E+04  0.50400001928E-02 0. -1.
       -1   -1    0    0    0  501  0.00000000000E+00  0.00000000000E+00 -0.16328613327E+04  0.16328613327E+04  0.50400001928E-02 0.  1.
    10030    2    1    2    0    0  0.00000000000E+00  0.00000000000E+00  0.78670653960E+03  0.40524292049E+04  0.39753333548E+04 0.  0.
        1    1    3    3  502    0 -0.46324063732E+03  0.96872980436E+01 -0.15770406244E+04  0.16436979233E+04  0.50400001928E-02 0.  1.
       -1    1    3    3    0  502  0.46324063732E+03 -0.96872980436E+01  0.23637471640E+04  0.24087312817E+04  0.50400001928E-02 0. -1.
</event>
<event>
 5   0  0.1421304E-07  0.4117527E+04  0.7818609E-02  0.7981248E-01
        1   -1    0    0  501    0  0.00000000000E+00  0.00000000000E+00  0.17680852876E+04  0.17680852876E+04  0.50400001928E-02 0.  1.
       -1   -1    0    0    0  501  0.00000000000E+00  0.00000000000E+00 -0.23972302628E+04  0.23972302629E+04  0.50400001928E-02 0. -1.
    10030    2    1    2    0    0  0.00000000000E+00  0.00000000000E+00 -0.62914497523E+03  0.41653155505E+04  0.41175271991E+04 0.  0.
        2    1    3    3  502    0  0.13196692316E+04 -0.15767111018E+04 -0.20865400062E+03  0.20666594474E+04  0.25500000920E-02 0.  1.
       -2    1    3    3    0  502 -0.13196692316E+04  0.15767111018E+04 -0.42049097461E+03  0.20986561031E+04  0.25500000920E-02 0. -1.
</event>
<event>
 5   0  0.1421304E-07  0.2487962E+04  0.7818609E-02  0.8407287E-01
       -1   -1    0    0    0  501  0.00000000000E+00  0.00000000000E+00  0.14221953689E+04  0.14221953689E+04  0.50400001928E-02 0.  1.
        1   -1    0    0  501    0  0.00000000000E+00  0.00000000000E+00 -0.10880984978E+04  0.10880984978E+04  0.50400001928E-02 0. -1.
    10030    2    1    2    0    0  0.00000000000E+00  0.00000000000E+00  0.33409687111E+03  0.25102938667E+04  0.24879619325E+04 0.  0.
        2    1    3    3  502    0  0.70525066814E+03  0.67401370046E+03 -0.61177102502E+03  0.11514932741E+04  0.25500000920E-02 0. -1.
       -2    1    3    3    0  502 -0.70525066814E+03 -0.67401370046E+03  0.94586789614E+03  0.13588005925E+04  0.25500000920E-02 0.  1.
</event>
<event>
 5   0  0.4077370E-07  0.2475586E+04  0.7818609E-02  0.8411735E-01
        2   -1    0    0  501    0  0.00000000000E+00  0.00000000000E+00  0.15241868977E+04  0.15241868977E+04  0.25500000920E-02 0.  1.
       -2   -1    0    0    0  501  0.00000000000E+00  0.00000000000E+00 -0.10052121133E+04  0.10052121133E+04  0.25500000920E-02 0. -1.
    10030    2    1    2    0    0  0.00000000000E+00  0.00000000000E+00  0.51897478437E+03  0.25293990110E+04  0.24755856944E+04 0.  0.
        3    1    3    3  502    0 -0.17978275718E+03 -0.10219419669E+04  0.94902320036E+03  0.14061764713E+04  0.10100000352E+00 0.  1.
       -3    1    3    3    0  502  0.17978275718E+03  0.10219419669E+04 -0.43004841599E+03  0.11232225397E+04  0.10100000352E+00 0. -1.
</event>
<event>
 5   0  0.4149487E-07  0.3689003E+04  0.7818609E-02  0.8070403E-01
        2   -1    0    0  501    0  0.00000000000E+00  0.00000000000E+00  0.13308796397E+04  0.13308796397E+04  0.25500000920E-02 0. -1.
       -2   -1    0    0    0  501  0.00000000000E+00  0.00000000000E+00 -0.25563439968E+04  0.25563439968E+04  0.25500000920E-02 0.  1.
    10030    2    1    2    0    0  0.00000000000E+00  0.00000000000E+00 -0.12254643571E+04  0.38872236366E+04  0.36890032136E+04 0.  0.
        2    1    3    3  502    0  0.31323981179E+03 -0.13868786466E+04 -0.18508725154E+04  0.23339410079E+04  0.25500000920E-02 0.  1.
       -2    1    3    3    0  502 -0.31323981179E+03  0.13868786466E+04  0.62540815827E+03  0.15532826287E+04  0.25500000920E-02 0. -1.
</event>
<event>
 5   0  0.4149487E-07  0.3890034E+04  0.7818609E-02  0.8027105E-01
       -2   -1    0    0    0  501  0.00000000000E+00  0.00000000000E+00  0.16842799292E+04  0.16842799292E+04  0.25500000920E-02 0. -1.
        2   -1    0    0  501    0  0.00000000000E+00  0.00000000000E+00 -0.22461172995E+04  0.22461172995E+04  0.25500000920E-02 0.  1.
    10030    2    1    2    0    0  0.00000000000E+00  0.00000000000E+00 -0.56183737028E+03  0.39303972287E+04  0.38900335660E+04 0.  0.
        2    1    3    3  502    0  0.55318954991E+03 -0.12458773639E+04 -0.16827081948E+04  0.21655798191E+04  0.25500000920E-02 0.  1.
       -2    1    3    3    0  502 -0.55318954991E+03  0.12458773639E+04  0.11208708245E+04  0.17648174096E+04  0.25500000920E-02 0. -1.
</event>
<event>
 5   0  0.1351000E-07  0.4037103E+04  0.7818609E-02  0.7997103E-01
       -1   -1    0    0    0  501  0.00000000000E+00  0.00000000000E+00  0.26326967097E+04  0.26326967097E+04  0.50400001928E-02 0. -1.
        1   -1    0    0  501    0  0.00000000000E+00  0.00000000000E+00 -0.15476713274E+04  0.15476713274E+04  0.50400001928E-02 0.  1.
    10030    2    1    2    0    0  0.00000000000E+00  0.00000000000E+00  0.10850253823E+04  0.41803680371E+04  0.40371025310E+04 0.  0.
        4    1    3    3  502    0 -0.12455260072E+04  0.71012156280E+03  0.20138303174E+04  0.24720683301E+04  0.12699999809E+01 0.  1.
       -4    1    3    3    0  502  0.12455260072E+04 -0.71012156280E+03 -0.92880493510E+03  0.17082997070E+04  0.12699999809E+01 0. -1.
</event>
<event>
 5   0  0.1351000E-07  0.3991188E+04  0.7818609E-02  0.8006326E-01
        3   -1    0    0  501    0  0.00000000000E+00  0.00000000000E+00  0.17835868863E+04  0.17835868892E+04  0.10100000352E+00 0. -1.
       -3   -1    0    0    0  501  0.00000000000E+00  0.00000000000E+00 -0.22328018679E+04  0.22328018702E+04  0.10100000352E+00 0.  1.
    10030    2    1    2    0    0  0.00000000000E+00  0.00000000000E+00 -0.44921498154E+03  0.40163887594E+04  0.39911883652E+04 0.  0.
        1    1    3    3  502    0 -0.35331413769E+02  0.19710593800E+04  0.87305625049E+02  0.19733083034E+04  0.50400001928E-02 0. -1.
       -1    1    3    3    0  502  0.35331413769E+02 -0.19710593800E+04 -0.53652060659E+03  0.20430804560E+04  0.50400001928E-02 0.  1.
</event>
<event>
 5   0  0.4301754E-07  0.4002827E+04  0.7818609E-02  0.8003977E-01
        2   -1    0    0  501    0  0.00000000000E+00  0.00000000000E+00  0.18401095112E+04  0.18401095112E+04  0.25500000920E-02 0.  1.
       -2   -1    0    0    0  501  0.00000000000E+00  0.00000000000E+00 -0.21768572604E+04  0.21768572604E+04  0.25500000920E-02 0. -1.
    10030    2    1    2    0    0  0.00000000000E+00  0.00000000000E+00 -0.33674774921E+03  0.40169667716E+04  0.40028268758E+04 0.  0.
        1    1    3    3  502    0  0.31731278731E+03 -0.37740093708E+03 -0.21149518928E+04  0.21716676498E+04  0.50400001928E-02 0. -1.
       -1    1    3    3    0  502 -0.31731278731E+03  0.37740093708E+03  0.17782041436E+04  0.18452991218E+04  0.50400001928E-02 0.  1.
</event>
<event>
 5   0  0.4077370E-07  0.3016316E+04  0.7818609E-02  0.8239087E-01
        2   -1    0    0  501    0  0.00000000000E+00  0.00000000000E+00  0.16246371124E+04  0.16246371124E+04  0.25500000920E-02 0. -1.
       -2   -1    0    0    0  501  0.00000000000E+00  0.00000000000E+00 -0.14000297274E+04  0.14000297274E+04  0.25500000920E-02 0.  1.
    10030    2    1    2    0    0  0.00000000000E+00  0.00000000000E+00  0.22460738500E+03  0.30246668398E+04  0.30163158015E+04 0.  0.
        3    1    3    3  502    0  0.15814767793E+03  0.86514850829E+03  0.13408682154E+04  0.16035648445E+04  0.10100000352E+00 0. -1.
       -3    1    3    3    0  502 -0.15814767793E+03 -0.86514850829E+03 -0.11162608304E+04  0.14211019953E+04  0.10100000352E+00 0.  1.
</event>
<event>
 5   0  0.4047916E-07  0.4015767E+04  0.7818609E-02  0.8001373E-01
        2   -1    0    0  501    0  0.00000000000E+00  0.00000000000E+00  0.16965889535E+04  0.16965889535E+04  0.25500000920E-02 0.  1.
       -2   -1    0    0    0  501  0.00000000000E+00  0.00000000000E+00 -0.23762950674E+04  0.23762950674E+04  0.25500000920E-02 0. -1.
    10030    2    1    2    0    0  0.00000000000E+00  0.00000000000E+00 -0.67970611387E+03  0.40728840209E+04  0.40157669064E+04 0.  0.
        5    1    3    3  502    0  0.51666010254E+03  0.52721991241E+03  0.15539695832E+04  0.17203900875E+04  0.46999998093E+01 0.  1.
       -5    1    3    3    0  502 -0.51666010254E+03 -0.52721991241E+03 -0.22336756970E+04  0.23524939335E+04  0.46999998093E+01 0. -1.
</event>
<event>
 5   0  0.4077370E-07  0.4034427E+04  0.7818609E-02  0.7997637E-01
       -2   -1    0    0    0  501  0.00000000000E+00  0.00000000000E+00  0.20934577222E+04  0.20934577222E+04  0.25500000920E-02 0. -1.
        2   -1    0    0  501    0  0.00000000000E+00  0.00000000000E+00 -0.19437462631E+04  0.19437462631E+04  0.25500000920E-02 0.  1.
    10030    2    1    2    0    0  0.00000000000E+00  0.00000000000E+00  0.14971145907E+03  0.40372039853E+04  0.40344271586E+04 0.  0.
        3    1    3    3  502    0 -0.87554399464E+03 -0.16512434451E+04  0.83430391342E+03  0.20467645765E+04  0.10100000352E+00 0. -1.
       -3    1    3    3    0  502  0.87554399464E+03  0.16512434451E+04 -0.68459245435E+03  0.19904394088E+04  0.10100000352E+00 0.  1.
</event>
<event>
 5   0  0.4149487E-07  0.4106844E+04  0.7818609E-02  0.7983333E-01
       -2   -1    0    0    0  501  0.00000000000E+00  0.00000000000E+00  0.25265300954E+04  0.25265300954E+04  0.25500000920E-02 0.  1.
        2   -1    0    0  501    0  0.00000000000E+00  0.00000000000E+00 -0.16689064809E+04  0.16689064809E+04  0.25500000920E-02 0. -1.
    10030    2    1    2    0    0  0.00000000000E+00  0.00000000000E+00  0.85762361449E+03  0.41954365763E+04  0.41068442631E+04 0.  0.
        2    1    3    3  502    0 -0.44829592415E+02 -0.20154656718E+04  0.82765796243E+03  0.21792497033E+04  0.25500000920E-02 0. -1.
       -2    1    3    3    0  502  0.44829592415E+02  0.20154656718E+04  0.29965652055E+02  0.20161868730E+04  0.25500000920E-02 0.  1.
</event>
<event>
 5   0  0.4077370E-07  0.4017662E+04  0.7818609E-02  0.8000993E-01
       -2   -1    0    0    0  501  0.00000000000E+00  0.00000000000E+00  0.17672722718E+04  0.17672722718E+04  0.25500000920E-02 0.  1.
        2   -1    0    0  501    0  0.00000000000E+00  0.00000000000E+00 -0.22834073609E+04  0.22834073609E+04  0.25500000920E-02 0. -1.
    10030    2    1    2    0    0  0.00000000000E+00  0.00000000000E+00 -0.51613508906E+03  0.40506796327E+04  0.40176622627E+04 0.  0.
        3    1    3    3  502    0 -0.38219717545E+03 -0.11205424013E+04  0.13781410032E+04  0.18168551370E+04  0.10100000352E+00 0.  1.
       -3    1    3    3    0  502  0.38219717545E+03  0.11205424013E+04 -0.18942760922E+04  0.22338244957E+04  0.10100000352E+00 0. -1.
</event>
<event>
 5   0  0.1368865E-07  0.4017002E+04  0.7818609E-02  0.8001126E-01
       -1   -1    0    0    0  501  0.00000000000E+00  0.00000000000E+00  0.15302817765E+04  0.15302817765E+04  0.50400001928E-02 0. -1.
        1   -1    0    0  501    0  0.00000000000E+00  0.00000000000E+00 -0.26361651854E+04  0.26361651854E+04  0.50400001928E-02 0.  1.
    10030    2    1    2    0    0  0.00000000000E+00  0.00000000000E+00 -0.11058834089E+04  0.41664469620E+04  0.40170016396E+04 0.  0.
        5    1    3    3  502    0 -0.10177349963E+04  0.11723931117E+04  0.76873493011E+03  0.17324161203E+04  0.46999998093E+01 0. -1.
       -5    1    3    3    0  502  0.10177349963E+04 -0.11723931117E+04 -0.18746183391E+04  0.24340308417E+04  0.46999998093E+01 0.  1.
</event>
<event>
 5   0  0.1368865E-07  0.3367183E+04  0.7818609E-02  0.8146008E-01
        1   -1    0    0  501    0  0.00000000000E+00  0.00000000000E+00  0.23017187624E+04  0.23017187624E+04  0.50400001928E-02 0.  1.
       -1   -1    0    0    0  501  0.00000000000E+00  0.00000000000E+00 -0.12314625957E+04  0.12314625957E+04  0.50400001928E-02 0. -1.
    10030    2    1    2    0    0  0.00000000000E+00  0.00000000000E+00  0.10702561667E+04  0.35331813581E+04  0.33671831324E+04 0.  0.
        5    1    3    3  502    0 -0.23847105425E+03 -0.39804069517E+03  0.22332922796E+04  0.22809913053E+04  0.46999998093E+01 0.  1.
       -5    1    3    3    0  502  0.23847105425E+03  0.39804069517E+03 -0.11630361128E+04  0.12521900529E+04  0.46999998093E+01 0. -1.
</event>
<event>
 5   0  0.4301754E-07  0.3953065E+04  0.7818609E-02  0.8014082E-01
        2   -1    0    0  501    0  0.00000000000E+00  0.00000000000E+00  0.12730803640E+04  0.12730803640E+04  0.25500000920E-02 0. -1.
       -2   -1    0    0    0  501  0.00000000000E+00  0.00000000000E+00 -0.30686831312E+04  0.30686831312E+04  0.25500000920E-02 0.  1.
    10030    2    1    2    0    0  0.00000000000E+00  0.00000000000E+00 -0.17956027671E+04  0.43417634952E+04  0.39530647542E+04 0.  0.
        1    1    3    3  502    0 -0.52774832802E+03  0.18747169503E+04 -0.52761695772E+03  0.20177863107E+04  0.50400001928E-02 0. -1.
       -1    1    3    3    0  502  0.52774832802E+03 -0.18747169503E+04 -0.12679858094E+04  0.23239771845E+04  0.50400001928E-02 0.  1.
</event>
<event>
 5   0  0.1421304E-07  0.3991840E+04  0.7818609E-02  0.8006195E-01
       -1   -1    0    0    0  501  0.00000000000E+00  0.00000000000E+00  0.20783097419E+04  0.20783097419E+04  0.50400001928E-02 0. -1.
        1   -1    0    0  501    0  0.00000000000E+00  0.00000000000E+00 -0.19167965979E+04  0.19167965979E+04  0.50400001928E-02 0.  1.
    10030    2    1    2    0    0  0.00000000000E+00  0.00000000000E+00  0.16151314394E+03  0.39951063398E+04  0.39918401985E+04 0.  0.
        2    1    3    3  502    0  0.14884394509E+04 -0.12941404412E+04  0.38669535633E+03  0.20099215853E+04  0.25500000920E-02 0.  1.
       -2    1    3    3    0  502 -0.14884394509E+04  0.12941404412E+04 -0.22518221240E+03  0.19851847545E+04  0.25500000920E-02 0. -1.
</event>
<event>
 5   0  0.4149487E-07  0.3946535E+04  0.7818609E-02  0.8015420E-01
       -2   -1    0    0    0  501  0.00000000000E+00  0.00000000000E+00  0.23130229780E+04  0.23130229780E+04  0.25500000920E-02 0.  1.
        2   -1    0    0  501    0  0.00000000000E+00  0.00000000000E+00 -0.16834183931E+04  0.16834183931E+04  0.25500000920E-02 0. -1.
    10030    2    1    2    0    0  0.00000000000E+00  0.00000000000E+00  0.62960458488E+03  0.39964413710E+04  0.39465354045E+04 0.  0.
        2    1    3    3  502    0 -0.66947720351E+03 -0.98474802840E+03  0.19081854534E+04  0.22492443464E+04  0.25500000920E-02 0.  1.
       -2    1    3    3    0  502  0.66947720351E+03  0.98474802840E+03 -0.12785808685E+04  0.17471970246E+04  0.25500000920E-02 0. -1.
</event>
<event>
 5   0  0.1372952E-07  0.3884924E+04  0.7818609E-02  0.8028172E-01
       -1   -1    0    0    0  501  0.00000000000E+00  0.00000000000E+00  0.21954347429E+04  0.21954347429E+04  0.50400001928E-02 0. -1.
        1   -1    0    0  501    0  0.00000000000E+00  0.00000000000E+00 -0.17186384599E+04  0.17186384599E+04  0.50400001928E-02 0.  1.
    10030    2    1    2    0    0  0.00000000000E+00  0.00000000000E+00  0.47679628304E+03  0.39140732028E+04  0.38849239814E+04 0.  0.
        1    1    3    3  502    0  0.15386812766E+04  0.98624894136E+03  0.90131037210E+03  0.20377898400E+04  0.50400001928E-02 0.  1.
       -1    1    3    3    0  502 -0.15386812766E+04 -0.98624894136E+03 -0.42451408906E+03  0.18762833627E+04  0.50400001928E-02 0. -1.
</event>
<event>
 5   0  0.4079777E-07  0.3934843E+04  0.7818609E-02  0.8017821E-01
        2   -1    0    0  501    0  0.00000000000E+00  0.00000000000E+00  0.21395822520E+04  0.21395822520E+04  0.25500000920E-02 0. -1.
       -2   -1    0    0    0  501  0.00000000000E+00  0.00000000000E+00 -0.18091140277E+04  0.18091140277E+04  0.25500000920E-02 0.  1.
    10030    2    1    2    0    0  0.00000000000E+00  0.00000000000E+00  0.33046822436E+03  0.39486962797E+04  0.39348434609E+04 0.  0.
        4    1    3    3  502    0 -0.17308129895E+03  0.11337794229E+04  0.17694029861E+04  0.21086017775E+04  0.12699999809E+01 0. -1.
       -4    1    3    3    0  502  0.17308129895E+03 -0.11337794229E+04 -0.14389347617E+04  0.18400945023E+04  0.12699999809E+01 0.  1.
</event>
<event>
 5   0  0.1351000E-07  0.4292764E+04  0.7818609E-02  0.7947958E-01
        1   -1    0    0  501    0  0.00000000000E+00  0.00000000000E+00  0.21772086386E+04  0.21772086386E+04  0.50400001928E-02 0. -1.
       -1   -1    0    0    0  501  0.00000000000E+00  0.00000000000E+00 -0.21159913650E+04  0.21159913650E+04  0.50400001928E-02 0.  1.
    10030    2    1    2    0    0  0.00000000000E+00  0.00000000000E+00  0.61217273558E+02  0.42932000037E+04  0.42927635291E+04 0.  0.
        4    1    3    3  502    0  0.20049308532E+04  0.19061049222E+03  0.77289228076E+03  0.21571843168E+04  0.12699999809E+01 0.  1.
       -4    1    3    3    0  502 -0.20049308532E+04 -0.19061049222E+03 -0.71167500720E+03  0.21360156869E+04  0.12699999809E+01 0. -1.
</event>
<event>
 5   0  0.4047916E-07  0.4267055E+04  0.7818609E-02  0.7952738E-01
        2   -1    0    0  501    0  0.00000000000E+00  0.00000000000E+00  0.16995089530E+04  0.16995089530E+04  0.25500000920E-02 0. -1.
       -2   -1    0    0    0  501  0.00000000000E+00  0.00000000000E+00 -0.26783852775E+04  0.26783852775E+04  0.25500000920E-02 0.  1.
    10030    2    1    2    0    0  0.00000000000E+00  0.00000000000E+00 -0.97887632452E+03  0.43778942305E+04  0.42670550775E+04 0.  0.
        5    1    3    3  502    0  0.24257337126E+02  0.11462397095E+04  0.13565949016E+04  0.17761829036E+04  0.46999998093E+01 0. -1.
       -5    1    3    3    0  502 -0.24257337126E+02 -0.11462397095E+04 -0.23354712261E+04  0.26017113268E+04  0.46999998093E+01 0.  1.
</event>
<event>
 5   0  0.1351000E-07  0.2600807E+04  0.7818609E-02  0.8367927E-01
       -1   -1    0    0    0  501  0.00000000000E+00  0.00000000000E+00  0.19643949671E+04  0.19643949671E+04  0.50400001928E-02 0. -1.
        1   -1    0    0  501    0  0.00000000000E+00  0.00000000000E+00 -0.86084965337E+03  0.86084965338E+03  0.50400001928E-02 0.  1.
    10030    2    1    2    0    0  0.00000000000E+00  0.00000000000E+00  0.11035453138E+04  0.28252446205E+04  0.26008065876E+04 0.  0.
        4    1    3    3  502    0  0.11587446312E+04  0.57979871948E+03  0.43182950118E+03  0.13657723113E+04  0.12699999809E+01 0.  1.
       -4    1    3    3    0  502 -0.11587446312E+04 -0.57979871948E+03  0.67171581257E+03  0.14594723092E+04  0.12699999809E+01 0. -1.
</event>
<event>
 5   0  0.1368865E-07  0.2635925E+04  0.7818609E-02  0.8356100E-01
        1   -1    0    0  501    0  0.00000000000E+00  0.00000000000E+00  0.14682573668E+04  0.14682573668E+04  0.50400001928E-02 0.  1.
       -1   -1    0    0    0  501  0.00000000000E+00  0.00000000000E+00 -0.11830521492E+04  0.11830521492E+04  0.50400001928E-02 0. -1.
    10030    2    1    2    0    0  0.00000000000E+00  0.00000000000E+00  0.28520521764E+03  0.26513095160E+04  0.26359249105E+04 0.  0.
        5    1    3    3  502    0 -0.56814540110E+03 -0.97663305723E+03  0.82509186159E+03  0.13990711188E+04  0.46999998093E+01 0.  1.
       -5    1    3    3    0  502  0.56814540110E+03  0.97663305723E+03 -0.53988664395E+03  0.12522383973E+04  0.46999998093E+01 0. -1.
</event>
<event>
 5   0  0.6314300E-07  0.2463738E+04  0.7818609E-02  0.8416019E-01
        2   -1    0    0  501    0  0.00000000000E+00  0.00000000000E+00  0.15234048928E+04  0.15234048928E+04  0.25500000920E-02 0.  1.
       -2   -1    0    0    0  501  0.00000000000E+00  0.00000000000E+00 -0.99612455899E+03  0.99612455899E+03  0.25500000920E-02 0. -1.
    10030    2    1    2    0    0  0.00000000000E+00  0.00000000000E+00  0.52728033380E+03  0.25195294518E+04  0.24637378326E+04 0.  0.
        1    1    3    3  502    0 -0.39389916820E+03  0.10289906389E+04 -0.29976465806E+03  0.11418568824E+04  0.50400001928E-02 0.  1.
       -1    1    3    3    0  502  0.39389916820E+03 -0.10289906389E+04  0.82704499187E+03  0.13776725693E+04  0.50400001928E-02 0. -1.
</event>
<event>
 5   0  0.1351000E-07  0.2462343E+04  0.7818609E-02  0.8416525E-01
        1   -1    0    0  501    0  0.00000000000E+00  0.00000000000E+00  0.17162682082E+04  0.17162682082E+04  0.50400001928E-02 0. -1.
       -1   -1    0    0    0  501  0.00000000000E+00  0.00000000000E+00 -0.88318580415E+03  0.88318580417E+03  0.50400001928E-02 0.  1.
    10030    2    1    2    0    0  0.00000000000E+00  0.00000000000E+00  0.83308240403E+03  0.25994540124E+04  0.24623433697E+04 0.  0.
        3    1    3    3  502    0  0.41963390951E+03  0.78409976390E+03  0.13153476479E+04  0.15877797400E+04  0.10100000352E+00 0. -1.
       -3    1    3    3    0  502 -0.41963390951E+03 -0.78409976390E+03 -0.48226524383E+03  0.10116742724E+04  0.10100000352E+00 0.  1.
</event>
<event>
 5   0  0.4301754E-07  0.4080209E+04  0.7818609E-02  0.7988558E-01
        2   -1    0    0  501    0  0.00000000000E+00  0.00000000000E+00  0.27125472129E+04  0.27125472129E+04  0.25500000920E-02 0. -1.
       -2   -1    0    0    0  501  0.00000000000E+00  0.00000000000E+00 -0.15343609230E+04  0.15343609230E+04  0.25500000920E-02 0.  1.
    10030    2    1    2    0    0  0.00000000000E+00  0.00000000000E+00  0.11781862900E+04  0.42469081359E+04  0.40802090364E+04 0.  0.
        1    1    3    3  502    0 -0.41307742520E+03 -0.92716273857E+03 -0.12528867269E+04  0.16124480932E+04  0.50400001928E-02 0.  1.
       -1    1    3    3    0  502  0.41307742520E+03  0.92716273857E+03  0.24310730169E+04  0.26344600426E+04  0.50400001928E-02 0. -1.
</event>
<event>
 5   0  0.1351000E-07  0.3448626E+04  0.7818609E-02  0.8126074E-01
       -1   -1    0    0    0  501  0.00000000000E+00  0.00000000000E+00  0.21762414641E+04  0.21762414641E+04  0.50400001928E-02 0.  1.
        1   -1    0    0  501    0  0.00000000000E+00  0.00000000000E+00 -0.13662344202E+04  0.13662344202E+04  0.50400001928E-02 0. -1.
    10030    2    1    2    0    0  0.00000000000E+00  0.00000000000E+00  0.81000704392E+03  0.35424758844E+04  0.34486263903E+04 0.  0.
        3    1    3    3  502    0  0.15510365928E+04 -0.73379685275E+02  0.11751787145E+04  0.19473428336E+04  0.10100000352E+00 0.  1.
       -3    1    3    3    0  502 -0.15510365928E+04  0.73379685275E+02 -0.36517167060E+03  0.15951330508E+04  0.10100000352E+00 0. -1.
</event>
<event>
 5   0  0.1368865E-07  0.4032351E+04  0.7818609E-02  0.7998052E-01
        1   -1    0    0  501    0  0.00000000000E+00  0.00000000000E+00  0.23478709810E+04  0.23478709810E+04  0.50400001928E-02 0. -1.
       -1   -1    0    0    0  501  0.00000000000E+00  0.00000000000E+00 -0.17313399025E+04  0.17313399025E+04  0.50400001928E-02 0.  1.
    10030    2    1    2    0    0  0.00000000000E+00  0.00000000000E+00  0.61653107849E+03  0.40792108835E+04  0.40323505380E+04 0.  0.
        5    1    3    3  502    0 -0.27513821787E+03 -0.18780439612E+04  0.99601200956E+03  0.21435512992E+04  0.46999998093E+01 0. -1.
       -5    1    3    3    0  502  0.27513821787E+03  0.18780439612E+04 -0.37948093108E+03  0.19356595843E+04  0.46999998093E+01 0.  1.
</event>
<event>
 5   0  0.4079777E-07  0.3607254E+04  0.7818609E-02  0.8088832E-01
       -2   -1    0    0    0  501  0.00000000000E+00  0.00000000000E+00  0.17072627626E+04  0.17072627626E+04  0.25500000920E-02 0. -1.
        2   -1    0    0  501    0  0.00000000000E+00  0.00000000000E+00 -0.19054303625E+04  0.19054303625E+04  0.25500000920E-02 0.  1.
    10030    2    1    2    0    0  0.00000000000E+00  0.00000000000E+00 -0.19816759989E+03  0.36126931251E+04  0.36072539720E+04 0.  0.
        4    1    3    3  502    0 -0.17272358242E+04 -0.36532205292E+03  0.27061355927E+03  0.17860674977E+04  0.12699999809E+01 0.  1.
       -4    1    3    3    0  502  0.17272358242E+04  0.36532205292E+03 -0.46878115916E+03  0.18266256275E+04  0.12699999809E+01 0. -1.
</event>
<event>
 5   0  0.4149487E-07  0.3994716E+04  0.7818609E-02  0.8005613E-01
        2   -1    0    0  501    0  0.00000000000E+00  0.00000000000E+00  0.24444981475E+04  0.24444981475E+04  0.25500000920E-02 0.  1.
       -2   -1    0    0    0  501  0.00000000000E+00  0.00000000000E+00 -0.16320072347E+04  0.16320072347E+04  0.25500000920E-02 0. -1.
    10030    2    1    2    0    0  0.00000000000E+00  0.00000000000E+00  0.81249091276E+03  0.40765053822E+04  0.39947158406E+04 0.  0.
        2    1    3    3  502    0  0.13928671028E+04  0.29331173607E+03  0.18361220989E+04  0.23232423255E+04  0.25500000920E-02 0.  1.
       -2    1    3    3    0  502 -0.13928671028E+04 -0.29331173607E+03 -0.10236311862E+04  0.17532630567E+04  0.25500000920E-02 0. -1.
</event>
<event>
 5   0  0.1351000E-07  0.2699958E+04  0.7818609E-02  0.8335019E-01
        1   -1    0    0  501    0  0.00000000000E+00  0.00000000000E+00  0.16752218363E+04  0.16752218363E+04  0.50400001928E-02 0. -1.
       -1   -1    0    0    0  501  0.00000000000E+00  0.00000000000E+00 -0.10878819427E+04  0.10878819428E+04  0.50400001928E-02 0.  1.
    10030    2    1    2    0    0  0.00000000000E+00  0.00000000000E+00  0.58733989354E+03  0.27631037791E+04  0.26999582114E+04 0.  0.
        4    1    3    3  502    0  0.88853991686E+03 -0.78167337297E+02 -0.74335485826E+03  0.11611164346E+04  0.12699999809E+01 0.  1.
       -4    1    3    3    0  502 -0.88853991686E+03  0.78167337297E+02  0.13306947518E+04  0.16019873445E+04  0.12699999809E+01 0. -1.
</event>
<event>
 5   0  0.4047916E-07  0.3955771E+04  0.7818609E-02  0.8013529E-01
       -2   -1    0    0    0  501  0.00000000000E+00  0.00000000000E+00  0.18915832197E+04  0.18915832197E+04  0.25500000920E-02 0.  1.
        2   -1    0    0  501    0  0.00000000000E+00  0.00000000000E+00 -0.20681257126E+04  0.20681257126E+04  0.25500000920E-02 0. -1.
    10030    2    1    2    0    0  0.00000000000E+00  0.00000000000E+00 -0.17654249288E+03  0.39597089323E+04  0.39557714262E+04 0.  0.
        5    1    3    3  502    0  0.61964879787E+03 -0.55604125996E+03  0.17076336728E+04  0.18997845578E+04  0.46999998093E+01 0.  1.
       -5    1    3    3    0  502 -0.61964879787E+03  0.55604125996E+03 -0.18841761657E+04  0.20599243745E+04  0.46999998093E+01 0. -1.
</event>
<event>
 5   0  0.1372952E-07  0.3966990E+04  0.7818609E-02  0.8011239E-01
        1   -1    0    0  501    0  0.00000000000E+00  0.00000000000E+00  0.21538054031E+04  0.21538054031E+04  0.50400001928E-02 0.  1.
       -1   -1    0    0    0  501  0.00000000000E+00  0.00000000000E+00 -0.18266520580E+04  0.18266520580E+04  0.50400001928E-02 0. -1.
    10030    2    1    2    0    0  0.00000000000E+00  0.00000000000E+00  0.32715334515E+03  0.39804574611E+04  0.39669903313E+04 0.  0.
        1    1    3    3  502    0  0.41191806010E+03 -0.89088555967E+03  0.18930577936E+04  0.21323745868E+04  0.50400001928E-02 0.  1.
       -1    1    3    3    0  502 -0.41191806010E+03  0.89088555967E+03 -0.15659044484E+04  0.18480828743E+04  0.50400001928E-02 0. -1.
</event>
<event>
 5   0  0.4079777E-07  0.3920025E+04  0.7818609E-02  0.8020877E-01
       -2   -1    0    0    0  501  0.00000000000E+00  0.00000000000E+00  0.13016870847E+04  0.13016870847E+04  0.25500000920E-02 0. -1.
        2   -1    0    0  501    0  0.00000000000E+00  0.00000000000E+00 -0.29512848589E+04  0.29512848589E+04  0.25500000920E-02 0.  1.
    10030    2    1    2    0    0  0.00000000000E+00  0.00000000000E+00 -0.16495977742E+04  0.42529719436E+04  0.39200251959E+04 0.  0.
        4    1    3    3  502    0 -0.13001165874E+04  0.47086375483E+03 -0.23318948292E+04  0.27110424054E+04  0.12699999809E+01 0.  1.
       -4    1    3    3    0  502  0.13001165874E+04 -0.47086375483E+03  0.68229705498E+03  0.15419295382E+04  0.12699999809E+01 0. -1.
</event>
<event>
 5   0  0.1421304E-07  0.2473680E+04  0.7818609E-02  0.8412423E-01
        1   -1    0    0  501    0  0.00000000000E+00  0.00000000000E+00  0.79448113096E+03  0.79448113098E+03  0.50400001928E-02 0. -1.
       -1   -1    0    0    0  501  0.00000000000E+00  0.00000000000E+00 -0.19254991287E+04  0.19254991287E+04  0.50400001928E-02 0.  1.
    10030    2    1    2    0    0  0.00000000000E+00  0.00000000000E+00 -0.11310179977E+04  0.27199802597E+04  0.24736796280E+04 0.  0.
        2    1    3    3  502    0  0.18996683210E+03 -0.21394498912E+03 -0.18886115715E+04  0.19101606016E+04  0.25500000920E-02 0.  1.
       -2    1    3    3    0  502 -0.18996683210E+03  0.21394498912E+03  0.75759357378E+03  0.80981965813E+03  0.25500000920E-02 0. -1.
</event>
<event>
 5   0  0.1421304E-07  0.3259089E+04  0.7818609E-02  0.8173384E-01
        1   -1    0    0  501    0  0.00000000000E+00  0.00000000000E+00  0.15181781735E+04  0.15181781735E+04  0.50400001928E-02 0.  1.
       -1   -1    0    0    0  501  0.00000000000E+00  0.00000000000E+00 -0.17490804993E+04  0.17490804993E+04  0.50400001928E-02 0. -1.
    10030    2    1    2    0    0  0.00000000000E+00  0.00000000000E+00 -0.23090232581E+03  0.32672586728E+04  0.32590893438E+04 0.  0.
        2    1    3    3  502    0  0.15816954749E+04  0.15190711028E+03  0.24681247238E+03  0.16080275937E+04  0.25500000920E-02 0.  1.
       -2    1    3    3    0  502 -0.15816954749E+04 -0.15190711028E+03 -0.47771479819E+03  0.16592310791E+04  0.25500000920E-02 0. -1.
</event>
<event>
 5   0  0.4149487E-07  0.3978259E+04  0.7818609E-02  0.8008947E-01
       -2   -1    0    0    0  501  0.00000000000E+00  0.00000000000E+00  0.19507121474E+04  0.19507121474E+04  0.25500000920E-02 0.  1.
        2   -1    0    0  501    0  0.00000000000E+00  0.00000000000E+00 -0.20283037840E+04  0.20283037840E+04  0.25500000920E-02 0. -1.
    10030    2    1    2    0    0  0.00000000000E+00  0.00000000000E+00 -0.77591636596E+02  0.39790159314E+04  0.39782593330E+04 0.  0.
        2    1    3    3  502    0  0.90889916885E+03 -0.20865987414E+03  0.17185244403E+04  0.19552398559E+04  0.25500000920E-02 0.  1.
       -2    1    3    3    0  502 -0.90889916885E+03  0.20865987414E+03 -0.17961160769E+04  0.20237760755E+04  0.25500000920E-02 0. -1.
</event>
<event>
 5   0  0.1368865E-07  0.4019673E+04  0.7818609E-02  0.8000590E-01
       -1   -1    0    0    0  501  0.00000000000E+00  0.00000000000E+00  0.27845146904E+04  0.27845146904E+04  0.50400001928E-02 0.  1.
        1   -1    0    0  501    0  0.00000000000E+00  0.00000000000E+00 -0.14506814110E+04  0.14506814110E+04  0.50400001928E-02 0. -1.
    10030    2    1    2    0    0  0.00000000000E+00  0.00000000000E+00  0.13338332794E+04  0.42351961014E+04  0.40196734693E+04 0.  0.
        5    1    3    3  502    0 -0.49433852608E+03 -0.16947457138E+03  0.27116745597E+04  0.27615744090E+04  0.46999998093E+01 0.  1.
       -5    1    3    3    0  502  0.49433852608E+03  0.16947457138E+03 -0.13778412803E+04  0.14736216924E+04  0.46999998093E+01 0. -1.
</event>
<event>
 5   0  0.1351000E-07  0.3233715E+04  0.7818609E-02  0.8179970E-01
        1   -1    0    0  501    0  0.00000000000E+00  0.00000000000E+00  0.24304378770E+04  0.24304378770E+04  0.50400001928E-02 0.  1.
       -1   -1    0    0    0  501  0.00000000000E+00  0.00000000000E+00 -0.10756199602E+04  0.10756199602E+04  0.50400001928E-02 0. -1.
    10030    2    1    2    0    0  0.00000000000E+00  0.00000000000E+00  0.13548179167E+04  0.35060578372E+04  0.32337145777E+04 0.  0.
        4    1    3    3  502    0  0.71358556509E+03  0.33902855593E+03 -0.85210267900E+03  0.11619919573E+04  0.12699999809E+01 0. -1.
       -4    1    3    3    0  502 -0.71358556509E+03 -0.33902855593E+03  0.22069205957E+04  0.23440658799E+04  0.12699999809E+01 0.  1.
</event>
<event>
 5   0  0.1368865E-07  0.3430731E+04  0.7818609E-02  0.8130405E-01
        1   -1    0    0  501    0  0.00000000000E+00  0.00000000000E+00  0.13527362578E+04  0.13527362578E+04  0.50400001928E-02 0. -1.
       -1   -1    0    0    0  501  0.00000000000E+00  0.00000000000E+00 -0.21752049713E+04  0.21752049713E+04  0.50400001928E-02 0.  1.
    10030    2    1    2    0    0  0.00000000000E+00  0.00000000000E+00 -0.82246871350E+03  0.35279412290E+04  0.34307309033E+04 0.  0.
        5    1    3    3  502    0  0.12520289136E+04 -0.96629338207E+03 -0.10942511687E+04  0.19232022803E+04  0.46999998093E+01 0.  1.
       -5    1    3    3    0  502 -0.12520289136E+04  0.96629338207E+03  0.27178245519E+03  0.16047389488E+04  0.46999998093E+01 0. -1.
</event>
<event>
 5   0  0.4149487E-07  0.3259089E+04  0.7818609E-02  0.8173384E-01
        2   -1    0    0  501    0  0.00000000000E+00  0.00000000000E+00  0.27308013414E+04  0.27308013414E+04  0.25500000920E-02 0.  1.
       -2   -1    0    0    0  501  0.00000000000E+00  0.00000000000E+00 -0.97239418443E+03  0.97239418443E+03  0.25500000920E-02 0. -1.
    10030    2    1    2    0    0  0.00000000000E+00  0.00000000000E+00  0.17584071570E+04  0.37031955258E+04  0.32590890403E+04 0.  0.
        2    1    3    3  502    0  0.14502200367E+04 -0.30317314812E+03  0.16501616006E+04  0.22176756798E+04  0.25500000920E-02 0.  1.
       -2    1    3    3    0  502 -0.14502200367E+04  0.30317314812E+03  0.10824555636E+03  0.14855198461E+04  0.25500000920E-02 0. -1.
</event>
<event>
 5   0  0.4149487E-07  0.3418630E+04  0.7818609E-02  0.8133349E-01
       -2   -1    0    0    0  501  0.00000000000E+00  0.00000000000E+00  0.15189752891E+04  0.15189752891E+04  0.25500000920E-02 0. -1.
        2   -1    0    0  501    0  0.00000000000E+00  0.00000000000E+00 -0.19235055674E+04  0.19235055674E+04  0.25500000920E-02 0.  1.
    10030    2    1    2    0    0  0.00000000000E+00  0.00000000000E+00 -0.40453027821E+03  0.34424808565E+04  0.34186297988E+04 0.  0.
        2    1    3    3  502    0 -0.17123505683E+03 -0.16788812953E+04 -0.47581011406E+03  0.17533850441E+04  0.25500000920E-02 0. -1.
       -2    1    3    3    0  502  0.17123505683E+03  0.16788812953E+04  0.71279835844E+02  0.16890958124E+04  0.25500000920E-02 0.  1.
</event>
<event>
 5   0  0.1372952E-07  0.3706910E+04  0.7818609E-02  0.8066432E-01
       -1   -1    0    0    0  501  0.00000000000E+00  0.00000000000E+00  0.19095979943E+04  0.19095979943E+04  0.50400001928E-02 0.  1.
        1   -1    0    0  501    0  0.00000000000E+00  0.00000000000E+00 -0.17989626926E+04  0.17989626926E+04  0.50400001928E-02 0. -1.
    10030    2    1    2    0    0  0.00000000000E+00  0.00000000000E+00  0.11063530172E+03  0.37085606869E+04  0.37069100608E+04 0.  0.
        1    1    3    3  502    0  0.62426633037E+03 -0.17158311366E+04  0.37406681729E+03  0.18637893992E+04  0.50400001928E-02 0. -1.
       -1    1    3    3    0  502 -0.62426633037E+03  0.17158311366E+04 -0.26343151556E+03  0.18447712877E+04  0.50400001928E-02 0.  1.
</event>
<event>
 5   0  0.4077370E-07  0.4062754E+04  0.7818609E-02  0.7992005E-01
       -2   -1    0    0    0  501  0.00000000000E+00  0.00000000000E+00  0.19118813519E+04  0.19118813519E+04  0.25500000920E-02 0.  1.
        2   -1    0    0  501    0  0.00000000000E+00  0.00000000000E+00 -0.21583418222E+04  0.21583418222E+04  0.25500000920E-02 0. -1.
    10030    2    1    2    0    0  0.00000000000E+00  0.00000000000E+00 -0.24646047035E+03  0.40702231741E+04  0.40627544749E+04 0.  0.
        3    1    3    3  502    0 -0.16993841641E+04 -0.11543684931E+03  0.98571984785E+03  0.19679623553E+04  0.10100000352E+00 0.  1.
       -3    1    3    3    0  502  0.16993841641E+04  0.11543684931E+03 -0.12321803182E+04  0.21022608188E+04  0.10100000352E+00 0. -1.
</event>
<event>
 5   0  0.4077370E-07  0.3938737E+04  0.7818609E-02  0.8017021E-01
       -2   -1    0    0    0  501  0.00000000000E+00  0.00000000000E+00  0.28936221716E+04  0.28936221716E+04  0.25500000920E-02 0.  1.
        2   -1    0    0  501    0  0.00000000000E+00  0.00000000000E+00 -0.13403313373E+04  0.13403313373E+04  0.25500000920E-02 0. -1.
    10030    2    1    2    0    0  0.00000000000E+00  0.00000000000E+00  0.15532908343E+04  0.42339535089E+04  0.39387370945E+04 0.  0.
        3    1    3    3  502    0 -0.12845154500E+04 -0.76630138167E+03 -0.60047460599E+03  0.16117591357E+04  0.10100000352E+00 0. -1.
       -3    1    3    3    0  502  0.12845154500E+04  0.76630138167E+03  0.21537654403E+04  0.26221943732E+04  0.10100000352E+00 0.  1.
</event>
<event>
 5   0  0.4079777E-07  0.4024564E+04  0.7818609E-02  0.7999610E-01
        2   -1    0    0  501    0  0.00000000000E+00  0.00000000000E+00  0.23200188758E+04  0.23200188758E+04  0.25500000920E-02 0. -1.
       -2   -1    0    0    0  501  0.00000000000E+00  0.00000000000E+00 -0.17453643113E+04  0.17453643113E+04  0.25500000920E-02 0.  1.
    10030    2    1    2    0    0  0.00000000000E+00  0.00000000000E+00  0.57465456455E+03  0.40653831871E+04  0.40245636521E+04 0.  0.
        4    1    3    3  502    0  0.36816561002E+03 -0.12457988821E+04  0.18397017830E+04  0.22521245601E+04  0.12699999809E+01 0. -1.
       -4    1    3    3    0  502 -0.36816561002E+03  0.12457988821E+04 -0.12650472184E+04  0.18132586271E+04  0.12699999809E+01 0.  1.
</event>
<event>
 5   0  0.1351000E-07  0.4019570E+04  0.7818609E-02  0.8000610E-01
       -1   -1    0    0    0  501  0.00000000000E+00  0.00000000000E+00  0.15596597117E+04  0.15596597117E+04  0.50400001928E-02 0.  1.
        1   -1    0    0  501    0  0.00000000000E+00  0.00000000000E+00 -0.25898181598E+04  0.25898181598E+04  0.50400001928E-02 0. -1.
    10030    2    1    2    0    0  0.00000000000E+00  0.00000000000E+00 -0.10301584481E+04  0.41494778715E+04  0.40195696508E+04 0.  0.
        4    1    3    3  502    0 -0.12525893157E+04  0.15672780838E+04 -0.39340194134E+03  0.20445310675E+04  0.12699999809E+01 0. -1.
       -4    1    3    3    0  502  0.12525893157E+04 -0.15672780838E+04 -0.63675650679E+03  0.21049468040E+04  0.12699999809E+01 0.  1.
</event>
<event>
 5   0  0.1351000E-07  0.3842867E+04  0.7818609E-02  0.8037018E-01
       -1   -1    0    0    0  501  0.00000000000E+00  0.00000000000E+00  0.16457617282E+04  0.16457617282E+04  0.50400001928E-02 0.  1.
        1   -1    0    0  501    0  0.00000000000E+00  0.00000000000E+00 -0.22432816960E+04  0.22432816960E+04  0.50400001928E-02 0. -1.
    10030    2    1    2    0    0  0.00000000000E+00  0.00000000000E+00 -0.59751996779E+03  0.38890434243E+04  0.38428672426E+04 0.  0.
        4    1    3    3  502    0  0.22538407503E+03  0.81918578884E+03 -0.20428493004E+04  0.22124868847E+04  0.12699999809E+01 0. -1.
       -4    1    3    3    0  502 -0.22538407503E+03 -0.81918578884E+03  0.14453293326E+04  0.16765565396E+04  0.12699999809E+01 0.  1.
</event>
<event>
 5   0  0.4077370E-07  0.4041121E+04  0.7818609E-02  0.7996302E-01
        2   -1    0    0  501    0  0.00000000000E+00  0.00000000000E+00  0.17768461940E+04  0.17768461940E+04  0.25500000920E-02 0. -1.
       -2   -1    0    0    0  501  0.00000000000E+00  0.00000000000E+00 -0.22977034922E+04  0.22977034922E+04  0.25500000920E-02 0.  1.
    10030    2    1    2    0    0  0.00000000000E+00  0.00000000000E+00 -0.52085729820E+03  0.40745496862E+04  0.40411214805E+04 0.  0.
        3    1    3    3  502    0  0.17549797728E+04  0.85754033093E+03 -0.78175137403E+03  0.21039165009E+04  0.10100000352E+00 0.  1.
       -3    1    3    3    0  502 -0.17549797728E+04 -0.85754033093E+03  0.26089407583E+03  0.19706331853E+04  0.10100000352E+00 0. -1.
</event>
<event>
 5   0  0.1351000E-07  0.3853684E+04  0.7818609E-02  0.8034732E-01
        1   -1    0    0  501    0  0.00000000000E+00  0.00000000000E+00  0.19369558174E+04  0.19369558174E+04  0.50400001928E-02 0. -1.
       -1   -1    0    0    0  501  0.00000000000E+00  0.00000000000E+00 -0.19167812970E+04  0.19167812970E+04  0.50400001928E-02 0.  1.
    10030    2    1    2    0    0  0.00000000000E+00  0.00000000000E+00  0.20174520345E+02  0.38537371144E+04  0.38536843067E+04 0.  0.
        4    1    3    3  502    0  0.78482636399E+03 -0.42285693470E+03  0.17183140113E+04  0.19358112158E+04  0.12699999809E+01 0. -1.
       -4    1    3    3    0  502 -0.78482636399E+03  0.42285693470E+03 -0.16981394910E+04  0.19179258986E+04  0.12699999809E+01 0.  1.
</event>
<event>
 5   0  0.4077370E-07  0.2446680E+04  0.7818609E-02  0.8422231E-01
       -2   -1    0    0    0  501  0.00000000000E+00  0.00000000000E+00  0.65950228106E+03  0.65950228106E+03  0.25500000920E-02 0.  1.
        2   -1    0    0  501    0  0.00000000000E+00  0.00000000000E+00 -0.22692281342E+04  0.22692281342E+04  0.25500000920E-02 0. -1.
    10030    2    1    2    0    0  0.00000000000E+00  0.00000000000E+00 -0.16097258532E+04  0.29287304153E+04  0.24466803067E+04 0.  0.
        3    1    3    3  502    0  0.56739649194E+03  0.33926132081E+03 -0.20369959297E+04  0.21415857327E+04  0.10100000352E+00 0. -1.
       -3    1    3    3    0  502 -0.56739649194E+03 -0.33926132081E+03  0.42727007648E+03  0.78714468259E+03  0.10100000352E+00 0.  1.
</event>
<event>
 5   0  0.4077370E-07  0.4281757E+04  0.7818609E-02  0.7950000E-01
       -2   -1    0    0    0  501  0.00000000000E+00  0.00000000000E+00  0.17185160642E+04  0.17185160642E+04  0.25500000920E-02 0. -1.
        2   -1    0    0  501    0  0.00000000000E+00  0.00000000000E+00 -0.26670452108E+04  0.26670452108E+04  0.25500000920E-02 0.  1.
    10030    2    1    2    0    0  0.00000000000E+00  0.00000000000E+00 -0.94852914664E+03  0.43855612750E+04  0.42817566669E+04 0.  0.
        3    1    3    3  502    0  0.11618429742E+04  0.10971502069E+04  0.98496511844E+03  0.18771718003E+04  0.10100000352E+00 0. -1.
       -3    1    3    3    0  502 -0.11618429742E+04 -0.10971502069E+04 -0.19334942651E+04  0.25083894746E+04  0.10100000352E+00 0.  1.
</event>
<event>
 5   0  0.1351000E-07  0.2522383E+04  0.7818609E-02  0.8395055E-01
       -1   -1    0    0    0  501  0.00000000000E+00  0.00000000000E+00  0.14942161875E+04  0.14942161875E+04  0.50400001928E-02 0.  1.
        1   -1    0    0  501    0  0.00000000000E+00  0.00000000000E+00 -0.10645073680E+04  0.10645073680E+04  0.50400001928E-02 0. -1.
    10030    2    1    2    0    0  0.00000000000E+00  0.00000000000E+00  0.42970881945E+03  0.25587235555E+04  0.25223831120E+04 0.  0.
        4    1    3    3  502    0 -0.10704107174E+04 -0.51713773797E+03  0.64210169584E+03  0.13511131502E+04  0.12699999809E+01 0. -1.
       -4    1    3    3    0  502  0.10704107174E+04  0.51713773797E+03 -0.21239287639E+03  0.12076104053E+04  0.12699999809E+01 0.  1.
</event>
<event>
 5   0  0.1351000E-07  0.3743242E+04  0.7818609E-02  0.8058446E-01
       -1   -1    0    0    0  501  0.00000000000E+00  0.00000000000E+00  0.17379127972E+04  0.17379127972E+04  0.50400001928E-02 0.  1.
        1   -1    0    0  501    0  0.00000000000E+00  0.00000000000E+00 -0.20156162828E+04  0.20156162828E+04  0.50400001928E-02 0. -1.
    10030    2    1    2    0    0  0.00000000000E+00  0.00000000000E+00 -0.27770348558E+03  0.37535290801E+04  0.37432420880E+04 0.  0.
        3    1    3    3  502    0 -0.35670812965E+03 -0.59778222484E+03  0.16032716081E+04  0.17478741767E+04  0.10100000352E+00 0.  1.
       -3    1    3    3    0  502  0.35670812965E+03  0.59778222484E+03 -0.18809750937E+04  0.20056549034E+04  0.10100000352E+00 0. -1.
</event>
<event>
 5   0  0.1351000E-07  0.3833485E+04  0.7818609E-02  0.8039007E-01
        1   -1    0    0  501    0  0.00000000000E+00  0.00000000000E+00  0.18469300088E+04  0.18469300088E+04  0.50400001928E-02 0. -1.
       -1   -1    0    0    0  501  0.00000000000E+00  0.00000000000E+00 -0.19891940893E+04  0.19891940893E+04  0.50400001928E-02 0.  1.
    10030    2    1    2    0    0  0.00000000000E+00  0.00000000000E+00 -0.14226408043E+03  0.38361240981E+04  0.38334852324E+04 0.  0.
        4    1    3    3  502    0 -0.13438950623E+04  0.12756833872E+04 -0.56185578406E+03  0.19362607205E+04  0.12699999809E+01 0.  1.
       -4    1    3    3    0  502  0.13438950623E+04 -0.12756833872E+04  0.41959170362E+03  0.18998633776E+04  0.12699999809E+01 0. -1.
</event>
<event>
 5   0  0.4047916E-07  0.4043115E+04  0.7818609E-02  0.7995905E-01
       -2   -1    0    0    0  501  0.00000000000E+00  0.00000000000E+00  0.16036077231E+04  0.16036077231E+04  0.25500000920E-02 0.  1.
        2   -1    0    0  501    0  0.00000000000E+00  0.00000000000E+00 -0.25484382854E+04  0.25484382854E+04  0.25500000920E-02 0. -1.
    10030    2    1    2    0    0  0.00000000000E+00  0.00000000000E+00 -0.94483056230E+03  0.41520460086E+04  0.40431152922E+04 0.  0.
        5    1    3    3  502    0 -0.82408997979E+03 -0.18128314282E+04 -0.82991975030E+03  0.21573759440E+04  0.46999998093E+01 0.  1.
       -5    1    3    3    0  502  0.82408997979E+03  0.18128314282E+04 -0.11491081200E+03  0.19946700646E+04  0.46999998093E+01 0. -1.
</event>
<event>
 5   0  0.1351000E-07  0.3990151E+04  0.7818609E-02  0.8006536E-01
       -1   -1    0    0    0  501  0.00000000000E+00  0.00000000000E+00  0.24968144567E+04  0.24968144567E+04  0.50400001928E-02 0.  1.
        1   -1    0    0  501    0  0.00000000000E+00  0.00000000000E+00 -0.15941621928E+04  0.15941621928E+04  0.50400001928E-02 0. -1.
    10030    2    1    2    0    0  0.00000000000E+00  0.00000000000E+00  0.90265226394E+03  0.40909766495E+04  0.39901514804E+04 0.  0.
        4    1    3    3  502    0 -0.91109558582E+03  0.17724405595E+04  0.35577851817E+03  0.20244062513E+04  0.12699999809E+01 0.  1.
       -4    1    3    3    0  502  0.91109558582E+03 -0.17724405595E+04  0.54687374576E+03  0.20665703981E+04  0.12699999809E+01 0. -1.
</event>
<event>
 5   0  0.1421304E-07  0.4006914E+04  0.7818609E-02  0.8003153E-01
        1   -1    0    0  501    0  0.00000000000E+00  0.00000000000E+00  0.16350158511E+04  0.16350158511E+04  0.50400001928E-02 0. -1.
       -1   -1    0    0    0  501  0.00000000000E+00  0.00000000000E+00 -0.24549242012E+04  0.24549242012E+04  0.50400001928E-02 0.  1.
    10030    2    1    2    0    0  0.00000000000E+00  0.00000000000E+00 -0.81990835012E+03  0.40899400523E+04  0.40069140156E+04 0.  0.
        2    1    3    3  502    0  0.11560944466E+04 -0.13558988746E+04 -0.13448049787E+04  0.22323791251E+04  0.25500000920E-02 0.  1.
       -2    1    3    3    0  502 -0.11560944466E+04  0.13558988746E+04  0.52489662854E+03  0.18575609272E+04  0.25500000920E-02 0. -1.
</event>
<event>
 5   0  0.1368865E-07  0.2537453E+04  0.7818609E-02  0.8389763E-01
        1   -1    0    0  501    0  0.00000000000E+00  0.00000000000E+00  0.86149995206E+03  0.86149995208E+03  0.50400001928E-02 0. -1.
       -1   -1    0    0    0  501  0.00000000000E+00  0.00000000000E+00 -0.18684465791E+04  0.18684465791E+04  0.50400001928E-02 0.  1.
    10030    2    1    2    0    0  0.00000000000E+00  0.00000000000E+00 -0.10069466270E+04  0.27299465311E+04  0.25374527687E+04 0.  0.
        5    1    3    3  502    0  0.53049260288E+03  0.11400283314E+04 -0.68528284556E+03  0.14320341010E+04  0.46999998093E+01 0. -1.
       -5    1    3    3    0  502 -0.53049260288E+03 -0.11400283314E+04 -0.32166378144E+03  0.12979124301E+04  0.46999998093E+01 0.  1.
</event>
<event>
 5   0  0.4149487E-07  0.4001594E+04  0.7818609E-02  0.8004225E-01
       -2   -1    0    0    0  501  0.00000000000E+00  0.00000000000E+00  0.17024938579E+04  0.17024938579E+04  0.25500000920E-02 0.  1.
        2   -1    0    0  501    0  0.00000000000E+00  0.00000000000E+00 -0.23513678159E+04  0.23513678159E+04  0.25500000920E-02 0. -1.
    10030    2    1    2    0    0  0.00000000000E+00  0.00000000000E+00 -0.64887395808E+03  0.40538616738E+04  0.40015943144E+04 0.  0.
        2    1    3    3  502    0 -0.13177902413E+04 -0.12382691186E+04  0.54308203222E+03  0.18880729922E+04  0.25500000920E-02 0. -1.
       -2    1    3    3    0  502  0.13177902413E+04  0.12382691186E+04 -0.11919559903E+04  0.21657886815E+04  0.25500000920E-02 0.  1.
</event>
<event>
 5   0  0.4079777E-07  0.3854463E+04  0.7818609E-02  0.8034567E-01
       -2   -1    0    0    0  501  0.00000000000E+00  0.00000000000E+00  0.21668432119E+04  0.21668432119E+04  0.25500000920E-02 0. -1.
        2   -1    0    0  501    0  0.00000000000E+00  0.00000000000E+00 -0.17141161331E+04  0.17141161331E+04  0.25500000920E-02 0.  1.
    10030    2    1    2    0    0  0.00000000000E+00  0.00000000000E+00  0.45272707883E+03  0.38809593449E+04  0.38544628198E+04 0.  0.
        4    1    3    3  502    0  0.49967692339E+03  0.17371962617E+04  0.89930770992E+03  0.20189808938E+04  0.12699999809E+01 0. -1.
       -4    1    3    3    0  502 -0.49967692339E+03 -0.17371962617E+04 -0.44658063109E+03  0.18619784511E+04  0.12699999809E+01 0.  1.
</event>
<event>
 5   0  0.4077370E-07  0.2639181E+04  0.7818609E-02  0.8355013E-01
        2   -1    0    0  501    0  0.00000000000E+00  0.00000000000E+00  0.11752916378E+04  0.11752916378E+04  0.25500000920E-02 0.  1.
       -2   -1    0    0    0  501  0.00000000000E+00  0.00000000000E+00 -0.14816061129E+04  0.14816061129E+04  0.25500000920E-02 0. -1.
    10030    2    1    2    0    0  0.00000000000E+00  0.00000000000E+00 -0.30631447515E+03  0.26568977507E+04  0.26391811420E+04 0.  0.
        3    1    3    3  502    0 -0.88289492927E+03  0.97334875612E+03 -0.27399637249E+03  0.13423804526E+04  0.10100000352E+00 0. -1.
       -3    1    3    3    0  502  0.88289492927E+03 -0.97334875612E+03 -0.32318102657E+02  0.13145172981E+04  0.10100000352E+00 0.  1.
</event>
<event>
 5   0  0.1351000E-07  0.4010749E+04  0.7818609E-02  0.8002382E-01
       -1   -1    0    0    0  501  0.00000000000E+00  0.00000000000E+00  0.12710034888E+04  0.12710034888E+04  0.50400001928E-02 0.  1.
        1   -1    0    0  501    0  0.00000000000E+00  0.00000000000E+00 -0.31640573096E+04  0.31640573096E+04  0.50400001928E-02 0. -1.
    10030    2    1    2    0    0  0.00000000000E+00  0.00000000000E+00 -0.18930538208E+04  0.44350607983E+04  0.40107494956E+04 0.  0.
        4    1    3    3  502    0  0.95556028186E+03 -0.17464679698E+04 -0.67957350356E+03  0.21035844603E+04  0.12699999809E+01 0.  1.
       -4    1    3    3    0  502 -0.95556028186E+03  0.17464679698E+04 -0.12134803172E+04  0.23314763381E+04  0.12699999809E+01 0. -1.
</event>
<event>
 5   0  0.1351000E-07  0.3812834E+04  0.7818609E-02  0.8043406E-01
       -1   -1    0    0    0  501  0.00000000000E+00  0.00000000000E+00  0.23701751873E+04  0.23701751874E+04  0.50400001928E-02 0. -1.
        1   -1    0    0  501    0  0.00000000000E+00  0.00000000000E+00 -0.15333994413E+04  0.15333994413E+04  0.50400001928E-02 0.  1.
    10030    2    1    2    0    0  0.00000000000E+00  0.00000000000E+00  0.83677574604E+03  0.39035746287E+04  0.38128337536E+04 0.  0.
        3    1    3    3  502    0 -0.15292847241E+04 -0.79174837355E+03  0.12556825833E+04  0.21312709857E+04  0.10100000352E+00 0. -1.
       -3    1    3    3    0  502  0.15292847241E+04  0.79174837355E+03 -0.41890683722E+03  0.17723036430E+04  0.10100000352E+00 0.  1.
</event>
<event>
 5   0  0.1368865E-07  0.2484631E+04  0.7818609E-02  0.8408481E-01
       -1   -1    0    0    0  501  0.00000000000E+00  0.00000000000E+00  0.51308297691E+03  0.51308297693E+03  0.50400001928E-02 0. -1.
        1   -1    0    0  501    0  0.00000000000E+00  0.00000000000E+00 -0.30079878943E+04  0.30079878943E+04  0.50400001928E-02 0.  1.
    10030    2    1    2    0    0  0.00000000000E+00  0.00000000000E+00 -0.24949049174E+04  0.35210708713E+04  0.24846306634E+04 0.  0.
        5    1    3    3  502    0  0.43715765305E+03  0.75605642399E+03  0.46112000499E+01  0.87336789673E+03  0.46999998093E+01 0. -1.
       -5    1    3    3    0  502 -0.43715765305E+03 -0.75605642399E+03 -0.24995161175E+04  0.26477029745E+04  0.46999998093E+01 0.  1.
</event>
<event>
 5   0  0.1368865E-07  0.3974944E+04  0.7818609E-02  0.8009620E-01
       -1   -1    0    0    0  501  0.00000000000E+00  0.00000000000E+00  0.16908758867E+04  0.16908758867E+04  0.50400001928E-02 0.  1.
        1   -1    0    0  501    0  0.00000000000E+00  0.00000000000E+00 -0.23360944094E+04  0.23360944095E+04  0.50400001928E-02 0. -1.
    10030    2    1    2    0    0  0.00000000000E+00  0.00000000000E+00 -0.64521852273E+03  0.40269702962E+04  0.39749443800E+04 0.  0.
        5    1    3    3  502    0 -0.10830218496E+04  0.25033896112E+03 -0.19917221429E+04  0.22809176019E+04  0.46999998093E+01 0. -1.
       -5    1    3    3    0  502  0.10830218496E+04 -0.25033896112E+03  0.13465036202E+04  0.17460526943E+04  0.46999998093E+01 0.  1.
</event>
<event>
 5   0  0.4149487E-07  0.4009983E+04  0.7818609E-02  0.8002536E-01
       -2   -1    0    0    0  501  0.00000000000E+00  0.00000000000E+00  0.17032885561E+04  0.17032885561E+04  0.25500000920E-02 0.  1.
        2   -1    0    0  501    0  0.00000000000E+00  0.00000000000E+00 -0.23601352947E+04  0.23601352947E+04  0.25500000920E-02 0. -1.
    10030    2    1    2    0    0  0.00000000000E+00  0.00000000000E+00 -0.65684673858E+03  0.40634238508E+04  0.40099832609E+04 0.  0.
        2    1    3    3  502    0 -0.65239130179E+03  0.18324511861E+04 -0.82121672404E+03  0.21113712766E+04  0.25500000920E-02 0. -1.
       -2    1    3    3    0  502  0.65239130179E+03 -0.18324511861E+04  0.16436998547E+03  0.19520525741E+04  0.25500000920E-02 0.  1.
</event>
<event>
 5   0  0.4149487E-07  0.3623176E+04  0.7818609E-02  0.8085203E-01
        2   -1    0    0  501    0  0.00000000000E+00  0.00000000000E+00  0.13756355059E+04  0.13756355059E+04  0.25500000920E-02 0. -1.
       -2   -1    0    0    0  501  0.00000000000E+00  0.00000000000E+00 -0.23856985371E+04  0.23856985371E+04  0.25500000920E-02 0.  1.
    10030    2    1    2    0    0  0.00000000000E+00  0.00000000000E+00 -0.10100630313E+04  0.37613340430E+04  0.36231762938E+04 0.  0.
        2    1    3    3  502    0 -0.16802965855E+04 -0.61680501177E+03 -0.21508489777E+03  0.18028051894E+04  0.25500000920E-02 0. -1.
       -2    1    3    3    0  502  0.16802965855E+04  0.61680501177E+03 -0.79497813348E+03  0.19585288536E+04  0.25500000920E-02 0.  1.
</event>
<event>
 5   0  0.1351000E-07  0.3815169E+04  0.7818609E-02  0.8042907E-01
        1   -1    0    0  501    0  0.00000000000E+00  0.00000000000E+00  0.23349452219E+04  0.23349452219E+04  0.50400001928E-02 0.  1.
       -1   -1    0    0    0  501  0.00000000000E+00  0.00000000000E+00 -0.15584428123E+04  0.15584428123E+04  0.50400001928E-02 0. -1.
    10030    2    1    2    0    0  0.00000000000E+00  0.00000000000E+00  0.77650240959E+03  0.38933880341E+04  0.38151689861E+04 0.  0.
        3    1    3    3  502    0  0.90027283577E+03  0.53191337417E+03  0.20164096693E+04  0.22714160740E+04  0.10100000352E+00 0.  1.
       -3    1    3    3    0  502 -0.90027283577E+03 -0.53191337417E+03 -0.12399072598E+04  0.16219719601E+04  0.10100000352E+00 0. -1.
</event>
<event>
 5   0  0.1372952E-07  0.3051593E+04  0.7818609E-02  0.8229150E-01
        1   -1    0    0  501    0  0.00000000000E+00  0.00000000000E+00  0.14843733139E+04  0.14843733139E+04  0.50400001928E-02 0.  1.
       -1   -1    0    0    0  501  0.00000000000E+00  0.00000000000E+00 -0.15683751750E+04  0.15683751751E+04  0.50400001928E-02 0. -1.
    10030    2    1    2    0    0  0.00000000000E+00  0.00000000000E+00 -0.84001861149E+02  0.30527484890E+04  0.30515925390E+04 0.  0.
        1    1    3    3  502    0 -0.54504838626E+03  0.13621484485E+04  0.37711853080E+03  0.15148414192E+04  0.50400001928E-02 0. -1.
       -1    1    3    3    0  502  0.54504838626E+03 -0.13621484485E+04 -0.46112039195E+03  0.15379070697E+04  0.50400001928E-02 0.  1.
</event>
<event>
 5   0  0.4301754E-07  0.3632338E+04  0.7818609E-02  0.8083124E-01
        2   -1    0    0  501    0  0.00000000000E+00  0.00000000000E+00  0.12706603852E+04  0.12706603852E+04  0.25500000920E-02 0.  1.
       -2   -1    0    0    0  501  0.00000000000E+00  0.00000000000E+00 -0.25958705343E+04  0.25958705343E+04  0.25500000920E-02 0. -1.
    10030    2    1    2    0    0  0.00000000000E+00  0.00000000000E+00 -0.13252101491E+04  0.38665309194E+04  0.36323380090E+04 0.  0.
        1    1    3    3  502    0 -0.17060717991E+04 -0.94387490116E+02 -0.73868047813E+01  0.17086967393E+04  0.50400001928E-02 0.  1.
       -1    1    3    3    0  502  0.17060717991E+04  0.94387490116E+02 -0.13178233443E+04  0.21578341801E+04  0.50400001928E-02 0. -1.
</event>
<event>
 5   0  0.4047916E-07  0.3883838E+04  0.7818609E-02  0.8028399E-01
       -2   -1    0    0    0  501  0.00000000000E+00  0.00000000000E+00  0.14114678405E+04  0.14114678405E+04  0.25500000920E-02 0. -1.
        2   -1    0    0  501    0  0.00000000000E+00  0.00000000000E+00 -0.26717215453E+04  0.26717215453E+04  0.25500000920E-02 0.  1.
    10030    2    1    2    0    0  0.00000000000E+00  0.00000000000E+00 -0.12602537047E+04  0.40831893858E+04  0.38838378133E+04 0.  0.
        5    1    3    3  502    0 -0.14477826231E+04  0.12920008957E+04 -0.70940365616E+03  0.20660630377E+04  0.46999998093E+01 0.  1.
       -5    1    3    3    0  502  0.14477826231E+04 -0.12920008957E+04 -0.55085004857E+03  0.20171263481E+04  0.46999998093E+01 0. -1.
</event>
<event>
 5   0  0.1421304E-07  0.2471016E+04  0.7818609E-02  0.8413385E-01
        1   -1    0    0  501    0  0.00000000000E+00  0.00000000000E+00  0.58982396150E+03  0.58982396152E+03  0.50400001928E-02 0. -1.
       -1   -1    0    0    0  501  0.00000000000E+00  0.00000000000E+00 -0.25880262671E+04  0.25880262671E+04  0.50400001928E-02 0.  1.
    10030    2    1    2    0    0  0.00000000000E+00  0.00000000000E+00 -0.19982023056E+04  0.31778502286E+04  0.24710159088E+04 0.  0.
        2    1    3    3  502    0  0.59113090490E+03  0.68764388671E+03  0.80101051937E+02  0.91033292822E+03  0.25500000920E-02 0. -1.
       -2    1    3    3    0  502 -0.59113090490E+03 -0.68764388671E+03 -0.20783033575E+04  0.22675173004E+04  0.25500000920E-02 0.  1.
</event>
<event>
 5   0  0.1421304E-07  0.3972683E+04  0.7818609E-02  0.8010080E-01
        1   -1    0    0  501    0  0.00000000000E+00  0.00000000000E+00  0.26921513497E+04  0.26921513497E+04  0.50400001928E-02 0.  1.
       -1   -1    0    0    0  501  0.00000000000E+00  0.00000000000E+00 -0.14655761628E+04  0.14655761629E+04  0.50400001928E-02 0. -1.
    10030    2    1    2    0    0  0.00000000000E+00  0.00000000000E+00  0.12265751869E+04  0.41577275126E+04  0.39726831462E+04 0.  0.
        2    1    3    3  502    0  0.12247280068E+04  0.13133869843E+04 -0.27513965728E+03  0.18167679797E+04  0.25500000920E-02 0. -1.
       -2    1    3    3    0  502 -0.12247280068E+04 -0.13133869843E+04  0.15017148441E+04  0.23409595328E+04  0.25500000920E-02 0.  1.
</event>
<event>
 5   0  0.1351000E-07  0.3405791E+04  0.7818609E-02  0.8136487E-01
        1   -1    0    0  501    0  0.00000000000E+00  0.00000000000E+00  0.21802795919E+04  0.21802795919E+04  0.50400001928E-02 0. -1.
       -1   -1    0    0    0  501  0.00000000000E+00  0.00000000000E+00 -0.13300370342E+04  0.13300370342E+04  0.50400001928E-02 0.  1.
    10030    2    1    2    0    0  0.00000000000E+00  0.00000000000E+00  0.85024255771E+03  0.35103166261E+04  0.34057907171E+04 0.  0.
        3    1    3    3  502    0 -0.96877901451E+03 -0.80658727292E+03 -0.75488977977E+03  0.14693448872E+04  0.10100000352E+00 0.  1.
       -3    1    3    3    0  502  0.96877901451E+03  0.80658727292E+03  0.16051323375E+04  0.20409717389E+04  0.10100000352E+00 0. -1.
</event>
<event>
 5   0  0.4077370E-07  0.3942835E+04  0.7818609E-02  0.8016179E-01
        2   -1    0    0  501    0  0.00000000000E+00  0.00000000000E+00  0.27225151744E+04  0.27225151744E+04  0.25500000920E-02 0.  1.
       -2   -1    0    0    0  501  0.00000000000E+00  0.00000000000E+00 -0.14275352566E+04  0.14275352566E+04  0.25500000920E-02 0. -1.
    10030    2    1    2    0    0  0.00000000000E+00  0.00000000000E+00  0.12949799179E+04  0.41500504310E+04  0.39428347153E+04 0.  0.
        3    1    3    3  502    0 -0.17069535255E+02 -0.96268257039E+03 -0.11632220138E+04  0.15100114450E+04  0.10100000352E+00 0. -1.
       -3    1    3    3    0  502  0.17069535255E+02  0.96268257039E+03  0.24582019317E+04  0.26400389860E+04  0.10100000352E+00 0.  1.
</event>
<event>
 5   0  0.1368865E-07  0.3838651E+04  0.7818609E-02  0.8037911E-01
        1   -1    0    0  501    0  0.00000000000E+00  0.00000000000E+00  0.19806703979E+04  0.19806703979E+04  0.50400001928E-02 0. -1.
       -1   -1    0    0    0  501  0.00000000000E+00  0.00000000000E+00 -0.18598809636E+04  0.18598809636E+04  0.50400001928E-02 0.  1.
    10030    2    1    2    0    0  0.00000000000E+00  0.00000000000E+00  0.12078943430E+03  0.38405513615E+04  0.38386514133E+04 0.  0.
        5    1    3    3  502    0 -0.16516365638E+04  0.88917550077E+03 -0.34631930147E+03  0.19074840913E+04  0.46999998093E+01 0.  1.
       -5    1    3    3    0  502  0.16516365638E+04 -0.88917550077E+03  0.46710873577E+03  0.19330672702E+04  0.46999998093E+01 0. -1.
</event>
<event>
 5   0  0.1421304E-07  0.3977921E+04  0.7818609E-02  0.8009015E-01
       -1   -1    0    0    0  501  0.00000000000E+00  0.00000000000E+00  0.17146945969E+04  0.17146945970E+04  0.50400001928E-02 0. -1.
        1   -1    0    0  501    0  0.00000000000E+00  0.00000000000E+00 -0.23070950871E+04  0.23070950871E+04  0.50400001928E-02 0.  1.
    10030    2    1    2    0    0  0.00000000000E+00  0.00000000000E+00 -0.59240049018E+03  0.40217896841E+04  0.39779208039E+04 0.  0.
        2    1    3    3  502    0 -0.86242062929E+03 -0.13124000864E+04  0.93783405295E+03  0.18291243915E+04  0.25500000920E-02 0. -1.
       -2    1    3    3    0  502  0.86242062929E+03  0.13124000864E+04 -0.15302345431E+04  0.21926652926E+04  0.25500000920E-02 0.  1.
</event>
<event>
 5   0  0.4301754E-07  0.4144978E+04  0.7818609E-02  0.7975922E-01
       -2   -1    0    0    0  501  0.00000000000E+00  0.00000000000E+00  0.22505227680E+04  0.22505227680E+04  0.25500000920E-02 0.  1.
        2   -1    0    0  501    0  0.00000000000E+00  0.00000000000E+00 -0.19085395025E+04  0.19085395025E+04  0.25500000920E-02 0. -1.
    10030    2    1    2    0    0  0.00000000000E+00  0.00000000000E+00  0.34198326553E+03  0.41590622705E+04  0.41449784579E+04 0.  0.
        1    1    3    3  502    0 -0.79911910234E+03 -0.67712646393E+03  0.19653968519E+04  0.22270779900E+04  0.50400001928E-02 0.  1.
       -1    1    3    3    0  502  0.79911910234E+03  0.67712646393E+03 -0.16234135864E+04  0.19319842806E+04  0.50400001928E-02 0. -1.
</event>
<event>
 5   0  0.4047916E-07  0.3999650E+04  0.7818609E-02  0.8004617E-01
        2   -1    0    0  501    0  0.00000000000E+00  0.00000000000E+00  0.17642881281E+04  0.17642881281E+04  0.25500000920E-02 0.  1.
       -2   -1    0    0    0  501  0.00000000000E+00  0.00000000000E+00 -0.22668065947E+04  0.22668065947E+04  0.25500000920E-02 0. -1.
    10030    2    1    2    0    0  0.00000000000E+00  0.00000000000E+00 -0.50251846663E+03  0.40310947228E+04  0.39996499665E+04 0.  0.
        5    1    3    3  502    0 -0.58722373258E+03  0.91246053387E+03  0.14417873153E+04  0.18044912553E+04  0.46999998093E+01 0.  1.
       -5    1    3    3    0  502  0.58722373258E+03 -0.91246053387E+03 -0.19443057819E+04  0.22266034675E+04  0.46999998093E+01 0. -1.
</event>
<event>
 5   0  0.4047916E-07  0.3907287E+04  0.7818609E-02  0.8023515E-01
        2   -1    0    0  501    0  0.00000000000E+00  0.00000000000E+00  0.16411549273E+04  0.16411549273E+04  0.25500000920E-02 0.  1.
       -2   -1    0    0    0  501  0.00000000000E+00  0.00000000000E+00 -0.23256321576E+04  0.23256321576E+04  0.25500000920E-02 0. -1.
    10030    2    1    2    0    0  0.00000000000E+00  0.00000000000E+00 -0.68447723031E+03  0.39667870849E+04  0.39072868718E+04 0.  0.
        5    1    3    3  502    0  0.12076952048E+04  0.56551861785E+03 -0.17916918365E+04  0.22334996624E+04  0.46999998093E+01 0. -1.
       -5    1    3    3    0  502 -0.12076952048E+04 -0.56551861785E+03  0.11072146062E+04  0.17332874225E+04  0.46999998093E+01 0.  1.
</event>
<event>
 5   0  0.4047916E-07  0.3511864E+04  0.7818609E-02  0.8110984E-01
       -2   -1    0    0    0  501  0.00000000000E+00  0.00000000000E+00  0.17209225322E+04  0.17209225322E+04  0.25500000920E-02 0. -1.
        2   -1    0    0  501    0  0.00000000000E+00  0.00000000000E+00 -0.17916538012E+04  0.17916538012E+04  0.25500000920E-02 0.  1.
    10030    2    1    2    0    0  0.00000000000E+00  0.00000000000E+00 -0.70731268944E+02  0.35125763334E+04  0.35118641184E+04 0.  0.
        5    1    3    3  502    0 -0.89886914375E+03  0.14469216779E+04 -0.46174685357E+03  0.17648740256E+04  0.46999998093E+01 0.  1.
       -5    1    3    3    0  502  0.89886914375E+03 -0.14469216779E+04  0.39101558463E+03  0.17477023078E+04  0.46999998093E+01 0. -1.
</event>
<event>
 5   0  0.4149487E-07  0.3924538E+04  0.7818609E-02  0.8019945E-01
        2   -1    0    0  501    0  0.00000000000E+00  0.00000000000E+00  0.24614182882E+04  0.24614182882E+04  0.25500000920E-02 0.  1.
       -2   -1    0    0    0  501  0.00000000000E+00  0.00000000000E+00 -0.15643415158E+04  0.15643415158E+04  0.25500000920E-02 0. -1.
    10030    2    1    2    0    0  0.00000000000E+00  0.00000000000E+00  0.89707677237E+03  0.40257598040E+04  0.39245375860E+04 0.  0.
        2    1    3    3  502    0 -0.60528182443E+03 -0.70334748206E+03  0.22221312286E+04  0.24080969592E+04  0.25500000920E-02 0.  1.
       -2    1    3    3    0  502  0.60528182443E+03  0.70334748206E+03 -0.13250544563E+04  0.16176628448E+04  0.25500000920E-02 0. -1.
</event>
<event>
 5   0  0.4079777E-07  0.3432688E+04  0.7818609E-02  0.8129930E-01
       -2   -1    0    0    0  501  0.00000000000E+00  0.00000000000E+00  0.15447824939E+04  0.15447824939E+04  0.25500000920E-02 0.  1.
        2   -1    0    0  501    0  0.00000000000E+00  0.00000000000E+00 -0.19069586340E+04  0.19069586340E+04  0.25500000920E-02 0. -1.
    10030    2    1    2    0    0  0.00000000000E+00  0.00000000000E+00 -0.36217614016E+03  0.34517411279E+04  0.34326877600E+04 0.  0.
        4    1    3    3  502    0 -0.10784261869E+04 -0.27246255767E+03 -0.14954760687E+04  0.18637835633E+04  0.12699999809E+01 0. -1.
       -4    1    3    3    0  502  0.10784261869E+04  0.27246255767E+03  0.11332999286E+04  0.15879575646E+04  0.12699999809E+01 0.  1.
</event>
<event>
 5   0  0.4077370E-07  0.4119252E+04  0.7818609E-02  0.7980912E-01
       -2   -1    0    0    0  501  0.00000000000E+00  0.00000000000E+00  0.17110356425E+04  0.17110356425E+04  0.25500000920E-02 0. -1.
        2   -1    0    0  501    0  0.00000000000E+00  0.00000000000E+00 -0.24792345354E+04  0.24792345354E+04  0.25500000920E-02 0.  1.
    10030    2    1    2    0    0  0.00000000000E+00  0.00000000000E+00 -0.76819889284E+03  0.41902701779E+04  0.41192517069E+04 0.  0.
        3    1    3    3  502    0  0.14621084599E+04 -0.11423912374E+04  0.52531580991E+03  0.19284127147E+04  0.10100000352E+00 0. -1.
       -3    1    3    3    0  502 -0.14621084599E+04  0.11423912374E+04 -0.12935147028E+04  0.22618574633E+04  0.10100000352E+00 0.  1.
</event>
<event>
 5   0  0.4047916E-07  0.3951205E+04  0.7818609E-02  0.8014463E-01
       -2   -1    0    0    0  501  0.00000000000E+00  0.00000000000E+00  0.16990056878E+04  0.16990056878E+04  0.25500000920E-02 0.  1.
        2   -1    0    0  501    0  0.00000000000E+00  0.00000000000E+00 -0.22972290727E+04  0.22972290727E+04  0.25500000920E-02 0. -1.
    10030    2    1    2    0    0  0.00000000000E+00  0.00000000000E+00 -0.59822338488E+03  0.39962347605E+04  0.39512050115E+04 0.  0.
        5    1    3    3  502    0 -0.13560369805E+04 -0.89335589082E+03  0.83890580225E+03  0.18277598516E+04  0.46999998093E+01 0.  1.
       -5    1    3    3    0  502  0.13560369805E+04  0.89335589082E+03 -0.14371291871E+04  0.21684749089E+04  0.46999998093E+01 0. -1.
</event>
<event>
 5   0  0.4079777E-07  0.4026389E+04  0.7818609E-02  0.7999244E-01
       -2   -1    0    0    0  501  0.00000000000E+00  0.00000000000E+00  0.30230867173E+04  0.30230867173E+04  0.25500000920E-02 0.  1.
        2   -1    0    0  501    0  0.00000000000E+00  0.00000000000E+00 -0.13406668987E+04  0.13406668987E+04  0.25500000920E-02 0. -1.
    10030    2    1    2    0    0  0.00000000000E+00  0.00000000000E+00  0.16824198185E+04  0.43637536160E+04  0.40263890988E+04 0.  0.
        4    1    3    3  502    0 -0.61103580330E+03 -0.10612510327E+04 -0.89059170032E+03  0.15141907730E+04  0.12699999809E+01 0. -1.
       -4    1    3    3    0  502  0.61103580330E+03  0.10612510327E+04  0.25730115189E+04  0.28495628430E+04  0.12699999809E+01 0.  1.
</event>
<event>
 5   0  0.1351000E-07  0.3790091E+04  0.7818609E-02  0.8048285E-01
       -3   -1    0    0    0  501  0.00000000000E+00  0.00000000000E+00  0.26873208576E+04  0.26873208595E+04  0.10100000352E+00 0. -1.
        3   -1    0    0  501    0  0.00000000000E+00  0.00000000000E+00 -0.13363482915E+04  0.13363482953E+04  0.10100000352E+00 0.  1.
    10030    2    1    2    0    0  0.00000000000E+00  0.00000000000E+00  0.13509725661E+04  0.40236691548E+04  0.37900905785E+04 0.  0.
        5    1    3    3  502    0 -0.12816615971E+04 -0.44096520425E+03  0.20815204113E+04  0.24839194982E+04  0.46999998093E+01 0. -1.
       -5    1    3    3    0  502  0.12816615971E+04  0.44096520425E+03 -0.73054784522E+03  0.15397496566E+04  0.46999998093E+01 0.  1.
</event>
<event>
 5   0  0.4301754E-07  0.3951844E+04  0.7818609E-02  0.8014332E-01
       -2   -1    0    0    0  501  0.00000000000E+00  0.00000000000E+00  0.16997100935E+04  0.16997100935E+04  0.25500000920E-02 0. -1.
        2   -1    0    0  501    0  0.00000000000E+00  0.00000000000E+00 -0.22970195740E+04  0.22970195740E+04  0.25500000920E-02 0.  1.
    10030    2    1    2    0    0  0.00000000000E+00  0.00000000000E+00 -0.59730948047E+03  0.39967296675E+04  0.39518438000E+04 0.  0.
        1    1    3    3  502    0 -0.99077201988E+03 -0.54135326319E+03 -0.19386695458E+04  0.22434643208E+04  0.50400001928E-02 0.  1.
       -1    1    3    3    0  502  0.99077201988E+03  0.54135326319E+03  0.13413600653E+04  0.17532653467E+04  0.50400001928E-02 0. -1.
</event>
<event>
 5   0  0.1421304E-07  0.2727729E+04  0.7818609E-02  0.8326064E-01
       -1   -1    0    0    0  501  0.00000000000E+00  0.00000000000E+00  0.10770685220E+04  0.10770685220E+04  0.50400001928E-02 0.  1.
        1   -1    0    0  501    0  0.00000000000E+00  0.00000000000E+00 -0.17270263507E+04  0.17270263507E+04  0.50400001928E-02 0. -1.
    10030    2    1    2    0    0  0.00000000000E+00  0.00000000000E+00 -0.64995782870E+03  0.28040948726E+04  0.27277285194E+04 0.  0.
        2    1    3    3  502    0 -0.73847667627E+03  0.11329601975E+04 -0.50649846385E+03  0.14441216377E+04  0.25500000920E-02 0. -1.
       -2    1    3    3    0  502  0.73847667627E+03 -0.11329601975E+04 -0.14345936485E+03  0.13599732350E+04  0.25500000920E-02 0.  1.
</event>
<event>
 5   0  0.4077370E-07  0.4077176E+04  0.7818609E-02  0.7989156E-01
        2   -1    0    0  501    0  0.00000000000E+00  0.00000000000E+00  0.25273437910E+04  0.25273437910E+04  0.25500000920E-02 0.  1.
       -2   -1    0    0    0  501  0.00000000000E+00  0.00000000000E+00 -0.16443509498E+04  0.16443509498E+04  0.25500000920E-02 0. -1.
    10030    2    1    2    0    0  0.00000000000E+00  0.00000000000E+00  0.88299284117E+03  0.41716947408E+04  0.40771755730E+04 0.  0.
        3    1    3    3  502    0 -0.13818741501E+04 -0.13724363624E+04  0.10576888512E+04  0.22162724228E+04  0.10100000352E+00 0.  1.
       -3    1    3    3    0  502  0.13818741501E+04  0.13724363624E+04 -0.17469601007E+03  0.19554223180E+04  0.10100000352E+00 0. -1.
</event>
<event>
 5   0  0.1351000E-07  0.3065975E+04  0.7818609E-02  0.8225138E-01
       -1   -1    0    0    0  501  0.00000000000E+00  0.00000000000E+00  0.10461838795E+04  0.10461838796E+04  0.50400001928E-02 0. -1.
        1   -1    0    0  501    0  0.00000000000E+00  0.00000000000E+00 -0.22463081089E+04  0.22463081089E+04  0.50400001928E-02 0.  1.
    10030    2    1    2    0    0  0.00000000000E+00  0.00000000000E+00 -0.12001242293E+04  0.32924919884E+04  0.30659754285E+04 0.  0.
        4    1    3    3  502    0  0.15292172477E+04  0.66180404635E+02 -0.50916534012E+03  0.16131138190E+04  0.12699999809E+01 0.  1.
       -4    1    3    3    0  502 -0.15292172477E+04 -0.66180404635E+02 -0.69095888920E+03  0.16793781694E+04  0.12699999809E+01 0. -1.
</event>
<event>
 5   0  0.1372952E-07  0.4099735E+04  0.7818609E-02  0.7984724E-01
       -1   -1    0    0    0  501  0.00000000000E+00  0.00000000000E+00  0.20722693343E+04  0.20722693343E+04  0.50400001928E-02 0. -1.
        1   -1    0    0  501    0  0.00000000000E+00  0.00000000000E+00 -0.20277073943E+04  0.20277073943E+04  0.50400001928E-02 0.  1.
    10030    2    1    2    0    0  0.00000000000E+00  0.00000000000E+00  0.44561939957E+02  0.40999767286E+04  0.40997345535E+04 0.  0.
        1    1    3    3  502    0  0.47741229502E+03 -0.11798400843E+04  0.16292395198E+04  0.20674541197E+04  0.50400001928E-02 0. -1.
       -1    1    3    3    0  502 -0.47741229502E+03  0.11798400843E+04 -0.15846775799E+04  0.20325226090E+04  0.50400001928E-02 0.  1.
</event>
<event>
 5   0  0.1368865E-07  0.4072505E+04  0.7818609E-02  0.7990078E-01
        1   -1    0    0  501    0  0.00000000000E+00  0.00000000000E+00  0.20593661627E+04  0.20593661627E+04  0.50400001928E-02 0.  1.
       -1   -1    0    0    0  501  0.00000000000E+00  0.00000000000E+00 -0.20133984419E+04  0.20133984419E+04  0.50400001928E-02 0. -1.
    10030    2    1    2    0    0  0.00000000000E+00  0.00000000000E+00  0.45967720839E+02  0.40727646046E+04  0.40725051864E+04 0.  0.
        5    1    3    3  502    0 -0.33944709129E+03  0.19369684609E+04  0.55144101305E+03  0.20423467941E+04  0.46999998093E+01 0.  1.
       -5    1    3    3    0  502  0.33944709129E+03 -0.19369684609E+04 -0.50547329221E+03  0.20304178106E+04  0.46999998093E+01 0. -1.
</event>
<event>
 5   0  0.4079777E-07  0.4003707E+04  0.7818609E-02  0.8003799E-01
        2   -1    0    0  501    0  0.00000000000E+00  0.00000000000E+00  0.24689011448E+04  0.24689011448E+04  0.25500000920E-02 0.  1.
       -2   -1    0    0    0  501  0.00000000000E+00  0.00000000000E+00 -0.16231587234E+04  0.16231587234E+04  0.25500000920E-02 0. -1.
    10030    2    1    2    0    0  0.00000000000E+00  0.00000000000E+00  0.84574242141E+03  0.40920598682E+04  0.40037074970E+04 0.  0.
        4    1    3    3  502    0 -0.52572927333E+03  0.16138947728E+04  0.15075971433E+04  0.22702198937E+04  0.12699999809E+01 0.  1.
       -4    1    3    3    0  502  0.52572927333E+03 -0.16138947728E+04 -0.66185472186E+03  0.18218399744E+04  0.12699999809E+01 0. -1.
</event>
<event>
 5   0  0.1421304E-07  0.4221987E+04  0.7818609E-02  0.7961203E-01
       -1   -1    0    0    0  501  0.00000000000E+00  0.00000000000E+00  0.21549619235E+04  0.21549619235E+04  0.50400001928E-02 0.  1.
        1   -1    0    0  501    0  0.00000000000E+00  0.00000000000E+00 -0.20679218885E+04  0.20679218885E+04  0.50400001928E-02 0. -1.
    10030    2    1    2    0    0  0.00000000000E+00  0.00000000000E+00  0.87040035040E+02  0.42228838120E+04  0.42219867032E+04 0.  0.
        2    1    3    3  502    0  0.20904784290E+04 -0.19202538939E+03 -0.17860625176E+03  0.21068635470E+04  0.25500000920E-02 0. -1.
       -2    1    3    3    0  502 -0.20904784290E+04  0.19202538939E+03  0.26564628680E+03  0.21160202651E+04  0.25500000920E-02 0.  1.
</event>
<event>
 5   0  0.4149487E-07  0.3992372E+04  0.7818609E-02  0.8006087E-01
        2   -1    0    0  501    0  0.00000000000E+00  0.00000000000E+00  0.14695022630E+04  0.14695022630E+04  0.25500000920E-02 0.  1.
       -2   -1    0    0    0  501  0.00000000000E+00  0.00000000000E+00 -0.27116376678E+04  0.27116376678E+04  0.25500000920E-02 0. -1.
    10030    2    1    2    0    0  0.00000000000E+00  0.00000000000E+00 -0.12421354048E+04  0.41811399307E+04  0.39923715704E+04 0.  0.
        2    1    3    3  502    0 -0.13674654684E+03 -0.10426889742E+04  0.11558767542E+04  0.15626743057E+04  0.25500000920E-02 0.  1.
       -2    1    3    3    0  502  0.13674654684E+03  0.10426889742E+04 -0.23980121589E+04  0.26184656250E+04  0.25500000920E-02 0. -1.
</event>
<event>
 5   0  0.4301754E-07  0.3961947E+04  0.7818609E-02  0.8012267E-01
       -2   -1    0    0    0  501  0.00000000000E+00  0.00000000000E+00  0.17802363188E+04  0.17802363188E+04  0.25500000920E-02 0. -1.
        2   -1    0    0  501    0  0.00000000000E+00  0.00000000000E+00 -0.22043453482E+04  0.22043453482E+04  0.25500000920E-02 0.  1.
    10030    2    1    2    0    0  0.00000000000E+00  0.00000000000E+00 -0.42410902944E+03  0.39845816670E+04  0.39619468185E+04 0.  0.
        1    1    3    3  502    0 -0.36020724266E+03  0.19479487285E+04 -0.21352620811E+03  0.19924474769E+04  0.50400001928E-02 0.  1.
       -1    1    3    3    0  502  0.36020724266E+03 -0.19479487285E+04 -0.21058282133E+03  0.19921341901E+04  0.50400001928E-02 0. -1.
</event>
<event>
 5   0  0.4047916E-07  0.3726550E+04  0.7818609E-02  0.8062103E-01
        2   -1    0    0  501    0  0.00000000000E+00  0.00000000000E+00  0.13132791482E+04  0.13132791482E+04  0.25500000920E-02 0.  1.
       -2   -1    0    0    0  501  0.00000000000E+00  0.00000000000E+00 -0.26436067901E+04  0.26436067901E+04  0.25500000920E-02 0. -1.
    10030    2    1    2    0    0  0.00000000000E+00  0.00000000000E+00 -0.13303276419E+04  0.39568859384E+04  0.37265499721E+04 0.  0.
        5    1    3    3  502    0 -0.14244638279E+04  0.39705651653E+03 -0.18688176774E+04  0.23831182672E+04  0.46999998093E+01 0. -1.
       -5    1    3    3    0  502  0.14244638279E+04 -0.39705651653E+03  0.53849003547E+03  0.15737676711E+04  0.46999998093E+01 0.  1.
</event>
<event>
 5   0  0.1421304E-07  0.2916733E+04  0.7818609E-02  0.8267916E-01
       -1   -1    0    0    0  501  0.00000000000E+00  0.00000000000E+00  0.11404943847E+04  0.11404943847E+04  0.50400001928E-02 0. -1.
        1   -1    0    0  501    0  0.00000000000E+00  0.00000000000E+00 -0.18648336191E+04  0.18648336191E+04  0.50400001928E-02 0.  1.
    10030    2    1    2    0    0  0.00000000000E+00  0.00000000000E+00 -0.72433923443E+03  0.30053280038E+04  0.29167326041E+04 0.  0.
        2    1    3    3  502    0  0.88946950856E+03 -0.87311394257E+03  0.41802783771E+03  0.13146220888E+04  0.25500000920E-02 0. -1.
       -2    1    3    3    0  502 -0.88946950856E+03  0.87311394257E+03 -0.11423670721E+04  0.16907059150E+04  0.25500000920E-02 0.  1.
</event>
<event>
 5   0  0.1351000E-07  0.3063918E+04  0.7818609E-02  0.8225711E-01
        1   -1    0    0  501    0  0.00000000000E+00  0.00000000000E+00  0.14871762695E+04  0.14871762695E+04  0.50400001928E-02 0.  1.
       -1   -1    0    0    0  501  0.00000000000E+00  0.00000000000E+00 -0.15780900425E+04  0.15780900425E+04  0.50400001928E-02 0. -1.
    10030    2    1    2    0    0  0.00000000000E+00  0.00000000000E+00 -0.90913773024E+02  0.30652663120E+04  0.30639177942E+04 0.  0.
        4    1    3    3  502    0  0.95346903376E+03  0.57762314151E+02 -0.12436721155E+04  0.15681714278E+04  0.12699999809E+01 0. -1.
       -4    1    3    3    0  502 -0.95346903376E+03 -0.57762314151E+02  0.11527583425E+04  0.14970948842E+04  0.12699999809E+01 0.  1.
</event>
<event>
 5   0  0.4079777E-07  0.2964365E+04  0.7818609E-02  0.8253981E-01
        2   -1    0    0  501    0  0.00000000000E+00  0.00000000000E+00  0.16366732520E+04  0.16366732520E+04  0.25500000920E-02 0. -1.
       -2   -1    0    0    0  501  0.00000000000E+00  0.00000000000E+00 -0.13422743055E+04  0.13422743055E+04  0.25500000920E-02 0.  1.
    10030    2    1    2    0    0  0.00000000000E+00  0.00000000000E+00  0.29439894643E+03  0.29789475575E+04  0.29643646555E+04 0.  0.
        4    1    3    3  502    0 -0.49784951830E+03 -0.37022310642E+03 -0.12055069829E+04  0.13557905407E+04  0.12699999809E+01 0.  1.
       -4    1    3    3    0  502  0.49784951830E+03  0.37022310642E+03  0.14999059294E+04  0.16231570168E+04  0.12699999809E+01 0. -1.
</event>
<event>
 5   0  0.4077370E-07  0.4008534E+04  0.7818609E-02  0.8002827E-01
        2   -1    0    0  501    0  0.00000000000E+00  0.00000000000E+00  0.23732887277E+04  0.23732887277E+04  0.25500000920E-02 0.  1.
       -2   -1    0    0    0  501  0.00000000000E+00  0.00000000000E+00 -0.16926245112E+04  0.16926245112E+04  0.25500000920E-02 0. -1.
    10030    2    1    2    0    0  0.00000000000E+00  0.00000000000E+00  0.68066421655E+03  0.40659132389E+04  0.40085342322E+04 0.  0.
        3    1    3    3  502    0  0.15336359921E+04 -0.57139621871E+02 -0.96722174229E+03  0.18140623477E+04  0.10100000352E+00 0. -1.
       -3    1    3    3    0  502 -0.15336359921E+04  0.57139621871E+02  0.16478859588E+04  0.22518508912E+04  0.10100000352E+00 0.  1.
</event>
<event>
 5   0  0.1372952E-07  0.4119220E+04  0.7818609E-02  0.7980919E-01
        1   -1    0    0  501    0  0.00000000000E+00  0.00000000000E+00  0.22811148872E+04  0.22811148872E+04  0.50400001928E-02 0.  1.
       -1   -1    0    0    0  501  0.00000000000E+00  0.00000000000E+00 -0.18596143352E+04  0.18596143352E+04  0.50400001928E-02 0. -1.
    10030    2    1    2    0    0  0.00000000000E+00  0.00000000000E+00  0.42150055199E+03  0.41407292223E+04  0.41192202876E+04 0.  0.
        1    1    3    3  502    0 -0.18480700767E+04  0.71783767133E+03 -0.35014177298E+03  0.20132692795E+04  0.50400001928E-02 0. -1.
       -1    1    3    3    0  502  0.18480700767E+04 -0.71783767133E+03  0.77164232497E+03  0.21274599428E+04  0.50400001928E-02 0.  1.
</event>
<event>
 5   0  0.1351000E-07  0.3798097E+04  0.7818609E-02  0.8046563E-01
        1   -1    0    0  501    0  0.00000000000E+00  0.00000000000E+00  0.29865313574E+04  0.29865313574E+04  0.50400001928E-02 0. -1.
       -1   -1    0    0    0  501  0.00000000000E+00  0.00000000000E+00 -0.12075499219E+04  0.12075499219E+04  0.50400001928E-02 0.  1.
    10030    2    1    2    0    0  0.00000000000E+00  0.00000000000E+00  0.17789814355E+04  0.41940812793E+04  0.37980972644E+04 0.  0.
        3    1    3    3  502    0  0.60350624246E+03 -0.15494181003E+04  0.19024452231E+04  0.25267002337E+04  0.10100000352E+00 0. -1.
       -3    1    3    3    0  502 -0.60350624246E+03  0.15494181003E+04 -0.12346378765E+03  0.16673810456E+04  0.10100000352E+00 0.  1.
</event>
<event>
 5   0  0.2184504E-07  0.2465408E+04  0.7818609E-02  0.8415414E-01
       -1   -1    0    0    0  501  0.00000000000E+00  0.00000000000E+00  0.12016756682E+04  0.12016756682E+04  0.50400001928E-02 0.  1.
        1   -1    0    0  501    0  0.00000000000E+00  0.00000000000E+00 -0.12645331012E+04  0.12645331012E+04  0.50400001928E-02 0. -1.
    10030    2    1    2    0    0  0.00000000000E+00  0.00000000000E+00 -0.62857433009E+02  0.24662087694E+04  0.24654076007E+04 0.  0.
        2    1    3    3  502    0 -0.71439673980E+03 -0.42813672028E+02 -0.10354295964E+04  0.12586938315E+04  0.25500000920E-02 0. -1.
       -2    1    3    3    0  502  0.71439673980E+03  0.42813672028E+02  0.97257216338E+03  0.12075149379E+04  0.25500000920E-02 0.  1.
</event>
<event>
 5   0  0.1421304E-07  0.4002356E+04  0.7818609E-02  0.8004071E-01
       -1   -1    0    0    0  501  0.00000000000E+00  0.00000000000E+00  0.15016443211E+04  0.15016443211E+04  0.50400001928E-02 0.  1.
        1   -1    0    0  501    0  0.00000000000E+00  0.00000000000E+00 -0.26668859042E+04  0.26668859042E+04  0.50400001928E-02 0. -1.
    10030    2    1    2    0    0  0.00000000000E+00  0.00000000000E+00 -0.11652415832E+04  0.41685302253E+04  0.40023563425E+04 0.  0.
        2    1    3    3  502    0 -0.56596814129E+03  0.35841685167E+03  0.13813901148E+04  0.15352593350E+04  0.25500000920E-02 0.  1.
       -2    1    3    3    0  502  0.56596814129E+03 -0.35841685167E+03 -0.25466316980E+04  0.26332708903E+04  0.25500000920E-02 0. -1.
</event>
<event>
 5   0  0.4047916E-07  0.2630954E+04  0.7818609E-02  0.8357762E-01
       -2   -1    0    0    0  501  0.00000000000E+00  0.00000000000E+00  0.95782289301E+03  0.95782289302E+03  0.25500000920E-02 0.  1.
        2   -1    0    0  501    0  0.00000000000E+00  0.00000000000E+00 -0.18066802500E+04  0.18066802500E+04  0.25500000920E-02 0. -1.
    10030    2    1    2    0    0  0.00000000000E+00  0.00000000000E+00 -0.84885735694E+03  0.27645031430E+04  0.26309539743E+04 0.  0.
        5    1    3    3  502    0  0.25232456468E+03 -0.90882887188E+03  0.53907939159E+03  0.10864006097E+04  0.46999998093E+01 0.  1.
       -5    1    3    3    0  502 -0.25232456468E+03  0.90882887188E+03 -0.13879367485E+04  0.16781025333E+04  0.46999998093E+01 0. -1.
</event>
<event>
 5   0  0.1368865E-07  0.3866390E+04  0.7818609E-02  0.8032056E-01
       -1   -1    0    0    0  501  0.00000000000E+00  0.00000000000E+00  0.14746569266E+04  0.14746569266E+04  0.50400001928E-02 0. -1.
        1   -1    0    0  501    0  0.00000000000E+00  0.00000000000E+00 -0.25343130512E+04  0.25343130512E+04  0.50400001928E-02 0.  1.
    10030    2    1    2    0    0  0.00000000000E+00  0.00000000000E+00 -0.10596561246E+04  0.40089699778E+04  0.38663896829E+04 0.  0.
        5    1    3    3  502    0  0.15715691292E+04  0.28315394159E+03  0.59994647104E+03  0.17058615244E+04  0.46999998093E+01 0. -1.
       -5    1    3    3    0  502 -0.15715691292E+04 -0.28315394159E+03 -0.16596025957E+04  0.23031084534E+04  0.46999998093E+01 0.  1.
</event>
<event>
 5   0  0.1351000E-07  0.3101596E+04  0.7818609E-02  0.8215300E-01
       -1   -1    0    0    0  501  0.00000000000E+00  0.00000000000E+00  0.12448257908E+04  0.12448257909E+04  0.50400001928E-02 0.  1.
        1   -1    0    0  501    0  0.00000000000E+00  0.00000000000E+00 -0.19319772606E+04  0.19319772606E+04  0.50400001928E-02 0. -1.
    10030    2    1    2    0    0  0.00000000000E+00  0.00000000000E+00 -0.68715146975E+03  0.31768030515E+04  0.31015964414E+04 0.  0.
        3    1    3    3  502    0 -0.37135149714E+03 -0.15050228588E+04 -0.38914464368E+03  0.15982582094E+04  0.10100000352E+00 0. -1.
       -3    1    3    3    0  502  0.37135149714E+03  0.15050228588E+04 -0.29800682607E+03  0.15785448421E+04  0.10100000352E+00 0.  1.
</event>
<event>
 5   0  0.1368865E-07  0.3432711E+04  0.7818609E-02  0.8129924E-01
        1   -1    0    0  501    0  0.00000000000E+00  0.00000000000E+00  0.13742590464E+04  0.13742590464E+04  0.50400001928E-02 0. -1.
       -1   -1    0    0    0  501  0.00000000000E+00  0.00000000000E+00 -0.21436104596E+04  0.21436104596E+04  0.50400001928E-02 0.  1.
    10030    2    1    2    0    0  0.00000000000E+00  0.00000000000E+00 -0.76935141322E+03  0.35178695061E+04  0.34327109206E+04 0.  0.
        5    1    3    3  502    0 -0.11640411225E+04  0.82270861537E+03 -0.13644332746E+04  0.19732058817E+04  0.46999998093E+01 0.  1.
       -5    1    3    3    0  502  0.11640411225E+04 -0.82270861537E+03  0.59508186133E+03  0.15446636244E+04  0.46999998093E+01 0. -1.
</event>
<event>
 5   0  0.1351000E-07  0.3986208E+04  0.7818609E-02  0.8007335E-01
       -1   -1    0    0    0  501  0.00000000000E+00  0.00000000000E+00  0.20480960009E+04  0.20480960009E+04  0.50400001928E-02 0.  1.
        1   -1    0    0  501    0  0.00000000000E+00  0.00000000000E+00 -0.19395885658E+04  0.19395885658E+04  0.50400001928E-02 0. -1.
    10030    2    1    2    0    0  0.00000000000E+00  0.00000000000E+00  0.10850743503E+03  0.39876845667E+04  0.39862080152E+04 0.  0.
        4    1    3    3  502    0  0.17838007778E+04  0.59614824415E+03 -0.60562993974E+03  0.19758864291E+04  0.12699999809E+01 0. -1.
       -4    1    3    3    0  502 -0.17838007778E+04 -0.59614824415E+03  0.71413737477E+03  0.20117981377E+04  0.12699999809E+01 0.  1.
</event>
<event>
 5   0  0.4149487E-07  0.3954234E+04  0.7818609E-02  0.8013843E-01
       -2   -1    0    0    0  501  0.00000000000E+00  0.00000000000E+00  0.17892307234E+04  0.17892307234E+04  0.25500000920E-02 0. -1.
        2   -1    0    0  501    0  0.00000000000E+00  0.00000000000E+00 -0.21847327290E+04  0.21847327290E+04  0.25500000920E-02 0.  1.
    10030    2    1    2    0    0  0.00000000000E+00  0.00000000000E+00 -0.39550200569E+03  0.39739634524E+04  0.39542336406E+04 0.  0.
        2    1    3    3  502    0 -0.77501883682E+03 -0.91755958313E+03  0.13805693569E+04  0.18299020562E+04  0.25500000920E-02 0. -1.
       -2    1    3    3    0  502  0.77501883682E+03  0.91755958313E+03 -0.17760713625E+04  0.21440613962E+04  0.25500000920E-02 0.  1.
</event>
<event>
 5   0  0.4301754E-07  0.3926011E+04  0.7818609E-02  0.8019641E-01
       -2   -1    0    0    0  501  0.00000000000E+00  0.00000000000E+00  0.17509667292E+04  0.17509667292E+04  0.25500000920E-02 0.  1.
        2   -1    0    0  501    0  0.00000000000E+00  0.00000000000E+00 -0.22007214568E+04  0.22007214568E+04  0.25500000920E-02 0. -1.
    10030    2    1    2    0    0  0.00000000000E+00  0.00000000000E+00 -0.44975472764E+03  0.39516881860E+04  0.39260107239E+04 0.  0.
        1    1    3    3  502    0  0.50588327605E+03 -0.16522322418E+04  0.71266554691E+03  0.18691392275E+04  0.50400001928E-02 0.  1.
       -1    1    3    3    0  502 -0.50588327605E+03  0.16522322418E+04 -0.11624202746E+04  0.20825489585E+04  0.50400001928E-02 0. -1.
</event>
<event>
 5   0  0.1368865E-07  0.4276992E+04  0.7818609E-02  0.7950886E-01
        1   -1    0    0  501    0  0.00000000000E+00  0.00000000000E+00  0.13926496798E+04  0.13926496799E+04  0.50400001928E-02 0.  1.
       -1   -1    0    0    0  501  0.00000000000E+00  0.00000000000E+00 -0.32837871548E+04  0.32837871548E+04  0.50400001928E-02 0. -1.
    10030    2    1    2    0    0  0.00000000000E+00  0.00000000000E+00 -0.18911374749E+04  0.46764368346E+04  0.42769919943E+04 0.  0.
        5    1    3    3  502    0  0.11352962302E+03  0.36737190162E+03 -0.32456734044E+04  0.32683740648E+04  0.46999998093E+01 0. -1.
       -5    1    3    3    0  502 -0.11352962302E+03 -0.36737190162E+03  0.13545359295E+04  0.14080627698E+04  0.46999998093E+01 0.  1.
</event>
<event>
 5   0  0.1421304E-07  0.3128869E+04  0.7818609E-02  0.8207860E-01
       -1   -1    0    0    0  501  0.00000000000E+00  0.00000000000E+00  0.21597334830E+04  0.21597334830E+04  0.50400001928E-02 0.  1.
        1   -1    0    0  501    0  0.00000000000E+00  0.00000000000E+00 -0.11332207921E+04  0.11332207921E+04  0.50400001928E-02 0. -1.
    10030    2    1    2    0    0  0.00000000000E+00  0.00000000000E+00  0.10265126909E+04  0.32929542751E+04  0.31288687338E+04 0.  0.
        2    1    3    3  502    0  0.14490991984E+04 -0.48569113428E+03  0.86495251068E+03  0.17561113890E+04  0.25500000920E-02 0. -1.
       -2    1    3    3    0  502 -0.14490991984E+04  0.48569113428E+03  0.16156018021E+03  0.15368428861E+04  0.25500000920E-02 0.  1.
</event>
<event>
 5   0  0.1351000E-07  0.2492181E+04  0.7818609E-02  0.8405776E-01
       -1   -1    0    0    0  501  0.00000000000E+00  0.00000000000E+00  0.15646476335E+04  0.15646476335E+04  0.50400001928E-02 0. -1.
        1   -1    0    0  501    0  0.00000000000E+00  0.00000000000E+00 -0.99239044320E+03  0.99239044322E+03  0.50400001928E-02 0.  1.
    10030    2    1    2    0    0  0.00000000000E+00  0.00000000000E+00  0.57225719034E+03  0.25570380768E+04  0.24921808590E+04 0.  0.
        3    1    3    3  502    0 -0.91329115854E+03 -0.63263044703E+03 -0.29284312088E+03  0.11489469641E+04  0.10100000352E+00 0.  1.
       -3    1    3    3    0  502  0.91329115854E+03  0.63263044703E+03  0.86510031122E+03  0.14080911126E+04  0.10100000352E+00 0. -1.
</event>
<event>
 5   0  0.4149487E-07  0.4056924E+04  0.7818609E-02  0.7993161E-01
       -2   -1    0    0    0  501  0.00000000000E+00  0.00000000000E+00  0.17879225949E+04  0.17879225949E+04  0.25500000920E-02 0.  1.
        2   -1    0    0  501    0  0.00000000000E+00  0.00000000000E+00 -0.23013621126E+04  0.23013621126E+04  0.25500000920E-02 0. -1.
    10030    2    1    2    0    0  0.00000000000E+00  0.00000000000E+00 -0.51343951770E+03  0.40892847074E+04  0.40569236227E+04 0.  0.
        2    1    3    3  502    0  0.16006344226E+04 -0.66103342569E+03 -0.13213940192E+04  0.21783199716E+04  0.25500000920E-02 0. -1.
       -2    1    3    3    0  502 -0.16006344226E+04  0.66103342569E+03  0.80795450153E+03  0.19109647358E+04  0.25500000920E-02 0.  1.
</event>
<event>
 5   0  0.4301754E-07  0.3056537E+04  0.7818609E-02  0.8227768E-01
       -2   -1    0    0    0  501  0.00000000000E+00  0.00000000000E+00  0.15844343294E+04  0.15844343294E+04  0.25500000920E-02 0. -1.
        2   -1    0    0  501    0  0.00000000000E+00  0.00000000000E+00 -0.14740934685E+04  0.14740934685E+04  0.25500000920E-02 0.  1.
    10030    2    1    2    0    0  0.00000000000E+00  0.00000000000E+00  0.11034086093E+03  0.30585277979E+04  0.30565367960E+04 0.  0.
        1    1    3    3  502    0 -0.10029202649E+04 -0.63003497803E+03 -0.91128019488E+03  0.14943977800E+04  0.50400001928E-02 0.  1.
       -1    1    3    3    0  502  0.10029202649E+04  0.63003497803E+03  0.10216210558E+04  0.15641300179E+04  0.50400001928E-02 0. -1.
</event>
<event>
 5   0  0.1372952E-07  0.3983943E+04  0.7818609E-02  0.8007794E-01
        1   -1    0    0  501    0  0.00000000000E+00  0.00000000000E+00  0.32901440912E+04  0.32901440912E+04  0.50400001928E-02 0. -1.
       -1   -1    0    0    0  501  0.00000000000E+00  0.00000000000E+00 -0.12060112390E+04  0.12060112390E+04  0.50400001928E-02 0.  1.
    10030    2    1    2    0    0  0.00000000000E+00  0.00000000000E+00  0.20841328522E+04  0.44961553302E+04  0.39839431482E+04 0.  0.
        1    1    3    3  502    0  0.65579950366E+03  0.18809231121E+04  0.10448329946E+04  0.22493600711E+04  0.50400001928E-02 0. -1.
       -1    1    3    3    0  502 -0.65579950366E+03 -0.18809231121E+04  0.10392998576E+04  0.22467952592E+04  0.50400001928E-02 0.  1.
</event>
<event>
 5   0  0.4149487E-07  0.3923079E+04  0.7818609E-02  0.8020246E-01
        2   -1    0    0  501    0  0.00000000000E+00  0.00000000000E+00  0.26667057542E+04  0.26667057542E+04  0.25500000920E-02 0. -1.
       -2   -1    0    0    0  501  0.00000000000E+00  0.00000000000E+00 -0.14428429959E+04  0.14428429959E+04  0.25500000920E-02 0.  1.
    10030    2    1    2    0    0  0.00000000000E+00  0.00000000000E+00  0.12238627584E+04  0.41095487501E+04  0.39230792597E+04 0.  0.
        2    1    3    3  502    0  0.19216456229E+04  0.27601225713E+03  0.31800023724E+03  0.19672388815E+04  0.25500000920E-02 0.  1.
       -2    1    3    3    0  502 -0.19216456229E+04 -0.27601225713E+03  0.90586252114E+03  0.21423098686E+04  0.25500000920E-02 0. -1.
</event>
<event>
 5   0  0.1351000E-07  0.3079015E+04  0.7818609E-02  0.8221521E-01
       -1   -1    0    0    0  501  0.00000000000E+00  0.00000000000E+00  0.11661634060E+04  0.11661634060E+04  0.50400001928E-02 0. -1.
        1   -1    0    0  501    0  0.00000000000E+00  0.00000000000E+00 -0.20323765284E+04  0.20323765284E+04  0.50400001928E-02 0.  1.
    10030    2    1    2    0    0  0.00000000000E+00  0.00000000000E+00 -0.86621312235E+03  0.31985399344E+04  0.30790148650E+04 0.  0.
        4    1    3    3  502    0  0.99995132519E+03 -0.95144771407E+03 -0.11414305708E+04  0.17910948513E+04  0.12699999809E+01 0.  1.
       -4    1    3    3    0  502 -0.99995132519E+03  0.95144771407E+03  0.27521744843E+03  0.14074450832E+04  0.12699999809E+01 0. -1.
</event>
<event>
 5   0  0.1351000E-07  0.4000646E+04  0.7818609E-02  0.8004416E-01
       -1   -1    0    0    0  501  0.00000000000E+00  0.00000000000E+00  0.18141269028E+04  0.18141269028E+04  0.50400001928E-02 0. -1.
        1   -1    0    0  501    0  0.00000000000E+00  0.00000000000E+00 -0.22056294800E+04  0.22056294800E+04  0.50400001928E-02 0.  1.
    10030    2    1    2    0    0  0.00000000000E+00  0.00000000000E+00 -0.39150257717E+03  0.40197563828E+04  0.40006458365E+04 0.  0.
        3    1    3    3  502    0  0.70538201806E+03  0.88403218006E+03  0.14620437852E+04  0.18484178983E+04  0.10100000352E+00 0. -1.
       -3    1    3    3    0  502 -0.70538201806E+03 -0.88403218006E+03 -0.18535463623E+04  0.21713384845E+04  0.10100000352E+00 0.  1.
</event>
<event>
 5   0  0.4047916E-07  0.3554727E+04  0.7818609E-02  0.8100941E-01
       -2   -1    0    0    0  501  0.00000000000E+00  0.00000000000E+00  0.13990600636E+04  0.13990600636E+04  0.25500000920E-02 0.  1.
        2   -1    0    0  501    0  0.00000000000E+00  0.00000000000E+00 -0.22579597574E+04  0.22579597574E+04  0.25500000920E-02 0. -1.
    10030    2    1    2    0    0  0.00000000000E+00  0.00000000000E+00 -0.85889969375E+03  0.36570198210E+04  0.35547271748E+04 0.  0.
        5    1    3    3  502    0 -0.11683231111E+04  0.42034677236E+03 -0.17377886366E+04  0.21357906584E+04  0.46999998093E+01 0. -1.
       -5    1    3    3    0  502  0.11683231111E+04 -0.42034677236E+03  0.87888894288E+03  0.15212291625E+04  0.46999998093E+01 0.  1.
</event>
<event>
 5   0  0.4149487E-07  0.3425936E+04  0.7818609E-02  0.8131570E-01
       -2   -1    0    0    0  501  0.00000000000E+00  0.00000000000E+00  0.18052516867E+04  0.18052516867E+04  0.25500000920E-02 0. -1.
        2   -1    0    0  501    0  0.00000000000E+00  0.00000000000E+00 -0.16254015219E+04  0.16254015219E+04  0.25500000920E-02 0.  1.
    10030    2    1    2    0    0  0.00000000000E+00  0.00000000000E+00  0.17985016478E+03  0.34306532087E+04  0.34259356906E+04 0.  0.
        2    1    3    3  502    0  0.25001690480E+03 -0.95909586271E+03 -0.13090976878E+04  0.16419835817E+04  0.25500000920E-02 0.  1.
       -2    1    3    3    0  502 -0.25001690480E+03  0.95909586271E+03  0.14889478526E+04  0.17886696269E+04  0.25500000920E-02 0. -1.
</event>
<event>
 5   0  0.1351000E-07  0.3841986E+04  0.7818609E-02  0.8037204E-01
        3   -1    0    0  501    0  0.00000000000E+00  0.00000000000E+00  0.24445843600E+04  0.24445843621E+04  0.10100000352E+00 0. -1.
       -3   -1    0    0    0  501  0.00000000000E+00  0.00000000000E+00 -0.15095463262E+04  0.15095463296E+04  0.10100000352E+00 0.  1.
    10030    2    1    2    0    0  0.00000000000E+00  0.00000000000E+00  0.93503803377E+03  0.39541306916E+04  0.38419856067E+04 0.  0.
        3    1    3    3  502    0 -0.15621261962E+04 -0.11040327880E+04  0.64897969537E+03  0.20199755704E+04  0.10100000352E+00 0. -1.
       -3    1    3    3    0  502  0.15621261962E+04  0.11040327880E+04  0.28605833841E+03  0.19341551212E+04  0.10100000352E+00 0.  1.
</event>
<event>
 5   0  0.1368865E-07  0.4001245E+04  0.7818609E-02  0.8004295E-01
       -1   -1    0    0    0  501  0.00000000000E+00  0.00000000000E+00  0.20075153939E+04  0.20075153939E+04  0.50400001928E-02 0. -1.
        1   -1    0    0  501    0  0.00000000000E+00  0.00000000000E+00 -0.19937532835E+04  0.19937532835E+04  0.50400001928E-02 0.  1.
    10030    2    1    2    0    0  0.00000000000E+00  0.00000000000E+00  0.13762110425E+02  0.40012686774E+04  0.40012450104E+04 0.  0.
        5    1    3    3  502    0  0.17444102424E+04  0.63567076909E+03  0.75215313205E+03  0.20031976549E+04  0.46999998093E+01 0. -1.
       -5    1    3    3    0  502 -0.17444102424E+04 -0.63567076909E+03 -0.73839102163E+03  0.19980710226E+04  0.46999998093E+01 0.  1.
</event>
<event>
 5   0  0.1421304E-07  0.2735876E+04  0.7818609E-02  0.8323458E-01
        1   -1    0    0  501    0  0.00000000000E+00  0.00000000000E+00  0.14169047984E+04  0.14169047984E+04  0.50400001928E-02 0.  1.
       -1   -1    0    0    0  501  0.00000000000E+00  0.00000000000E+00 -0.13206630184E+04  0.13206630185E+04  0.50400001928E-02 0. -1.
    10030    2    1    2    0    0  0.00000000000E+00  0.00000000000E+00  0.96241779985E+02  0.27375678169E+04  0.27358755585E+04 0.  0.
        2    1    3    3  502    0  0.52292930741E+03 -0.23804503312E+03 -0.11940708728E+04  0.13251134848E+04  0.25500000920E-02 0. -1.
       -2    1    3    3    0  502 -0.52292930741E+03  0.23804503312E+03  0.12903126528E+04  0.14124543321E+04  0.25500000920E-02 0.  1.
</event>
<event>
 5   0  0.1372952E-07  0.4127069E+04  0.7818609E-02  0.7979392E-01
        1   -1    0    0  501    0  0.00000000000E+00  0.00000000000E+00  0.26798891307E+04  0.26798891308E+04  0.50400001928E-02 0.  1.
       -1   -1    0    0    0  501  0.00000000000E+00  0.00000000000E+00 -0.15889366499E+04  0.15889366499E+04  0.50400001928E-02 0. -1.
    10030    2    1    2    0    0  0.00000000000E+00  0.00000000000E+00  0.10909524808E+04  0.42688257807E+04  0.41270687213E+04 0.  0.
        1    1    3    3  502    0 -0.87071555689E+03  0.18663314868E+04  0.67968368858E+03  0.21687113031E+04  0.50400001928E-02 0. -1.
       -1    1    3    3    0  502  0.87071555689E+03 -0.18663314868E+04  0.41126879226E+03  0.21001144776E+04  0.50400001928E-02 0.  1.
</event>
<event>
 5   0  0.4149487E-07  0.3907107E+04  0.7818609E-02  0.8023553E-01
        2   -1    0    0  501    0  0.00000000000E+00  0.00000000000E+00  0.21653664139E+04  0.21653664140E+04  0.25500000920E-02 0. -1.
       -2   -1    0    0    0  501  0.00000000000E+00  0.00000000000E+00 -0.17624600449E+04  0.17624600449E+04  0.25500000920E-02 0.  1.
    10030    2    1    2    0    0  0.00000000000E+00  0.00000000000E+00  0.40290636900E+03  0.39278264589E+04  0.39071072610E+04 0.  0.
        2    1    3    3  502    0  0.10652248505E+04  0.12679446003E+04  0.12432809387E+04  0.20707812497E+04  0.25500000920E-02 0. -1.
       -2    1    3    3    0  502 -0.10652248505E+04 -0.12679446003E+04 -0.84037456971E+03  0.18570452092E+04  0.25500000920E-02 0.  1.
</event>
<event>
 5   0  0.1372952E-07  0.3004958E+04  0.7818609E-02  0.8242317E-01
        1   -1    0    0  501    0  0.00000000000E+00  0.00000000000E+00  0.22196165105E+04  0.22196165105E+04  0.50400001928E-02 0. -1.
       -1   -1    0    0    0  501  0.00000000000E+00  0.00000000000E+00 -0.10170419333E+04  0.10170419333E+04  0.50400001928E-02 0.  1.
    10030    2    1    2    0    0  0.00000000000E+00  0.00000000000E+00  0.12025745772E+04  0.32366584439E+04  0.30049579479E+04 0.  0.
        1    1    3    3  502    0  0.14164323191E+04 -0.31580906850E+03  0.10204285317E+04  0.17740603910E+04  0.50400001928E-02 0. -1.
       -1    1    3    3    0  502 -0.14164323191E+04  0.31580906850E+03  0.18214604549E+03  0.14625980529E+04  0.50400001928E-02 0.  1.
</event>
<event>
 5   0  0.4047916E-07  0.3968266E+04  0.7818609E-02  0.8010979E-01
        2   -1    0    0  501    0  0.00000000000E+00  0.00000000000E+00  0.33647597386E+04  0.33647597386E+04  0.25500000920E-02 0. -1.
       -2   -1    0    0    0  501  0.00000000000E+00  0.00000000000E+00 -0.11700044338E+04  0.11700044338E+04  0.25500000920E-02 0.  1.
    10030    2    1    2    0    0  0.00000000000E+00  0.00000000000E+00  0.21947553048E+04  0.45347641724E+04  0.39682660257E+04 0.  0.
        5    1    3    3  502    0 -0.53006085926E+03 -0.18827416487E+04  0.14782452258E+04  0.24517160659E+04  0.46999998093E+01 0. -1.
       -5    1    3    3    0  502  0.53006085926E+03  0.18827416487E+04  0.71651007901E+03  0.20830481064E+04  0.46999998093E+01 0.  1.
</event>
<event>
 5   0  0.1351000E-07  0.2550538E+04  0.7818609E-02  0.8385199E-01
       -1   -1    0    0    0  501  0.00000000000E+00  0.00000000000E+00  0.14153776387E+04  0.14153776387E+04  0.50400001928E-02 0. -1.
        1   -1    0    0  501    0  0.00000000000E+00  0.00000000000E+00 -0.11490298562E+04  0.11490298562E+04  0.50400001928E-02 0.  1.
    10030    2    1    2    0    0  0.00000000000E+00  0.00000000000E+00  0.26634778249E+03  0.25644074949E+04  0.25505381115E+04 0.  0.
        3    1    3    3  502    0  0.40701281610E+03  0.86046125702E+03 -0.72012132293E+03  0.11935777047E+04  0.10100000352E+00 0.  1.
       -3    1    3    3    0  502 -0.40701281610E+03 -0.86046125702E+03  0.98646910543E+03  0.13708297901E+04  0.10100000352E+00 0. -1.
</event>
<event>
 5   0  0.1351000E-07  0.4117694E+04  0.7818609E-02  0.7981216E-01
       -3   -1    0    0    0  501  0.00000000000E+00  0.00000000000E+00  0.18850204034E+04  0.18850204061E+04  0.10100000352E+00 0. -1.
        3   -1    0    0  501    0  0.00000000000E+00  0.00000000000E+00 -0.22487027470E+04  0.22487027492E+04  0.10100000352E+00 0.  1.
    10030    2    1    2    0    0  0.00000000000E+00  0.00000000000E+00 -0.36368234352E+03  0.41337231554E+04  0.41176938058E+04 0.  0.
        1    1    3    3  502    0 -0.86323913709E+03  0.18109756462E+04  0.28260001026E+03  0.20260003368E+04  0.50400001928E-02 0. -1.
       -1    1    3    3    0  502  0.86323913709E+03 -0.18109756462E+04 -0.64628235378E+03  0.21077228185E+04  0.50400001928E-02 0.  1.
</event>
<event>
 5   0  0.1368865E-07  0.2701181E+04  0.7818609E-02  0.8334622E-01
        1   -1    0    0  501    0  0.00000000000E+00  0.00000000000E+00  0.16388496654E+04  0.16388496654E+04  0.50400001928E-02 0.  1.
       -1   -1    0    0    0  501  0.00000000000E+00  0.00000000000E+00 -0.11130338899E+04  0.11130338899E+04  0.50400001928E-02 0. -1.
    10030    2    1    2    0    0  0.00000000000E+00  0.00000000000E+00  0.52581577547E+03  0.27518835553E+04  0.27011813845E+04 0.  0.
        5    1    3    3  502    0  0.12212780952E+04  0.57238665049E+03  0.19140163958E+03  0.13622787310E+04  0.46999998093E+01 0. -1.
       -5    1    3    3    0  502 -0.12212780952E+04 -0.57238665049E+03  0.33441413588E+03  0.13896048243E+04  0.46999998093E+01 0.  1.
</event>
<event>
 5   0  0.4149487E-07  0.3912373E+04  0.7818609E-02  0.8022461E-01
        2   -1    0    0  501    0  0.00000000000E+00  0.00000000000E+00  0.21616680660E+04  0.21616680660E+04  0.25500000920E-02 0. -1.
       -2   -1    0    0    0  501  0.00000000000E+00  0.00000000000E+00 -0.17702371826E+04  0.17702371826E+04  0.25500000920E-02 0.  1.
    10030    2    1    2    0    0  0.00000000000E+00  0.00000000000E+00  0.39143088340E+03  0.39319052485E+04  0.39123727771E+04 0.  0.
        2    1    3    3  502    0  0.17940170137E+04  0.56108985901E+03 -0.34860310331E+03  0.19117643681E+04  0.25500000920E-02 0.  1.
       -2    1    3    3    0  502 -0.17940170137E+04 -0.56108985901E+03  0.74003398671E+03  0.20201408805E+04  0.25500000920E-02 0. -1.
</event>
<event>
 5   0  0.1351000E-07  0.4114108E+04  0.7818609E-02  0.7981915E-01
       -3   -1    0    0    0  501  0.00000000000E+00  0.00000000000E+00  0.18078797776E+04  0.18078797804E+04  0.10100000352E+00 0. -1.
        3   -1    0    0  501    0  0.00000000000E+00  0.00000000000E+00 -0.23405715791E+04  0.23405715813E+04  0.10100000352E+00 0.  1.
    10030    2    1    2    0    0  0.00000000000E+00  0.00000000000E+00 -0.53269180148E+03  0.41484513617E+04  0.41141084265E+04 0.  0.
        1    1    3    3  502    0 -0.14914852665E+04 -0.79904229756E+03 -0.14459295011E+04  0.22256929293E+04  0.50400001928E-02 0. -1.
       -1    1    3    3    0  502  0.14914852665E+04  0.79904229756E+03  0.91323769963E+03  0.19227584324E+04  0.50400001928E-02 0.  1.
</event>
<event>
 5   0  0.1372952E-07  0.4016822E+04  0.7818609E-02  0.8001162E-01
       -1   -1    0    0    0  501  0.00000000000E+00  0.00000000000E+00  0.14965264818E+04  0.14965264818E+04  0.50400001928E-02 0. -1.
        1   -1    0    0  501    0  0.00000000000E+00  0.00000000000E+00 -0.26953845439E+04  0.26953845439E+04  0.50400001928E-02 0.  1.
    10030    2    1    2    0    0  0.00000000000E+00  0.00000000000E+00 -0.11988580622E+04  0.41919110257E+04  0.40168218026E+04 0.  0.
        1    1    3    3  502    0  0.10895665519E+04  0.16628631673E+04 -0.89725471118E+03  0.21811316331E+04  0.50400001928E-02 0.  1.
       -1    1    3    3    0  502 -0.10895665519E+04 -0.16628631673E+04 -0.30160335097E+03  0.20107793926E+04  0.50400001928E-02 0. -1.
</event>
<event>
 5   0  0.4149487E-07  0.3931007E+04  0.7818609E-02  0.8018611E-01
        2   -1    0    0  501    0  0.00000000000E+00  0.00000000000E+00  0.15204284392E+04  0.15204284392E+04  0.25500000920E-02 0.  1.
       -2   -1    0    0    0  501  0.00000000000E+00  0.00000000000E+00 -0.25408653904E+04  0.25408653904E+04  0.25500000920E-02 0. -1.
    10030    2    1    2    0    0  0.00000000000E+00  0.00000000000E+00 -0.10204369512E+04  0.40612938296E+04  0.39310069955E+04 0.  0.
        2    1    3    3  502    0 -0.78975954889E+02  0.17275895041E+04 -0.14751994426E+04  0.22731071448E+04  0.25500000920E-02 0. -1.
       -2    1    3    3    0  502  0.78975954889E+02 -0.17275895041E+04  0.45476249148E+03  0.17881866848E+04  0.25500000920E-02 0.  1.
</event>
<event>
 5   0  0.1421304E-07  0.3993778E+04  0.7818609E-02  0.8005803E-01
        1   -1    0    0  501    0  0.00000000000E+00  0.00000000000E+00  0.20734550905E+04  0.20734550905E+04  0.50400001928E-02 0. -1.
       -1   -1    0    0    0  501  0.00000000000E+00  0.00000000000E+00 -0.19231499178E+04  0.19231499178E+04  0.50400001928E-02 0.  1.
    10030    2    1    2    0    0  0.00000000000E+00  0.00000000000E+00  0.15030517273E+03  0.39966050084E+04  0.39937776538E+04 0.  0.
        2    1    3    3  502    0 -0.42598275163E+03  0.13649498527E+04  0.14700603368E+04  0.20507624921E+04  0.25500000920E-02 0. -1.
       -2    1    3    3    0  502  0.42598275163E+03 -0.13649498527E+04 -0.13197551641E+04  0.19458425163E+04  0.25500000920E-02 0.  1.
</event>
<event>
 5   0  0.1421304E-07  0.3088783E+04  0.7818609E-02  0.8218823E-01
       -1   -1    0    0    0  501  0.00000000000E+00  0.00000000000E+00  0.16231310165E+04  0.16231310165E+04  0.50400001928E-02 0.  1.
        1   -1    0    0  501    0  0.00000000000E+00  0.00000000000E+00 -0.14694719636E+04  0.14694719636E+04  0.50400001928E-02 0. -1.
    10030    2    1    2    0    0  0.00000000000E+00  0.00000000000E+00  0.15365905284E+03  0.30926029801E+04  0.30887832698E+04 0.  0.
        2    1    3    3  502    0 -0.10966197797E+04  0.10524534660E+04  0.35086907873E+03  0.15599174176E+04  0.25500000920E-02 0.  1.
       -2    1    3    3    0  502  0.10966197797E+04 -0.10524534660E+04 -0.19721002590E+03  0.15326855625E+04  0.25500000920E-02 0. -1.
</event>
<event>
 5   0  0.1351000E-07  0.4027064E+04  0.7818609E-02  0.7999109E-01
        1   -1    0    0  501    0  0.00000000000E+00  0.00000000000E+00  0.16384937145E+04  0.16384937145E+04  0.50400001928E-02 0. -1.
       -1   -1    0    0    0  501  0.00000000000E+00  0.00000000000E+00 -0.24744131844E+04  0.24744131844E+04  0.50400001928E-02 0.  1.
    10030    2    1    2    0    0  0.00000000000E+00  0.00000000000E+00 -0.83591946987E+03  0.41129068990E+04  0.40270636696E+04 0.  0.
        4    1    3    3  502    0 -0.95754930626E+03  0.11290085418E+04 -0.18118783603E+04  0.23397576300E+04  0.12699999809E+01 0.  1.
       -4    1    3    3    0  502  0.95754930626E+03 -0.11290085418E+04  0.97595889047E+03  0.17731492690E+04  0.12699999809E+01 0. -1.
</event>
<event>
 5   0  0.1351000E-07  0.4023646E+04  0.7818609E-02  0.7999793E-01
       -1   -1    0    0    0  501  0.00000000000E+00  0.00000000000E+00  0.24675859544E+04  0.24675859544E+04  0.50400001928E-02 0.  1.
        1   -1    0    0  501    0  0.00000000000E+00  0.00000000000E+00 -0.16402392895E+04  0.16402392895E+04  0.50400001928E-02 0. -1.
    10030    2    1    2    0    0  0.00000000000E+00  0.00000000000E+00  0.82734666489E+03  0.41078252439E+04  0.40236458256E+04 0.  0.
        4    1    3    3  502    0 -0.15669988888E+04  0.34903256896E+03  0.16515252409E+04  0.23032252356E+04  0.12699999809E+01 0.  1.
       -4    1    3    3    0  502  0.15669988888E+04 -0.34903256896E+03 -0.82417857596E+03  0.18046000083E+04  0.12699999809E+01 0. -1.
</event>
<event>
 5   0  0.1368865E-07  0.2934957E+04  0.7818609E-02  0.8262552E-01
        1   -1    0    0  501    0  0.00000000000E+00  0.00000000000E+00  0.16318910935E+04  0.16318910935E+04  0.50400001928E-02 0. -1.
       -1   -1    0    0    0  501  0.00000000000E+00  0.00000000000E+00 -0.13196300896E+04  0.13196300896E+04  0.50400001928E-02 0.  1.
    10030    2    1    2    0    0  0.00000000000E+00  0.00000000000E+00  0.31226100394E+03  0.29515211831E+04  0.29349566197E+04 0.  0.
        5    1    3    3  502    0  0.55167077477E+02 -0.11030067678E+04 -0.81565829582E+03  0.13729486086E+04  0.46999998093E+01 0.  1.
       -5    1    3    3    0  502 -0.55167077477E+02  0.11030067678E+04  0.11279192998E+04  0.15785725745E+04  0.46999998093E+01 0. -1.
</event>
<event>
 5   0  0.1351000E-07  0.2934939E+04  0.7818609E-02  0.8262557E-01
        1   -1    0    0  501    0  0.00000000000E+00  0.00000000000E+00  0.10891467278E+04  0.10891467278E+04  0.50400001928E-02 0. -1.
       -1   -1    0    0    0  501  0.00000000000E+00  0.00000000000E+00 -0.19772052583E+04  0.19772052583E+04  0.50400001928E-02 0.  1.
    10030    2    1    2    0    0  0.00000000000E+00  0.00000000000E+00 -0.88805853054E+03  0.30663519862E+04  0.29349389345E+04 0.  0.
        3    1    3    3  502    0  0.31153911824E+03 -0.17833587475E+03 -0.19306261918E+04  0.19637153076E+04  0.10100000352E+00 0.  1.
       -3    1    3    3    0  502 -0.31153911824E+03  0.17833587475E+03  0.10425676613E+04  0.11026366786E+04  0.10100000352E+00 0. -1.
</event>
<event>
 5   0  0.4077370E-07  0.3747138E+04  0.7818609E-02  0.8057595E-01
        2   -1    0    0  501    0  0.00000000000E+00  0.00000000000E+00  0.20787855370E+04  0.20787855370E+04  0.25500000920E-02 0. -1.
       -2   -1    0    0    0  501  0.00000000000E+00  0.00000000000E+00 -0.16886117403E+04  0.16886117403E+04  0.25500000920E-02 0.  1.
    10030    2    1    2    0    0  0.00000000000E+00  0.00000000000E+00  0.39017379673E+03  0.37673972773E+04  0.37471384620E+04 0.  0.
        3    1    3    3  502    0  0.14414411314E+04  0.55995631082E+03  0.12586140467E+04  0.19938437587E+04  0.10100000352E+00 0. -1.
       -3    1    3    3    0  502 -0.14414411314E+04 -0.55995631082E+03 -0.86844024993E+03  0.17735535186E+04  0.10100000352E+00 0.  1.
</event>
<event>
 5   0  0.1368865E-07  0.4037938E+04  0.7818609E-02  0.7996937E-01
        1   -1    0    0  501    0  0.00000000000E+00  0.00000000000E+00  0.11846595914E+04  0.11846595914E+04  0.50400001928E-02 0.  1.
       -1   -1    0    0    0  501  0.00000000000E+00  0.00000000000E+00 -0.34408503225E+04  0.34408503225E+04  0.50400001928E-02 0. -1.
    10030    2    1    2    0    0  0.00000000000E+00  0.00000000000E+00 -0.22561907311E+04  0.46255099140E+04  0.40379382547E+04 0.  0.
        5    1    3    3  502    0  0.39623176068E+03 -0.49492551102E+03  0.10676657221E+04  0.12417258368E+04  0.46999998093E+01 0.  1.
       -5    1    3    3    0  502 -0.39623176068E+03  0.49492551102E+03 -0.33238564532E+04  0.33837840772E+04  0.46999998093E+01 0. -1.
</event>
<event>
 5   0  0.4301754E-07  0.4036413E+04  0.7818609E-02  0.7997241E-01
       -2   -1    0    0    0  501  0.00000000000E+00  0.00000000000E+00  0.22076535315E+04  0.22076535315E+04  0.25500000920E-02 0. -1.
        2   -1    0    0  501    0  0.00000000000E+00  0.00000000000E+00 -0.18450168440E+04  0.18450168440E+04  0.25500000920E-02 0.  1.
    10030    2    1    2    0    0  0.00000000000E+00  0.00000000000E+00  0.36263668752E+03  0.40526703754E+04  0.40364132351E+04 0.  0.
        1    1    3    3  502    0  0.42761600736E+03  0.15640291392E+04 -0.10252352092E+04  0.19183716616E+04  0.50400001928E-02 0.  1.
       -1    1    3    3    0  502 -0.42761600736E+03 -0.15640291392E+04  0.13878718968E+04  0.21342987138E+04  0.50400001928E-02 0. -1.
</event>
<event>
 5   0  0.1351000E-07  0.4041761E+04  0.7818609E-02  0.7996175E-01
       -1   -1    0    0    0  501  0.00000000000E+00  0.00000000000E+00  0.18539807072E+04  0.18539807072E+04  0.50400001928E-02 0. -1.
        1   -1    0    0  501    0  0.00000000000E+00  0.00000000000E+00 -0.22028047494E+04  0.22028047494E+04  0.50400001928E-02 0.  1.
    10030    2    1    2    0    0  0.00000000000E+00  0.00000000000E+00 -0.34882404218E+03  0.40567854566E+04  0.40417607584E+04 0.  0.
        3    1    3    3  502    0  0.16557304742E+04  0.81378994230E+03 -0.10022567970E+04  0.20995752357E+04  0.10100000352E+00 0. -1.
       -3    1    3    3    0  502 -0.16557304742E+04 -0.81378994230E+03  0.65343275481E+03  0.19572102208E+04  0.10100000352E+00 0.  1.
</event>
<event>
 5   0  0.1421304E-07  0.3951056E+04  0.7818609E-02  0.8014494E-01
       -1   -1    0    0    0  501  0.00000000000E+00  0.00000000000E+00  0.14682496444E+04  0.14682496444E+04  0.50400001928E-02 0. -1.
        1   -1    0    0  501    0  0.00000000000E+00  0.00000000000E+00 -0.26580699064E+04  0.26580699064E+04  0.50400001928E-02 0.  1.
    10030    2    1    2    0    0  0.00000000000E+00  0.00000000000E+00 -0.11898202620E+04  0.41263195507E+04  0.39510556537E+04 0.  0.
        2    1    3    3  502    0 -0.15409745933E+04  0.10851298982E+04  0.23470729059E+02  0.18848502509E+04  0.25500000920E-02 0. -1.
       -2    1    3    3    0  502  0.15409745933E+04 -0.10851298982E+04 -0.12132909911E+04  0.22414692999E+04  0.25500000920E-02 0.  1.
</event>
<event>
 5   0  0.4301754E-07  0.3879549E+04  0.7818609E-02  0.8029296E-01
       -2   -1    0    0    0  501  0.00000000000E+00  0.00000000000E+00  0.16291510424E+04  0.16291510424E+04  0.25500000920E-02 0. -1.
        2   -1    0    0  501    0  0.00000000000E+00  0.00000000000E+00 -0.23096231221E+04  0.23096231221E+04  0.25500000920E-02 0.  1.
    10030    2    1    2    0    0  0.00000000000E+00  0.00000000000E+00 -0.68047207972E+03  0.39387741646E+04  0.38795489001E+04 0.  0.
        1    1    3    3  502    0  0.74514561947E+02  0.11292445694E+04 -0.19397164266E+04  0.22457171535E+04  0.50400001928E-02 0.  1.
       -1    1    3    3    0  502 -0.74514561947E+02 -0.11292445694E+04  0.12592443469E+04  0.16930570111E+04  0.50400001928E-02 0. -1.
</event>
<event>
 5   0  0.4077370E-07  0.3508865E+04  0.7818609E-02  0.8111692E-01
        2   -1    0    0  501    0  0.00000000000E+00  0.00000000000E+00  0.16410970983E+04  0.16410970983E+04  0.25500000920E-02 0.  1.
       -2   -1    0    0    0  501  0.00000000000E+00  0.00000000000E+00 -0.18755944141E+04  0.18755944141E+04  0.25500000920E-02 0. -1.
    10030    2    1    2    0    0  0.00000000000E+00  0.00000000000E+00 -0.23449731588E+03  0.35166915124E+04  0.35088645175E+04 0.  0.
        3    1    3    3  502    0 -0.91722604825E+02 -0.70254182657E+03  0.14913407169E+04  0.16510830380E+04  0.10100000352E+00 0.  1.
       -3    1    3    3    0  502  0.91722604825E+02  0.70254182657E+03 -0.17258380328E+04  0.18656084744E+04  0.10100000352E+00 0. -1.
</event>
<event>
 5   0  0.4301754E-07  0.3968773E+04  0.7818609E-02  0.8010876E-01
        2   -1    0    0  501    0  0.00000000000E+00  0.00000000000E+00  0.17567644930E+04  0.17567644930E+04  0.25500000920E-02 0. -1.
       -2   -1    0    0    0  501  0.00000000000E+00  0.00000000000E+00 -0.22415016307E+04  0.22415016307E+04  0.25500000920E-02 0.  1.
    10030    2    1    2    0    0  0.00000000000E+00  0.00000000000E+00 -0.48473713775E+03  0.39982661237E+04  0.39687733499E+04 0.  0.
        1    1    3    3  502    0 -0.38616816452E+03 -0.75645141231E+03  0.15644041486E+04  0.17800856526E+04  0.50400001928E-02 0. -1.
       -1    1    3    3    0  502  0.38616816452E+03  0.75645141231E+03 -0.20491412864E+04  0.22181804710E+04  0.50400001928E-02 0.  1.
</event>
<event>
 5   0  0.4077370E-07  0.3234214E+04  0.7818609E-02  0.8179839E-01
       -2   -1    0    0    0  501  0.00000000000E+00  0.00000000000E+00  0.13396398665E+04  0.13396398665E+04  0.25500000920E-02 0. -1.
        2   -1    0    0  501    0  0.00000000000E+00  0.00000000000E+00 -0.19520434048E+04  0.19520434048E+04  0.25500000920E-02 0.  1.
    10030    2    1    2    0    0  0.00000000000E+00  0.00000000000E+00 -0.61240353826E+03  0.32916832714E+04  0.32342140723E+04 0.  0.
        3    1    3    3  502    0 -0.11506015343E+04  0.82494870081E+03  0.48909928209E+03  0.14978792901E+04  0.10100000352E+00 0. -1.
       -3    1    3    3    0  502  0.11506015343E+04 -0.82494870081E+03 -0.11015028203E+04  0.17938039813E+04  0.10100000352E+00 0.  1.
</event>
<event>
 5   0  0.4149487E-07  0.3947212E+04  0.7818609E-02  0.8015281E-01
        2   -1    0    0  501    0  0.00000000000E+00  0.00000000000E+00  0.15740262835E+04  0.15740262835E+04  0.25500000920E-02 0.  1.
       -2   -1    0    0    0  501  0.00000000000E+00  0.00000000000E+00 -0.24746221170E+04  0.24746221170E+04  0.25500000920E-02 0. -1.
    10030    2    1    2    0    0  0.00000000000E+00  0.00000000000E+00 -0.90059583350E+03  0.40486484005E+04  0.39472118027E+04 0.  0.
        2    1    3    3  502    0  0.19076105923E+04 -0.23177389770E+03 -0.91177431950E+03  0.21269766621E+04  0.25500000920E-02 0. -1.
       -2    1    3    3    0  502 -0.19076105923E+04  0.23177389770E+03  0.11178486003E+02  0.19216717384E+04  0.25500000920E-02 0.  1.
</event>
<event>
 5   0  0.4301754E-07  0.4179306E+04  0.7818609E-02  0.7969320E-01
       -2   -1    0    0    0  501  0.00000000000E+00  0.00000000000E+00  0.19597415556E+04  0.19597415556E+04  0.25500000920E-02 0. -1.
        2   -1    0    0  501    0  0.00000000000E+00  0.00000000000E+00 -0.22281762524E+04  0.22281762524E+04  0.25500000920E-02 0.  1.
    10030    2    1    2    0    0  0.00000000000E+00  0.00000000000E+00 -0.26843469677E+03  0.41879178080E+04  0.41793059687E+04 0.  0.
        1    1    3    3  502    0  0.20218001934E+03 -0.32639889518E+03  0.19240933062E+04  0.19620265162E+04  0.50400001928E-02 0. -1.
       -1    1    3    3    0  502 -0.20218001934E+03  0.32639889518E+03 -0.21925280030E+04  0.22258912918E+04  0.50400001928E-02 0.  1.
</event>
<event>
 5   0  0.1368865E-07  0.3227539E+04  0.7818609E-02  0.8181582E-01
        1   -1    0    0  501    0  0.00000000000E+00  0.00000000000E+00  0.14234363704E+04  0.14234363704E+04  0.50400001928E-02 0.  1.
       -1   -1    0    0    0  501  0.00000000000E+00  0.00000000000E+00 -0.18295525392E+04  0.18295525392E+04  0.50400001928E-02 0. -1.
    10030    2    1    2    0    0  0.00000000000E+00  0.00000000000E+00 -0.40611616884E+03  0.32529889097E+04  0.32275387687E+04 0.  0.
        5    1    3    3  502    0 -0.14692927474E+04  0.22978459144E+03  0.42846663639E+03  0.15476523784E+04  0.46999998093E+01 0.  1.
       -5    1    3    3    0  502  0.14692927474E+04 -0.22978459144E+03 -0.83458280523E+03  0.17053365312E+04  0.46999998093E+01 0. -1.
</event>
<event>
 5   0  0.1368865E-07  0.3921906E+04  0.7818609E-02  0.8020489E-01
        1   -1    0    0  501    0  0.00000000000E+00  0.00000000000E+00  0.26206896456E+04  0.26206896456E+04  0.50400001928E-02 0. -1.
       -1   -1    0    0    0  501  0.00000000000E+00  0.00000000000E+00 -0.14672993538E+04  0.14672993538E+04  0.50400001928E-02 0.  1.
    10030    2    1    2    0    0  0.00000000000E+00  0.00000000000E+00  0.11533902918E+04  0.40879889994E+04  0.39219057732E+04 0.  0.
        5    1    3    3  502    0 -0.15506792791E+04  0.38523885799E+03 -0.60823856581E+03  0.17096758311E+04  0.46999998093E+01 0.  1.
       -5    1    3    3    0  502  0.15506792791E+04 -0.38523885799E+03  0.17616288576E+04  0.23783131683E+04  0.46999998093E+01 0. -1.
</event>
<event>
 5   0  0.4149487E-07  0.3933432E+04  0.7818609E-02  0.8018112E-01
       -2   -1    0    0    0  501  0.00000000000E+00  0.00000000000E+00  0.21376574892E+04  0.21376574892E+04  0.25500000920E-02 0. -1.
        2   -1    0    0  501    0  0.00000000000E+00  0.00000000000E+00 -0.18094445328E+04  0.18094445328E+04  0.25500000920E-02 0.  1.
    10030    2    1    2    0    0  0.00000000000E+00  0.00000000000E+00  0.32821295646E+03  0.39471020220E+04  0.39334324231E+04 0.  0.
        2    1    3    3  502    0  0.99758594735E+03 -0.16915033760E+04  0.55976430248E+02  0.19645596846E+04  0.25500000920E-02 0.  1.
       -2    1    3    3    0  502 -0.99758594735E+03  0.16915033760E+04  0.27223652621E+03  0.19825423374E+04  0.25500000920E-02 0. -1.
</event>
<event>
 5   0  0.1351000E-07  0.3970582E+04  0.7818609E-02  0.8010507E-01
       -1   -1    0    0    0  501  0.00000000000E+00  0.00000000000E+00  0.20072145493E+04  0.20072145493E+04  0.50400001928E-02 0.  1.
        1   -1    0    0  501    0  0.00000000000E+00  0.00000000000E+00 -0.19636073250E+04  0.19636073250E+04  0.50400001928E-02 0. -1.
    10030    2    1    2    0    0  0.00000000000E+00  0.00000000000E+00  0.43607224233E+02  0.39708218743E+04  0.39705824217E+04 0.  0.
        3    1    3    3  502    0 -0.75477296439E+03  0.78068747872E+03  0.16838984307E+04  0.20036639195E+04  0.10100000352E+00 0.  1.
       -3    1    3    3    0  502  0.75477296439E+03 -0.78068747872E+03 -0.16402912064E+04  0.19671579548E+04  0.10100000352E+00 0. -1.
</event>
<event>
 5   0  0.1368865E-07  0.3985413E+04  0.7818609E-02  0.8007496E-01
        1   -1    0    0  501    0  0.00000000000E+00  0.00000000000E+00  0.23652648000E+04  0.23652648000E+04  0.50400001928E-02 0. -1.
       -1   -1    0    0    0  501  0.00000000000E+00  0.00000000000E+00 -0.16788305583E+04  0.16788305583E+04  0.50400001928E-02 0.  1.
    10030    2    1    2    0    0  0.00000000000E+00  0.00000000000E+00  0.68643424170E+03  0.40440953583E+04  0.39854128141E+04 0.  0.
        5    1    3    3  502    0  0.26470401041E+03  0.90312521683E+03  0.21255402939E+04  0.23245745850E+04  0.46999998093E+01 0. -1.
       -5    1    3    3    0  502 -0.26470401041E+03 -0.90312521683E+03 -0.14391060522E+04  0.17195207733E+04  0.46999998093E+01 0.  1.
</event>
<event>
 5   0  0.4047916E-07  0.4299792E+04  0.7818609E-02  0.7946657E-01
       -2   -1    0    0    0  501  0.00000000000E+00  0.00000000000E+00  0.34283859086E+04  0.34283859086E+04  0.25500000920E-02 0. -1.
        2   -1    0    0  501    0  0.00000000000E+00  0.00000000000E+00 -0.13481715464E+04  0.13481715464E+04  0.25500000920E-02 0.  1.
    10030    2    1    2    0    0  0.00000000000E+00  0.00000000000E+00  0.20802143622E+04  0.47765574550E+04  0.42997917773E+04 0.  0.
        5    1    3    3  502    0  0.25638006701E+03 -0.47666945120E+03 -0.12712426088E+04  0.13816744787E+04  0.46999998093E+01 0.  1.
       -5    1    3    3    0  502 -0.25638006701E+03  0.47666945120E+03  0.33514569710E+04  0.33948829764E+04  0.46999998093E+01 0. -1.
</event>
<event>
 5   0  0.4077370E-07  0.3334970E+04  0.7818609E-02  0.8154054E-01
        2   -1    0    0  501    0  0.00000000000E+00  0.00000000000E+00  0.15612487536E+04  0.15612487536E+04  0.25500000920E-02 0.  1.
       -2   -1    0    0    0  501  0.00000000000E+00  0.00000000000E+00 -0.17809502420E+04  0.17809502420E+04  0.25500000920E-02 0. -1.
    10030    2    1    2    0    0  0.00000000000E+00  0.00000000000E+00 -0.21970148835E+03  0.33421989956E+04  0.33349700722E+04 0.  0.
        3    1    3    3  502    0  0.58382824923E+03 -0.38120625195E+03  0.14081380350E+04  0.15713135801E+04  0.10100000352E+00 0.  1.
       -3    1    3    3    0  502 -0.58382824923E+03  0.38120625195E+03 -0.16278395233E+04  0.17708854156E+04  0.10100000352E+00 0. -1.
</event>
<event>
 5   0  0.1368865E-07  0.4132138E+04  0.7818609E-02  0.7978408E-01
       -1   -1    0    0    0  501  0.00000000000E+00  0.00000000000E+00  0.16846809323E+04  0.16846809323E+04  0.50400001928E-02 0. -1.
        1   -1    0    0  501    0  0.00000000000E+00  0.00000000000E+00 -0.25337973844E+04  0.25337973844E+04  0.50400001928E-02 0.  1.
    10030    2    1    2    0    0  0.00000000000E+00  0.00000000000E+00 -0.84911645204E+03  0.42184783167E+04  0.41321375291E+04 0.  0.
        5    1    3    3  502    0 -0.93498334664E+03  0.13313622453E+04 -0.17247066229E+04  0.23709395420E+04  0.46999998093E+01 0.  1.
       -5    1    3    3    0  502  0.93498334664E+03 -0.13313622453E+04  0.87559017081E+03  0.18475387747E+04  0.46999998093E+01 0. -1.
</event>
<event>
 5   0  0.4149487E-07  0.3750338E+04  0.7818609E-02  0.8056897E-01
        2   -1    0    0  501    0  0.00000000000E+00  0.00000000000E+00  0.16345513122E+04  0.16345513122E+04  0.25500000920E-02 0. -1.
       -2   -1    0    0    0  501  0.00000000000E+00  0.00000000000E+00 -0.21512077502E+04  0.21512077502E+04  0.25500000920E-02 0.  1.
    10030    2    1    2    0    0  0.00000000000E+00  0.00000000000E+00 -0.51665643798E+03  0.37857590623E+04  0.37503383585E+04 0.  0.
        2    1    3    3  502    0 -0.40551962259E+03 -0.14705301054E+04  0.84254720854E+03  0.17426390199E+04  0.25500000920E-02 0. -1.
       -2    1    3    3    0  502  0.40551962259E+03  0.14705301054E+04 -0.13592036465E+04  0.20431200424E+04  0.25500000920E-02 0.  1.
</event>
<event>
 5   0  0.1372952E-07  0.3952293E+04  0.7818609E-02  0.8014240E-01
        1   -1    0    0  501    0  0.00000000000E+00  0.00000000000E+00  0.22751737395E+04  0.22751737395E+04  0.50400001928E-02 0.  1.
       -1   -1    0    0    0  501  0.00000000000E+00  0.00000000000E+00 -0.17164202653E+04  0.17164202653E+04  0.50400001928E-02 0. -1.
    10030    2    1    2    0    0  0.00000000000E+00  0.00000000000E+00  0.55875347417E+03  0.39915940048E+04  0.39522926579E+04 0.  0.
        1    1    3    3  502    0  0.60611503650E+03  0.15754522509E+04 -0.75832730513E+03  0.18505365530E+04  0.50400001928E-02 0. -1.
       -1    1    3    3    0  502 -0.60611503650E+03 -0.15754522509E+04  0.13170807793E+04  0.21410574517E+04  0.50400001928E-02 0.  1.
</event>
<event>
 5   0  0.4301754E-07  0.4006876E+04  0.7818609E-02  0.8003161E-01
       -2   -1    0    0    0  501  0.00000000000E+00  0.00000000000E+00  0.17149845741E+04  0.17149845741E+04  0.25500000920E-02 0. -1.
        2   -1    0    0  501    0  0.00000000000E+00  0.00000000000E+00 -0.23404076619E+04  0.23404076619E+04  0.25500000920E-02 0.  1.
    10030    2    1    2    0    0  0.00000000000E+00  0.00000000000E+00 -0.62542308782E+03  0.40553922360E+04  0.40068756094E+04 0.  0.
        1    1    3    3  502    0 -0.11531202073E+04 -0.16054730427E+04  0.17634687394E+02  0.19767500817E+04  0.50400001928E-02 0. -1.
       -1    1    3    3    0  502  0.11531202073E+04  0.16054730427E+04 -0.64305777521E+03  0.20786421543E+04  0.50400001928E-02 0.  1.
</event>
<event>
 5   0  0.1421304E-07  0.2757769E+04  0.7818609E-02  0.8316501E-01
       -1   -1    0    0    0  501  0.00000000000E+00  0.00000000000E+00  0.98644686270E+03  0.98644686271E+03  0.50400001928E-02 0. -1.
        1   -1    0    0  501    0  0.00000000000E+00  0.00000000000E+00 -0.19274456648E+04  0.19274456648E+04  0.50400001928E-02 0.  1.
    10030    2    1    2    0    0  0.00000000000E+00  0.00000000000E+00 -0.94099880207E+03  0.29138925275E+04  0.27577691920E+04 0.  0.
        2    1    3    3  502    0 -0.82675562054E+03 -0.10798989544E+04 -0.23044576004E+03  0.13794244655E+04  0.25500000920E-02 0. -1.
       -2    1    3    3    0  502  0.82675562054E+03  0.10798989544E+04 -0.71055304203E+03  0.15344680620E+04  0.25500000920E-02 0.  1.
</event>
<event>
 5   0  0.1351000E-07  0.3855761E+04  0.7818609E-02  0.8034293E-01
        1   -1    0    0  501    0  0.00000000000E+00  0.00000000000E+00  0.21482111902E+04  0.21482111902E+04  0.50400001928E-02 0. -1.
       -1   -1    0    0    0  501  0.00000000000E+00  0.00000000000E+00 -0.17301480035E+04  0.17301480035E+04  0.50400001928E-02 0.  1.
    10030    2    1    2    0    0  0.00000000000E+00  0.00000000000E+00  0.41806318667E+03  0.38783591937E+04  0.38557610412E+04 0.  0.
        3    1    3    3  502    0 -0.16953324283E+04 -0.21141669514E+03  0.11075048134E+04  0.20360294652E+04  0.10100000352E+00 0. -1.
       -3    1    3    3    0  502  0.16953324283E+04  0.21141669514E+03 -0.68944162673E+03  0.18423297284E+04  0.10100000352E+00 0.  1.
</event>
<event>
 5   0  0.1368865E-07  0.4001238E+04  0.7818609E-02  0.8004297E-01
        1   -1    0    0  501    0  0.00000000000E+00  0.00000000000E+00  0.13412819495E+04  0.13412819495E+04  0.50400001928E-02 0. -1.
       -1   -1    0    0    0  501  0.00000000000E+00  0.00000000000E+00 -0.29840677079E+04  0.29840677079E+04  0.50400001928E-02 0.  1.
    10030    2    1    2    0    0  0.00000000000E+00  0.00000000000E+00 -0.16427857584E+04  0.43253496573E+04  0.40012378847E+04 0.  0.
        5    1    3    3  502    0  0.14964969364E+04  0.79786019927E+03  0.32588178428E+03  0.17269351481E+04  0.46999998093E+01 0. -1.
       -5    1    3    3    0  502 -0.14964969364E+04 -0.79786019927E+03 -0.19686675427E+04  0.25984145093E+04  0.46999998093E+01 0.  1.
</event>
<event>
 5   0  0.1421304E-07  0.3979035E+04  0.7818609E-02  0.8008789E-01
        1   -1    0    0  501    0  0.00000000000E+00  0.00000000000E+00  0.23295571066E+04  0.23295571066E+04  0.50400001928E-02 0. -1.
       -1   -1    0    0    0  501  0.00000000000E+00  0.00000000000E+00 -0.16991122796E+04  0.16991122796E+04  0.50400001928E-02 0.  1.
    10030    2    1    2    0    0  0.00000000000E+00  0.00000000000E+00  0.63044482694E+03  0.40286693862E+04  0.39790345994E+04 0.  0.
        2    1    3    3  502    0 -0.25958346386E+03  0.63297788901E+03 -0.15762717037E+04  0.17183355512E+04  0.25500000920E-02 0.  1.
       -2    1    3    3    0  502  0.25958346386E+03 -0.63297788901E+03  0.22067165306E+04  0.23103338350E+04  0.25500000920E-02 0. -1.
</event>
<event>
 5   0  0.4079777E-07  0.3965460E+04  0.7818609E-02  0.8011551E-01
       -2   -1    0    0    0  501  0.00000000000E+00  0.00000000000E+00  0.16632636917E+04  0.16632636917E+04  0.25500000920E-02 0.  1.
        2   -1    0    0  501    0  0.00000000000E+00  0.00000000000E+00 -0.23635568227E+04  0.23635568227E+04  0.25500000920E-02 0. -1.
    10030    2    1    2    0    0  0.00000000000E+00  0.00000000000E+00 -0.70029313109E+03  0.40268205144E+04  0.39654599967E+04 0.  0.
        4    1    3    3  502    0  0.49064709959E+03 -0.51999496412E+03 -0.22281107047E+04  0.23400017659E+04  0.12699999809E+01 0. -1.
       -4    1    3    3    0  502 -0.49064709959E+03  0.51999496412E+03  0.15278175736E+04  0.16868187485E+04  0.12699999809E+01 0.  1.
</event>
<event>
 5   0  0.1351000E-07  0.3281799E+04  0.7818609E-02  0.8167542E-01
       -1   -1    0    0    0  501  0.00000000000E+00  0.00000000000E+00  0.14587438657E+04  0.14587438657E+04  0.50400001928E-02 0.  1.
        1   -1    0    0  501    0  0.00000000000E+00  0.00000000000E+00 -0.18458014629E+04  0.18458014629E+04  0.50400001928E-02 0. -1.
    10030    2    1    2    0    0  0.00000000000E+00  0.00000000000E+00 -0.38705759728E+03  0.33045453286E+04  0.32817992390E+04 0.  0.
        4    1    3    3  502    0  0.42095292505E+03 -0.59311325097E+03  0.12875722953E+04  0.14787929950E+04  0.12699999809E+01 0.  1.
       -4    1    3    3    0  502 -0.42095292505E+03  0.59311325097E+03 -0.16746298926E+04  0.18257523336E+04  0.12699999809E+01 0. -1.
</event>
<event>
 5   0  0.1368865E-07  0.4024315E+04  0.7818609E-02  0.7999659E-01
       -1   -1    0    0    0  501  0.00000000000E+00  0.00000000000E+00  0.27809018008E+04  0.27809018008E+04  0.50400001928E-02 0.  1.
        1   -1    0    0  501    0  0.00000000000E+00  0.00000000000E+00 -0.14559228229E+04  0.14559228229E+04  0.50400001928E-02 0. -1.
    10030    2    1    2    0    0  0.00000000000E+00  0.00000000000E+00  0.13249789779E+04  0.42368246238E+04  0.40243152959E+04 0.  0.
        5    1    3    3  502    0  0.13768926078E+04 -0.76331930304E+03  0.19817640807E+04  0.25309880627E+04  0.46999998093E+01 0.  1.
       -5    1    3    3    0  502 -0.13768926078E+04  0.76331930304E+03 -0.65678510282E+03  0.17058365611E+04  0.46999998093E+01 0. -1.
</event>
<event>
 5   0  0.4047916E-07  0.4159273E+04  0.7818609E-02  0.7973165E-01
        2   -1    0    0  501    0  0.00000000000E+00  0.00000000000E+00  0.21330785607E+04  0.21330785607E+04  0.25500000920E-02 0.  1.
       -2   -1    0    0    0  501  0.00000000000E+00  0.00000000000E+00 -0.20275329468E+04  0.20275329468E+04  0.25500000920E-02 0. -1.
    10030    2    1    2    0    0  0.00000000000E+00  0.00000000000E+00  0.10554561398E+03  0.41606115075E+04  0.41592725613E+04 0.  0.
        5    1    3    3  502    0  0.18638176057E+04 -0.57771835993E+03 -0.66668775702E+03  0.20620546128E+04  0.46999998093E+01 0. -1.
       -5    1    3    3    0  502 -0.18638176057E+04  0.57771835993E+03  0.77223337100E+03  0.20985568947E+04  0.46999998093E+01 0.  1.
</event>
<event>
 5   0  0.4301754E-07  0.3879148E+04  0.7818609E-02  0.8029380E-01
        2   -1    0    0  501    0  0.00000000000E+00  0.00000000000E+00  0.16668244344E+04  0.16668244344E+04  0.25500000920E-02 0.  1.
       -2   -1    0    0    0  501  0.00000000000E+00  0.00000000000E+00 -0.22569549873E+04  0.22569549873E+04  0.25500000920E-02 0. -1.
    10030    2    1    2    0    0  0.00000000000E+00  0.00000000000E+00 -0.59013055287E+03  0.39237794218E+04  0.38791482159E+04 0.  0.
        1    1    3    3  502    0 -0.69405330582E+02  0.32963596132E+03 -0.22271387870E+04  0.22524706754E+04  0.50400001928E-02 0. -1.
       -1    1    3    3    0  502  0.69405330582E+02 -0.32963596132E+03  0.16370082342E+04  0.16713087463E+04  0.50400001928E-02 0.  1.
</event>
<event>
 5   0  0.4077370E-07  0.3912729E+04  0.7818609E-02  0.8022387E-01
       -2   -1    0    0    0  501  0.00000000000E+00  0.00000000000E+00  0.18757061638E+04  0.18757061638E+04  0.25500000920E-02 0. -1.
        2   -1    0    0  501    0  0.00000000000E+00  0.00000000000E+00 -0.20404912329E+04  0.20404912329E+04  0.25500000920E-02 0.  1.
    10030    2    1    2    0    0  0.00000000000E+00  0.00000000000E+00 -0.16478506909E+03  0.39161973967E+04  0.39127289621E+04 0.  0.
        3    1    3    3  502    0  0.82504061569E+03 -0.10398773503E+04 -0.15207903532E+04  0.20186233502E+04  0.10100000352E+00 0.  1.
       -3    1    3    3    0  502 -0.82504061569E+03  0.10398773503E+04  0.13560052841E+04  0.18975740465E+04  0.10100000352E+00 0. -1.
</event>
<event>
 5   0  0.4077370E-07  0.4014244E+04  0.7818609E-02  0.8001679E-01
        2   -1    0    0  501    0  0.00000000000E+00  0.00000000000E+00  0.19301611666E+04  0.19301611666E+04  0.25500000920E-02 0.  1.
       -2   -1    0    0    0  501  0.00000000000E+00  0.00000000000E+00 -0.20871512114E+04  0.20871512114E+04  0.25500000920E-02 0. -1.
    10030    2    1    2    0    0  0.00000000000E+00  0.00000000000E+00 -0.15699004482E+03  0.40173123781E+04  0.40142437481E+04 0.  0.
        3    1    3    3  502    0  0.12035596790E+04 -0.16304783460E+03 -0.16776519931E+04  0.20711486469E+04  0.10100000352E+00 0. -1.
       -3    1    3    3    0  502 -0.12035596790E+04  0.16304783460E+03  0.15206619483E+04  0.19461637312E+04  0.10100000352E+00 0.  1.
</event>
<event>
 5   0  0.1351000E-07  0.3903262E+04  0.7818609E-02  0.8024351E-01
        1   -1    0    0  501    0  0.00000000000E+00  0.00000000000E+00  0.29463236775E+04  0.29463236775E+04  0.50400001928E-02 0. -1.
       -1   -1    0    0    0  501  0.00000000000E+00  0.00000000000E+00 -0.12927510006E+04  0.12927510006E+04  0.50400001928E-02 0.  1.
    10030    2    1    2    0    0  0.00000000000E+00  0.00000000000E+00  0.16535726769E+04  0.42390746781E+04  0.39032616526E+04 0.  0.
        4    1    3    3  502    0 -0.97848918948E+03 -0.55154319891E+03 -0.90652530340E+03  0.14434094127E+04  0.12699999809E+01 0.  1.
       -4    1    3    3    0  502  0.97848918948E+03  0.55154319891E+03  0.25600979803E+04  0.27956652653E+04  0.12699999809E+01 0. -1.
</event>
<event>
 5   0  0.4301754E-07  0.3957272E+04  0.7818609E-02  0.8013222E-01
       -2   -1    0    0    0  501  0.00000000000E+00  0.00000000000E+00  0.15335706031E+04  0.15335706031E+04  0.25500000920E-02 0. -1.
        2   -1    0    0  501    0  0.00000000000E+00  0.00000000000E+00 -0.25528663845E+04  0.25528663845E+04  0.25500000920E-02 0.  1.
    10030    2    1    2    0    0  0.00000000000E+00  0.00000000000E+00 -0.10192957814E+04  0.40864369877E+04  0.39572722125E+04 0.  0.
        1    1    3    3  502    0  0.12895026445E+04 -0.58271306325E+03 -0.19377665002E+04  0.23994396416E+04  0.50400001928E-02 0.  1.
       -1    1    3    3    0  502 -0.12895026445E+04  0.58271306325E+03  0.91847071885E+03  0.16869973461E+04  0.50400001928E-02 0. -1.
</event>
<event>
 5   0  0.1421304E-07  0.3937840E+04  0.7818609E-02  0.8017205E-01
        1   -1    0    0  501    0  0.00000000000E+00  0.00000000000E+00  0.13023989444E+04  0.13023989444E+04  0.50400001928E-02 0.  1.
       -1   -1    0    0    0  501  0.00000000000E+00  0.00000000000E+00 -0.29765420579E+04  0.29765420579E+04  0.50400001928E-02 0. -1.
    10030    2    1    2    0    0  0.00000000000E+00  0.00000000000E+00 -0.16741431135E+04  0.42789410023E+04  0.39378396282E+04 0.  0.
        2    1    3    3  502    0 -0.15832905448E+04  0.87180152052E+03  0.11466668670E+02  0.18074784438E+04  0.25500000920E-02 0.  1.
       -2    1    3    3    0  502  0.15832905448E+04 -0.87180152052E+03 -0.16856097822E+04  0.24714625585E+04  0.25500000920E-02 0. -1.
</event>
<event>
 5   0  0.1372952E-07  0.3880601E+04  0.7818609E-02  0.8029076E-01
        1   -1    0    0  501    0  0.00000000000E+00  0.00000000000E+00  0.20177948241E+04  0.20177948242E+04  0.50400001928E-02 0. -1.
       -1   -1    0    0    0  501  0.00000000000E+00  0.00000000000E+00 -0.18657822703E+04  0.18657822703E+04  0.50400001928E-02 0.  1.
    10030    2    1    2    0    0  0.00000000000E+00  0.00000000000E+00  0.15201255387E+03  0.38835770944E+04  0.38806008854E+04 0.  0.
        1    1    3    3  502    0  0.10347511755E+04 -0.20344515162E+03  0.17059560747E+04  0.20055887050E+04  0.50400001928E-02 0. -1.
       -1    1    3    3    0  502 -0.10347511755E+04  0.20344515162E+03 -0.15539435208E+04  0.18779883894E+04  0.50400001928E-02 0.  1.
</event>
<event>
 5   0  0.1368865E-07  0.3984448E+04  0.7818609E-02  0.8007691E-01
        1   -1    0    0  501    0  0.00000000000E+00  0.00000000000E+00  0.19300202979E+04  0.19300202979E+04  0.50400001928E-02 0.  1.
       -1   -1    0    0    0  501  0.00000000000E+00  0.00000000000E+00 -0.20564322581E+04  0.20564322581E+04  0.50400001928E-02 0. -1.
    10030    2    1    2    0    0  0.00000000000E+00  0.00000000000E+00 -0.12641196020E+03  0.39864525561E+04  0.39844477658E+04 0.  0.
        5    1    3    3  502    0 -0.11015981415E+04 -0.50851648908E+01 -0.17239778045E+04  0.20458899982E+04  0.46999998093E+01 0. -1.
       -5    1    3    3    0  502  0.11015981415E+04  0.50851648908E+01  0.15975658443E+04  0.19405625579E+04  0.46999998093E+01 0.  1.
</event>
<event>
 5   0  0.4149487E-07  0.3982530E+04  0.7818609E-02  0.8008080E-01
        2   -1    0    0  501    0  0.00000000000E+00  0.00000000000E+00  0.15797149045E+04  0.15797149045E+04  0.25500000920E-02 0. -1.
       -2   -1    0    0    0  501  0.00000000000E+00  0.00000000000E+00 -0.25100330115E+04  0.25100330115E+04  0.25500000920E-02 0.  1.
    10030    2    1    2    0    0  0.00000000000E+00  0.00000000000E+00 -0.93031810709E+03  0.40897479160E+04  0.39825301300E+04 0.  0.
        2    1    3    3  502    0 -0.64886252156E+03 -0.21436863414E+03 -0.23858492032E+04  0.24817842178E+04  0.25500000920E-02 0.  1.
       -2    1    3    3    0  502  0.64886252156E+03  0.21436863414E+03  0.14555310961E+04  0.16079636982E+04  0.25500000920E-02 0. -1.
</event>
<event>
 5   0  0.4079777E-07  0.3014809E+04  0.7818609E-02  0.8239515E-01
        2   -1    0    0  501    0  0.00000000000E+00  0.00000000000E+00  0.16739982238E+04  0.16739982238E+04  0.25500000920E-02 0. -1.
       -2   -1    0    0    0  501  0.00000000000E+00  0.00000000000E+00 -0.13573896205E+04  0.13573896205E+04  0.25500000920E-02 0.  1.
    10030    2    1    2    0    0  0.00000000000E+00  0.00000000000E+00  0.31660860336E+03  0.30313878443E+04  0.30148086598E+04 0.  0.
        4    1    3    3  502    0  0.13106465916E+04 -0.74449924098E+03  0.17225840944E+03  0.15171513373E+04  0.12699999809E+01 0. -1.
       -4    1    3    3    0  502 -0.13106465916E+04  0.74449924098E+03  0.14435019392E+03  0.15142365070E+04  0.12699999809E+01 0.  1.
</event>
<event>
 5   0  0.4077370E-07  0.4186828E+04  0.7818609E-02  0.7967882E-01
       -2   -1    0    0    0  501  0.00000000000E+00  0.00000000000E+00  0.18570322019E+04  0.18570322019E+04  0.25500000920E-02 0. -1.
        2   -1    0    0  501    0  0.00000000000E+00  0.00000000000E+00 -0.23598852735E+04  0.23598852735E+04  0.25500000920E-02 0.  1.
    10030    2    1    2    0    0  0.00000000000E+00  0.00000000000E+00 -0.50285307165E+03  0.42169174754E+04  0.41868283680E+04 0.  0.
        3    1    3    3  502    0 -0.88463387443E+03 -0.11157600539E+04 -0.17970184160E+04  0.22927653145E+04  0.10100000352E+00 0.  1.
       -3    1    3    3    0  502  0.88463387443E+03  0.11157600539E+04  0.12941653443E+04  0.19241521609E+04  0.10100000352E+00 0. -1.
</event>
<event>
 5   0  0.1351000E-07  0.4034164E+04  0.7818609E-02  0.7997690E-01
        3   -1    0    0  501    0  0.00000000000E+00  0.00000000000E+00  0.30051150395E+04  0.30051150412E+04  0.10100000352E+00 0. -1.
       -3   -1    0    0    0  501  0.00000000000E+00  0.00000000000E+00 -0.13538979900E+04  0.13538979938E+04  0.10100000352E+00 0.  1.
    10030    2    1    2    0    0  0.00000000000E+00  0.00000000000E+00  0.16512170495E+04  0.43590130350E+04  0.40341637169E+04 0.  0.
        5    1    3    3  502    0  0.41258543326E+03  0.58438897472E+02  0.29580930437E+04  0.29873028620E+04  0.46999998093E+01 0. -1.
       -5    1    3    3    0  502 -0.41258543326E+03 -0.58438897472E+02 -0.13068759942E+04  0.13717101730E+04  0.46999998093E+01 0.  1.
</event>
<event>
 5   0  0.4047916E-07  0.3981826E+04  0.7818609E-02  0.8008223E-01
       -2   -1    0    0    0  501  0.00000000000E+00  0.00000000000E+00  0.18560331259E+04  0.18560331259E+04  0.25500000920E-02 0. -1.
        2   -1    0    0  501    0  0.00000000000E+00  0.00000000000E+00 -0.21355949367E+04  0.21355949367E+04  0.25500000920E-02 0.  1.
    10030    2    1    2    0    0  0.00000000000E+00  0.00000000000E+00 -0.27956181081E+03  0.39916280626E+04  0.39818261870E+04 0.  0.
        5    1    3    3  502    0 -0.44447772577E+03 -0.87817524391E+03 -0.18746364920E+04  0.21173181799E+04  0.46999998093E+01 0.  1.
       -5    1    3    3    0  502  0.44447772577E+03  0.87817524391E+03  0.15950746812E+04  0.18743098827E+04  0.46999998093E+01 0. -1.
</event>
<event>
 5   0  0.4079777E-07  0.4101206E+04  0.7818609E-02  0.7984436E-01
        2   -1    0    0  501    0  0.00000000000E+00  0.00000000000E+00  0.12854288607E+04  0.12854288607E+04  0.25500000920E-02 0.  1.
       -2   -1    0    0    0  501  0.00000000000E+00  0.00000000000E+00 -0.32712601302E+04  0.32712601302E+04  0.25500000920E-02 0. -1.
    10030    2    1    2    0    0  0.00000000000E+00  0.00000000000E+00 -0.19858312695E+04  0.45566889908E+04  0.41012057652E+04 0.  0.
        4    1    3    3  502    0 -0.29941549097E+03 -0.15922674273E+04 -0.23894997892E+04  0.28869839022E+04  0.12699999809E+01 0. -1.
       -4    1    3    3    0  502  0.29941549097E+03  0.15922674273E+04  0.40366851969E+03  0.16697050886E+04  0.12699999809E+01 0.  1.
</event>
<event>
 5   0  0.4301754E-07  0.3923879E+04  0.7818609E-02  0.8020081E-01
        2   -1    0    0  501    0  0.00000000000E+00  0.00000000000E+00  0.22034340444E+04  0.22034340444E+04  0.25500000920E-02 0.  1.
       -2   -1    0    0    0  501  0.00000000000E+00  0.00000000000E+00 -0.17469123446E+04  0.17469123446E+04  0.25500000920E-02 0. -1.
    10030    2    1    2    0    0  0.00000000000E+00  0.00000000000E+00  0.45652169981E+03  0.39503463889E+04  0.39238787609E+04 0.  0.
        1    1    3    3  502    0  0.62162627428E+02 -0.67618612811E+03 -0.16248381537E+04  0.17610198459E+04  0.50400001928E-02 0. -1.
       -1    1    3    3    0  502 -0.62162627428E+02  0.67618612811E+03  0.20813598535E+04  0.21893265430E+04  0.50400001928E-02 0.  1.
</event>
<event>
 5   0  0.1372952E-07  0.3985438E+04  0.7818609E-02  0.8007491E-01
       -1   -1    0    0    0  501  0.00000000000E+00  0.00000000000E+00  0.28914300865E+04  0.28914300865E+04  0.50400001928E-02 0.  1.
        1   -1    0    0  501    0  0.00000000000E+00  0.00000000000E+00 -0.13733441471E+04  0.13733441471E+04  0.50400001928E-02 0. -1.
    10030    2    1    2    0    0  0.00000000000E+00  0.00000000000E+00  0.15180859394E+04  0.42647742336E+04  0.39854377857E+04 0.  0.
        1    1    3    3  502    0 -0.11344534226E+04 -0.95759644129E+03  0.21814782633E+04  0.26387161510E+04  0.50400001928E-02 0.  1.
       -1    1    3    3    0  502  0.11344534226E+04  0.95759644129E+03 -0.66339232391E+03  0.16260580826E+04  0.50400001928E-02 0. -1.
</event>
<event>
 5   0  0.1368865E-07  0.3922616E+04  0.7818609E-02  0.8020342E-01
       -1   -1    0    0    0  501  0.00000000000E+00  0.00000000000E+00  0.22117575357E+04  0.22117575357E+04  0.50400001928E-02 0. -1.
        1   -1    0    0  501    0  0.00000000000E+00  0.00000000000E+00 -0.17392181625E+04  0.17392181625E+04  0.50400001928E-02 0.  1.
    10030    2    1    2    0    0  0.00000000000E+00  0.00000000000E+00  0.47253937324E+03  0.39509756982E+04  0.39226159012E+04 0.  0.
        5    1    3    3  502    0 -0.93618565873E+03  0.95676794810E+02  0.19694980287E+04  0.21827831343E+04  0.46999998093E+01 0. -1.
       -5    1    3    3    0  502  0.93618565873E+03 -0.95676794810E+02 -0.14969586554E+04  0.17681925638E+04  0.46999998093E+01 0.  1.
</event>
<event>
 5   0  0.4047916E-07  0.4010440E+04  0.7818609E-02  0.8002444E-01
        2   -1    0    0  501    0  0.00000000000E+00  0.00000000000E+00  0.19452547148E+04  0.19452547148E+04  0.25500000920E-02 0. -1.
       -2   -1    0    0    0  501  0.00000000000E+00  0.00000000000E+00 -0.20670341892E+04  0.20670341892E+04  0.25500000920E-02 0.  1.
    10030    2    1    2    0    0  0.00000000000E+00  0.00000000000E+00 -0.12177947442E+03  0.40122889040E+04  0.40104403759E+04 0.  0.
        5    1    3    3  502    0 -0.58916213727E+03  0.10733846036E+04 -0.16495824361E+04  0.20543638516E+04  0.46999998093E+01 0.  1.
       -5    1    3    3    0  502  0.58916213727E+03 -0.10733846036E+04  0.15278029617E+04  0.19579250524E+04  0.46999998093E+01 0. -1.
</event>
<event>
 5   0  0.4047916E-07  0.3918633E+04  0.7818609E-02  0.8021165E-01
       -2   -1    0    0    0  501  0.00000000000E+00  0.00000000000E+00  0.24849519863E+04  0.24849519863E+04  0.25500000920E-02 0. -1.
        2   -1    0    0  501    0  0.00000000000E+00  0.00000000000E+00 -0.15448674701E+04  0.15448674701E+04  0.25500000920E-02 0.  1.
    10030    2    1    2    0    0  0.00000000000E+00  0.00000000000E+00  0.94008451615E+03  0.40298194564E+04  0.39186331741E+04 0.  0.
        5    1    3    3  502    0  0.98056972540E+03 -0.14625234520E+03 -0.12678767063E+04  0.16094844414E+04  0.46999998093E+01 0.  1.
       -5    1    3    3    0  502 -0.98056972540E+03  0.14625234520E+03  0.22079612224E+04  0.24203350150E+04  0.46999998093E+01 0. -1.
</event>
<event>
 5   0  0.4047916E-07  0.3987831E+04  0.7818609E-02  0.8007006E-01
        2   -1    0    0  501    0  0.00000000000E+00  0.00000000000E+00  0.18088755866E+04  0.18088755866E+04  0.25500000920E-02 0. -1.
       -2   -1    0    0    0  501  0.00000000000E+00  0.00000000000E+00 -0.21978839467E+04  0.21978839467E+04  0.25500000920E-02 0.  1.
    10030    2    1    2    0    0  0.00000000000E+00  0.00000000000E+00 -0.38900836012E+03  0.40067595333E+04  0.39878307955E+04 0.  0.
        5    1    3    3  502    0  0.20847182652E+02 -0.13931786275E+04  0.12385530894E+04  0.18642470701E+04  0.46999998093E+01 0. -1.
       -5    1    3    3    0  502 -0.20847182652E+02  0.13931786275E+04 -0.16275614495E+04  0.21425124632E+04  0.46999998093E+01 0.  1.
</event>
<event>
 5   0  0.4079777E-07  0.3037442E+04  0.7818609E-02  0.8233119E-01
       -2   -1    0    0    0  501  0.00000000000E+00  0.00000000000E+00  0.12256737682E+04  0.12256737682E+04  0.25500000920E-02 0. -1.
        2   -1    0    0  501    0  0.00000000000E+00  0.00000000000E+00 -0.18818328801E+04  0.18818328801E+04  0.25500000920E-02 0.  1.
    10030    2    1    2    0    0  0.00000000000E+00  0.00000000000E+00 -0.65615911193E+03  0.31075066483E+04  0.30374418166E+04 0.  0.
        4    1    3    3  502    0 -0.98211536717E+03 -0.85410642426E+03 -0.11287321232E+04  0.17228134540E+04  0.12699999809E+01 0.  1.
       -4    1    3    3    0  502  0.98211536717E+03  0.85410642426E+03  0.47257301129E+03  0.13846931943E+04  0.12699999809E+01 0. -1.
</event>
<event>
 5   0  0.4079777E-07  0.3988530E+04  0.7818609E-02  0.8006864E-01
        2   -1    0    0  501    0  0.00000000000E+00  0.00000000000E+00  0.24031657903E+04  0.24031657903E+04  0.25500000920E-02 0.  1.
       -2   -1    0    0    0  501  0.00000000000E+00  0.00000000000E+00 -0.16549388920E+04  0.16549388920E+04  0.25500000920E-02 0. -1.
    10030    2    1    2    0    0  0.00000000000E+00  0.00000000000E+00  0.74822689835E+03  0.40581046823E+04  0.39885298195E+04 0.  0.
        4    1    3    3  502    0 -0.12050149382E+04 -0.15659181322E+04  0.99346519944E+02  0.19783912510E+04  0.12699999809E+01 0. -1.
       -4    1    3    3    0  502  0.12050149382E+04  0.15659181322E+04  0.64888037841E+03  0.20797134313E+04  0.12699999809E+01 0.  1.
</event>
<event>
 5   0  0.1368865E-07  0.3887034E+04  0.7818609E-02  0.8027731E-01
        1   -1    0    0  501    0  0.00000000000E+00  0.00000000000E+00  0.13651352409E+04  0.13651352409E+04  0.50400001928E-02 0.  1.
       -1   -1    0    0    0  501  0.00000000000E+00  0.00000000000E+00 -0.27669480174E+04  0.27669480174E+04  0.50400001928E-02 0. -1.
    10030    2    1    2    0    0  0.00000000000E+00  0.00000000000E+00 -0.14018127765E+04  0.41320832583E+04  0.38870339583E+04 0.  0.
        5    1    3    3  502    0  0.96697516251E+03 -0.14149385129E+04  0.27347200538E+03  0.17354829264E+04  0.46999998093E+01 0.  1.
       -5    1    3    3    0  502 -0.96697516251E+03  0.14149385129E+04 -0.16752847819E+04  0.23966003319E+04  0.46999998093E+01 0. -1.
</event>
<event>
 5   0  0.4077370E-07  0.2527539E+04  0.7818609E-02  0.8393240E-01
       -2   -1    0    0    0  501  0.00000000000E+00  0.00000000000E+00  0.96584607971E+03  0.96584607971E+03  0.25500000920E-02 0. -1.
        2   -1    0    0  501    0  0.00000000000E+00  0.00000000000E+00 -0.16535900466E+04  0.16535900466E+04  0.25500000920E-02 0.  1.
    10030    2    1    2    0    0  0.00000000000E+00  0.00000000000E+00 -0.68774396694E+03  0.26194361264E+04  0.25275390909E+04 0.  0.
        3    1    3    3  502    0  0.70159057608E+03 -0.32701476869E+03  0.69142115285E+03  0.10378974979E+04  0.10100000352E+00 0. -1.
       -3    1    3    3    0  502 -0.70159057608E+03  0.32701476869E+03 -0.13791651198E+04  0.15815386284E+04  0.10100000352E+00 0.  1.
</event>
<event>
 5   0  0.4149487E-07  0.4009523E+04  0.7818609E-02  0.8002628E-01
       -2   -1    0    0    0  501  0.00000000000E+00  0.00000000000E+00  0.27279533456E+04  0.27279533456E+04  0.25500000920E-02 0.  1.
        2   -1    0    0  501    0  0.00000000000E+00  0.00000000000E+00 -0.14732908410E+04  0.14732908410E+04  0.25500000920E-02 0. -1.
    10030    2    1    2    0    0  0.00000000000E+00  0.00000000000E+00  0.12546625046E+04  0.42012441866E+04  0.40095230034E+04 0.  0.
        2    1    3    3  502    0 -0.55573224025E+03 -0.96541977050E+03 -0.11191606627E+04  0.15790485253E+04  0.25500000920E-02 0. -1.
       -2    1    3    3    0  502  0.55573224025E+03  0.96541977050E+03  0.23738231674E+04  0.26221956613E+04  0.25500000920E-02 0.  1.
</event>
<event>
 5   0  0.1351000E-07  0.3976947E+04  0.7818609E-02  0.8009213E-01
       -1   -1    0    0    0  501  0.00000000000E+00  0.00000000000E+00  0.18806573510E+04  0.18806573510E+04  0.50400001928E-02 0.  1.
        1   -1    0    0  501    0  0.00000000000E+00  0.00000000000E+00 -0.21024705613E+04  0.21024705613E+04  0.50400001928E-02 0. -1.
    10030    2    1    2    0    0  0.00000000000E+00  0.00000000000E+00 -0.22181321032E+03  0.39831279124E+04  0.39769469277E+04 0.  0.
        3    1    3    3  502    0 -0.11516872539E+04  0.62779737323E+03  0.13859105841E+04  0.19082089063E+04  0.10100000352E+00 0.  1.
       -3    1    3    3    0  502  0.11516872539E+04 -0.62779737323E+03 -0.16077237944E+04  0.20749190061E+04  0.10100000352E+00 0. -1.
</event>
<event>
 5   0  0.4047916E-07  0.3352848E+04  0.7818609E-02  0.8149577E-01
       -2   -1    0    0    0  501  0.00000000000E+00  0.00000000000E+00  0.14632700954E+04  0.14632700954E+04  0.25500000920E-02 0.  1.
        2   -1    0    0  501    0  0.00000000000E+00  0.00000000000E+00 -0.19206282736E+04  0.19206282736E+04  0.25500000920E-02 0. -1.
    10030    2    1    2    0    0  0.00000000000E+00  0.00000000000E+00 -0.45735817819E+03  0.33838983691E+04  0.33528482920E+04 0.  0.
        5    1    3    3  502    0  0.11224013152E+04  0.21822235348E+03 -0.14659892551E+04  0.18591805437E+04  0.46999998093E+01 0. -1.
       -5    1    3    3    0  502 -0.11224013152E+04 -0.21822235348E+03  0.10086310769E+04  0.15247178254E+04  0.46999998093E+01 0.  1.
</event>
<event>
 5   0  0.4149487E-07  0.3979505E+04  0.7818609E-02  0.8008694E-01
       -2   -1    0    0    0  501  0.00000000000E+00  0.00000000000E+00  0.19159886737E+04  0.19159886737E+04  0.25500000920E-02 0. -1.
        2   -1    0    0  501    0  0.00000000000E+00  0.00000000000E+00 -0.20663558992E+04  0.20663558993E+04  0.25500000920E-02 0.  1.
    10030    2    1    2    0    0  0.00000000000E+00  0.00000000000E+00 -0.15036722556E+03  0.39823445729E+04  0.39795047424E+04 0.  0.
        2    1    3    3  502    0 -0.79252437643E+03  0.45456577295E+03 -0.18440392816E+04  0.20579615646E+04  0.25500000920E-02 0.  1.
       -2    1    3    3    0  502  0.79252437643E+03 -0.45456577295E+03  0.16936720561E+04  0.19243830083E+04  0.25500000920E-02 0. -1.
</event>
<event>
 5   0  0.1372952E-07  0.3881700E+04  0.7818609E-02  0.8028846E-01
        1   -1    0    0  501    0  0.00000000000E+00  0.00000000000E+00  0.18477488429E+04  0.18477488429E+04  0.50400001928E-02 0.  1.
       -1   -1    0    0    0  501  0.00000000000E+00  0.00000000000E+00 -0.20386419491E+04  0.20386419491E+04  0.50400001928E-02 0. -1.
    10030    2    1    2    0    0  0.00000000000E+00  0.00000000000E+00 -0.19089310618E+03  0.38863907920E+04  0.38816997836E+04 0.  0.
        1    1    3    3  502    0  0.45541573393E+03  0.16334688024E+03  0.17864026781E+04  0.18507620653E+04  0.50400001928E-02 0.  1.
       -1    1    3    3    0  502 -0.45541573393E+03 -0.16334688024E+03 -0.19772957843E+04  0.20356287266E+04  0.50400001928E-02 0. -1.
</event>
<event>
 5   0  0.4047916E-07  0.3562772E+04  0.7818609E-02  0.8099073E-01
       -2   -1    0    0    0  501  0.00000000000E+00  0.00000000000E+00  0.32604686899E+04  0.32604686899E+04  0.25500000920E-02 0. -1.
        2   -1    0    0  501    0  0.00000000000E+00  0.00000000000E+00 -0.97327618437E+03  0.97327618437E+03  0.25500000920E-02 0.  1.
    10030    2    1    2    0    0  0.00000000000E+00  0.00000000000E+00  0.22871925055E+04  0.42337448743E+04  0.35627722497E+04 0.  0.
        5    1    3    3  502    0  0.50081875121E+03 -0.10389152014E+04 -0.46971063870E+03  0.12453169843E+04  0.46999998093E+01 0.  1.
       -5    1    3    3    0  502 -0.50081875121E+03  0.10389152014E+04  0.27569031442E+04  0.29884278900E+04  0.46999998093E+01 0. -1.
</event>
<event>
 5   0  0.4047916E-07  0.2751179E+04  0.7818609E-02  0.8318588E-01
       -2   -1    0    0    0  501  0.00000000000E+00  0.00000000000E+00  0.13726150865E+04  0.13726150865E+04  0.25500000920E-02 0. -1.
        2   -1    0    0  501    0  0.00000000000E+00  0.00000000000E+00 -0.13785705553E+04  0.13785705553E+04  0.25500000920E-02 0.  1.
    10030    2    1    2    0    0  0.00000000000E+00  0.00000000000E+00 -0.59554688868E+01  0.27511856418E+04  0.27511791959E+04 0.  0.
        5    1    3    3  502    0 -0.32092033678E+03  0.45214459250E+03 -0.12618691051E+04  0.13783179327E+04  0.46999998093E+01 0.  1.
       -5    1    3    3    0  502  0.32092033678E+03 -0.45214459250E+03  0.12559136362E+04  0.13728677091E+04  0.46999998093E+01 0. -1.
</event>
<event>
 5   0  0.4077370E-07  0.4013325E+04  0.7818609E-02  0.8001864E-01
       -2   -1    0    0    0  501  0.00000000000E+00  0.00000000000E+00  0.15714512270E+04  0.15714512270E+04  0.25500000920E-02 0.  1.
        2   -1    0    0  501    0  0.00000000000E+00  0.00000000000E+00 -0.25624052087E+04  0.25624052087E+04  0.25500000920E-02 0. -1.
    10030    2    1    2    0    0  0.00000000000E+00  0.00000000000E+00 -0.99095398177E+03  0.41338564357E+04  0.40133252095E+04 0.  0.
        3    1    3    3  502    0  0.16486427933E+04  0.12393173638E+03  0.67591648780E+03  0.17861257638E+04  0.10100000352E+00 0.  1.
       -3    1    3    3    0  502 -0.16486427933E+04 -0.12393173638E+03 -0.16668704696E+04  0.23477306719E+04  0.10100000352E+00 0. -1.
</event>
<event>
 5   0  0.1421304E-07  0.3982472E+04  0.7818609E-02  0.8008092E-01
       -1   -1    0    0    0  501  0.00000000000E+00  0.00000000000E+00  0.26710526432E+04  0.26710526432E+04  0.50400001928E-02 0.  1.
        1   -1    0    0  501    0  0.00000000000E+00  0.00000000000E+00 -0.14844409851E+04  0.14844409852E+04  0.50400001928E-02 0. -1.
    10030    2    1    2    0    0  0.00000000000E+00  0.00000000000E+00  0.11866116581E+04  0.41554936284E+04  0.39824716030E+04 0.  0.
        2    1    3    3  502    0 -0.68363563368E+03  0.17143267689E+04 -0.18666286671E+03  0.18550247912E+04  0.25500000920E-02 0. -1.
       -2    1    3    3    0  502  0.68363563368E+03 -0.17143267689E+04  0.13732745248E+04  0.23004688371E+04  0.25500000920E-02 0.  1.
</event>
<event>
 5   0  0.1368865E-07  0.4056811E+04  0.7818609E-02  0.7993183E-01
        1   -1    0    0  501    0  0.00000000000E+00  0.00000000000E+00  0.25442707178E+04  0.25442707178E+04  0.50400001928E-02 0. -1.
       -1   -1    0    0    0  501  0.00000000000E+00  0.00000000000E+00 -0.16171346709E+04  0.16171346709E+04  0.50400001928E-02 0.  1.
    10030    2    1    2    0    0  0.00000000000E+00  0.00000000000E+00  0.92713604693E+03  0.41614053887E+04  0.40568107621E+04 0.  0.
        5    1    3    3  502    0 -0.15031354247E+04 -0.10579821400E+04  0.13433904414E+04  0.22767218279E+04  0.46999998093E+01 0. -1.
       -5    1    3    3    0  502  0.15031354247E+04  0.10579821400E+04 -0.41625439445E+03  0.18846835608E+04  0.46999998093E+01 0.  1.
</event>
<event>
 5   0  0.4149487E-07  0.3977139E+04  0.7818609E-02  0.8009174E-01
       -2   -1    0    0    0  501  0.00000000000E+00  0.00000000000E+00  0.18303756423E+04  0.18303756423E+04  0.25500000920E-02 0. -1.
        2   -1    0    0  501    0  0.00000000000E+00  0.00000000000E+00 -0.21604355623E+04  0.21604355623E+04  0.25500000920E-02 0.  1.
    10030    2    1    2    0    0  0.00000000000E+00  0.00000000000E+00 -0.33005992000E+03  0.39908112046E+04  0.39771389867E+04 0.  0.
        2    1    3    3  502    0 -0.62471285604E+03  0.13881154646E+04 -0.14489903293E+04  0.21015955058E+04  0.25500000920E-02 0.  1.
       -2    1    3    3    0  502  0.62471285604E+03 -0.13881154646E+04  0.11189304093E+04  0.18892156988E+04  0.25500000920E-02 0. -1.
</event>
<event>
 5   0  0.5113762E-07  0.2548374E+04  0.7818609E-02  0.8385952E-01
        2   -1    0    0  501    0  0.00000000000E+00  0.00000000000E+00  0.14884658516E+04  0.14884658516E+04  0.25500000920E-02 0. -1.
       -2   -1    0    0    0  501  0.00000000000E+00  0.00000000000E+00 -0.10907556060E+04  0.10907556061E+04  0.25500000920E-02 0.  1.
    10030    2    1    2    0    0  0.00000000000E+00  0.00000000000E+00  0.39771024556E+03  0.25792214577E+04  0.25483739695E+04 0.  0.
        1    1    3    3  502    0 -0.11614331341E+04  0.25866862740E+03  0.66013078441E+03  0.13607384159E+04  0.50400001928E-02 0. -1.
       -1    1    3    3    0  502  0.11614331341E+04 -0.25866862740E+03 -0.26242053885E+03  0.12184830418E+04  0.50400001928E-02 0.  1.
</event>
<event>
 5   0  0.1421304E-07  0.3923526E+04  0.7818609E-02  0.8020154E-01
       -1   -1    0    0    0  501  0.00000000000E+00  0.00000000000E+00  0.16885376192E+04  0.16885376192E+04  0.50400001928E-02 0.  1.
        1   -1    0    0  501    0  0.00000000000E+00  0.00000000000E+00 -0.22792000381E+04  0.22792000381E+04  0.50400001928E-02 0. -1.
    10030    2    1    2    0    0  0.00000000000E+00  0.00000000000E+00 -0.59066241894E+03  0.39677376573E+04  0.39235264780E+04 0.  0.
        2    1    3    3  502    0  0.38593162947E+03 -0.99613988621E+01  0.16497434074E+04  0.16943127699E+04  0.25500000920E-02 0.  1.
       -2    1    3    3    0  502 -0.38593162947E+03  0.99613988621E+01 -0.22404058263E+04  0.22734248874E+04  0.25500000920E-02 0. -1.
</event>
<event>
 5   0  0.1351000E-07  0.2924500E+04  0.7818609E-02  0.8265625E-01
        1   -1    0    0  501    0  0.00000000000E+00  0.00000000000E+00  0.18906018643E+04  0.18906018643E+04  0.50400001928E-02 0. -1.
       -1   -1    0    0    0  501  0.00000000000E+00  0.00000000000E+00 -0.11309492188E+04  0.11309492188E+04  0.50400001928E-02 0.  1.
    10030    2    1    2    0    0  0.00000000000E+00  0.00000000000E+00  0.75965264548E+03  0.30215510831E+04  0.29244997531E+04 0.  0.
        3    1    3    3  502    0  0.43607856928E+03  0.20439176242E+03  0.18063089213E+04  0.18694096503E+04  0.10100000352E+00 0. -1.
       -3    1    3    3    0  502 -0.43607856928E+03 -0.20439176242E+03 -0.10466562758E+04  0.11521414328E+04  0.10100000352E+00 0.  1.
</event>
<event>
 5   0  0.4149487E-07  0.4031508E+04  0.7818609E-02  0.7998220E-01
        2   -1    0    0  501    0  0.00000000000E+00  0.00000000000E+00  0.18484315266E+04  0.18484315266E+04  0.25500000920E-02 0. -1.
       -2   -1    0    0    0  501  0.00000000000E+00  0.00000000000E+00 -0.21982225925E+04  0.21982225925E+04  0.25500000920E-02 0.  1.
    10030    2    1    2    0    0  0.00000000000E+00  0.00000000000E+00 -0.34979106593E+03  0.40466541192E+04  0.40315078780E+04 0.  0.
        2    1    3    3  502    0 -0.50486479090E+03  0.15269247921E+03  0.17779369255E+04  0.18545250500E+04  0.25500000920E-02 0. -1.
       -2    1    3    3    0  502  0.50486479090E+03 -0.15269247921E+03 -0.21277279914E+04  0.21921290691E+04  0.25500000920E-02 0.  1.
</event>
<event>
 5   0  0.1372952E-07  0.4136175E+04  0.7818609E-02  0.7977625E-01
        1   -1    0    0  501    0  0.00000000000E+00  0.00000000000E+00  0.22672739914E+04  0.22672739914E+04  0.50400001928E-02 0. -1.
       -1   -1    0    0    0  501  0.00000000000E+00  0.00000000000E+00 -0.18864000044E+04  0.18864000044E+04  0.50400001928E-02 0.  1.
    10030    2    1    2    0    0  0.00000000000E+00  0.00000000000E+00  0.38087398697E+03  0.41536739958E+04  0.41361748838E+04 0.  0.
        1    1    3    3  502    0  0.16601069116E+04  0.61915113707E+03 -0.88069765648E+03  0.19786185712E+04  0.50400001928E-02 0. -1.
       -1    1    3    3    0  502 -0.16601069116E+04 -0.61915113707E+03  0.12615716434E+04  0.21750554246E+04  0.50400001928E-02 0.  1.
</event>
<event>
 5   0  0.1372952E-07  0.2896973E+04  0.7818609E-02  0.8273779E-01
        1   -1    0    0  501    0  0.00000000000E+00  0.00000000000E+00  0.10013460374E+04  0.10013460374E+04  0.50400001928E-02 0.  1.
       -1   -1    0    0    0  501  0.00000000000E+00  0.00000000000E+00 -0.20952932682E+04  0.20952932682E+04  0.50400001928E-02 0. -1.
    10030    2    1    2    0    0  0.00000000000E+00  0.00000000000E+00 -0.10939472308E+04  0.30966393056E+04  0.28969733249E+04 0.  0.
        1    1    3    3  502    0  0.77367804855E+03  0.25048863869E+03 -0.18282504526E+04  0.20009552715E+04  0.50400001928E-02 0. -1.
       -1    1    3    3    0  502 -0.77367804855E+03 -0.25048863869E+03  0.73430322183E+03  0.10956840341E+04  0.50400001928E-02 0.  1.
</event>
<event>
 5   0  0.1421304E-07  0.3996106E+04  0.7818609E-02  0.8005333E-01
        1   -1    0    0  501    0  0.00000000000E+00  0.00000000000E+00  0.22793159871E+04  0.22793159871E+04  0.50400001928E-02 0.  1.
       -1   -1    0    0    0  501  0.00000000000E+00  0.00000000000E+00 -0.17514971797E+04  0.17514971797E+04  0.50400001928E-02 0. -1.
    10030    2    1    2    0    0  0.00000000000E+00  0.00000000000E+00  0.52781880737E+03  0.40308131668E+04  0.39961058660E+04 0.  0.
        2    1    3    3  502    0  0.16730899790E+04  0.10783050865E+04  0.88492143260E+02  0.19924363971E+04  0.25500000920E-02 0.  1.
       -2    1    3    3    0  502 -0.16730899790E+04 -0.10783050865E+04  0.43932666411E+03  0.20383767696E+04  0.25500000920E-02 0. -1.
</event>
<event>
 5   0  0.4079777E-07  0.4003537E+04  0.7818609E-02  0.8003833E-01
        2   -1    0    0  501    0  0.00000000000E+00  0.00000000000E+00  0.13732455396E+04  0.13732455396E+04  0.25500000920E-02 0.  1.
       -2   -1    0    0    0  501  0.00000000000E+00  0.00000000000E+00 -0.29179609540E+04  0.29179609540E+04  0.25500000920E-02 0. -1.
    10030    2    1    2    0    0  0.00000000000E+00  0.00000000000E+00 -0.15447154144E+04  0.42912064937E+04  0.40035368688E+04 0.  0.
        4    1    3    3  502    0  0.18784720748E+04 -0.69166390534E+03 -0.77702469300E+03  0.21472832324E+04  0.12699999809E+01 0.  1.
       -4    1    3    3    0  502 -0.18784720748E+04  0.69166390534E+03 -0.76769072141E+03  0.21439232613E+04  0.12699999809E+01 0. -1.
</event>
<event>
 5   0  0.4047916E-07  0.4010857E+04  0.7818609E-02  0.8002360E-01
       -2   -1    0    0    0  501  0.00000000000E+00  0.00000000000E+00  0.21597745804E+04  0.21597745804E+04  0.25500000920E-02 0. -1.
        2   -1    0    0  501    0  0.00000000000E+00  0.00000000000E+00 -0.18621121765E+04  0.18621121765E+04  0.25500000920E-02 0.  1.
    10030    2    1    2    0    0  0.00000000000E+00  0.00000000000E+00  0.29766240386E+03  0.40218867569E+04  0.40108565393E+04 0.  0.
        5    1    3    3  502    0 -0.93160196499E+03 -0.11504114336E+04 -0.12078091688E+04  0.19105375594E+04  0.46999998093E+01 0.  1.
       -5    1    3    3    0  502  0.93160196499E+03  0.11504114336E+04  0.15054715727E+04  0.21113491975E+04  0.46999998093E+01 0. -1.
</event>
<event>
 5   0  0.4079777E-07  0.3381145E+04  0.7818609E-02  0.8142550E-01
       -2   -1    0    0    0  501  0.00000000000E+00  0.00000000000E+00  0.15311136213E+04  0.15311136213E+04  0.25500000920E-02 0.  1.
        2   -1    0    0  501    0  0.00000000000E+00  0.00000000000E+00 -0.18666378138E+04  0.18666378138E+04  0.25500000920E-02 0. -1.
    10030    2    1    2    0    0  0.00000000000E+00  0.00000000000E+00 -0.33552419253E+03  0.33977514351E+04  0.33811445297E+04 0.  0.
        4    1    3    3  502    0 -0.99199445808E+03 -0.93086059396E+03 -0.11764243451E+04  0.17984799979E+04  0.12699999809E+01 0. -1.
       -4    1    3    3    0  502  0.99199445808E+03  0.93086059396E+03  0.84090015256E+03  0.15992714372E+04  0.12699999809E+01 0.  1.
</event>
<event>
 5   0  0.4301754E-07  0.4035711E+04  0.7818609E-02  0.7997381E-01
        2   -1    0    0  501    0  0.00000000000E+00  0.00000000000E+00  0.33295708501E+04  0.33295708501E+04  0.25500000920E-02 0.  1.
       -2   -1    0    0    0  501  0.00000000000E+00  0.00000000000E+00 -0.12229025170E+04  0.12229025170E+04  0.25500000920E-02 0. -1.
    10030    2    1    2    0    0  0.00000000000E+00  0.00000000000E+00  0.21066683330E+04  0.45524733671E+04  0.40357108783E+04 0.  0.
        1    1    3    3  502    0 -0.18402261893E+04 -0.81310526012E+03  0.87796729406E+03  0.21950852287E+04  0.50400001928E-02 0.  1.
       -1    1    3    3    0  502  0.18402261893E+04  0.81310526012E+03  0.12287010390E+04  0.23573881384E+04  0.50400001928E-02 0. -1.
</event>
<event>
 5   0  0.4047916E-07  0.3992311E+04  0.7818609E-02  0.8006100E-01
        2   -1    0    0  501    0  0.00000000000E+00  0.00000000000E+00  0.24414148998E+04  0.24414148998E+04  0.25500000920E-02 0. -1.
       -2   -1    0    0    0  501  0.00000000000E+00  0.00000000000E+00 -0.16321012210E+04  0.16321012210E+04  0.25500000920E-02 0.  1.
    10030    2    1    2    0    0  0.00000000000E+00  0.00000000000E+00  0.80931367889E+03  0.40735161208E+04  0.39923107288E+04 0.  0.
        5    1    3    3  502    0  0.28465786432E+03 -0.21762802146E+03 -0.15990128237E+04  0.16386751221E+04  0.46999998093E+01 0.  1.
       -5    1    3    3    0  502 -0.28465786432E+03  0.21762802146E+03  0.24083265026E+04  0.24348409987E+04  0.46999998093E+01 0. -1.
</event>
<event>
 5   0  0.4077370E-07  0.4027200E+04  0.7818609E-02  0.7999082E-01
        2   -1    0    0  501    0  0.00000000000E+00  0.00000000000E+00  0.12001670036E+04  0.12001670036E+04  0.25500000920E-02 0. -1.
       -2   -1    0    0    0  501  0.00000000000E+00  0.00000000000E+00 -0.33783509311E+04  0.33783509311E+04  0.25500000920E-02 0.  1.
    10030    2    1    2    0    0  0.00000000000E+00  0.00000000000E+00 -0.21781839275E+04  0.45785179348E+04  0.40272001759E+04 0.  0.
        3    1    3    3  502    0  0.15047854374E+04  0.95500840227E+00 -0.26102456955E+04  0.30129325790E+04  0.10100000352E+00 0.  1.
       -3    1    3    3    0  502 -0.15047854374E+04 -0.95500840227E+00  0.43206176798E+03  0.15655853558E+04  0.10100000352E+00 0. -1.
</event>
<event>
 5   0  0.4079777E-07  0.2664508E+04  0.7818609E-02  0.8346614E-01
       -2   -1    0    0    0  501  0.00000000000E+00  0.00000000000E+00  0.95089825748E+03  0.95089825748E+03  0.25500000920E-02 0.  1.
        2   -1    0    0  501    0  0.00000000000E+00  0.00000000000E+00 -0.18665516354E+04  0.18665516354E+04  0.25500000920E-02 0. -1.
    10030    2    1    2    0    0  0.00000000000E+00  0.00000000000E+00 -0.91565337787E+03  0.28174498928E+04  0.26645079828E+04 0.  0.
        4    1    3    3  502    0 -0.80531219535E+03  0.53841857176E+03  0.50926159940E+03  0.10944273754E+04  0.12699999809E+01 0.  1.
       -4    1    3    3    0  502  0.80531219535E+03 -0.53841857176E+03 -0.14249149773E+04  0.17230225175E+04  0.12699999809E+01 0. -1.
</event>
<event>
 5   0  0.1351000E-07  0.3893055E+04  0.7818609E-02  0.8026475E-01
       -1   -1    0    0    0  501  0.00000000000E+00  0.00000000000E+00  0.17822341212E+04  0.17822341212E+04  0.50400001928E-02 0. -1.
        1   -1    0    0  501    0  0.00000000000E+00  0.00000000000E+00 -0.21259664992E+04  0.21259664992E+04  0.50400001928E-02 0.  1.
    10030    2    1    2    0    0  0.00000000000E+00  0.00000000000E+00 -0.34373237804E+03  0.39082006204E+04  0.38930553736E+04 0.  0.
        3    1    3    3  502    0 -0.13286626363E+04  0.12191573595E+04 -0.90771228884E+03  0.20188191295E+04  0.10100000352E+00 0.  1.
       -3    1    3    3    0  502  0.13286626363E+04 -0.12191573595E+04  0.56397991080E+03  0.18893814909E+04  0.10100000352E+00 0. -1.
</event>
<event>
 5   0  0.1421304E-07  0.3933595E+04  0.7818609E-02  0.8018078E-01
        1   -1    0    0  501    0  0.00000000000E+00  0.00000000000E+00  0.22993686721E+04  0.22993686721E+04  0.50400001928E-02 0. -1.
       -1   -1    0    0    0  501  0.00000000000E+00  0.00000000000E+00 -0.16823280579E+04  0.16823280579E+04  0.50400001928E-02 0.  1.
    10030    2    1    2    0    0  0.00000000000E+00  0.00000000000E+00  0.61704061425E+03  0.39816967300E+04  0.39335950135E+04 0.  0.
        2    1    3    3  502    0 -0.19066786181E+04  0.74091657045E+02  0.79119462687E+03  0.20656480494E+04  0.25500000920E-02 0. -1.
       -2    1    3    3    0  502  0.19066786181E+04 -0.74091657045E+02 -0.17415401261E+03  0.19160486806E+04  0.25500000920E-02 0.  1.
</event>
<event>
 5   0  0.1368865E-07  0.3938860E+04  0.7818609E-02  0.8016995E-01
        1   -1    0    0  501    0  0.00000000000E+00  0.00000000000E+00  0.15256500393E+04  0.15256500393E+04  0.50400001928E-02 0.  1.
       -1   -1    0    0    0  501  0.00000000000E+00  0.00000000000E+00 -0.25422964640E+04  0.25422964640E+04  0.50400001928E-02 0. -1.
    10030    2    1    2    0    0  0.00000000000E+00  0.00000000000E+00 -0.10166464247E+04  0.40679465032E+04  0.39388600889E+04 0.  0.
        5    1    3    3  502    0 -0.69007755969E+03 -0.13331705905E+03  0.13917122123E+04  0.15591232948E+04  0.46999998093E+01 0.  1.
       -5    1    3    3    0  502  0.69007755969E+03  0.13331705905E+03 -0.24083586370E+04  0.25088232084E+04  0.46999998093E+01 0. -1.
</event>
<event>
 5   0  0.4079777E-07  0.4013250E+04  0.7818609E-02  0.8001879E-01
       -2   -1    0    0    0  501  0.00000000000E+00  0.00000000000E+00  0.16177927382E+04  0.16177927382E+04  0.25500000920E-02 0.  1.
        2   -1    0    0  501    0  0.00000000000E+00  0.00000000000E+00 -0.24889118100E+04  0.24889118100E+04  0.25500000920E-02 0. -1.
    10030    2    1    2    0    0  0.00000000000E+00  0.00000000000E+00 -0.87111907185E+03  0.41067045482E+04  0.40132497816E+04 0.  0.
        4    1    3    3  502    0  0.25066646609E+03  0.33620565892E+03 -0.24435684670E+04  0.24792935260E+04  0.12699999809E+01 0. -1.
       -4    1    3    3    0  502 -0.25066646609E+03 -0.33620565892E+03  0.15724493951E+04  0.16274110223E+04  0.12699999809E+01 0.  1.
</event>
<event>
 5   0  0.1372952E-07  0.3467248E+04  0.7818609E-02  0.8121596E-01
        1   -1    0    0  501    0  0.00000000000E+00  0.00000000000E+00  0.96400173893E+03  0.96400173894E+03  0.50400001928E-02 0.  1.
       -1   -1    0    0    0  501  0.00000000000E+00  0.00000000000E+00 -0.31176825989E+04  0.31176825989E+04  0.50400001928E-02 0. -1.
    10030    2    1    2    0    0  0.00000000000E+00  0.00000000000E+00 -0.21536808600E+04  0.40816843379E+04  0.34672475809E+04 0.  0.
        1    1    3    3  502    0  0.73821359186E+03  0.23107605546E+03  0.74958214462E+03  0.10771391935E+04  0.50400001928E-02 0.  1.
       -1    1    3    3    0  502 -0.73821359186E+03 -0.23107605546E+03 -0.29032630046E+04  0.30045451444E+04  0.50400001928E-02 0. -1.
</event>
<event>
 5   0  0.1368865E-07  0.3999769E+04  0.7818609E-02  0.8004593E-01
        1   -1    0    0  501    0  0.00000000000E+00  0.00000000000E+00  0.30500923799E+04  0.30500923799E+04  0.50400001928E-02 0.  1.
       -1   -1    0    0    0  501  0.00000000000E+00  0.00000000000E+00 -0.13112843589E+04  0.13112843589E+04  0.50400001928E-02 0. -1.
    10030    2    1    2    0    0  0.00000000000E+00  0.00000000000E+00  0.17388080210E+04  0.43613767388E+04  0.39997692088E+04 0.  0.
        5    1    3    3  502    0 -0.52269991705E+03  0.17800092105E+03  0.29653175882E+04  0.30162940871E+04  0.46999998093E+01 0.  1.
       -5    1    3    3    0  502  0.52269991705E+03 -0.17800092105E+03 -0.12265095673E+04  0.13450826516E+04  0.46999998093E+01 0. -1.
</event>
<event>
 5   0  0.1372952E-07  0.3767278E+04  0.7818609E-02  0.8053214E-01
       -1   -1    0    0    0  501  0.00000000000E+00  0.00000000000E+00  0.16388585104E+04  0.16388585104E+04  0.50400001928E-02 0.  1.
        1   -1    0    0  501    0  0.00000000000E+00  0.00000000000E+00 -0.21649802666E+04  0.21649802666E+04  0.50400001928E-02 0. -1.
    10030    2    1    2    0    0  0.00000000000E+00  0.00000000000E+00 -0.52612175618E+03  0.38038387770E+04  0.37672782402E+04 0.  0.
        1    1    3    3  502    0 -0.26232562901E+03  0.94838501780E+03  0.13587171714E+04  0.16776058028E+04  0.50400001928E-02 0.  1.
       -1    1    3    3    0  502  0.26232562901E+03 -0.94838501780E+03 -0.18848389276E+04  0.21262329742E+04  0.50400001928E-02 0. -1.
</event>
<event>
 5   0  0.1421304E-07  0.3612953E+04  0.7818609E-02  0.8087531E-01
       -1   -1    0    0    0  501  0.00000000000E+00  0.00000000000E+00  0.13985037504E+04  0.13985037504E+04  0.50400001928E-02 0.  1.
        1   -1    0    0  501    0  0.00000000000E+00  0.00000000000E+00 -0.23334636089E+04  0.23334636089E+04  0.50400001928E-02 0. -1.
    10030    2    1    2    0    0  0.00000000000E+00  0.00000000000E+00 -0.93495985849E+03  0.37319673593E+04  0.36129531458E+04 0.  0.
        2    1    3    3  502    0 -0.34546464753E+03 -0.10844701724E+04  0.98156221863E+03  0.15029590036E+04  0.25500000920E-02 0.  1.
       -2    1    3    3    0  502  0.34546464753E+03  0.10844701724E+04 -0.19165220771E+04  0.22290083557E+04  0.25500000920E-02 0. -1.
</event>
<event>
 5   0  0.4047916E-07  0.3922043E+04  0.7818609E-02  0.8020460E-01
       -2   -1    0    0    0  501  0.00000000000E+00  0.00000000000E+00  0.14149613456E+04  0.14149613456E+04  0.25500000920E-02 0.  1.
        2   -1    0    0  501    0  0.00000000000E+00  0.00000000000E+00 -0.27178171678E+04  0.27178171678E+04  0.25500000920E-02 0. -1.
    10030    2    1    2    0    0  0.00000000000E+00  0.00000000000E+00 -0.13028558222E+04  0.41327785133E+04  0.39220434657E+04 0.  0.
        5    1    3    3  502    0  0.63318125498E+03  0.13779732306E+04  0.65870140613E+03  0.16533718149E+04  0.46999998093E+01 0.  1.
       -5    1    3    3    0  502 -0.63318125498E+03 -0.13779732306E+04 -0.19615572283E+04  0.24794066984E+04  0.46999998093E+01 0. -1.
</event>
<event>
 5   0  0.4079777E-07  0.2594091E+04  0.7818609E-02  0.8370211E-01
       -2   -1    0    0    0  501  0.00000000000E+00  0.00000000000E+00  0.75911637162E+03  0.75911637163E+03  0.25500000920E-02 0. -1.
        2   -1    0    0  501    0  0.00000000000E+00  0.00000000000E+00 -0.22161648345E+04  0.22161648345E+04  0.25500000920E-02 0.  1.
    10030    2    1    2    0    0  0.00000000000E+00  0.00000000000E+00 -0.14570484629E+04  0.29752812061E+04  0.25940909838E+04 0.  0.
        4    1    3    3  502    0 -0.79889883929E+03  0.25366295847E+03 -0.18637924702E+04  0.20436017804E+04  0.12699999809E+01 0.  1.
       -4    1    3    3    0  502  0.79889883929E+03 -0.25366295847E+03  0.40674400734E+03  0.93167942573E+03  0.12699999809E+01 0. -1.
</event>
<event>
 5   0  0.1351000E-07  0.3727383E+04  0.7818609E-02  0.8061920E-01
       -1   -1    0    0    0  501  0.00000000000E+00  0.00000000000E+00  0.15049006689E+04  0.15049006690E+04  0.50400001928E-02 0. -1.
        1   -1    0    0  501    0  0.00000000000E+00  0.00000000000E+00 -0.23080239021E+04  0.23080239021E+04  0.50400001928E-02 0.  1.
    10030    2    1    2    0    0  0.00000000000E+00  0.00000000000E+00 -0.80312323313E+03  0.38129245710E+04  0.37273833794E+04 0.  0.
        3    1    3    3  502    0  0.13933450558E+04 -0.24688587775E+02  0.86430539333E+03  0.16398304163E+04  0.10100000352E+00 0. -1.
       -3    1    3    3    0  502 -0.13933450558E+04  0.24688587775E+02 -0.16674286265E+04  0.21730941548E+04  0.10100000352E+00 0.  1.
</event>
<event>
 5   0  0.1421304E-07  0.2500070E+04  0.7818609E-02  0.8402961E-01
        1   -1    0    0  501    0  0.00000000000E+00  0.00000000000E+00  0.18622420142E+04  0.18622420143E+04  0.50400001928E-02 0.  1.
       -1   -1    0    0    0  501  0.00000000000E+00  0.00000000000E+00 -0.83908906408E+03  0.83908906410E+03  0.50400001928E-02 0. -1.
    10030    2    1    2    0    0  0.00000000000E+00  0.00000000000E+00  0.10231529502E+04  0.27013310784E+04  0.25000695261E+04 0.  0.
        2    1    3    3  502    0 -0.95066829227E+03 -0.77254952763E+03  0.24256841169E+03  0.12487763647E+04  0.25500000920E-02 0. -1.
       -2    1    3    3    0  502  0.95066829227E+03  0.77254952763E+03  0.78058453847E+03  0.14525547137E+04  0.25500000920E-02 0.  1.
</event>
<event>
 5   0  0.4079777E-07  0.2606140E+04  0.7818609E-02  0.8366119E-01
       -2   -1    0    0    0  501  0.00000000000E+00  0.00000000000E+00  0.79646333868E+03  0.79646333869E+03  0.25500000920E-02 0. -1.
        2   -1    0    0  501    0  0.00000000000E+00  0.00000000000E+00 -0.21319140212E+04  0.21319140212E+04  0.25500000920E-02 0.  1.
    10030    2    1    2    0    0  0.00000000000E+00  0.00000000000E+00 -0.13354506826E+04  0.29283773599E+04  0.26061399495E+04 0.  0.
        4    1    3    3  502    0  0.24926205108E+01  0.66905086509E+02 -0.21299794021E+04  0.21310317618E+04  0.12699999809E+01 0.  1.
       -4    1    3    3    0  502 -0.24926205108E+01 -0.66905086509E+02  0.79452871952E+03  0.79734559810E+03  0.12699999809E+01 0. -1.
</event>
<event>
 5   0  0.1372952E-07  0.3739112E+04  0.7818609E-02  0.8059349E-01
        1   -1    0    0  501    0  0.00000000000E+00  0.00000000000E+00  0.15144831305E+04  0.15144831305E+04  0.50400001928E-02 0. -1.
       -1   -1    0    0    0  501  0.00000000000E+00  0.00000000000E+00 -0.23078757880E+04  0.23078757880E+04  0.50400001928E-02 0.  1.
    10030    2    1    2    0    0  0.00000000000E+00  0.00000000000E+00 -0.79339265746E+03  0.38223589185E+04  0.37391116315E+04 0.  0.
        1    1    3    3  502    0 -0.11175652982E+04  0.83185070972E+03 -0.16711733648E+04  0.21757178619E+04  0.50400001928E-02 0.  1.
       -1    1    3    3    0  502  0.11175652982E+04 -0.83185070972E+03  0.87778070737E+03  0.16466410566E+04  0.50400001928E-02 0. -1.
</event>
<event>
 5   0  0.4079777E-07  0.3852801E+04  0.7818609E-02  0.8034918E-01
        2   -1    0    0  501    0  0.00000000000E+00  0.00000000000E+00  0.14265600272E+04  0.14265600272E+04  0.25500000920E-02 0. -1.
       -2   -1    0    0    0  501  0.00000000000E+00  0.00000000000E+00 -0.26013758081E+04  0.26013758081E+04  0.25500000920E-02 0.  1.
    10030    2    1    2    0    0  0.00000000000E+00  0.00000000000E+00 -0.11748157810E+04  0.40279358353E+04  0.38528009259E+04 0.  0.
        4    1    3    3  502    0 -0.17310209512E+04  0.56881857489E+03  0.66340258551E+02  0.18232911855E+04  0.12699999809E+01 0. -1.
       -4    1    3    3    0  502  0.17310209512E+04 -0.56881857489E+03 -0.12411560395E+04  0.22046446498E+04  0.12699999809E+01 0.  1.
</event>
<event>
 5   0  0.1372952E-07  0.3916240E+04  0.7818609E-02  0.8021660E-01
       -1   -1    0    0    0  501  0.00000000000E+00  0.00000000000E+00  0.13369600561E+04  0.13369600561E+04  0.50400001928E-02 0. -1.
        1   -1    0    0  501    0  0.00000000000E+00  0.00000000000E+00 -0.28678740219E+04  0.28678740219E+04  0.50400001928E-02 0.  1.
    10030    2    1    2    0    0  0.00000000000E+00  0.00000000000E+00 -0.15309139658E+04  0.42048340780E+04  0.39162395296E+04 0.  0.
        1    1    3    3  502    0 -0.60994306999E+03  0.13981492453E+04 -0.20836868794E+04  0.25823638149E+04  0.50400001928E-02 0.  1.
       -1    1    3    3    0  502  0.60994306999E+03 -0.13981492453E+04  0.55277291363E+03  0.16224702632E+04  0.50400001928E-02 0. -1.
</event>
<event>
 5   0  0.1372952E-07  0.4013432E+04  0.7818609E-02  0.8001842E-01
        1   -1    0    0  501    0  0.00000000000E+00  0.00000000000E+00  0.26599506696E+04  0.26599506696E+04  0.50400001928E-02 0.  1.
       -1   -1    0    0    0  501  0.00000000000E+00  0.00000000000E+00 -0.15139039254E+04  0.15139039254E+04  0.50400001928E-02 0. -1.
    10030    2    1    2    0    0  0.00000000000E+00  0.00000000000E+00  0.11460467441E+04  0.41738545950E+04  0.40134323266E+04 0.  0.
        1    1    3    3  502    0  0.18306296967E+04 -0.66348838513E+03  0.10776911897E+04  0.22254977474E+04  0.50400001928E-02 0.  1.
       -1    1    3    3    0  502 -0.18306296967E+04  0.66348838513E+03  0.68355554446E+02  0.19483568475E+04  0.50400001928E-02 0. -1.
</event>
<event>
 5   0  0.4077370E-07  0.4020109E+04  0.7818609E-02  0.8000502E-01
        2   -1    0    0  501    0  0.00000000000E+00  0.00000000000E+00  0.26025091665E+04  0.26025091665E+04  0.25500000920E-02 0.  1.
       -2   -1    0    0    0  501  0.00000000000E+00  0.00000000000E+00 -0.15524703174E+04  0.15524703174E+04  0.25500000920E-02 0. -1.
    10030    2    1    2    0    0  0.00000000000E+00  0.00000000000E+00  0.10500388491E+04  0.41549794840E+04  0.40201085716E+04 0.  0.
        3    1    3    3  502    0 -0.42136335851E+03 -0.51780557662E+03 -0.14345439690E+04  0.15822724495E+04  0.10100000352E+00 0. -1.
       -3    1    3    3    0  502  0.42136335851E+03  0.51780557662E+03  0.24845828181E+04  0.25727070345E+04  0.10100000352E+00 0.  1.
</event>
<event>
 5   0  0.1368865E-07  0.3885551E+04  0.7818609E-02  0.8028041E-01
       -1   -1    0    0    0  501  0.00000000000E+00  0.00000000000E+00  0.33465420241E+04  0.33465420241E+04  0.50400001928E-02 0. -1.
        1   -1    0    0  501    0  0.00000000000E+00  0.00000000000E+00 -0.11278438487E+04  0.11278438487E+04  0.50400001928E-02 0.  1.
    10030    2    1    2    0    0  0.00000000000E+00  0.00000000000E+00  0.22186981754E+04  0.44743858728E+04  0.38855510993E+04 0.  0.
        5    1    3    3  502    0  0.72429490429E+03  0.89382197973E+03 -0.69341023586E+03  0.13432649348E+04  0.46999998093E+01 0.  1.
       -5    1    3    3    0  502 -0.72429490429E+03 -0.89382197973E+03  0.29121084112E+04  0.31311209380E+04  0.46999998093E+01 0. -1.
</event>
<event>
 5   0  0.4077370E-07  0.2758231E+04  0.7818609E-02  0.8316354E-01
        2   -1    0    0  501    0  0.00000000000E+00  0.00000000000E+00  0.16781487040E+04  0.16781487040E+04  0.25500000920E-02 0. -1.
       -2   -1    0    0    0  501  0.00000000000E+00  0.00000000000E+00 -0.11333681040E+04  0.11333681040E+04  0.25500000920E-02 0.  1.
    10030    2    1    2    0    0  0.00000000000E+00  0.00000000000E+00  0.54478060001E+03  0.28115168079E+04  0.27582314731E+04 0.  0.
        3    1    3    3  502    0 -0.78891559596E+03  0.42947477612E+03  0.13390885532E+04  0.16124498642E+04  0.10100000352E+00 0. -1.
       -3    1    3    3    0  502  0.78891559596E+03 -0.42947477612E+03 -0.79430795321E+03  0.11990669438E+04  0.10100000352E+00 0.  1.
</event>
<event>
 5   0  0.4079777E-07  0.2906485E+04  0.7818609E-02  0.8270951E-01
       -2   -1    0    0    0  501  0.00000000000E+00  0.00000000000E+00  0.15164710563E+04  0.15164710563E+04  0.25500000920E-02 0.  1.
        2   -1    0    0  501    0  0.00000000000E+00  0.00000000000E+00 -0.13926499343E+04  0.13926499343E+04  0.25500000920E-02 0. -1.
    10030    2    1    2    0    0  0.00000000000E+00  0.00000000000E+00  0.12382112200E+03  0.29091209906E+04  0.29064846925E+04 0.  0.
        4    1    3    3  502    0  0.29211560586E+03  0.47938437595E+03  0.14035631842E+04  0.15116653506E+04  0.12699999809E+01 0.  1.
       -4    1    3    3    0  502 -0.29211560586E+03 -0.47938437595E+03 -0.12797420622E+04  0.13974556400E+04  0.12699999809E+01 0. -1.
</event>
<event>
 5   0  0.4077370E-07  0.4016510E+04  0.7818609E-02  0.8001224E-01
       -2   -1    0    0    0  501  0.00000000000E+00  0.00000000000E+00  0.13659107930E+04  0.13659107930E+04  0.25500000920E-02 0.  1.
        2   -1    0    0  501    0  0.00000000000E+00  0.00000000000E+00 -0.29526727502E+04  0.29526727502E+04  0.25500000920E-02 0. -1.
    10030    2    1    2    0    0  0.00000000000E+00  0.00000000000E+00 -0.15867619572E+04  0.43185835432E+04  0.40165097175E+04 0.  0.
        3    1    3    3  502    0 -0.98526360361E+02  0.14581348747E+03 -0.29443664550E+04  0.29496207974E+04  0.10100000352E+00 0. -1.
       -3    1    3    3    0  502  0.98526360361E+02 -0.14581348747E+03  0.13576044978E+04  0.13689627458E+04  0.10100000352E+00 0.  1.
</event>
<event>
 5   0  0.4301754E-07  0.3963104E+04  0.7818609E-02  0.8012031E-01
        2   -1    0    0  501    0  0.00000000000E+00  0.00000000000E+00  0.18308164435E+04  0.18308164435E+04  0.25500000920E-02 0. -1.
       -2   -1    0    0    0  501  0.00000000000E+00  0.00000000000E+00 -0.21446978077E+04  0.21446978077E+04  0.25500000920E-02 0.  1.
    10030    2    1    2    0    0  0.00000000000E+00  0.00000000000E+00 -0.31388136418E+03  0.39755142512E+04  0.39631038405E+04 0.  0.
        1    1    3    3  502    0  0.45510493874E+03 -0.14849034077E+03  0.17719374818E+04  0.18354651525E+04  0.50400001928E-02 0. -1.
       -1    1    3    3    0  502 -0.45510493874E+03  0.14849034077E+03 -0.20858188460E+04  0.21400490987E+04  0.50400001928E-02 0.  1.
</event>
<event>
 5   0  0.1441588E-07  0.2496821E+04  0.7818609E-02  0.8404119E-01
       -1   -1    0    0    0  501  0.00000000000E+00  0.00000000000E+00  0.80106651387E+03  0.80106651388E+03  0.50400001928E-02 0. -1.
        1   -1    0    0  501    0  0.00000000000E+00  0.00000000000E+00 -0.19455676296E+04  0.19455676296E+04  0.50400001928E-02 0.  1.
    10030    2    1    2    0    0  0.00000000000E+00  0.00000000000E+00 -0.11445011157E+04  0.27466341435E+04  0.24968212419E+04 0.  0.
        2    1    3    3  502    0 -0.13727130388E+03 -0.11600770229E+04 -0.87843934729E+02  0.11714685940E+04  0.25500000920E-02 0. -1.
       -2    1    3    3    0  502  0.13727130388E+03  0.11600770229E+04 -0.10566571810E+04  0.15751655494E+04  0.25500000920E-02 0.  1.
</event>
<event>
 5   0  0.1351000E-07  0.4028597E+04  0.7818609E-02  0.7998802E-01
        1   -1    0    0  501    0  0.00000000000E+00  0.00000000000E+00  0.18352822596E+04  0.18352822596E+04  0.50400001928E-02 0. -1.
       -1   -1    0    0    0  501  0.00000000000E+00  0.00000000000E+00 -0.22107765414E+04  0.22107765414E+04  0.50400001928E-02 0.  1.
    10030    2    1    2    0    0  0.00000000000E+00  0.00000000000E+00 -0.37549428184E+03  0.40460588010E+04  0.40285972578E+04 0.  0.
        4    1    3    3  502    0 -0.12642287294E+04 -0.12550786155E+04 -0.11319821239E+04  0.21106590802E+04  0.12699999809E+01 0.  1.
       -4    1    3    3    0  502  0.12642287294E+04  0.12550786155E+04  0.75648784205E+03  0.19353997208E+04  0.12699999809E+01 0. -1.
</event>
<event>
 5   0  0.4047916E-07  0.4250247E+04  0.7818609E-02  0.7955882E-01
        2   -1    0    0  501    0  0.00000000000E+00  0.00000000000E+00  0.21298035764E+04  0.21298035764E+04  0.25500000920E-02 0.  1.
       -2   -1    0    0    0  501  0.00000000000E+00  0.00000000000E+00 -0.21204540667E+04  0.21204540667E+04  0.25500000920E-02 0. -1.
    10030    2    1    2    0    0  0.00000000000E+00  0.00000000000E+00  0.93495097010E+01  0.42502576431E+04  0.42502473598E+04 0.  0.
        5    1    3    3  502    0  0.11596198192E+04 -0.51622974088E+03 -0.16997111613E+04  0.21213795964E+04  0.46999998093E+01 0. -1.
       -5    1    3    3    0  502 -0.11596198192E+04  0.51622974088E+03  0.17090606710E+04  0.21288780466E+04  0.46999998093E+01 0.  1.
</event>
<event>
 5   0  0.1372952E-07  0.3992773E+04  0.7818609E-02  0.8006006E-01
        1   -1    0    0  501    0  0.00000000000E+00  0.00000000000E+00  0.23240017401E+04  0.23240017401E+04  0.50400001928E-02 0.  1.
       -1   -1    0    0    0  501  0.00000000000E+00  0.00000000000E+00 -0.17149551679E+04  0.17149551679E+04  0.50400001928E-02 0. -1.
    10030    2    1    2    0    0  0.00000000000E+00  0.00000000000E+00  0.60904657218E+03  0.40389569080E+04  0.39927728683E+04 0.  0.
        1    1    3    3  502    0  0.65325340719E+03 -0.15102137321E+04  0.14481189206E+04  0.21919247110E+04  0.50400001928E-02 0.  1.
       -1    1    3    3    0  502 -0.65325340719E+03  0.15102137321E+04 -0.83907234844E+03  0.18470321969E+04  0.50400001928E-02 0. -1.
</event>
<event>
 5   0  0.1351000E-07  0.3998493E+04  0.7818609E-02  0.8004851E-01
        1   -1    0    0  501    0  0.00000000000E+00  0.00000000000E+00  0.19297388847E+04  0.19297388847E+04  0.50400001928E-02 0. -1.
       -1   -1    0    0    0  501  0.00000000000E+00  0.00000000000E+00 -0.20712575747E+04  0.20712575747E+04  0.50400001928E-02 0.  1.
    10030    2    1    2    0    0  0.00000000000E+00  0.00000000000E+00 -0.14151869004E+03  0.40009964594E+04  0.39984928571E+04 0.  0.
        4    1    3    3  502    0 -0.17924080652E+04  0.40863732079E+03  0.71540016425E+03  0.19726910909E+04  0.12699999809E+01 0. -1.
       -4    1    3    3    0  502  0.17924080652E+04 -0.40863732079E+03 -0.85691885429E+03  0.20283053685E+04  0.12699999809E+01 0.  1.
</event>
<event>
 5   0  0.1368865E-07  0.3878885E+04  0.7818609E-02  0.8029435E-01
        1   -1    0    0  501    0  0.00000000000E+00  0.00000000000E+00  0.20245037682E+04  0.20245037682E+04  0.50400001928E-02 0.  1.
       -1   -1    0    0    0  501  0.00000000000E+00  0.00000000000E+00 -0.18579552648E+04  0.18579552648E+04  0.50400001928E-02 0. -1.
    10030    2    1    2    0    0  0.00000000000E+00  0.00000000000E+00  0.16654850337E+03  0.38824590330E+04  0.38788851155E+04 0.  0.
        5    1    3    3  502    0  0.32191708039E+03 -0.10322853708E+04  0.16947799418E+04  0.20103593794E+04  0.46999998093E+01 0.  1.
       -5    1    3    3    0  502 -0.32191708039E+03  0.10322853708E+04 -0.15282314384E+04  0.18720996535E+04  0.46999998093E+01 0. -1.
</event>
<event>
 5   0  0.4079777E-07  0.3660188E+04  0.7818609E-02  0.8076842E-01
        2   -1    0    0  501    0  0.00000000000E+00  0.00000000000E+00  0.23547755951E+04  0.23547755951E+04  0.25500000920E-02 0.  1.
       -2   -1    0    0    0  501  0.00000000000E+00  0.00000000000E+00 -0.14223200894E+04  0.14223200894E+04  0.25500000920E-02 0. -1.
    10030    2    1    2    0    0  0.00000000000E+00  0.00000000000E+00  0.93245550561E+03  0.37770956845E+04  0.36601883203E+04 0.  0.
        4    1    3    3  502    0  0.57065375763E+03  0.17242695246E+04  0.23434658009E+03  0.18313030981E+04  0.12699999809E+01 0. -1.
       -4    1    3    3    0  502 -0.57065375763E+03 -0.17242695246E+04  0.69810892552E+03  0.19457925864E+04  0.12699999809E+01 0.  1.
</event>
<event>
 5   0  0.1372952E-07  0.3041300E+04  0.7818609E-02  0.8232035E-01
        1   -1    0    0  501    0  0.00000000000E+00  0.00000000000E+00  0.17095829470E+04  0.17095829470E+04  0.50400001928E-02 0. -1.
       -1   -1    0    0    0  501  0.00000000000E+00  0.00000000000E+00 -0.13525971411E+04  0.13525971411E+04  0.50400001928E-02 0.  1.
    10030    2    1    2    0    0  0.00000000000E+00  0.00000000000E+00  0.35698580596E+03  0.30621800881E+04  0.30413003841E+04 0.  0.
        1    1    3    3  502    0  0.91260132192E+03  0.11011343667E+04  0.69879875338E+03  0.15917467651E+04  0.50400001928E-02 0. -1.
       -1    1    3    3    0  502 -0.91260132192E+03 -0.11011343667E+04 -0.34181294742E+03  0.14704333230E+04  0.50400001928E-02 0.  1.
</event>
<event>
 5   0  0.4149487E-07  0.3873336E+04  0.7818609E-02  0.8030598E-01
       -2   -1    0    0    0  501  0.00000000000E+00  0.00000000000E+00  0.18909105678E+04  0.18909105678E+04  0.25500000920E-02 0. -1.
        2   -1    0    0  501    0  0.00000000000E+00  0.00000000000E+00 -0.19835324096E+04  0.19835324096E+04  0.25500000920E-02 0.  1.
    10030    2    1    2    0    0  0.00000000000E+00  0.00000000000E+00 -0.92621841842E+02  0.38744429774E+04  0.38733357174E+04 0.  0.
        2    1    3    3  502    0 -0.17449624559E+04 -0.28956882038E+03  0.74254518449E+03  0.19183632152E+04  0.25500000920E-02 0. -1.
       -2    1    3    3    0  502  0.17449624559E+04  0.28956882038E+03 -0.83516702633E+03  0.19560797622E+04  0.25500000920E-02 0.  1.
</event>
<event>
 5   0  0.4047916E-07  0.3748804E+04  0.7818609E-02  0.8057231E-01
        2   -1    0    0  501    0  0.00000000000E+00  0.00000000000E+00  0.11265179560E+04  0.11265179560E+04  0.25500000920E-02 0.  1.
       -2   -1    0    0    0  501  0.00000000000E+00  0.00000000000E+00 -0.31187989998E+04  0.31187989998E+04  0.25500000920E-02 0. -1.
    10030    2    1    2    0    0  0.00000000000E+00  0.00000000000E+00 -0.19922810438E+04  0.42453169558E+04  0.37488041157E+04 0.  0.
        5    1    3    3  502    0 -0.16877653592E+04 -0.41430866441E+03 -0.20087866550E+03  0.17494507439E+04  0.46999998093E+01 0.  1.
       -5    1    3    3    0  502  0.16877653592E+04  0.41430866441E+03 -0.17914023783E+04  0.24958662120E+04  0.46999998093E+01 0. -1.
</event>
<event>
 5   0  0.1351000E-07  0.3949670E+04  0.7818609E-02  0.8014777E-01
       -1   -1    0    0    0  501  0.00000000000E+00  0.00000000000E+00  0.13531904986E+04  0.13531904986E+04  0.50400001928E-02 0.  1.
        1   -1    0    0  501    0  0.00000000000E+00  0.00000000000E+00 -0.28820582673E+04  0.28820582673E+04  0.50400001928E-02 0. -1.
    10030    2    1    2    0    0  0.00000000000E+00  0.00000000000E+00 -0.15288677687E+04  0.42352487659E+04  0.39496702970E+04 0.  0.
        3    1    3    3  502    0 -0.40868175149E+03 -0.19221885475E+04 -0.97386090775E+03  0.21932247181E+04  0.10100000352E+00 0.  1.
       -3    1    3    3    0  502  0.40868175149E+03  0.19221885475E+04 -0.55500686095E+03  0.20420240478E+04  0.10100000352E+00 0. -1.
</event>
<event>
 5   0  0.1368865E-07  0.3587500E+04  0.7818609E-02  0.8093361E-01
        1   -1    0    0  501    0  0.00000000000E+00  0.00000000000E+00  0.12611444547E+04  0.12611444547E+04  0.50400001928E-02 0.  1.
       -1   -1    0    0    0  501  0.00000000000E+00  0.00000000000E+00 -0.25512857268E+04  0.25512857268E+04  0.50400001928E-02 0. -1.
    10030    2    1    2    0    0  0.00000000000E+00  0.00000000000E+00 -0.12901412721E+04  0.38124301815E+04  0.35875004372E+04 0.  0.
        5    1    3    3  502    0 -0.76751697810E+03 -0.24191899547E+03 -0.23486758006E+04  0.24827217360E+04  0.46999998093E+01 0. -1.
       -5    1    3    3    0  502  0.76751697810E+03  0.24191899547E+03  0.10585345285E+04  0.13297084455E+04  0.46999998093E+01 0.  1.
</event>
<event>
 5   0  0.4149487E-07  0.4012944E+04  0.7818609E-02  0.8001940E-01
        2   -1    0    0  501    0  0.00000000000E+00  0.00000000000E+00  0.11965746567E+04  0.11965746567E+04  0.25500000920E-02 0.  1.
       -2   -1    0    0    0  501  0.00000000000E+00  0.00000000000E+00 -0.33645453435E+04  0.33645453435E+04  0.25500000920E-02 0. -1.
    10030    2    1    2    0    0  0.00000000000E+00  0.00000000000E+00 -0.21679706868E+04  0.45611200002E+04  0.40129439016E+04 0.  0.
        2    1    3    3  502    0 -0.16845889439E+04 -0.71131713018E+03 -0.20227096767E+04  0.27267501546E+04  0.25500000920E-02 0. -1.
       -2    1    3    3    0  502  0.16845889439E+04  0.71131713018E+03 -0.14526101015E+03  0.18343698456E+04  0.25500000920E-02 0.  1.
</event>
<event>
 5   0  0.1351000E-07  0.3937170E+04  0.7818609E-02  0.8017343E-01
       -1   -1    0    0    0  501  0.00000000000E+00  0.00000000000E+00  0.18080526860E+04  0.18080526860E+04  0.50400001928E-02 0. -1.
        1   -1    0    0  501    0  0.00000000000E+00  0.00000000000E+00 -0.21433707018E+04  0.21433707018E+04  0.50400001928E-02 0.  1.
    10030    2    1    2    0    0  0.00000000000E+00  0.00000000000E+00 -0.33531801579E+03  0.39514233878E+04  0.39371701282E+04 0.  0.
        4    1    3    3  502    0  0.16300199409E+04 -0.83604589350E+03  0.55563564727E+03  0.19143328679E+04  0.12699999809E+01 0. -1.
       -4    1    3    3    0  502 -0.16300199409E+04  0.83604589350E+03 -0.89095366305E+03  0.20370905199E+04  0.12699999809E+01 0.  1.
</event>
<event>
 5   0  0.4077370E-07  0.3953361E+04  0.7818609E-02  0.8014022E-01
       -2   -1    0    0    0  501  0.00000000000E+00  0.00000000000E+00  0.13366457202E+04  0.13366457202E+04  0.25500000920E-02 0. -1.
        2   -1    0    0  501    0  0.00000000000E+00  0.00000000000E+00 -0.29231872551E+04  0.29231872551E+04  0.25500000920E-02 0.  1.
    10030    2    1    2    0    0  0.00000000000E+00  0.00000000000E+00 -0.15865415349E+04  0.42598329753E+04  0.39533609670E+04 0.  0.
        3    1    3    3  502    0 -0.12808085345E+04  0.58511676523E+03  0.70151022149E+03  0.15731969781E+04  0.10100000352E+00 0. -1.
       -3    1    3    3    0  502  0.12808085345E+04 -0.58511676523E+03 -0.22880517564E+04  0.26866359971E+04  0.10100000352E+00 0.  1.
</event>
<event>
 5   0  0.4047916E-07  0.4034453E+04  0.7818609E-02  0.7997632E-01
       -2   -1    0    0    0  501  0.00000000000E+00  0.00000000000E+00  0.21216935191E+04  0.21216935191E+04  0.25500000920E-02 0. -1.
        2   -1    0    0  501    0  0.00000000000E+00  0.00000000000E+00 -0.19179033031E+04  0.19179033031E+04  0.25500000920E-02 0.  1.
    10030    2    1    2    0    0  0.00000000000E+00  0.00000000000E+00  0.20379021594E+03  0.40395968222E+04  0.40344531270E+04 0.  0.
        5    1    3    3  502    0  0.10069989007E+04  0.17196162407E+04  0.41543027873E+03  0.20356156827E+04  0.46999998093E+01 0. -1.
       -5    1    3    3    0  502 -0.10069989007E+04 -0.17196162407E+04 -0.21164006279E+03  0.20039811395E+04  0.46999998093E+01 0.  1.
</event>
<event>
 5   0  0.4079777E-07  0.4061406E+04  0.7818609E-02  0.7992272E-01
        2   -1    0    0  501    0  0.00000000000E+00  0.00000000000E+00  0.26341054925E+04  0.26341054925E+04  0.25500000920E-02 0.  1.
       -2   -1    0    0    0  501  0.00000000000E+00  0.00000000000E+00 -0.15655240459E+04  0.15655240459E+04  0.25500000920E-02 0. -1.
    10030    2    1    2    0    0  0.00000000000E+00  0.00000000000E+00  0.10685814466E+04  0.41996295385E+04  0.40614064008E+04 0.  0.
        4    1    3    3  502    0  0.40607839505E+03 -0.25053320767E+03  0.25753183063E+04  0.26191472930E+04  0.12699999809E+01 0.  1.
       -4    1    3    3    0  502 -0.40607839505E+03  0.25053320767E+03 -0.15067368596E+04  0.15804822455E+04  0.12699999809E+01 0. -1.
</event>
<event>
 5   0  0.1351000E-07  0.3885605E+04  0.7818609E-02  0.8028030E-01
       -1   -1    0    0    0  501  0.00000000000E+00  0.00000000000E+00  0.14475515804E+04  0.14475515804E+04  0.50400001928E-02 0.  1.
        1   -1    0    0  501    0  0.00000000000E+00  0.00000000000E+00 -0.26074937095E+04  0.26074937095E+04  0.50400001928E-02 0. -1.
    10030    2    1    2    0    0  0.00000000000E+00  0.00000000000E+00 -0.11599421291E+04  0.40550452899E+04  0.38856050443E+04 0.  0.
        4    1    3    3  502    0  0.67446716942E+03  0.15805875977E+04 -0.15257560980E+04  0.22980636197E+04  0.12699999809E+01 0. -1.
       -4    1    3    3    0  502 -0.67446716942E+03 -0.15805875977E+04  0.36581396882E+03  0.17569816702E+04  0.12699999809E+01 0.  1.
</event>
<event>
 5   0  0.4301754E-07  0.3678033E+04  0.7818609E-02  0.8072848E-01
       -2   -1    0    0    0  501  0.00000000000E+00  0.00000000000E+00  0.13209864491E+04  0.13209864491E+04  0.25500000920E-02 0. -1.
        2   -1    0    0  501    0  0.00000000000E+00  0.00000000000E+00 -0.25601938669E+04  0.25601938669E+04  0.25500000920E-02 0.  1.
    10030    2    1    2    0    0  0.00000000000E+00  0.00000000000E+00 -0.12392074177E+04  0.38811803160E+04  0.36780328467E+04 0.  0.
        1    1    3    3  502    0  0.15254127676E+04  0.63416594376E+03  0.23306791647E+03  0.16683438523E+04  0.50400001928E-02 0. -1.
       -1    1    3    3    0  502 -0.15254127676E+04 -0.63416594376E+03 -0.14722753342E+04  0.22128364638E+04  0.50400001928E-02 0.  1.
</event>
<event>
 5   0  0.1351000E-07  0.3989971E+04  0.7818609E-02  0.8006573E-01
       -1   -1    0    0    0  501  0.00000000000E+00  0.00000000000E+00  0.13665997568E+04  0.13665997569E+04  0.50400001928E-02 0.  1.
        1   -1    0    0  501    0  0.00000000000E+00  0.00000000000E+00 -0.29123131543E+04  0.29123131543E+04  0.50400001928E-02 0. -1.
    10030    2    1    2    0    0  0.00000000000E+00  0.00000000000E+00 -0.15457133975E+04  0.42789129112E+04  0.39899706508E+04 0.  0.
        4    1    3    3  502    0 -0.41146932330E+03 -0.13772620121E+04 -0.22564430739E+04  0.26753868155E+04  0.12699999809E+01 0. -1.
       -4    1    3    3    0  502  0.41146932330E+03  0.13772620121E+04  0.71072967639E+03  0.16035260957E+04  0.12699999809E+01 0.  1.
</event>
<event>
 5   0  0.4079777E-07  0.4093998E+04  0.7818609E-02  0.7985848E-01
        2   -1    0    0  501    0  0.00000000000E+00  0.00000000000E+00  0.26922816813E+04  0.26922816813E+04  0.25500000920E-02 0.  1.
       -2   -1    0    0    0  501  0.00000000000E+00  0.00000000000E+00 -0.15563769289E+04  0.15563769289E+04  0.25500000920E-02 0. -1.
    10030    2    1    2    0    0  0.00000000000E+00  0.00000000000E+00  0.11359047524E+04  0.42486586102E+04  0.40939980923E+04 0.  0.
        4    1    3    3  502    0  0.16331997987E+04 -0.12331750910E+04  0.51993238109E+03  0.21114908670E+04  0.12699999809E+01 0.  1.
       -4    1    3    3    0  502 -0.16331997987E+04  0.12331750910E+04  0.61597237128E+03  0.21371677432E+04  0.12699999809E+01 0. -1.
</event>
<event>
 5   0  0.1372952E-07  0.3938281E+04  0.7818609E-02  0.8017114E-01
        1   -1    0    0  501    0  0.00000000000E+00  0.00000000000E+00  0.27068198160E+04  0.27068198160E+04  0.50400001928E-02 0.  1.
       -1   -1    0    0    0  501  0.00000000000E+00  0.00000000000E+00 -0.14324980595E+04  0.14324980595E+04  0.50400001928E-02 0. -1.
    10030    2    1    2    0    0  0.00000000000E+00  0.00000000000E+00  0.12743217565E+04  0.41393178755E+04  0.39382809112E+04 0.  0.
        1    1    3    3  502    0 -0.14695813816E+04 -0.73629124833E+03  0.17768175099E+04  0.24205112483E+04  0.50400001928E-02 0.  1.
       -1    1    3    3    0  502  0.14695813816E+04  0.73629124833E+03 -0.50249575342E+03  0.17188066272E+04  0.50400001928E-02 0. -1.
</event>
<event>
 5   0  0.4047916E-07  0.4091185E+04  0.7818609E-02  0.7986400E-01
       -2   -1    0    0    0  501  0.00000000000E+00  0.00000000000E+00  0.22586307952E+04  0.22586307952E+04  0.25500000920E-02 0. -1.
        2   -1    0    0  501    0  0.00000000000E+00  0.00000000000E+00 -0.18526484030E+04  0.18526484030E+04  0.25500000920E-02 0.  1.
    10030    2    1    2    0    0  0.00000000000E+00  0.00000000000E+00  0.40598239221E+03  0.41112791983E+04  0.40911850292E+04 0.  0.
        5    1    3    3  502    0 -0.57872059830E+03 -0.16570891651E+04  0.12586576776E+04  0.21598850135E+04  0.46999998093E+01 0. -1.
       -5    1    3    3    0  502  0.57872059830E+03  0.16570891651E+04 -0.85267528538E+03  0.19513941848E+04  0.46999998093E+01 0.  1.
</event>
<event>
 5   0  0.4047916E-07  0.2772327E+04  0.7818609E-02  0.8311911E-01
        2   -1    0    0  501    0  0.00000000000E+00  0.00000000000E+00  0.22715747946E+04  0.22715747946E+04  0.25500000920E-02 0.  1.
       -2   -1    0    0    0  501  0.00000000000E+00  0.00000000000E+00 -0.84586684622E+03  0.84586684622E+03  0.25500000920E-02 0. -1.
    10030    2    1    2    0    0  0.00000000000E+00  0.00000000000E+00  0.14257079484E+04  0.31174416408E+04  0.27723274031E+04 0.  0.
        5    1    3    3  502    0  0.78201730891E+03 -0.11294527706E+04  0.92084755532E+03  0.16538430828E+04  0.46999998093E+01 0.  1.
       -5    1    3    3    0  502 -0.78201730891E+03  0.11294527706E+04  0.50486039304E+03  0.14635985580E+04  0.46999998093E+01 0. -1.
</event>
<event>
 5   0  0.4149487E-07  0.4062561E+04  0.7818609E-02  0.7992044E-01
       -2   -1    0    0    0  501  0.00000000000E+00  0.00000000000E+00  0.19551241855E+04  0.19551241855E+04  0.25500000920E-02 0.  1.
        2   -1    0    0  501    0  0.00000000000E+00  0.00000000000E+00 -0.21104033415E+04  0.21104033415E+04  0.25500000920E-02 0. -1.
    10030    2    1    2    0    0  0.00000000000E+00  0.00000000000E+00 -0.15527915594E+03  0.40655275270E+04  0.40625610711E+04 0.  0.
        2    1    3    3  502    0  0.14521897027E+02 -0.19609180350E+04  0.45254930779E+03  0.20125136773E+04  0.25500000920E-02 0.  1.
       -2    1    3    3    0  502 -0.14521897027E+02  0.19609180350E+04 -0.60782846372E+03  0.20530138496E+04  0.25500000920E-02 0. -1.
</event>
<event>
 5   0  0.4149487E-07  0.4097287E+04  0.7818609E-02  0.7985203E-01
       -2   -1    0    0    0  501  0.00000000000E+00  0.00000000000E+00  0.22752825222E+04  0.22752825222E+04  0.25500000920E-02 0.  1.
        2   -1    0    0  501    0  0.00000000000E+00  0.00000000000E+00 -0.18445800922E+04  0.18445800922E+04  0.25500000920E-02 0. -1.
    10030    2    1    2    0    0  0.00000000000E+00  0.00000000000E+00  0.43070243002E+03  0.41198626143E+04  0.40972873194E+04 0.  0.
        2    1    3    3  502    0  0.12042418404E+04 -0.15104645599E+03  0.18748772821E+04  0.22334229929E+04  0.25500000920E-02 0.  1.
       -2    1    3    3    0  502 -0.12042418404E+04  0.15104645599E+03 -0.14441748521E+04  0.18864396215E+04  0.25500000920E-02 0. -1.
</event>
<event>
 5   0  0.4301754E-07  0.3982512E+04  0.7818609E-02  0.8008084E-01
       -2   -1    0    0    0  501  0.00000000000E+00  0.00000000000E+00  0.14790369023E+04  0.14790369023E+04  0.25500000920E-02 0.  1.
        2   -1    0    0  501    0  0.00000000000E+00  0.00000000000E+00 -0.26808662502E+04  0.26808662502E+04  0.25500000920E-02 0. -1.
    10030    2    1    2    0    0  0.00000000000E+00  0.00000000000E+00 -0.12018293479E+04  0.41599031524E+04  0.39825118275E+04 0.  0.
        1    1    3    3  502    0 -0.10215358940E+04  0.14420382430E+04 -0.15594441260E+04  0.23568784142E+04  0.50400001928E-02 0. -1.
       -1    1    3    3    0  502  0.10215358940E+04 -0.14420382430E+04  0.35761477809E+03  0.18030247382E+04  0.50400001928E-02 0.  1.
</event>
<event>
 5   0  0.1620208E-07  0.2573190E+04  0.7818609E-02  0.8377365E-01
        1   -1    0    0  501    0  0.00000000000E+00  0.00000000000E+00  0.11954120991E+04  0.11954120991E+04  0.50400001928E-02 0.  1.
       -1   -1    0    0    0  501  0.00000000000E+00  0.00000000000E+00 -0.13847328088E+04  0.13847328088E+04  0.50400001928E-02 0. -1.
    10030    2    1    2    0    0  0.00000000000E+00  0.00000000000E+00 -0.18932070968E+03  0.25801449079E+04  0.25731897355E+04 0.  0.
        5    1    3    3  502    0 -0.24595054860E+03  0.21254385824E+03  0.11535488306E+04  0.11984838583E+04  0.46999998093E+01 0.  1.
       -5    1    3    3    0  502  0.24595054860E+03 -0.21254385824E+03 -0.13428695403E+04  0.13816610497E+04  0.46999998093E+01 0. -1.
</event>
<event>
 5   0  0.1351000E-07  0.2888411E+04  0.7818609E-02  0.8276334E-01
        1   -1    0    0  501    0  0.00000000000E+00  0.00000000000E+00  0.14907522982E+04  0.14907522982E+04  0.50400001928E-02 0.  1.
       -1   -1    0    0    0  501  0.00000000000E+00  0.00000000000E+00 -0.13991122137E+04  0.13991122137E+04  0.50400001928E-02 0. -1.
    10030    2    1    2    0    0  0.00000000000E+00  0.00000000000E+00  0.91640084484E+02  0.28898645120E+04  0.28884111536E+04 0.  0.
        3    1    3    3  502    0 -0.79424344995E+03  0.67374648611E+03  0.10468097138E+04  0.14766744978E+04  0.10100000352E+00 0.  1.
       -3    1    3    3    0  502  0.79424344995E+03 -0.67374648611E+03 -0.95516962928E+03  0.14131900142E+04  0.10100000352E+00 0. -1.
</event>
<event>
 5   0  0.4077370E-07  0.4108346E+04  0.7818609E-02  0.7983039E-01
       -2   -1    0    0    0  501  0.00000000000E+00  0.00000000000E+00  0.25779841869E+04  0.25779841869E+04  0.25500000920E-02 0. -1.
        2   -1    0    0  501    0  0.00000000000E+00  0.00000000000E+00 -0.16367929317E+04  0.16367929317E+04  0.25500000920E-02 0.  1.
    10030    2    1    2    0    0  0.00000000000E+00  0.00000000000E+00  0.94119125523E+03  0.42147771186E+04  0.41083457962E+04 0.  0.
        3    1    3    3  502    0 -0.16103524751E+04 -0.81043620365E+03 -0.53958822370E+03  0.18818069496E+04  0.10100000352E+00 0. -1.
       -3    1    3    3    0  502  0.16103524751E+04  0.81043620365E+03  0.14807794789E+04  0.23329701690E+04  0.10100000352E+00 0.  1.
</event>
<event>
 5   0  0.1372952E-07  0.3815269E+04  0.7818609E-02  0.8042886E-01
        1   -1    0    0  501    0  0.00000000000E+00  0.00000000000E+00  0.14426573243E+04  0.14426573243E+04  0.50400001928E-02 0. -1.
       -1   -1    0    0    0  501  0.00000000000E+00  0.00000000000E+00 -0.25224765835E+04  0.25224765835E+04  0.50400001928E-02 0.  1.
    10030    2    1    2    0    0  0.00000000000E+00  0.00000000000E+00 -0.10798192591E+04  0.39651339078E+04  0.38152689649E+04 0.  0.
        1    1    3    3  502    0  0.53992627547E+03  0.94174244771E+03  0.10903598368E+04  0.15385979964E+04  0.50400001928E-02 0. -1.
       -1    1    3    3    0  502 -0.53992627547E+03 -0.94174244771E+03 -0.21701790960E+04  0.24265359114E+04  0.50400001928E-02 0.  1.
</event>
<event>
 5   0  0.4149487E-07  0.3236458E+04  0.7818609E-02  0.8179254E-01
       -2   -1    0    0    0  501  0.00000000000E+00  0.00000000000E+00  0.19873119600E+04  0.19873119600E+04  0.25500000920E-02 0. -1.
        2   -1    0    0  501    0  0.00000000000E+00  0.00000000000E+00 -0.13176923850E+04  0.13176923850E+04  0.25500000920E-02 0.  1.
    10030    2    1    2    0    0  0.00000000000E+00  0.00000000000E+00  0.66961957501E+03  0.33050043450E+04  0.32364584572E+04 0.  0.
        2    1    3    3  502    0  0.82160849123E+02 -0.45064683964E+03  0.19197224353E+04  0.19736177968E+04  0.25500000920E-02 0. -1.
       -2    1    3    3    0  502 -0.82160849123E+02  0.45064683964E+03 -0.12501028603E+04  0.13313865481E+04  0.25500000920E-02 0.  1.
</event>
<event>
 5   0  0.1351000E-07  0.4041511E+04  0.7818609E-02  0.7996225E-01
       -1   -1    0    0    0  501  0.00000000000E+00  0.00000000000E+00  0.18868393247E+04  0.18868393248E+04  0.50400001928E-02 0.  1.
        1   -1    0    0  501    0  0.00000000000E+00  0.00000000000E+00 -0.21641757802E+04  0.21641757802E+04  0.50400001928E-02 0. -1.
    10030    2    1    2    0    0  0.00000000000E+00  0.00000000000E+00 -0.27733645549E+03  0.40510151050E+04  0.40415105927E+04 0.  0.
        4    1    3    3  502    0  0.12864066613E+04  0.15299512645E+03 -0.16931864106E+04  0.21319313874E+04  0.12699999809E+01 0. -1.
       -4    1    3    3    0  502 -0.12864066613E+04 -0.15299512645E+03  0.14158499551E+04  0.19190837176E+04  0.12699999809E+01 0.  1.
</event>
<event>
 5   0  0.1372952E-07  0.3099159E+04  0.7818609E-02  0.8215969E-01
       -1   -1    0    0    0  501  0.00000000000E+00  0.00000000000E+00  0.20276489640E+04  0.20276489640E+04  0.50400001928E-02 0. -1.
        1   -1    0    0  501    0  0.00000000000E+00  0.00000000000E+00 -0.11842269305E+04  0.11842269305E+04  0.50400001928E-02 0.  1.
    10030    2    1    2    0    0  0.00000000000E+00  0.00000000000E+00  0.84342203352E+03  0.32118758945E+04  0.30991589238E+04 0.  0.
        1    1    3    3  502    0  0.11079246044E+04  0.68692598928E+03 -0.44651255736E+03  0.13779469176E+04  0.50400001928E-02 0.  1.
       -1    1    3    3    0  502 -0.11079246044E+04 -0.68692598928E+03  0.12899345909E+04  0.18339289769E+04  0.50400001928E-02 0. -1.
</event>
<event>
 5   0  0.1421304E-07  0.4044134E+04  0.7818609E-02  0.7995702E-01
        1   -1    0    0  501    0  0.00000000000E+00  0.00000000000E+00  0.24120876839E+04  0.24120876839E+04  0.50400001928E-02 0.  1.
       -1   -1    0    0    0  501  0.00000000000E+00  0.00000000000E+00 -0.16951102387E+04  0.16951102388E+04  0.50400001928E-02 0. -1.
    10030    2    1    2    0    0  0.00000000000E+00  0.00000000000E+00  0.71697744520E+03  0.41071979227E+04  0.40441337910E+04 0.  0.
        2    1    3    3  502    0  0.98401278445E+03  0.63482884997E+03 -0.13156912891E+04  0.17613439178E+04  0.25500000920E-02 0. -1.
       -2    1    3    3    0  502 -0.98401278445E+03 -0.63482884997E+03  0.20326687343E+04  0.23458540049E+04  0.25500000920E-02 0.  1.
</event>
<event>
 5   0  0.1351000E-07  0.3917947E+04  0.7818609E-02  0.8021307E-01
       -1   -1    0    0    0  501  0.00000000000E+00  0.00000000000E+00  0.15430915249E+04  0.15430915250E+04  0.50400001928E-02 0. -1.
        1   -1    0    0  501    0  0.00000000000E+00  0.00000000000E+00 -0.24869407833E+04  0.24869407833E+04  0.50400001928E-02 0.  1.
    10030    2    1    2    0    0  0.00000000000E+00  0.00000000000E+00 -0.94384925833E+03  0.40300323082E+04  0.39179470368E+04 0.  0.
        3    1    3    3  502    0  0.19004198041E+04 -0.14288785491E+03 -0.55612825658E+01  0.19057920425E+04  0.10100000352E+00 0. -1.
       -3    1    3    3    0  502 -0.19004198041E+04  0.14288785491E+03 -0.93828797577E+03  0.21242402658E+04  0.10100000352E+00 0.  1.
</event>
<event>
 5   0  0.4079777E-07  0.4138251E+04  0.7818609E-02  0.7977223E-01
       -2   -1    0    0    0  501  0.00000000000E+00  0.00000000000E+00  0.31266669677E+04  0.31266669677E+04  0.25500000920E-02 0. -1.
        2   -1    0    0  501    0  0.00000000000E+00  0.00000000000E+00 -0.13692792533E+04  0.13692792533E+04  0.25500000920E-02 0.  1.
    10030    2    1    2    0    0  0.00000000000E+00  0.00000000000E+00  0.17573877144E+04  0.44959462209E+04  0.41382509401E+04 0.  0.
        4    1    3    3  502    0 -0.20478031446E+04 -0.24997773123E+03  0.10514748565E+04  0.23155102185E+04  0.12699999809E+01 0. -1.
       -4    1    3    3    0  502  0.20478031446E+04  0.24997773123E+03  0.70591285785E+03  0.21804360025E+04  0.12699999809E+01 0.  1.
</event>
<event>
 5   0  0.4079777E-07  0.3153089E+04  0.7818609E-02  0.8201317E-01
        2   -1    0    0  501    0  0.00000000000E+00  0.00000000000E+00  0.10130189010E+04  0.10130189010E+04  0.25500000920E-02 0. -1.
       -2   -1    0    0    0  501  0.00000000000E+00  0.00000000000E+00 -0.24535493818E+04  0.24535493818E+04  0.25500000920E-02 0.  1.
    10030    2    1    2    0    0  0.00000000000E+00  0.00000000000E+00 -0.14405304808E+04  0.34665682828E+04  0.31530885800E+04 0.  0.
        4    1    3    3  502    0  0.59115522829E+03 -0.14605526729E+04 -0.77856219184E+03  0.17575094065E+04  0.12699999809E+01 0.  1.
       -4    1    3    3    0  502 -0.59115522829E+03  0.14605526729E+04 -0.66196828901E+03  0.17090588764E+04  0.12699999809E+01 0. -1.
</event>
<event>
 5   0  0.1884733E-07  0.2541024E+04  0.7818609E-02  0.8388515E-01
        1   -1    0    0  501    0  0.00000000000E+00  0.00000000000E+00  0.13155781665E+04  0.13155781665E+04  0.50400001928E-02 0. -1.
       -1   -1    0    0    0  501  0.00000000000E+00  0.00000000000E+00 -0.12269893360E+04  0.12269893361E+04  0.50400001928E-02 0.  1.
    10030    2    1    2    0    0  0.00000000000E+00  0.00000000000E+00  0.88588830471E+02  0.25425675026E+04  0.25410237158E+04 0.  0.
        2    1    3    3  502    0  0.79651728159E+03 -0.31351209106E+03 -0.89514273646E+03  0.12385516258E+04  0.25500000920E-02 0.  1.
       -2    1    3    3    0  502 -0.79651728159E+03  0.31351209106E+03  0.98373156693E+03  0.13040158768E+04  0.25500000920E-02 0. -1.
</event>
<event>
 5   0  0.4079777E-07  0.4057104E+04  0.7818609E-02  0.7993125E-01
       -2   -1    0    0    0  501  0.00000000000E+00  0.00000000000E+00  0.20967468144E+04  0.20967468144E+04  0.25500000920E-02 0. -1.
        2   -1    0    0  501    0  0.00000000000E+00  0.00000000000E+00 -0.19625751165E+04  0.19625751165E+04  0.25500000920E-02 0.  1.
    10030    2    1    2    0    0  0.00000000000E+00  0.00000000000E+00  0.13417169787E+03  0.40593219310E+04  0.40571039541E+04 0.  0.
        4    1    3    3  502    0  0.12725509287E+04  0.12188257421E+04  0.10726723339E+04  0.20628983505E+04  0.12699999809E+01 0. -1.
       -4    1    3    3    0  502 -0.12725509287E+04 -0.12188257421E+04 -0.93850063602E+03  0.19964235804E+04  0.12699999809E+01 0.  1.
</event>
<event>
 5   0  0.4301754E-07  0.4029090E+04  0.7818609E-02  0.7998704E-01
       -2   -1    0    0    0  501  0.00000000000E+00  0.00000000000E+00  0.20356113721E+04  0.20356113721E+04  0.25500000920E-02 0.  1.
        2   -1    0    0  501    0  0.00000000000E+00  0.00000000000E+00 -0.19936968966E+04  0.19936968966E+04  0.25500000920E-02 0. -1.
    10030    2    1    2    0    0  0.00000000000E+00  0.00000000000E+00  0.41914475571E+02  0.40293082687E+04  0.40290902572E+04 0.  0.
        1    1    3    3  502    0  0.79370955084E+03 -0.15441383191E+04 -0.10008876941E+04  0.20040244948E+04  0.50400001928E-02 0.  1.
       -1    1    3    3    0  502 -0.79370955084E+03  0.15441383191E+04  0.10428021697E+04  0.20252837739E+04  0.50400001928E-02 0. -1.
</event>
<event>
 5   0  0.4079777E-07  0.3000484E+04  0.7818609E-02  0.8243593E-01
        2   -1    0    0  501    0  0.00000000000E+00  0.00000000000E+00  0.10123876629E+04  0.10123876629E+04  0.25500000920E-02 0. -1.
       -2   -1    0    0    0  501  0.00000000000E+00  0.00000000000E+00 -0.22231861009E+04  0.22231861009E+04  0.25500000920E-02 0.  1.
    10030    2    1    2    0    0  0.00000000000E+00  0.00000000000E+00 -0.12107984381E+04  0.32355737638E+04  0.30004840815E+04 0.  0.
        4    1    3    3  502    0 -0.40042224947E+03  0.11639147370E+04 -0.15303255253E+04  0.19639076656E+04  0.12699999809E+01 0.  1.
       -4    1    3    3    0  502  0.40042224947E+03 -0.11639147370E+04  0.31952708727E+03  0.12716660982E+04  0.12699999809E+01 0. -1.
</event>
<event>
 5   0  0.1368865E-07  0.2695278E+04  0.7818609E-02  0.8336539E-01
        1   -1    0    0  501    0  0.00000000000E+00  0.00000000000E+00  0.20072065173E+04  0.20072065173E+04  0.50400001928E-02 0.  1.
       -1   -1    0    0    0  501  0.00000000000E+00  0.00000000000E+00 -0.90480548790E+03  0.90480548791E+03  0.50400001928E-02 0. -1.
    10030    2    1    2    0    0  0.00000000000E+00  0.00000000000E+00  0.11024010294E+04  0.29120120052E+04  0.26952784437E+04 0.  0.
        5    1    3    3  502    0 -0.85188167814E+02 -0.40235090900E+03 -0.83533773194E+03  0.93110391166E+03  0.46999998093E+01 0. -1.
       -5    1    3    3    0  502  0.85188167814E+02  0.40235090900E+03  0.19377387613E+04  0.19809080935E+04  0.46999998093E+01 0.  1.
</event>
<event>
 5   0  0.4047916E-07  0.4031443E+04  0.7818609E-02  0.7998233E-01
       -2   -1    0    0    0  501  0.00000000000E+00  0.00000000000E+00  0.20131132549E+04  0.20131132549E+04  0.25500000920E-02 0. -1.
        2   -1    0    0  501    0  0.00000000000E+00  0.00000000000E+00 -0.20183330168E+04  0.20183330168E+04  0.25500000920E-02 0.  1.
    10030    2    1    2    0    0  0.00000000000E+00  0.00000000000E+00 -0.52197619191E+01  0.40314462718E+04  0.40314428926E+04 0.  0.
        5    1    3    3  502    0 -0.16494841293E+04 -0.21938508832E+02  0.11557656702E+04  0.20142233157E+04  0.46999998093E+01 0. -1.
       -5    1    3    3    0  502  0.16494841293E+04  0.21938508832E+02 -0.11609854321E+04  0.20172229561E+04  0.46999998093E+01 0.  1.
</event>
<event>
 5   0  0.1368865E-07  0.2815968E+04  0.7818609E-02  0.8298328E-01
       -1   -1    0    0    0  501  0.00000000000E+00  0.00000000000E+00  0.13022394556E+04  0.13022394556E+04  0.50400001928E-02 0. -1.
        1   -1    0    0  501    0  0.00000000000E+00  0.00000000000E+00 -0.15223157371E+04  0.15223157371E+04  0.50400001928E-02 0.  1.
    10030    2    1    2    0    0  0.00000000000E+00  0.00000000000E+00 -0.22007628148E+03  0.28245551927E+04  0.28159684776E+04 0.  0.
        5    1    3    3  502    0  0.16344961818E+03  0.73607981558E+02  0.12907386442E+04  0.13031355457E+04  0.46999998093E+01 0. -1.
       -5    1    3    3    0  502 -0.16344961818E+03 -0.73607981558E+02 -0.15108149257E+04  0.15214196470E+04  0.46999998093E+01 0.  1.
</event>
<event>
 5   0  0.1351000E-07  0.3271498E+04  0.7818609E-02  0.8170186E-01
       -1   -1    0    0    0  501  0.00000000000E+00  0.00000000000E+00  0.29860252046E+04  0.29860252046E+04  0.50400001928E-02 0.  1.
        1   -1    0    0  501    0  0.00000000000E+00  0.00000000000E+00 -0.89606570214E+03  0.89606570215E+03  0.50400001928E-02 0. -1.
    10030    2    1    2    0    0  0.00000000000E+00  0.00000000000E+00  0.20899595025E+04  0.38820909068E+04  0.32714979882E+04 0.  0.
        3    1    3    3  502    0  0.28195800840E+03  0.11075029431E+04  0.24337095932E+04  0.26886809929E+04  0.10100000352E+00 0.  1.
       -3    1    3    3    0  502 -0.28195800840E+03 -0.11075029431E+04 -0.34375009069E+03  0.11934099139E+04  0.10100000352E+00 0. -1.
</event>
<event>
 5   0  0.4077370E-07  0.3979495E+04  0.7818609E-02  0.8008696E-01
        2   -1    0    0  501    0  0.00000000000E+00  0.00000000000E+00  0.22380690939E+04  0.22380690939E+04  0.25500000920E-02 0.  1.
       -2   -1    0    0    0  501  0.00000000000E+00  0.00000000000E+00 -0.17689778223E+04  0.17689778223E+04  0.25500000920E-02 0. -1.
    10030    2    1    2    0    0  0.00000000000E+00  0.00000000000E+00  0.46909127161E+03  0.40070469162E+04  0.39794947377E+04 0.  0.
        3    1    3    3  502    0 -0.12512632461E+04  0.79790368887E+01 -0.13232178636E+04  0.18211614154E+04  0.10100000352E+00 0. -1.
       -3    1    3    3    0  502  0.12512632461E+04 -0.79790368887E+01  0.17923091352E+04  0.21858855008E+04  0.10100000352E+00 0.  1.
</event>
<event>
 5   0  0.1372952E-07  0.4029572E+04  0.7818609E-02  0.7998607E-01
       -1   -1    0    0    0  501  0.00000000000E+00  0.00000000000E+00  0.14927156997E+04  0.14927156997E+04  0.50400001928E-02 0. -1.
        1   -1    0    0  501    0  0.00000000000E+00  0.00000000000E+00 -0.27194483349E+04  0.27194483349E+04  0.50400001928E-02 0.  1.
    10030    2    1    2    0    0  0.00000000000E+00  0.00000000000E+00 -0.12267326353E+04  0.42121640346E+04  0.40295722969E+04 0.  0.
        1    1    3    3  502    0 -0.43171984177E+03  0.74570871623E+03  0.12903949810E+04  0.15516387203E+04  0.50400001928E-02 0. -1.
       -1    1    3    3    0  502  0.43171984177E+03 -0.74570871623E+03 -0.25171276163E+04  0.26605253143E+04  0.50400001928E-02 0.  1.
</event>
<event>
 5   0  0.1351000E-07  0.3900944E+04  0.7818609E-02  0.8024833E-01
       -1   -1    0    0    0  501  0.00000000000E+00  0.00000000000E+00  0.13478036302E+04  0.13478036302E+04  0.50400001928E-02 0. -1.
        1   -1    0    0  501    0  0.00000000000E+00  0.00000000000E+00 -0.28226220696E+04  0.28226220696E+04  0.50400001928E-02 0.  1.
    10030    2    1    2    0    0  0.00000000000E+00  0.00000000000E+00 -0.14748184394E+04  0.41704256999E+04  0.39009436152E+04 0.  0.
        4    1    3    3  502    0  0.76644215615E+03  0.80056723024E+03 -0.24532753737E+04  0.26920072699E+04  0.12699999809E+01 0.  1.
       -4    1    3    3    0  502 -0.76644215615E+03 -0.80056723024E+03  0.97845693430E+03  0.14784184300E+04  0.12699999809E+01 0. -1.
</event>
<event>
 5   0  0.1368865E-07  0.4339390E+04  0.7818609E-02  0.7939374E-01
        1   -1    0    0  501    0  0.00000000000E+00  0.00000000000E+00  0.18303925477E+04  0.18303925477E+04  0.50400001928E-02 0. -1.
       -1   -1    0    0    0  501  0.00000000000E+00  0.00000000000E+00 -0.25718949809E+04  0.25718949809E+04  0.50400001928E-02 0.  1.
    10030    2    1    2    0    0  0.00000000000E+00  0.00000000000E+00 -0.74150243324E+03  0.44022875286E+04  0.43393904671E+04 0.  0.
        5    1    3    3  502    0 -0.13579290879E+04  0.97722802893E+03 -0.17722999082E+04  0.24372146157E+04  0.46999998093E+01 0.  1.
       -5    1    3    3    0  502  0.13579290879E+04 -0.97722802893E+03  0.10307974750E+04  0.19650729129E+04  0.46999998093E+01 0. -1.
</event>
<event>
 5   0  0.1351000E-07  0.3961631E+04  0.7818609E-02  0.8012332E-01
       -1   -1    0    0    0  501  0.00000000000E+00  0.00000000000E+00  0.18050826682E+04  0.18050826682E+04  0.50400001928E-02 0.  1.
        1   -1    0    0  501    0  0.00000000000E+00  0.00000000000E+00 -0.21736565118E+04  0.21736565118E+04  0.50400001928E-02 0. -1.
    10030    2    1    2    0    0  0.00000000000E+00  0.00000000000E+00 -0.36857384354E+03  0.39787391800E+04  0.39616308238E+04 0.  0.
        4    1    3    3  502    0 -0.17466847806E+04  0.87998548703E+02  0.74977066404E+03  0.19028423815E+04  0.12699999809E+01 0.  1.
       -4    1    3    3    0  502  0.17466847806E+04 -0.87998548703E+02 -0.11183445076E+04  0.20758967985E+04  0.12699999809E+01 0. -1.
</event>
<event>
 5   0  0.1372952E-07  0.2853264E+04  0.7818609E-02  0.8286920E-01
        1   -1    0    0  501    0  0.00000000000E+00  0.00000000000E+00  0.18867862886E+04  0.18867862886E+04  0.50400001928E-02 0.  1.
       -1   -1    0    0    0  501  0.00000000000E+00  0.00000000000E+00 -0.10787011473E+04  0.10787011473E+04  0.50400001928E-02 0. -1.
    10030    2    1    2    0    0  0.00000000000E+00  0.00000000000E+00  0.80808514128E+03  0.29654874359E+04  0.28532637693E+04 0.  0.
        1    1    3    3  502    0  0.92378955716E+03 -0.67548794827E+03 -0.48128711004E+03  0.12414944206E+04  0.50400001928E-02 0. -1.
       -1    1    3    3    0  502 -0.92378955716E+03  0.67548794827E+03  0.12893722513E+04  0.17239930153E+04  0.50400001928E-02 0.  1.
</event>
<event>
 5   0  0.4079777E-07  0.3089147E+04  0.7818609E-02  0.8218723E-01
       -2   -1    0    0    0  501  0.00000000000E+00  0.00000000000E+00  0.18071873495E+04  0.18071873495E+04  0.25500000920E-02 0.  1.
        2   -1    0    0  501    0  0.00000000000E+00  0.00000000000E+00 -0.13201217161E+04  0.13201217161E+04  0.25500000920E-02 0. -1.
    10030    2    1    2    0    0  0.00000000000E+00  0.00000000000E+00  0.48706563341E+03  0.31273090656E+04  0.30891469795E+04 0.  0.
        4    1    3    3  502    0 -0.14913368314E+04  0.39062706951E+03  0.33973624238E+03  0.15786378240E+04  0.12699999809E+01 0. -1.
       -4    1    3    3    0  502  0.14913368314E+04 -0.39062706951E+03  0.14732939104E+03  0.15486712416E+04  0.12699999809E+01 0.  1.
</event>
<event>
 5   0  0.1351000E-07  0.3785577E+04  0.7818609E-02  0.8049257E-01
       -1   -1    0    0    0  501  0.00000000000E+00  0.00000000000E+00  0.18984787514E+04  0.18984787514E+04  0.50400001928E-02 0.  1.
        1   -1    0    0  501    0  0.00000000000E+00  0.00000000000E+00 -0.18871149854E+04  0.18871149855E+04  0.50400001928E-02 0. -1.
    10030    2    1    2    0    0  0.00000000000E+00  0.00000000000E+00  0.11363765939E+02  0.37855937368E+04  0.37855766807E+04 0.  0.
        4    1    3    3  502    0  0.14855816179E+04 -0.30239629778E+03 -0.11275706911E+04  0.18893950198E+04  0.12699999809E+01 0. -1.
       -4    1    3    3    0  502 -0.14855816179E+04  0.30239629778E+03  0.11389344570E+04  0.18961987171E+04  0.12699999809E+01 0.  1.
</event>
<event>
 5   0  0.1372952E-07  0.2518219E+04  0.7818609E-02  0.8396523E-01
        1   -1    0    0  501    0  0.00000000000E+00  0.00000000000E+00  0.16603898856E+04  0.16603898856E+04  0.50400001928E-02 0.  1.
       -1   -1    0    0    0  501  0.00000000000E+00  0.00000000000E+00 -0.95481020926E+03  0.95481020927E+03  0.50400001928E-02 0. -1.
    10030    2    1    2    0    0  0.00000000000E+00  0.00000000000E+00  0.70557967636E+03  0.26152000949E+04  0.25182193822E+04 0.  0.
        1    1    3    3  502    0 -0.10180866095E+04  0.36969058046E+03 -0.31395220993E+03  0.11277133767E+04  0.50400001928E-02 0. -1.
       -1    1    3    3    0  502  0.10180866095E+04 -0.36969058046E+03  0.10195318863E+04  0.14874867182E+04  0.50400001928E-02 0.  1.
</event>
<event>
 5   0  0.1351000E-07  0.3965147E+04  0.7818609E-02  0.8011615E-01
        1   -1    0    0  501    0  0.00000000000E+00  0.00000000000E+00  0.12214457657E+04  0.12214457657E+04  0.50400001928E-02 0.  1.
       -1   -1    0    0    0  501  0.00000000000E+00  0.00000000000E+00 -0.32179877829E+04  0.32179877829E+04  0.50400001928E-02 0. -1.
    10030    2    1    2    0    0  0.00000000000E+00  0.00000000000E+00 -0.19965420172E+04  0.44394335486E+04  0.39651469337E+04 0.  0.
        3    1    3    3  502    0  0.11826589024E+04 -0.13855604949E+04 -0.12229382487E+03  0.18257644301E+04  0.10100000352E+00 0.  1.
       -3    1    3    3    0  502 -0.11826589024E+04  0.13855604949E+04 -0.18742481923E+04  0.26136691185E+04  0.10100000352E+00 0. -1.
</event>
<event>
 5   0  0.1351000E-07  0.3940033E+04  0.7818609E-02  0.8016754E-01
        1   -1    0    0  501    0  0.00000000000E+00  0.00000000000E+00  0.25425819075E+04  0.25425819075E+04  0.50400001928E-02 0.  1.
       -1   -1    0    0    0  501  0.00000000000E+00  0.00000000000E+00 -0.15263874027E+04  0.15263874027E+04  0.50400001928E-02 0. -1.
    10030    2    1    2    0    0  0.00000000000E+00  0.00000000000E+00  0.10161945048E+04  0.40689693101E+04  0.39400329916E+04 0.  0.
        3    1    3    3  502    0 -0.77240498956E+03  0.97996937577E+03  0.20824573340E+04  0.24276692533E+04  0.10100000352E+00 0.  1.
       -3    1    3    3    0  502  0.77240498956E+03 -0.97996937577E+03 -0.10662628292E+04  0.16413000568E+04  0.10100000352E+00 0. -1.
</event>
<event>
 5   0  0.4079777E-07  0.3979649E+04  0.7818609E-02  0.8008665E-01
       -2   -1    0    0    0  501  0.00000000000E+00  0.00000000000E+00  0.13725347833E+04  0.13725347833E+04  0.25500000920E-02 0.  1.
        2   -1    0    0  501    0  0.00000000000E+00  0.00000000000E+00 -0.28847363787E+04  0.28847363787E+04  0.25500000920E-02 0. -1.
    10030    2    1    2    0    0  0.00000000000E+00  0.00000000000E+00 -0.15122015954E+04  0.42572711620E+04  0.39796487384E+04 0.  0.
        4    1    3    3  502    0  0.17587503750E+04 -0.14882022180E+03 -0.17389127267E+04  0.24777347364E+04  0.12699999809E+01 0. -1.
       -4    1    3    3    0  502 -0.17587503750E+04  0.14882022180E+03  0.22671113127E+03  0.17795364256E+04  0.12699999809E+01 0.  1.
</event>
<event>
 5   0  0.1421304E-07  0.4032564E+04  0.7818609E-02  0.7998009E-01
       -1   -1    0    0    0  501  0.00000000000E+00  0.00000000000E+00  0.20506963489E+04  0.20506963490E+04  0.50400001928E-02 0. -1.
        1   -1    0    0  501    0  0.00000000000E+00  0.00000000000E+00 -0.19824448304E+04  0.19824448304E+04  0.50400001928E-02 0.  1.
    10030    2    1    2    0    0  0.00000000000E+00  0.00000000000E+00  0.68251518568E+02  0.40331411793E+04  0.40325636390E+04 0.  0.
        2    1    3    3  502    0 -0.37576725593E+03 -0.14322201033E+04 -0.13346231001E+04  0.19934077040E+04  0.25500000920E-02 0.  1.
       -2    1    3    3    0  502  0.37576725593E+03  0.14322201033E+04  0.14028746187E+04  0.20397334754E+04  0.25500000920E-02 0. -1.
</event>
<event>
 5   0  0.1351000E-07  0.2674703E+04  0.7818609E-02  0.8343260E-01
        1   -1    0    0  501    0  0.00000000000E+00  0.00000000000E+00  0.18459466813E+04  0.18459466813E+04  0.50400001928E-02 0.  1.
       -1   -1    0    0    0  501  0.00000000000E+00  0.00000000000E+00 -0.96888416208E+03  0.96888416209E+03  0.50400001928E-02 0. -1.
    10030    2    1    2    0    0  0.00000000000E+00  0.00000000000E+00  0.87706251918E+03  0.28148308434E+04  0.26747026029E+04 0.  0.
        4    1    3    3  502    0 -0.55045228107E+03  0.11212588407E+04 -0.64295221935E+02  0.12507416160E+04  0.12699999809E+01 0. -1.
       -4    1    3    3    0  502  0.55045228107E+03 -0.11212588407E+04  0.94135774111E+03  0.15640892274E+04  0.12699999809E+01 0.  1.
</event>
<event>
 5   0  0.4079777E-07  0.3493254E+04  0.7818609E-02  0.8115391E-01
        2   -1    0    0  501    0  0.00000000000E+00  0.00000000000E+00  0.19552200440E+04  0.19552200440E+04  0.25500000920E-02 0.  1.
       -2   -1    0    0    0  501  0.00000000000E+00  0.00000000000E+00 -0.15602874130E+04  0.15602874130E+04  0.25500000920E-02 0. -1.
    10030    2    1    2    0    0  0.00000000000E+00  0.00000000000E+00  0.39493263095E+03  0.35155074570E+04  0.34932536262E+04 0.  0.
        4    1    3    3  502    0 -0.84885188241E+03 -0.59715378823E+03 -0.12163182342E+04  0.15989289618E+04  0.12699999809E+01 0. -1.
       -4    1    3    3    0  502  0.84885188241E+03  0.59715378823E+03  0.16112508651E+04  0.19165784952E+04  0.12699999809E+01 0.  1.
</event>
<event>
 5   0  0.4047916E-07  0.3907319E+04  0.7818609E-02  0.8023509E-01
       -2   -1    0    0    0  501  0.00000000000E+00  0.00000000000E+00  0.17118753492E+04  0.17118753492E+04  0.25500000920E-02 0. -1.
        2   -1    0    0  501    0  0.00000000000E+00  0.00000000000E+00 -0.22295929538E+04  0.22295929538E+04  0.25500000920E-02 0.  1.
    10030    2    1    2    0    0  0.00000000000E+00  0.00000000000E+00 -0.51771760465E+03  0.39414683030E+04  0.39073188845E+04 0.  0.
        5    1    3    3  502    0  0.15849574260E+04  0.80352577102E+03 -0.10777539318E+04  0.20782972199E+04  0.46999998093E+01 0.  1.
       -5    1    3    3    0  502 -0.15849574260E+04 -0.80352577102E+03  0.56003632716E+03  0.18631710830E+04  0.46999998093E+01 0. -1.
</event>
<event>
 5   0  0.1351000E-07  0.3991314E+04  0.7818609E-02  0.8006301E-01
        1   -1    0    0  501    0  0.00000000000E+00  0.00000000000E+00  0.23046143369E+04  0.23046143369E+04  0.50400001928E-02 0.  1.
       -1   -1    0    0    0  501  0.00000000000E+00  0.00000000000E+00 -0.17281182612E+04  0.17281182612E+04  0.50400001928E-02 0. -1.
    10030    2    1    2    0    0  0.00000000000E+00  0.00000000000E+00  0.57649607571E+03  0.40327325981E+04  0.39913136286E+04 0.  0.
        4    1    3    3  502    0  0.38182052787E+03 -0.16331518982E+04  0.13809851795E+04  0.21725776665E+04  0.12699999809E+01 0.  1.
       -4    1    3    3    0  502 -0.38182052787E+03  0.16331518982E+04 -0.80448910378E+03  0.18601549315E+04  0.12699999809E+01 0. -1.
</event>
<event>
 5   0  0.4079777E-07  0.3925433E+04  0.7818609E-02  0.8019760E-01
        2   -1    0    0  501    0  0.00000000000E+00  0.00000000000E+00  0.21587328224E+04  0.21587328224E+04  0.25500000920E-02 0. -1.
       -2   -1    0    0    0  501  0.00000000000E+00  0.00000000000E+00 -0.17844991762E+04  0.17844991762E+04  0.25500000920E-02 0.  1.
    10030    2    1    2    0    0  0.00000000000E+00  0.00000000000E+00  0.37423364612E+03  0.39432319986E+04  0.39254334503E+04 0.  0.
        4    1    3    3  502    0  0.16615616157E+04 -0.13335214528E+03 -0.85376940177E+03  0.18728303719E+04  0.12699999809E+01 0.  1.
       -4    1    3    3    0  502 -0.16615616157E+04  0.13335214528E+03  0.12280030479E+04  0.20704016267E+04  0.12699999809E+01 0. -1.
</event>
<event>
 5   0  0.4077370E-07  0.3599207E+04  0.7818609E-02  0.8090673E-01
       -2   -1    0    0    0  501  0.00000000000E+00  0.00000000000E+00  0.16051483820E+04  0.16051483820E+04  0.25500000920E-02 0.  1.
        2   -1    0    0  501    0  0.00000000000E+00  0.00000000000E+00 -0.20176161864E+04  0.20176161864E+04  0.25500000920E-02 0. -1.
    10030    2    1    2    0    0  0.00000000000E+00  0.00000000000E+00 -0.41246780436E+03  0.36227645684E+04  0.35992073334E+04 0.  0.
        3    1    3    3  502    0  0.34719028464E+03  0.14286807337E+03  0.15652915002E+04  0.16096862647E+04  0.10100000352E+00 0.  1.
       -3    1    3    3    0  502 -0.34719028464E+03 -0.14286807337E+03 -0.19777593045E+04  0.20130783037E+04  0.10100000352E+00 0. -1.
</event>
<event>
 5   0  0.1368865E-07  0.4045345E+04  0.7818609E-02  0.7995461E-01
       -1   -1    0    0    0  501  0.00000000000E+00  0.00000000000E+00  0.29951490135E+04  0.29951490135E+04  0.50400001928E-02 0.  1.
        1   -1    0    0  501    0  0.00000000000E+00  0.00000000000E+00 -0.13659431226E+04  0.13659431227E+04  0.50400001928E-02 0. -1.
    10030    2    1    2    0    0  0.00000000000E+00  0.00000000000E+00  0.16292058908E+04  0.43610921361E+04  0.40453445817E+04 0.  0.
        5    1    3    3  502    0 -0.96576220106E+03 -0.10423095956E+04 -0.73722116863E+03  0.16008194975E+04  0.46999998093E+01 0. -1.
       -5    1    3    3    0  502  0.96576220106E+03  0.10423095956E+04  0.23664270595E+04  0.27602726387E+04  0.46999998093E+01 0.  1.
</event>
<event>
 5   0  0.4149487E-07  0.3714798E+04  0.7818609E-02  0.8064690E-01
        2   -1    0    0  501    0  0.00000000000E+00  0.00000000000E+00  0.21405257130E+04  0.21405257130E+04  0.25500000920E-02 0. -1.
       -2   -1    0    0    0  501  0.00000000000E+00  0.00000000000E+00 -0.16117217040E+04  0.16117217040E+04  0.25500000920E-02 0.  1.
    10030    2    1    2    0    0  0.00000000000E+00  0.00000000000E+00  0.52880400891E+03  0.37522474170E+04  0.37147983793E+04 0.  0.
        2    1    3    3  502    0 -0.51492943602E+03 -0.58734836852E+03  0.19665612898E+04  0.21160089170E+04  0.25500000920E-02 0. -1.
       -2    1    3    3    0  502  0.51492943602E+03  0.58734836852E+03 -0.14377572809E+04  0.16362385000E+04  0.25500000920E-02 0.  1.
</event>
<event>
 5   0  0.1351000E-07  0.3991343E+04  0.7818609E-02  0.8006295E-01
       -3   -1    0    0    0  501  0.00000000000E+00  0.00000000000E+00  0.17341579493E+04  0.17341579522E+04  0.10100000352E+00 0. -1.
        3   -1    0    0  501    0  0.00000000000E+00  0.00000000000E+00 -0.22966217588E+04  0.22966217610E+04  0.10100000352E+00 0.  1.
    10030    2    1    2    0    0  0.00000000000E+00  0.00000000000E+00 -0.56246380946E+03  0.40307797132E+04  0.39913430771E+04 0.  0.
        2    1    3    3  502    0 -0.38925178780E+03  0.19532124297E+04 -0.40956678403E+03  0.20332979861E+04  0.25500000920E-02 0. -1.
       -2    1    3    3    0  502  0.38925178780E+03 -0.19532124297E+04 -0.15289702543E+03  0.19974817271E+04  0.25500000920E-02 0.  1.
</event>
<event>
 5   0  0.4149487E-07  0.3989262E+04  0.7818609E-02  0.8006716E-01
        2   -1    0    0  501    0  0.00000000000E+00  0.00000000000E+00  0.23683422650E+04  0.23683422650E+04  0.25500000920E-02 0. -1.
       -2   -1    0    0    0  501  0.00000000000E+00  0.00000000000E+00 -0.16798890513E+04  0.16798890513E+04  0.25500000920E-02 0.  1.
    10030    2    1    2    0    0  0.00000000000E+00  0.00000000000E+00  0.68845321364E+03  0.40482313163E+04  0.39892617065E+04 0.  0.
        2    1    3    3  502    0 -0.11201658831E+04 -0.16326534702E+04  0.58908845980E+03  0.20657575300E+04  0.25500000920E-02 0.  1.
       -2    1    3    3    0  502  0.11201658831E+04  0.16326534702E+04  0.99364753838E+02  0.19824737863E+04  0.25500000920E-02 0. -1.
</event>
<event>
 5   0  0.1351000E-07  0.4087143E+04  0.7818609E-02  0.7987194E-01
       -1   -1    0    0    0  501  0.00000000000E+00  0.00000000000E+00  0.22587605957E+04  0.22587605957E+04  0.50400001928E-02 0.  1.
        1   -1    0    0  501    0  0.00000000000E+00  0.00000000000E+00 -0.18488832984E+04  0.18488832984E+04  0.50400001928E-02 0. -1.
    10030    2    1    2    0    0  0.00000000000E+00  0.00000000000E+00  0.40987729733E+03  0.41076438941E+04  0.40871431296E+04 0.  0.
        3    1    3    3  502    0 -0.93686763782E+03 -0.18013664986E+04 -0.27614514177E+02  0.20306168532E+04  0.10100000352E+00 0. -1.
       -3    1    3    3    0  502  0.93686763782E+03  0.18013664986E+04  0.43749181151E+03  0.20770270408E+04  0.10100000352E+00 0.  1.
</event>
<event>
 5   0  0.4077370E-07  0.4007479E+04  0.7818609E-02  0.8003039E-01
       -2   -1    0    0    0  501  0.00000000000E+00  0.00000000000E+00  0.18356440615E+04  0.18356440615E+04  0.25500000920E-02 0.  1.
        2   -1    0    0  501    0  0.00000000000E+00  0.00000000000E+00 -0.21872282091E+04  0.21872282091E+04  0.25500000920E-02 0. -1.
    10030    2    1    2    0    0  0.00000000000E+00  0.00000000000E+00 -0.35158414754E+03  0.40228722706E+04  0.40074792442E+04 0.  0.
        3    1    3    3  502    0  0.96335939733E+03  0.91897058383E+03  0.13274257308E+04  0.18800604627E+04  0.10100000352E+00 0.  1.
       -3    1    3    3    0  502 -0.96335939733E+03 -0.91897058383E+03 -0.16790098783E+04  0.21428118079E+04  0.10100000352E+00 0. -1.
</event>
<event>
 5   0  0.1452581E-07  0.2454378E+04  0.7818609E-02  0.8419421E-01
       -1   -1    0    0    0  501  0.00000000000E+00  0.00000000000E+00  0.12690328038E+04  0.12690328039E+04  0.50400001928E-02 0. -1.
        1   -1    0    0  501    0  0.00000000000E+00  0.00000000000E+00 -0.11867244632E+04  0.11867244632E+04  0.50400001928E-02 0.  1.
    10030    2    1    2    0    0  0.00000000000E+00  0.00000000000E+00  0.82308340627E+02  0.24557572671E+04  0.24543775366E+04 0.  0.
        2    1    3    3  502    0  0.28014130520E+03  0.48091563339E+03  0.11354935057E+04  0.12645570366E+04  0.25500000920E-02 0. -1.
       -2    1    3    3    0  502 -0.28014130520E+03 -0.48091563339E+03 -0.10531851650E+04  0.11912002305E+04  0.25500000920E-02 0.  1.
</event>
<event>
 5   0  0.1372952E-07  0.4163325E+04  0.7818609E-02  0.7972385E-01
        1   -1    0    0  501    0  0.00000000000E+00  0.00000000000E+00  0.13734257852E+04  0.13734257852E+04  0.50400001928E-02 0.  1.
       -1   -1    0    0    0  501  0.00000000000E+00  0.00000000000E+00 -0.31551168388E+04  0.31551168389E+04  0.50400001928E-02 0. -1.
    10030    2    1    2    0    0  0.00000000000E+00  0.00000000000E+00 -0.17816910537E+04  0.45285426240E+04  0.41633250278E+04 0.  0.
        1    1    3    3  502    0  0.42657535242E+03 -0.20374719048E+04 -0.88238310461E+03  0.22609418917E+04  0.50400001928E-02 0.  1.
       -1    1    3    3    0  502 -0.42657535242E+03  0.20374719048E+04 -0.89930794908E+03  0.22676007324E+04  0.50400001928E-02 0. -1.
</event>
<event>
 5   0  0.4149487E-07  0.3526249E+04  0.7818609E-02  0.8107597E-01
       -2   -1    0    0    0  501  0.00000000000E+00  0.00000000000E+00  0.25801879158E+04  0.25801879158E+04  0.25500000920E-02 0.  1.
        2   -1    0    0  501    0  0.00000000000E+00  0.00000000000E+00 -0.12047993195E+04  0.12047993195E+04  0.25500000920E-02 0. -1.
    10030    2    1    2    0    0  0.00000000000E+00  0.00000000000E+00  0.13753885963E+04  0.37849872353E+04  0.35262493645E+04 0.  0.
        2    1    3    3  502    0 -0.10688837500E+04  0.81754373030E+03  0.19104554528E+04  0.23368205449E+04  0.25500000920E-02 0.  1.
       -2    1    3    3    0  502  0.10688837500E+04 -0.81754373030E+03 -0.53506685659E+03  0.14481666903E+04  0.25500000920E-02 0. -1.
</event>
<event>
 5   0  0.1351000E-07  0.2631445E+04  0.7818609E-02  0.8357598E-01
        1   -1    0    0  501    0  0.00000000000E+00  0.00000000000E+00  0.10189504996E+04  0.10189504996E+04  0.50400001928E-02 0.  1.
       -1   -1    0    0    0  501  0.00000000000E+00  0.00000000000E+00 -0.16989306688E+04  0.16989306688E+04  0.50400001928E-02 0. -1.
    10030    2    1    2    0    0  0.00000000000E+00  0.00000000000E+00 -0.67998016918E+03  0.27178811684E+04  0.26314454232E+04 0.  0.
        3    1    3    3  502    0 -0.10856176554E+04 -0.42493010157E+03  0.28995780390E+03  0.12013354333E+04  0.10100000352E+00 0.  1.
       -3    1    3    3    0  502  0.10856176554E+04  0.42493010157E+03 -0.96993797307E+03  0.15165457352E+04  0.10100000352E+00 0. -1.
</event>
<event>
 5   0  0.4079777E-07  0.2599882E+04  0.7818609E-02  0.8368241E-01
        2   -1    0    0  501    0  0.00000000000E+00  0.00000000000E+00  0.21219206252E+04  0.21219206252E+04  0.25500000920E-02 0.  1.
       -2   -1    0    0    0  501  0.00000000000E+00  0.00000000000E+00 -0.79637570006E+03  0.79637570006E+03  0.25500000920E-02 0. -1.
    10030    2    1    2    0    0  0.00000000000E+00  0.00000000000E+00  0.13255449251E+04  0.29182963253E+04  0.25998815537E+04 0.  0.
        4    1    3    3  502    0  0.62652694717E+03  0.13769923591E+03 -0.60634043420E+03  0.88269328203E+03  0.12699999809E+01 0. -1.
       -4    1    3    3    0  502 -0.62652694717E+03 -0.13769923591E+03  0.19318853593E+04  0.20356030432E+04  0.12699999809E+01 0.  1.
</event>
<event>
 5   0  0.4077370E-07  0.3929010E+04  0.7818609E-02  0.8019023E-01
       -2   -1    0    0    0  501  0.00000000000E+00  0.00000000000E+00  0.27974832223E+04  0.27974832223E+04  0.25500000920E-02 0.  1.
        2   -1    0    0  501    0  0.00000000000E+00  0.00000000000E+00 -0.13795541824E+04  0.13795541824E+04  0.25500000920E-02 0. -1.
    10030    2    1    2    0    0  0.00000000000E+00  0.00000000000E+00  0.14179290399E+04  0.41770374047E+04  0.39290098903E+04 0.  0.
        3    1    3    3  502    0  0.17293851818E+04 -0.36734307789E+03 -0.20158742936E+03  0.17794244985E+04  0.10100000352E+00 0. -1.
       -3    1    3    3    0  502 -0.17293851818E+04  0.36734307789E+03  0.16195164693E+04  0.23976129063E+04  0.10100000352E+00 0.  1.
</event>
<event>
 5   0  0.4047916E-07  0.3357449E+04  0.7818609E-02  0.8148429E-01
        2   -1    0    0  501    0  0.00000000000E+00  0.00000000000E+00  0.18438146275E+04  0.18438146275E+04  0.25500000920E-02 0. -1.
       -2   -1    0    0    0  501  0.00000000000E+00  0.00000000000E+00 -0.15284161872E+04  0.15284161872E+04  0.25500000920E-02 0.  1.
    10030    2    1    2    0    0  0.00000000000E+00  0.00000000000E+00  0.31539844031E+03  0.33722308147E+04  0.33574491049E+04 0.  0.
        5    1    3    3  502    0 -0.40828718358E+03 -0.15582519071E+04 -0.31687078316E+03  0.16417297626E+04  0.46999998093E+01 0.  1.
       -5    1    3    3    0  502  0.40828718358E+03  0.15582519071E+04  0.63226922347E+03  0.17305010521E+04  0.46999998093E+01 0. -1.
</event>
<event>
 5   0  0.1351000E-07  0.3913064E+04  0.7818609E-02  0.8022318E-01
       -1   -1    0    0    0  501  0.00000000000E+00  0.00000000000E+00  0.14386394433E+04  0.14386394434E+04  0.50400001928E-02 0.  1.
        1   -1    0    0  501    0  0.00000000000E+00  0.00000000000E+00 -0.26608599847E+04  0.26608599847E+04  0.50400001928E-02 0. -1.
    10030    2    1    2    0    0  0.00000000000E+00  0.00000000000E+00 -0.12222205413E+04  0.40994994280E+04  0.39130643374E+04 0.  0.
        4    1    3    3  502    0  0.65954155824E+03 -0.67905392011E+03  0.11827514115E+04  0.15149296379E+04  0.12699999809E+01 0.  1.
       -4    1    3    3    0  502 -0.65954155824E+03  0.67905392011E+03 -0.24049719528E+04  0.25845697901E+04  0.12699999809E+01 0. -1.
</event>
<event>
 5   0  0.1351000E-07  0.3984404E+04  0.7818609E-02  0.8007700E-01
       -1   -1    0    0    0  501  0.00000000000E+00  0.00000000000E+00  0.15276356447E+04  0.15276356447E+04  0.50400001928E-02 0.  1.
        1   -1    0    0  501    0  0.00000000000E+00  0.00000000000E+00 -0.25980463734E+04  0.25980463734E+04  0.50400001928E-02 0. -1.
    10030    2    1    2    0    0  0.00000000000E+00  0.00000000000E+00 -0.10704107287E+04  0.41256820181E+04  0.39844037177E+04 0.  0.
        3    1    3    3  502    0  0.54037105084E+03 -0.21292339471E+03 -0.25084334711E+04  0.25747962510E+04  0.10100000352E+00 0. -1.
       -3    1    3    3    0  502 -0.54037105084E+03  0.21292339471E+03  0.14380227424E+04  0.15508857671E+04  0.10100000352E+00 0.  1.
</event>
<event>
 5   0  0.1368865E-07  0.3952612E+04  0.7818609E-02  0.8014175E-01
        1   -1    0    0  501    0  0.00000000000E+00  0.00000000000E+00  0.23584368982E+04  0.23584368982E+04  0.50400001928E-02 0.  1.
       -1   -1    0    0    0  501  0.00000000000E+00  0.00000000000E+00 -0.16560907549E+04  0.16560907549E+04  0.50400001928E-02 0. -1.
    10030    2    1    2    0    0  0.00000000000E+00  0.00000000000E+00  0.70234614333E+03  0.40145276531E+04  0.39526120696E+04 0.  0.
        5    1    3    3  502    0  0.12312310617E+03 -0.17324671558E+03 -0.16444434317E+04  0.16581284672E+04  0.46999998093E+01 0. -1.
       -5    1    3    3    0  502 -0.12312310617E+03  0.17324671558E+03  0.23467895750E+04  0.23563991859E+04  0.46999998093E+01 0.  1.
</event>
<event>
 5   0  0.4079777E-07  0.3813951E+04  0.7818609E-02  0.8043168E-01
       -2   -1    0    0    0  501  0.00000000000E+00  0.00000000000E+00  0.13571855979E+04  0.13571855979E+04  0.25500000920E-02 0. -1.
        2   -1    0    0  501    0  0.00000000000E+00  0.00000000000E+00 -0.26794834580E+04  0.26794834580E+04  0.25500000920E-02 0.  1.
    10030    2    1    2    0    0  0.00000000000E+00  0.00000000000E+00 -0.13222978601E+04  0.40366690559E+04  0.38139514203E+04 0.  0.
        4    1    3    3  502    0  0.18156775009E+04  0.42883629193E+03 -0.10791406512E+04  0.21552567157E+04  0.12699999809E+01 0.  1.
       -4    1    3    3    0  502 -0.18156775009E+04 -0.42883629193E+03 -0.24315720886E+03  0.18814123402E+04  0.12699999809E+01 0. -1.
</event>
<event>
 5   0  0.4079777E-07  0.3994889E+04  0.7818609E-02  0.8005578E-01
        2   -1    0    0  501    0  0.00000000000E+00  0.00000000000E+00  0.23075794496E+04  0.23075794496E+04  0.25500000920E-02 0.  1.
       -2   -1    0    0    0  501  0.00000000000E+00  0.00000000000E+00 -0.17289915205E+04  0.17289915205E+04  0.25500000920E-02 0. -1.
    10030    2    1    2    0    0  0.00000000000E+00  0.00000000000E+00  0.57858792906E+03  0.40365709701E+04  0.39948893859E+04 0.  0.
        4    1    3    3  502    0 -0.56901890130E+03 -0.18824937287E+04 -0.63951325066E+02  0.19676525439E+04  0.12699999809E+01 0. -1.
       -4    1    3    3    0  502  0.56901890130E+03  0.18824937287E+04  0.64253925412E+03  0.20689184263E+04  0.12699999809E+01 0.  1.
</event>
<event>
 5   0  0.4047916E-07  0.3972262E+04  0.7818609E-02  0.8010166E-01
       -2   -1    0    0    0  501  0.00000000000E+00  0.00000000000E+00  0.14372856561E+04  0.14372856561E+04  0.25500000920E-02 0.  1.
        2   -1    0    0  501    0  0.00000000000E+00  0.00000000000E+00 -0.27445593965E+04  0.27445593965E+04  0.25500000920E-02 0. -1.
    10030    2    1    2    0    0  0.00000000000E+00  0.00000000000E+00 -0.13072737404E+04  0.41818450526E+04  0.39722617501E+04 0.  0.
        5    1    3    3  502    0 -0.12559423795E+04  0.15252952423E+04 -0.86622417307E+03  0.21573787902E+04  0.46999998093E+01 0. -1.
       -5    1    3    3    0  502  0.12559423795E+04 -0.15252952423E+04 -0.44104956735E+03  0.20244662624E+04  0.46999998093E+01 0.  1.
</event>
<event>
 5   0  0.4079777E-07  0.4010217E+04  0.7818609E-02  0.8002489E-01
       -2   -1    0    0    0  501  0.00000000000E+00  0.00000000000E+00  0.16693990721E+04  0.16693990721E+04  0.25500000920E-02 0. -1.
        2   -1    0    0  501    0  0.00000000000E+00  0.00000000000E+00 -0.24083281014E+04  0.24083281014E+04  0.25500000920E-02 0.  1.
    10030    2    1    2    0    0  0.00000000000E+00  0.00000000000E+00 -0.73892902926E+03  0.40777271735E+04  0.40102172997E+04 0.  0.
        4    1    3    3  502    0  0.20763542651E+03 -0.19142815727E+03 -0.23880030712E+04  0.24046449823E+04  0.12699999809E+01 0.  1.
       -4    1    3    3    0  502 -0.20763542651E+03  0.19142815727E+03  0.16490740420E+04  0.16730821912E+04  0.12699999809E+01 0. -1.
</event>
<event>
 5   0  0.4149487E-07  0.4039456E+04  0.7818609E-02  0.7996634E-01
        2   -1    0    0  501    0  0.00000000000E+00  0.00000000000E+00  0.27330588467E+04  0.27330588467E+04  0.25500000920E-02 0. -1.
       -2   -1    0    0    0  501  0.00000000000E+00  0.00000000000E+00 -0.14925768933E+04  0.14925768933E+04  0.25500000920E-02 0.  1.
    10030    2    1    2    0    0  0.00000000000E+00  0.00000000000E+00  0.12404819534E+04  0.42256357401E+04  0.40394556479E+04 0.  0.
        2    1    3    3  502    0 -0.13416337247E+04  0.31530818489E+03 -0.92425761513E+03  0.16594132824E+04  0.25500000920E-02 0.  1.
       -2    1    3    3    0  502  0.13416337247E+04 -0.31530818489E+03  0.21647395685E+04  0.25662224577E+04  0.25500000920E-02 0. -1.
</event>
<event>
 5   0  0.4047916E-07  0.4151149E+04  0.7818609E-02  0.7974730E-01
       -2   -1    0    0    0  501  0.00000000000E+00  0.00000000000E+00  0.21592336670E+04  0.21592336670E+04  0.25500000920E-02 0.  1.
        2   -1    0    0  501    0  0.00000000000E+00  0.00000000000E+00 -0.19951568231E+04  0.19951568231E+04  0.25500000920E-02 0. -1.
    10030    2    1    2    0    0  0.00000000000E+00  0.00000000000E+00  0.16407684391E+03  0.41543904900E+04  0.41511491340E+04 0.  0.
        5    1    3    3  502    0 -0.19923155559E+02 -0.53180926748E+03  0.20897877757E+04  0.21564909150E+04  0.46999998093E+01 0.  1.
       -5    1    3    3    0  502  0.19923155559E+02  0.53180926748E+03 -0.19257109318E+04  0.19978995750E+04  0.46999998093E+01 0. -1.
</event>
<event>
 5   0  0.4047916E-07  0.3992762E+04  0.7818609E-02  0.8006008E-01
        2   -1    0    0  501    0  0.00000000000E+00  0.00000000000E+00  0.29151929296E+04  0.29151929296E+04  0.25500000920E-02 0.  1.
       -2   -1    0    0    0  501  0.00000000000E+00  0.00000000000E+00 -0.13671609413E+04  0.13671609414E+04  0.25500000920E-02 0. -1.
    10030    2    1    2    0    0  0.00000000000E+00  0.00000000000E+00  0.15480319883E+04  0.42823538710E+04  0.39927624071E+04 0.  0.
        5    1    3    3  502    0 -0.96105506253E+03 -0.17137058292E+04  0.39466604854E+03  0.20040453793E+04  0.46999998093E+01 0.  1.
       -5    1    3    3    0  502  0.96105506253E+03  0.17137058292E+04  0.11533659397E+04  0.22783084917E+04  0.46999998093E+01 0. -1.
</event>
<event>
 5   0  0.1421304E-07  0.2723980E+04  0.7818609E-02  0.8327266E-01
       -1   -1    0    0    0  501  0.00000000000E+00  0.00000000000E+00  0.18088577737E+04  0.18088577737E+04  0.50400001928E-02 0.  1.
        1   -1    0    0  501    0  0.00000000000E+00  0.00000000000E+00 -0.10255180848E+04  0.10255180848E+04  0.50400001928E-02 0. -1.
    10030    2    1    2    0    0  0.00000000000E+00  0.00000000000E+00  0.78333968890E+03  0.28343758585E+04  0.27239797061E+04 0.  0.
        2    1    3    3  502    0 -0.72001133291E+03  0.11559727093E+04  0.37284993242E+03  0.14119866487E+04  0.25500000920E-02 0.  1.
       -2    1    3    3    0  502  0.72001133291E+03 -0.11559727093E+04  0.41048975647E+03  0.14223892098E+04  0.25500000920E-02 0. -1.
</event>
<event>
 5   0  0.1421304E-07  0.4035327E+04  0.7818609E-02  0.7997458E-01
        1   -1    0    0  501    0  0.00000000000E+00  0.00000000000E+00  0.17258255289E+04  0.17258255289E+04  0.50400001928E-02 0.  1.
       -1   -1    0    0    0  501  0.00000000000E+00  0.00000000000E+00 -0.23588519163E+04  0.23588519164E+04  0.50400001928E-02 0. -1.
    10030    2    1    2    0    0  0.00000000000E+00  0.00000000000E+00 -0.63302638746E+03  0.40846774453E+04  0.40353274247E+04 0.  0.
        2    1    3    3  502    0 -0.62496256407E+03 -0.17212702637E+04  0.54096966471E+03  0.19094495818E+04  0.25500000920E-02 0. -1.
       -2    1    3    3    0  502  0.62496256407E+03  0.17212702637E+04 -0.11739960522E+04  0.21752278634E+04  0.25500000920E-02 0.  1.
</event>
<event>
 5   0  0.4047916E-07  0.2466696E+04  0.7818609E-02  0.8414947E-01
       -2   -1    0    0    0  501  0.00000000000E+00  0.00000000000E+00  0.78055750787E+03  0.78055750787E+03  0.25500000920E-02 0. -1.
        2   -1    0    0  501    0  0.00000000000E+00  0.00000000000E+00 -0.19487963744E+04  0.19487963744E+04  0.25500000920E-02 0.  1.
    10030    2    1    2    0    0  0.00000000000E+00  0.00000000000E+00 -0.11682388666E+04  0.27293538823E+04  0.24666962856E+04 0.  0.
        5    1    3    3  502    0 -0.17341944147E+03  0.11580186361E+04 -0.10127208596E+04  0.15481301928E+04  0.46999998093E+01 0.  1.
       -5    1    3    3    0  502  0.17341944147E+03 -0.11580186361E+04 -0.15551800693E+03  0.11812236895E+04  0.46999998093E+01 0. -1.
</event>
<event>
 5   0  0.1368865E-07  0.3224864E+04  0.7818609E-02  0.8182281E-01
        1   -1    0    0  501    0  0.00000000000E+00  0.00000000000E+00  0.11902218877E+04  0.11902218877E+04  0.50400001928E-02 0.  1.
       -1   -1    0    0    0  501  0.00000000000E+00  0.00000000000E+00 -0.21844130067E+04  0.21844130067E+04  0.50400001928E-02 0. -1.
    10030    2    1    2    0    0  0.00000000000E+00  0.00000000000E+00 -0.99419111903E+03  0.33746348944E+04  0.32248635148E+04 0.  0.
        5    1    3    3  502    0  0.75921379474E+03  0.14218261286E+04 -0.45125520198E+03  0.16738125562E+04  0.46999998093E+01 0.  1.
       -5    1    3    3    0  502 -0.75921379474E+03 -0.14218261286E+04 -0.54293591705E+03  0.17008223382E+04  0.46999998093E+01 0. -1.
</event>
<event>
 5   0  0.4077370E-07  0.2833355E+04  0.7818609E-02  0.8292987E-01
       -2   -1    0    0    0  501  0.00000000000E+00  0.00000000000E+00  0.96747693143E+03  0.96747693143E+03  0.25500000920E-02 0. -1.
        2   -1    0    0  501    0  0.00000000000E+00  0.00000000000E+00 -0.20744428606E+04  0.20744428606E+04  0.25500000920E-02 0.  1.
    10030    2    1    2    0    0  0.00000000000E+00  0.00000000000E+00 -0.11069659291E+04  0.30419197920E+04  0.28333553347E+04 0.  0.
        3    1    3    3  502    0  0.76205984248E+03  0.25828945157E+03  0.69833340719E+03  0.10654192612E+04  0.10100000352E+00 0. -1.
       -3    1    3    3    0  502 -0.76205984248E+03 -0.25828945157E+03 -0.18052993363E+04  0.19765005308E+04  0.10100000352E+00 0.  1.
</event>
<event>
 5   0  0.1372952E-07  0.3206881E+04  0.7818609E-02  0.8187002E-01
       -1   -1    0    0    0  501  0.00000000000E+00  0.00000000000E+00  0.11864682610E+04  0.11864682610E+04  0.50400001928E-02 0. -1.
        1   -1    0    0  501    0  0.00000000000E+00  0.00000000000E+00 -0.21669536043E+04  0.21669536043E+04  0.50400001928E-02 0.  1.
    10030    2    1    2    0    0  0.00000000000E+00  0.00000000000E+00 -0.98048534332E+03  0.33534218653E+04  0.32068811482E+04 0.  0.
        1    1    3    3  502    0 -0.71583767843E+03 -0.19168251239E+03 -0.19771381054E+04  0.21114546775E+04  0.50400001928E-02 0.  1.
       -1    1    3    3    0  502  0.71583767843E+03  0.19168251239E+03  0.99665276207E+03  0.12419671878E+04  0.50400001928E-02 0. -1.
</event>
<event>
 5   0  0.1421304E-07  0.2768967E+04  0.7818609E-02  0.8312968E-01
        1   -1    0    0  501    0  0.00000000000E+00  0.00000000000E+00  0.20298450369E+04  0.20298450369E+04  0.50400001928E-02 0. -1.
       -1   -1    0    0    0  501  0.00000000000E+00  0.00000000000E+00 -0.94430601749E+03  0.94430601750E+03  0.50400001928E-02 0.  1.
    10030    2    1    2    0    0  0.00000000000E+00  0.00000000000E+00  0.10855390194E+04  0.29741510544E+04  0.27689672320E+04 0.  0.
        2    1    3    3  502    0 -0.12430154936E+04  0.45329979844E+03  0.10484874030E+03  0.13272382917E+04  0.25500000920E-02 0.  1.
       -2    1    3    3    0  502  0.12430154936E+04 -0.45329979844E+03  0.98069027914E+03  0.16469127628E+04  0.25500000920E-02 0. -1.
</event>
<event>
 5   0  0.1368865E-07  0.3510380E+04  0.7818609E-02  0.8111334E-01
       -1   -1    0    0    0  501  0.00000000000E+00  0.00000000000E+00  0.16930264131E+04  0.16930264132E+04  0.50400001928E-02 0.  1.
        1   -1    0    0  501    0  0.00000000000E+00  0.00000000000E+00 -0.18196357328E+04  0.18196357328E+04  0.50400001928E-02 0. -1.
    10030    2    1    2    0    0  0.00000000000E+00  0.00000000000E+00 -0.12660931961E+03  0.35126621459E+04  0.35103796706E+04 0.  0.
        5    1    3    3  502    0  0.24024335322E+03  0.12221454089E+04  0.11741533746E+04  0.17117285142E+04  0.46999998093E+01 0.  1.
       -5    1    3    3    0  502 -0.24024335322E+03 -0.12221454089E+04 -0.13007626942E+04  0.18009336317E+04  0.46999998093E+01 0. -1.
</event>
<event>
 5   0  0.4149487E-07  0.3921877E+04  0.7818609E-02  0.8020495E-01
       -2   -1    0    0    0  501  0.00000000000E+00  0.00000000000E+00  0.17213327515E+04  0.17213327515E+04  0.25500000920E-02 0.  1.
        2   -1    0    0  501    0  0.00000000000E+00  0.00000000000E+00 -0.22338968580E+04  0.22338968580E+04  0.25500000920E-02 0. -1.
    10030    2    1    2    0    0  0.00000000000E+00  0.00000000000E+00 -0.51256410643E+03  0.39552296095E+04  0.39218770124E+04 0.  0.
        2    1    3    3  502    0  0.18914926065E+04  0.43029890716E+03 -0.54573927789E+03  0.20151259984E+04  0.25500000920E-02 0. -1.
       -2    1    3    3    0  502 -0.18914926065E+04 -0.43029890716E+03  0.33175171456E+02  0.19401036111E+04  0.25500000920E-02 0.  1.
</event>
<event>
 5   0  0.4079777E-07  0.3993517E+04  0.7818609E-02  0.8005856E-01
       -2   -1    0    0    0  501  0.00000000000E+00  0.00000000000E+00  0.14214736912E+04  0.14214736912E+04  0.25500000920E-02 0. -1.
        2   -1    0    0  501    0  0.00000000000E+00  0.00000000000E+00 -0.28048675877E+04  0.28048675877E+04  0.25500000920E-02 0.  1.
    10030    2    1    2    0    0  0.00000000000E+00  0.00000000000E+00 -0.13833938964E+04  0.42263412789E+04  0.39935174888E+04 0.  0.
        4    1    3    3  502    0 -0.10322541414E+04  0.11999009537E+04 -0.19799285348E+04  0.25348430971E+04  0.12699999809E+01 0.  1.
       -4    1    3    3    0  502  0.10322541414E+04 -0.11999009537E+04  0.59653463840E+03  0.16914981818E+04  0.12699999809E+01 0. -1.
</event>
<event>
 5   0  0.1351000E-07  0.3976555E+04  0.7818609E-02  0.8009293E-01
       -1   -1    0    0    0  501  0.00000000000E+00  0.00000000000E+00  0.19425818256E+04  0.19425818256E+04  0.50400001928E-02 0. -1.
        1   -1    0    0  501    0  0.00000000000E+00  0.00000000000E+00 -0.20350477977E+04  0.20350477977E+04  0.50400001928E-02 0.  1.
    10030    2    1    2    0    0  0.00000000000E+00  0.00000000000E+00 -0.92465972131E+02  0.39776296233E+04  0.39765547229E+04 0.  0.
        3    1    3    3  502    0  0.18744911443E+04  0.63210989178E+03 -0.24620423488E+03  0.19934634435E+04  0.10100000352E+00 0.  1.
       -3    1    3    3    0  502 -0.18744911443E+04 -0.63210989178E+03  0.15373826275E+03  0.19841661798E+04  0.10100000352E+00 0. -1.
</event>
<event>
 5   0  0.4149487E-07  0.4013988E+04  0.7818609E-02  0.8001731E-01
       -2   -1    0    0    0  501  0.00000000000E+00  0.00000000000E+00  0.24902944460E+04  0.24902944460E+04  0.25500000920E-02 0. -1.
        2   -1    0    0  501    0  0.00000000000E+00  0.00000000000E+00 -0.16174892813E+04  0.16174892813E+04  0.25500000920E-02 0.  1.
    10030    2    1    2    0    0  0.00000000000E+00  0.00000000000E+00  0.87280516462E+03  0.41077837273E+04  0.40139878294E+04 0.  0.
        2    1    3    3  502    0  0.14604065094E+04 -0.80945133144E+03  0.15759880554E+04  0.22960263460E+04  0.25500000920E-02 0. -1.
       -2    1    3    3    0  502 -0.14604065094E+04  0.80945133144E+03 -0.70318289083E+03  0.18117573813E+04  0.25500000920E-02 0.  1.
</event>
<event>
 5   0  0.1368865E-07  0.3986866E+04  0.7818609E-02  0.8007201E-01
        1   -1    0    0  501    0  0.00000000000E+00  0.00000000000E+00  0.20928621562E+04  0.20928621562E+04  0.50400001928E-02 0.  1.
       -1   -1    0    0    0  501  0.00000000000E+00  0.00000000000E+00 -0.18987279275E+04  0.18987279275E+04  0.50400001928E-02 0. -1.
    10030    2    1    2    0    0  0.00000000000E+00  0.00000000000E+00  0.19413422873E+03  0.39915900837E+04  0.39868663506E+04 0.  0.
        5    1    3    3  502    0  0.86616254558E+01  0.19784409299E+04  0.34118011445E+03  0.20076676760E+04  0.46999998093E+01 0. -1.
       -5    1    3    3    0  502 -0.86616254558E+01 -0.19784409299E+04 -0.14704588572E+03  0.19839224076E+04  0.46999998093E+01 0.  1.
</event>
<event>
 5   0  0.1351000E-07  0.3026809E+04  0.7818609E-02  0.8236117E-01
       -1   -1    0    0    0  501  0.00000000000E+00  0.00000000000E+00  0.32541901002E+04  0.32541901002E+04  0.50400001928E-02 0. -1.
        1   -1    0    0  501    0  0.00000000000E+00  0.00000000000E+00 -0.70382877126E+03  0.70382877128E+03  0.50400001928E-02 0.  1.
    10030    2    1    2    0    0  0.00000000000E+00  0.00000000000E+00  0.25503613289E+04  0.39580188715E+04  0.30268086294E+04 0.  0.
        4    1    3    3  502    0  0.14708792905E+04  0.32275514424E+03  0.14723471441E+04  0.21060542481E+04  0.12699999809E+01 0.  1.
       -4    1    3    3    0  502 -0.14708792905E+04 -0.32275514424E+03  0.10780141848E+04  0.18519646233E+04  0.12699999809E+01 0. -1.
</event>
<event>
 5   0  0.1421304E-07  0.3965031E+04  0.7818609E-02  0.8011638E-01
       -1   -1    0    0    0  501  0.00000000000E+00  0.00000000000E+00  0.24763031246E+04  0.24763031246E+04  0.50400001928E-02 0.  1.
        1   -1    0    0  501    0  0.00000000000E+00  0.00000000000E+00 -0.15871914617E+04  0.15871914617E+04  0.50400001928E-02 0. -1.
    10030    2    1    2    0    0  0.00000000000E+00  0.00000000000E+00  0.88911166284E+03  0.40634945863E+04  0.39650307318E+04 0.  0.
        2    1    3    3  502    0  0.40653914009E+02 -0.10125079433E+04  0.21908491464E+04  0.24138444561E+04  0.25500000920E-02 0.  1.
       -2    1    3    3    0  502 -0.40653914009E+02  0.10125079433E+04 -0.13017374836E+04  0.16496501302E+04  0.25500000920E-02 0. -1.
</event>
<event>
 5   0  0.1368865E-07  0.3986175E+04  0.7818609E-02  0.8007341E-01
        1   -1    0    0  501    0  0.00000000000E+00  0.00000000000E+00  0.20864311171E+04  0.20864311171E+04  0.50400001928E-02 0.  1.
       -1   -1    0    0    0  501  0.00000000000E+00  0.00000000000E+00 -0.19039201749E+04  0.19039201749E+04  0.50400001928E-02 0. -1.
    10030    2    1    2    0    0  0.00000000000E+00  0.00000000000E+00  0.18251094220E+03  0.39903512921E+04  0.39861752583E+04 0.  0.
        5    1    3    3  502    0  0.15201028114E+04 -0.11950988606E+03 -0.11935925878E+04  0.19364091835E+04  0.46999998093E+01 0. -1.
       -5    1    3    3    0  502 -0.15201028114E+04  0.11950988606E+03  0.13761035300E+04  0.20539421086E+04  0.46999998093E+01 0.  1.
</event>
<event>
 5   0  0.1372952E-07  0.2726074E+04  0.7818609E-02  0.8326594E-01
        1   -1    0    0  501    0  0.00000000000E+00  0.00000000000E+00  0.11650849906E+04  0.11650849906E+04  0.50400001928E-02 0. -1.
       -1   -1    0    0    0  501  0.00000000000E+00  0.00000000000E+00 -0.15946212406E+04  0.15946212407E+04  0.50400001928E-02 0.  1.
    10030    2    1    2    0    0  0.00000000000E+00  0.00000000000E+00 -0.42953625006E+03  0.27597062313E+04  0.27260735670E+04 0.  0.
        1    1    3    3  502    0  0.57841067850E+03  0.46135043516E+03 -0.13736473672E+04  0.15602276201E+04  0.50400001928E-02 0.  1.
       -1    1    3    3    0  502 -0.57841067850E+03 -0.46135043516E+03  0.94411111716E+03  0.11994786111E+04  0.50400001928E-02 0. -1.
</event>
<event>
 5   0  0.4077370E-07  0.3977407E+04  0.7818609E-02  0.8009120E-01
       -2   -1    0    0    0  501  0.00000000000E+00  0.00000000000E+00  0.25852535173E+04  0.25852535173E+04  0.25500000920E-02 0.  1.
        2   -1    0    0  501    0  0.00000000000E+00  0.00000000000E+00 -0.15298081653E+04  0.15298081653E+04  0.25500000920E-02 0. -1.
    10030    2    1    2    0    0  0.00000000000E+00  0.00000000000E+00  0.10554453520E+04  0.41150616826E+04  0.39774071656E+04 0.  0.
        3    1    3    3  502    0 -0.12600380065E+04  0.83049653271E+03  0.18677398549E+04  0.24012231143E+04  0.10100000352E+00 0.  1.
       -3    1    3    3    0  502  0.12600380065E+04 -0.83049653271E+03 -0.81229450295E+03  0.17138385684E+04  0.10100000352E+00 0. -1.
</event>
<event>
 5   0  0.4077370E-07  0.4053788E+04  0.7818609E-02  0.7993783E-01
        2   -1    0    0  501    0  0.00000000000E+00  0.00000000000E+00  0.15736830395E+04  0.15736830395E+04  0.25500000920E-02 0. -1.
       -2   -1    0    0    0  501  0.00000000000E+00  0.00000000000E+00 -0.26106273832E+04  0.26106273832E+04  0.25500000920E-02 0.  1.
    10030    2    1    2    0    0  0.00000000000E+00  0.00000000000E+00 -0.10369443437E+04  0.41843104228E+04  0.40537883692E+04 0.  0.
        3    1    3    3  502    0  0.82011908739E+03  0.75306956676E+03  0.12297520565E+04  0.16589150734E+04  0.10100000352E+00 0. -1.
       -3    1    3    3    0  502 -0.82011908739E+03 -0.75306956676E+03 -0.22666964002E+04  0.25253953494E+04  0.10100000352E+00 0.  1.
</event>
<event>
 5   0  0.1368865E-07  0.3822936E+04  0.7818609E-02  0.8041251E-01
        1   -1    0    0  501    0  0.00000000000E+00  0.00000000000E+00  0.24720376279E+04  0.24720376279E+04  0.50400001928E-02 0.  1.
       -1   -1    0    0    0  501  0.00000000000E+00  0.00000000000E+00 -0.14780154159E+04  0.14780154159E+04  0.50400001928E-02 0. -1.
    10030    2    1    2    0    0  0.00000000000E+00  0.00000000000E+00  0.99402221200E+03  0.39500530439E+04  0.38229358995E+04 0.  0.
        5    1    3    3  502    0  0.14812138978E+04 -0.94501679569E+03  0.12747934843E+04  0.21707537569E+04  0.46999998093E+01 0.  1.
       -5    1    3    3    0  502 -0.14812138978E+04  0.94501679569E+03 -0.28077127235E+03  0.17792992870E+04  0.46999998093E+01 0. -1.
</event>
<event>
 5   0  0.1351000E-07  0.3967760E+04  0.7818609E-02  0.8011082E-01
       -1   -1    0    0    0  501  0.00000000000E+00  0.00000000000E+00  0.16032163517E+04  0.16032163517E+04  0.50400001928E-02 0.  1.
        1   -1    0    0  501    0  0.00000000000E+00  0.00000000000E+00 -0.24549270056E+04  0.24549270056E+04  0.50400001928E-02 0. -1.
    10030    2    1    2    0    0  0.00000000000E+00  0.00000000000E+00 -0.85171065391E+03  0.40581433573E+04  0.39677596286E+04 0.  0.
        3    1    3    3  502    0  0.24665637194E+02  0.90821397697E+03  0.13779282706E+04  0.16504991217E+04  0.10100000352E+00 0.  1.
       -3    1    3    3    0  502 -0.24665637194E+02 -0.90821397697E+03 -0.22296389245E+04  0.24076442356E+04  0.10100000352E+00 0. -1.
</event>
<event>
 5   0  0.1351000E-07  0.2649622E+04  0.7818609E-02  0.8351538E-01
       -1   -1    0    0    0  501  0.00000000000E+00  0.00000000000E+00  0.26323871690E+04  0.26323871690E+04  0.50400001928E-02 0. -1.
        1   -1    0    0  501    0  0.00000000000E+00  0.00000000000E+00 -0.66674244652E+03  0.66674244654E+03  0.50400001928E-02 0.  1.
    10030    2    1    2    0    0  0.00000000000E+00  0.00000000000E+00  0.19656447225E+04  0.32991296155E+04  0.26496220570E+04 0.  0.
        3    1    3    3  502    0  0.96838285451E+03 -0.19863613806E+03  0.20810138023E+04  0.23038750234E+04  0.10100000352E+00 0. -1.
       -3    1    3    3    0  502 -0.96838285451E+03  0.19863613806E+03 -0.11536907981E+03  0.99525459207E+03  0.10100000352E+00 0.  1.
</event>
<event>
 5   0  0.4149487E-07  0.2554552E+04  0.7818609E-02  0.8383805E-01
       -2   -1    0    0    0  501  0.00000000000E+00  0.00000000000E+00  0.15471425530E+04  0.15471425530E+04  0.25500000920E-02 0. -1.
        2   -1    0    0  501    0  0.00000000000E+00  0.00000000000E+00 -0.10544819524E+04  0.10544819524E+04  0.25500000920E-02 0.  1.
    10030    2    1    2    0    0  0.00000000000E+00  0.00000000000E+00  0.49266060055E+03  0.26016245055E+04  0.25545519372E+04 0.  0.
        2    1    3    3  502    0  0.73286341492E+03 -0.87454134859E+03 -0.33828805148E+03  0.11901051051E+04  0.25500000920E-02 0.  1.
       -2    1    3    3    0  502 -0.73286341492E+03  0.87454134859E+03  0.83094865203E+03  0.14115194004E+04  0.25500000920E-02 0. -1.
</event>
<event>
 5   0  0.4149487E-07  0.2629374E+04  0.7818609E-02  0.8358291E-01
        2   -1    0    0  501    0  0.00000000000E+00  0.00000000000E+00  0.13949479789E+04  0.13949479789E+04  0.25500000920E-02 0.  1.
       -2   -1    0    0    0  501  0.00000000000E+00  0.00000000000E+00 -0.12390440789E+04  0.12390440789E+04  0.25500000920E-02 0. -1.
    10030    2    1    2    0    0  0.00000000000E+00  0.00000000000E+00  0.15590390005E+03  0.26339920578E+04  0.26293740955E+04 0.  0.
        2    1    3    3  502    0 -0.42550243180E+03 -0.10754436728E+04  0.70416632610E+03  0.13540611610E+04  0.25500000920E-02 0.  1.
       -2    1    3    3    0  502  0.42550243180E+03  0.10754436728E+04 -0.54826242606E+03  0.12799308968E+04  0.25500000920E-02 0. -1.
</event>
<event>
 5   0  0.1351000E-07  0.3922499E+04  0.7818609E-02  0.8020366E-01
       -1   -1    0    0    0  501  0.00000000000E+00  0.00000000000E+00  0.19248490541E+04  0.19248490541E+04  0.50400001928E-02 0. -1.
        1   -1    0    0  501    0  0.00000000000E+00  0.00000000000E+00 -0.19983381589E+04  0.19983381589E+04  0.50400001928E-02 0.  1.
    10030    2    1    2    0    0  0.00000000000E+00  0.00000000000E+00 -0.73489104835E+02  0.39231872130E+04  0.39224988540E+04 0.  0.
        4    1    3    3  502    0  0.43133351704E+03 -0.16884180029E+04  0.86324320184E+03  0.19447350446E+04  0.12699999809E+01 0. -1.
       -4    1    3    3    0  502 -0.43133351704E+03  0.16884180029E+04 -0.93673230667E+03  0.19784521684E+04  0.12699999809E+01 0.  1.
</event>
<event>
 5   0  0.4789410E-07  0.2539780E+04  0.7818609E-02  0.8388949E-01
       -2   -1    0    0    0  501  0.00000000000E+00  0.00000000000E+00  0.10824924956E+04  0.10824924957E+04  0.25500000920E-02 0. -1.
        2   -1    0    0  501    0  0.00000000000E+00  0.00000000000E+00 -0.14897297068E+04  0.14897297068E+04  0.25500000920E-02 0.  1.
    10030    2    1    2    0    0  0.00000000000E+00  0.00000000000E+00 -0.40723721113E+03  0.25722222024E+04  0.25397804851E+04 0.  0.
        1    1    3    3  502    0 -0.51382065687E+03 -0.10881178614E+04  0.20728428360E+03  0.12210564778E+04  0.50400001928E-02 0. -1.
       -1    1    3    3    0  502  0.51382065687E+03  0.10881178614E+04 -0.61452149473E+03  0.13511657246E+04  0.50400001928E-02 0.  1.
</event>
<event>
 5   0  0.4047916E-07  0.4053265E+04  0.7818609E-02  0.7993887E-01
        2   -1    0    0  501    0  0.00000000000E+00  0.00000000000E+00  0.21188111023E+04  0.21188111023E+04  0.25500000920E-02 0. -1.
       -2   -1    0    0    0  501  0.00000000000E+00  0.00000000000E+00 -0.19384641950E+04  0.19384641950E+04  0.25500000920E-02 0.  1.
    10030    2    1    2    0    0  0.00000000000E+00  0.00000000000E+00  0.18034690733E+03  0.40572752972E+04  0.40532650827E+04 0.  0.
        5    1    3    3  502    0 -0.14990964562E+04 -0.13384569787E+04  0.35208113137E+03  0.20402795108E+04  0.46999998093E+01 0. -1.
       -5    1    3    3    0  502  0.14990964562E+04  0.13384569787E+04 -0.17173422403E+03  0.20169957865E+04  0.46999998093E+01 0.  1.
</event>
<event>
 5   0  0.4047916E-07  0.3945758E+04  0.7818609E-02  0.8015579E-01
       -2   -1    0    0    0  501  0.00000000000E+00  0.00000000000E+00  0.13985084249E+04  0.13985084249E+04  0.25500000920E-02 0.  1.
        2   -1    0    0  501    0  0.00000000000E+00  0.00000000000E+00 -0.27831446209E+04  0.27831446209E+04  0.25500000920E-02 0. -1.
    10030    2    1    2    0    0  0.00000000000E+00  0.00000000000E+00 -0.13846361960E+04  0.41816530458E+04  0.39457578233E+04 0.  0.
        5    1    3    3  502    0 -0.11349884105E+04 -0.54215106591E+03  0.91845069961E+03  0.15574659700E+04  0.46999998093E+01 0.  1.
       -5    1    3    3    0  502  0.11349884105E+04  0.54215106591E+03 -0.23030868956E+04  0.26241870758E+04  0.46999998093E+01 0. -1.
</event>
<event>
 5   0  0.4149487E-07  0.3924105E+04  0.7818609E-02  0.8020034E-01
        2   -1    0    0  501    0  0.00000000000E+00  0.00000000000E+00  0.26744377519E+04  0.26744377519E+04  0.25500000920E-02 0.  1.
       -2   -1    0    0    0  501  0.00000000000E+00  0.00000000000E+00 -0.14394241637E+04  0.14394241637E+04  0.25500000920E-02 0. -1.
    10030    2    1    2    0    0  0.00000000000E+00  0.00000000000E+00  0.12350135882E+04  0.41138619156E+04  0.39241051589E+04 0.  0.
        2    1    3    3  502    0  0.52529167823E+03  0.14835313372E+04  0.18458541916E+04  0.24256904733E+04  0.25500000920E-02 0.  1.
       -2    1    3    3    0  502 -0.52529167823E+03 -0.14835313372E+04 -0.61084060346E+03  0.16881714423E+04  0.25500000920E-02 0. -1.
</event>
<event>
 5   0  0.1368865E-07  0.3953146E+04  0.7818609E-02  0.8014066E-01
        1   -1    0    0  501    0  0.00000000000E+00  0.00000000000E+00  0.16713359976E+04  0.16713359976E+04  0.50400001928E-02 0. -1.
       -1   -1    0    0    0  501  0.00000000000E+00  0.00000000000E+00 -0.23375558179E+04  0.23375558179E+04  0.50400001928E-02 0.  1.
    10030    2    1    2    0    0  0.00000000000E+00  0.00000000000E+00 -0.66621982031E+03  0.40088918155E+04  0.39531461824E+04 0.  0.
        5    1    3    3  502    0 -0.74259428719E+02  0.19694152937E+04 -0.18029306788E+03  0.19790499595E+04  0.46999998093E+01 0.  1.
       -5    1    3    3    0  502  0.74259428719E+02 -0.19694152937E+04 -0.48592675244E+03  0.20298418560E+04  0.46999998093E+01 0. -1.
</event>
<event>
 5   0  0.4077370E-07  0.2816774E+04  0.7818609E-02  0.8298080E-01
        2   -1    0    0  501    0  0.00000000000E+00  0.00000000000E+00  0.12511302282E+04  0.12511302282E+04  0.25500000920E-02 0.  1.
       -2   -1    0    0    0  501  0.00000000000E+00  0.00000000000E+00 -0.15854093620E+04  0.15854093620E+04  0.25500000920E-02 0. -1.
    10030    2    1    2    0    0  0.00000000000E+00  0.00000000000E+00 -0.33427913376E+03  0.28365395902E+04  0.28167737409E+04 0.  0.
        3    1    3    3  502    0 -0.76450779451E+03 -0.70736800007E+02  0.10218563871E+04  0.12781495800E+04  0.10100000352E+00 0.  1.
       -3    1    3    3    0  502  0.76450779451E+03  0.70736800007E+02 -0.13561355209E+04  0.15583900102E+04  0.10100000352E+00 0. -1.
</event>
<event>
 5   0  0.1351000E-07  0.3639855E+04  0.7818609E-02  0.8081423E-01
        1   -1    0    0  501    0  0.00000000000E+00  0.00000000000E+00  0.21494791232E+04  0.21494791232E+04  0.50400001928E-02 0.  1.
       -1   -1    0    0    0  501  0.00000000000E+00  0.00000000000E+00 -0.15409014880E+04  0.15409014880E+04  0.50400001928E-02 0. -1.
    10030    2    1    2    0    0  0.00000000000E+00  0.00000000000E+00  0.60857763522E+03  0.36903806113E+04  0.36398547111E+04 0.  0.
        3    1    3    3  502    0 -0.43309518328E+01 -0.18070970608E+04  0.85616867876E+02  0.18091292940E+04  0.10100000352E+00 0. -1.
       -3    1    3    3    0  502  0.43309518328E+01  0.18070970608E+04  0.52296076735E+03  0.18812513172E+04  0.10100000352E+00 0.  1.
</event>
<event>
 5   0  0.4079777E-07  0.2538393E+04  0.7818609E-02  0.8389434E-01
       -2   -1    0    0    0  501  0.00000000000E+00  0.00000000000E+00  0.77220915480E+03  0.77220915480E+03  0.25500000920E-02 0. -1.
        2   -1    0    0  501    0  0.00000000000E+00  0.00000000000E+00 -0.20860401697E+04  0.20860401697E+04  0.25500000920E-02 0.  1.
    10030    2    1    2    0    0  0.00000000000E+00  0.00000000000E+00 -0.13138310149E+04  0.28582493245E+04  0.25383926539E+04 0.  0.
        4    1    3    3  502    0 -0.78155364666E+03  0.17817016981E+03 -0.17649246807E+04  0.19384353106E+04  0.12699999809E+01 0.  1.
       -4    1    3    3    0  502  0.78155364666E+03 -0.17817016981E+03  0.45109366576E+03  0.91981401392E+03  0.12699999809E+01 0. -1.
</event>
<event>
 5   0  0.1421304E-07  0.4029760E+04  0.7818609E-02  0.7998570E-01
       -1   -1    0    0    0  501  0.00000000000E+00  0.00000000000E+00  0.20553228243E+04  0.20553228243E+04  0.50400001928E-02 0.  1.
        1   -1    0    0  501    0  0.00000000000E+00  0.00000000000E+00 -0.19752331200E+04  0.19752331200E+04  0.50400001928E-02 0. -1.
    10030    2    1    2    0    0  0.00000000000E+00  0.00000000000E+00  0.80089704222E+02  0.40305559443E+04  0.40297601491E+04 0.  0.
        2    1    3    3  502    0 -0.13212736862E+04  0.43477102981E+03 -0.14179644292E+04  0.19863064025E+04  0.25500000920E-02 0. -1.
       -2    1    3    3    0  502  0.13212736862E+04 -0.43477102981E+03  0.14980541334E+04  0.20442495418E+04  0.25500000920E-02 0.  1.
</event>
<event>
 5   0  0.1372952E-07  0.3966682E+04  0.7818609E-02  0.8011302E-01
       -1   -1    0    0    0  501  0.00000000000E+00  0.00000000000E+00  0.15961194416E+04  0.15961194416E+04  0.50400001928E-02 0.  1.
        1   -1    0    0  501    0  0.00000000000E+00  0.00000000000E+00 -0.24645029779E+04  0.24645029779E+04  0.50400001928E-02 0. -1.
    10030    2    1    2    0    0  0.00000000000E+00  0.00000000000E+00 -0.86838353627E+03  0.40606224195E+04  0.39666817956E+04 0.  0.
        1    1    3    3  502    0  0.61593295699E+03 -0.17987165284E+04  0.14388212027E+03  0.19066873424E+04  0.50400001928E-02 0.  1.
       -1    1    3    3    0  502 -0.61593295699E+03  0.17987165284E+04 -0.10122656565E+04  0.21539350771E+04  0.50400001928E-02 0. -1.
</event>
<event>
 5   0  0.4047916E-07  0.3987187E+04  0.7818609E-02  0.8007136E-01
       -2   -1    0    0    0  501  0.00000000000E+00  0.00000000000E+00  0.21653466482E+04  0.21653466482E+04  0.25500000920E-02 0.  1.
        2   -1    0    0  501    0  0.00000000000E+00  0.00000000000E+00 -0.18354639097E+04  0.18354639097E+04  0.25500000920E-02 0. -1.
    10030    2    1    2    0    0  0.00000000000E+00  0.00000000000E+00  0.32988273848E+03  0.40008105579E+04  0.39871872917E+04 0.  0.
        5    1    3    3  502    0 -0.42844326596E+02  0.18653290940E+04 -0.53967247668E+03  0.19423070657E+04  0.46999998093E+01 0. -1.
       -5    1    3    3    0  502  0.42844326596E+02 -0.18653290940E+04  0.86955521516E+03  0.20585034922E+04  0.46999998093E+01 0.  1.
</event>
<event>
 5   0  0.1368865E-07  0.3899489E+04  0.7818609E-02  0.8025135E-01
        1   -1    0    0  501    0  0.00000000000E+00  0.00000000000E+00  0.15324459210E+04  0.15324459210E+04  0.50400001928E-02 0. -1.
       -1   -1    0    0    0  501  0.00000000000E+00  0.00000000000E+00 -0.24806771883E+04  0.24806771883E+04  0.50400001928E-02 0.  1.
    10030    2    1    2    0    0  0.00000000000E+00  0.00000000000E+00 -0.94823126726E+03  0.40131231093E+04  0.38994890119E+04 0.  0.
        5    1    3    3  502    0  0.43471848777E+03 -0.97772802602E+03 -0.21515043647E+04  0.24028993691E+04  0.46999998093E+01 0.  1.
       -5    1    3    3    0  502 -0.43471848777E+03  0.97772802602E+03  0.12032730975E+04  0.16102237402E+04  0.46999998093E+01 0. -1.
</event>
<event>
 5   0  0.4077370E-07  0.4027692E+04  0.7818609E-02  0.7998983E-01
        2   -1    0    0  501    0  0.00000000000E+00  0.00000000000E+00  0.27717015800E+04  0.27717015800E+04  0.25500000920E-02 0.  1.
       -2   -1    0    0    0  501  0.00000000000E+00  0.00000000000E+00 -0.14632079676E+04  0.14632079676E+04  0.25500000920E-02 0. -1.
    10030    2    1    2    0    0  0.00000000000E+00  0.00000000000E+00  0.13084936124E+04  0.42349095476E+04  0.40276920615E+04 0.  0.
        3    1    3    3  502    0  0.57258994659E+03  0.16516135373E+04 -0.39714319032E+03  0.17925984624E+04  0.10100000352E+00 0. -1.
       -3    1    3    3    0  502 -0.57258994659E+03 -0.16516135373E+04  0.17056368027E+04  0.24423110852E+04  0.10100000352E+00 0.  1.
</event>
<event>
 5   0  0.4301754E-07  0.3866619E+04  0.7818609E-02  0.8032008E-01
        2   -1    0    0  501    0  0.00000000000E+00  0.00000000000E+00  0.22268846522E+04  0.22268846522E+04  0.25500000920E-02 0. -1.
       -2   -1    0    0    0  501  0.00000000000E+00  0.00000000000E+00 -0.16784368788E+04  0.16784368788E+04  0.25500000920E-02 0.  1.
    10030    2    1    2    0    0  0.00000000000E+00  0.00000000000E+00  0.54844777342E+03  0.39053215310E+04  0.38666188460E+04 0.  0.
        1    1    3    3  502    0 -0.42371806971E+03 -0.12363833689E+04  0.17130901848E+04  0.21547294073E+04  0.50400001928E-02 0. -1.
       -1    1    3    3    0  502  0.42371806971E+03  0.12363833689E+04 -0.11646424113E+04  0.17505921237E+04  0.50400001928E-02 0.  1.
</event>
<event>
 5   0  0.1421304E-07  0.3966822E+04  0.7818609E-02  0.8011273E-01
       -1   -1    0    0    0  501  0.00000000000E+00  0.00000000000E+00  0.20280626096E+04  0.20280626097E+04  0.50400001928E-02 0. -1.
        1   -1    0    0  501    0  0.00000000000E+00  0.00000000000E+00 -0.19397420047E+04  0.19397420047E+04  0.50400001928E-02 0.  1.
    10030    2    1    2    0    0  0.00000000000E+00  0.00000000000E+00  0.88320604960E+02  0.39678046144E+04  0.39668215146E+04 0.  0.
        2    1    3    3  502    0 -0.10137633324E+04 -0.15386761875E+03  0.17423816743E+04  0.20217035483E+04  0.25500000920E-02 0. -1.
       -2    1    3    3    0  502  0.10137633324E+04  0.15386761875E+03 -0.16540610693E+04  0.19461010661E+04  0.25500000920E-02 0.  1.
</event>
<event>
 5   0  0.1421304E-07  0.4049691E+04  0.7818609E-02  0.7994597E-01
       -1   -1    0    0    0  501  0.00000000000E+00  0.00000000000E+00  0.19371309362E+04  0.19371309362E+04  0.50400001928E-02 0. -1.
        1   -1    0    0  501    0  0.00000000000E+00  0.00000000000E+00 -0.21165319533E+04  0.21165319534E+04  0.50400001928E-02 0.  1.
    10030    2    1    2    0    0  0.00000000000E+00  0.00000000000E+00 -0.17940101715E+03  0.40536628896E+04  0.40496911113E+04 0.  0.
        2    1    3    3  502    0  0.13024072395E+04  0.14886684212E+04  0.34385387445E+03  0.20076438361E+04  0.25500000920E-02 0. -1.
       -2    1    3    3    0  502 -0.13024072395E+04 -0.14886684212E+04 -0.52325489160E+03  0.20460190535E+04  0.25500000920E-02 0.  1.
</event>
<event>
 5   0  0.4077370E-07  0.3993133E+04  0.7818609E-02  0.8005933E-01
       -2   -1    0    0    0  501  0.00000000000E+00  0.00000000000E+00  0.25552780816E+04  0.25552780816E+04  0.25500000920E-02 0. -1.
        2   -1    0    0  501    0  0.00000000000E+00  0.00000000000E+00 -0.15600173222E+04  0.15600173222E+04  0.25500000920E-02 0.  1.
    10030    2    1    2    0    0  0.00000000000E+00  0.00000000000E+00  0.99526075947E+03  0.41152954038E+04  0.39931331409E+04 0.  0.
        3    1    3    3  502    0 -0.17245495425E+03 -0.39638961050E+03 -0.15112101179E+04  0.15718210666E+04  0.10100000352E+00 0.  1.
       -3    1    3    3    0  502  0.17245495425E+03  0.39638961050E+03  0.25064708774E+04  0.25434743372E+04  0.10100000352E+00 0. -1.
</event>
<event>
 5   0  0.4077370E-07  0.3906326E+04  0.7818609E-02  0.8023715E-01
       -2   -1    0    0    0  501  0.00000000000E+00  0.00000000000E+00  0.16250529357E+04  0.16250529357E+04  0.25500000920E-02 0. -1.
        2   -1    0    0  501    0  0.00000000000E+00  0.00000000000E+00 -0.23475210441E+04  0.23475210441E+04  0.25500000920E-02 0.  1.
    10030    2    1    2    0    0  0.00000000000E+00  0.00000000000E+00 -0.72246810843E+03  0.39725739798E+04  0.39063261330E+04 0.  0.
        3    1    3    3  502    0  0.18475490734E+04 -0.47623132078E+03  0.63718719175E+02  0.19090033879E+04  0.10100000352E+00 0. -1.
       -3    1    3    3    0  502 -0.18475490734E+04  0.47623132078E+03 -0.78618682761E+03  0.20635705919E+04  0.10100000352E+00 0.  1.
</event>
<event>
 5   0  0.1351000E-07  0.2549051E+04  0.7818609E-02  0.8385716E-01
        1   -1    0    0  501    0  0.00000000000E+00  0.00000000000E+00  0.21921182508E+04  0.21921182508E+04  0.50400001928E-02 0. -1.
       -1   -1    0    0    0  501  0.00000000000E+00  0.00000000000E+00 -0.74102548745E+03  0.74102548747E+03  0.50400001928E-02 0.  1.
    10030    2    1    2    0    0  0.00000000000E+00  0.00000000000E+00  0.14510927634E+04  0.29331437383E+04  0.25490511924E+04 0.  0.
        4    1    3    3  502    0 -0.41054619809E+03 -0.87818772647E+03  0.16776621005E+04  0.19376051197E+04  0.12699999809E+01 0. -1.
       -4    1    3    3    0  502  0.41054619809E+03  0.87818772647E+03 -0.22656933709E+03  0.99553861859E+03  0.12699999809E+01 0.  1.
</event>
<event>
 5   0  0.1351000E-07  0.3989612E+04  0.7818609E-02  0.8006645E-01
       -1   -1    0    0    0  501  0.00000000000E+00  0.00000000000E+00  0.13830701215E+04  0.13830701215E+04  0.50400001928E-02 0. -1.
        1   -1    0    0  501    0  0.00000000000E+00  0.00000000000E+00 -0.28771139275E+04  0.28771139275E+04  0.50400001928E-02 0.  1.
    10030    2    1    2    0    0  0.00000000000E+00  0.00000000000E+00 -0.14940438060E+04  0.42601840490E+04  0.39896116650E+04 0.  0.
        4    1    3    3  502    0 -0.36353214898E+03 -0.13285538391E+04 -0.22878068922E+04  0.26704443293E+04  0.12699999809E+01 0.  1.
       -4    1    3    3    0  502  0.36353214898E+03  0.13285538391E+04  0.79376308624E+03  0.15897397198E+04  0.12699999809E+01 0. -1.
</event>
<event>
 5   0  0.1372952E-07  0.2494735E+04  0.7818609E-02  0.8404864E-01
       -1   -1    0    0    0  501  0.00000000000E+00  0.00000000000E+00  0.12398596502E+04  0.12398596502E+04  0.50400001928E-02 0. -1.
        1   -1    0    0  501    0  0.00000000000E+00  0.00000000000E+00 -0.12549204811E+04  0.12549204811E+04  0.50400001928E-02 0.  1.
    10030    2    1    2    0    0  0.00000000000E+00  0.00000000000E+00 -0.15060830894E+02  0.24947801314E+04  0.24947346703E+04 0.  0.
        1    1    3    3  502    0 -0.30845798590E+03  0.10325035511E+04 -0.63580562784E+03  0.12511829237E+04  0.50400001928E-02 0.  1.
       -1    1    3    3    0  502  0.30845798590E+03 -0.10325035511E+04  0.62074479694E+03  0.12435972077E+04  0.50400001928E-02 0. -1.
</event>
<event>
 5   0  0.1372952E-07  0.2574485E+04  0.7818609E-02  0.8376920E-01
        1   -1    0    0  501    0  0.00000000000E+00  0.00000000000E+00  0.87185837506E+03  0.87185837507E+03  0.50400001928E-02 0. -1.
       -1   -1    0    0    0  501  0.00000000000E+00  0.00000000000E+00 -0.19005305400E+04  0.19005305400E+04  0.50400001928E-02 0.  1.
    10030    2    1    2    0    0  0.00000000000E+00  0.00000000000E+00 -0.10286721649E+04  0.27723889151E+04  0.25744851667E+04 0.  0.
        1    1    3    3  502    0  0.97506165069E+03 -0.12305523564E+03 -0.14095688769E+04  0.17183632423E+04  0.50400001928E-02 0.  1.
       -1    1    3    3    0  502 -0.97506165069E+03  0.12305523564E+03  0.38089671198E+03  0.10540256728E+04  0.50400001928E-02 0. -1.
</event>
<event>
 5   0  0.1421304E-07  0.2741800E+04  0.7818609E-02  0.8321568E-01
        1   -1    0    0  501    0  0.00000000000E+00  0.00000000000E+00  0.15248237352E+04  0.15248237352E+04  0.50400001928E-02 0.  1.
       -1   -1    0    0    0  501  0.00000000000E+00  0.00000000000E+00 -0.12325138989E+04  0.12325138989E+04  0.50400001928E-02 0. -1.
    10030    2    1    2    0    0  0.00000000000E+00  0.00000000000E+00  0.29230983627E+03  0.27573376341E+04  0.27417997352E+04 0.  0.
        2    1    3    3  502    0 -0.10107316428E+04  0.71529178606E+03 -0.44552068191E+03  0.13159443267E+04  0.25500000920E-02 0. -1.
       -2    1    3    3    0  502  0.10107316428E+04 -0.71529178606E+03  0.73783051818E+03  0.14413933074E+04  0.25500000920E-02 0.  1.
</event>
<event>
 5   0  0.1368865E-07  0.2661467E+04  0.7818609E-02  0.8347617E-01
        1   -1    0    0  501    0  0.00000000000E+00  0.00000000000E+00  0.15235306305E+04  0.15235306305E+04  0.50400001928E-02 0. -1.
       -1   -1    0    0    0  501  0.00000000000E+00  0.00000000000E+00 -0.11623339419E+04  0.11623339419E+04  0.50400001928E-02 0.  1.
    10030    2    1    2    0    0  0.00000000000E+00  0.00000000000E+00  0.36119668861E+03  0.26858645725E+04  0.26614667861E+04 0.  0.
        5    1    3    3  502    0 -0.12837417004E+03 -0.51842855026E+03 -0.10494190557E+04  0.11775188040E+04  0.46999998093E+01 0.  1.
       -5    1    3    3    0  502  0.12837417004E+03  0.51842855026E+03  0.14106157443E+04  0.15083457685E+04  0.46999998093E+01 0. -1.
</event>
<event>
 5   0  0.1421304E-07  0.2826351E+04  0.7818609E-02  0.8295134E-01
       -1   -1    0    0    0  501  0.00000000000E+00  0.00000000000E+00  0.13151312778E+04  0.13151312778E+04  0.50400001928E-02 0. -1.
        1   -1    0    0  501    0  0.00000000000E+00  0.00000000000E+00 -0.15185290034E+04  0.15185290034E+04  0.50400001928E-02 0.  1.
    10030    2    1    2    0    0  0.00000000000E+00  0.00000000000E+00 -0.20339772564E+03  0.28336602812E+04  0.28263509964E+04 0.  0.
        2    1    3    3  502    0 -0.13582399666E+04 -0.20187240273E+02  0.28897751773E+03  0.13887877222E+04  0.25500000920E-02 0. -1.
       -2    1    3    3    0  502  0.13582399666E+04  0.20187240273E+02 -0.49237524337E+03  0.14448725590E+04  0.25500000920E-02 0.  1.
</event>
<event>
 5   0  0.4301754E-07  0.3977365E+04  0.7818609E-02  0.8009128E-01
        2   -1    0    0  501    0  0.00000000000E+00  0.00000000000E+00  0.30150009401E+04  0.30150009401E+04  0.25500000920E-02 0. -1.
       -2   -1    0    0    0  501  0.00000000000E+00  0.00000000000E+00 -0.13117267243E+04  0.13117267243E+04  0.25500000920E-02 0.  1.
    10030    2    1    2    0    0  0.00000000000E+00  0.00000000000E+00  0.17032742159E+04  0.43267276644E+04  0.39773646083E+04 0.  0.
        1    1    3    3  502    0 -0.11904101426E+04 -0.15105912962E+04  0.14019313903E+04  0.23799945368E+04  0.50400001928E-02 0. -1.
       -1    1    3    3    0  502  0.11904101426E+04  0.15105912962E+04  0.30134282551E+03  0.19467331276E+04  0.50400001928E-02 0.  1.
</event>
<event>
 5   0  0.4301754E-07  0.3812421E+04  0.7818609E-02  0.8043495E-01
        2   -1    0    0  501    0  0.00000000000E+00  0.00000000000E+00  0.24952501338E+04  0.24952501338E+04  0.25500000920E-02 0.  1.
       -2   -1    0    0    0  501  0.00000000000E+00  0.00000000000E+00 -0.14562222206E+04  0.14562222206E+04  0.25500000920E-02 0. -1.
    10030    2    1    2    0    0  0.00000000000E+00  0.00000000000E+00  0.10390279131E+04  0.39514723544E+04  0.38124211157E+04 0.  0.
        1    1    3    3  502    0  0.62583889234E+03 -0.14844198567E+04  0.15757315538E+04  0.22534654557E+04  0.50400001928E-02 0.  1.
       -1    1    3    3    0  502 -0.62583889234E+03  0.14844198567E+04 -0.53670364070E+03  0.16980068987E+04  0.50400001928E-02 0. -1.
</event>
<event>
 5   0  0.4149487E-07  0.3982274E+04  0.7818609E-02  0.8008132E-01
       -2   -1    0    0    0  501  0.00000000000E+00  0.00000000000E+00  0.20616436025E+04  0.20616436025E+04  0.25500000920E-02 0.  1.
        2   -1    0    0  501    0  0.00000000000E+00  0.00000000000E+00 -0.19230420966E+04  0.19230420966E+04  0.25500000920E-02 0. -1.
    10030    2    1    2    0    0  0.00000000000E+00  0.00000000000E+00  0.13860150586E+03  0.39846856991E+04  0.39822744435E+04 0.  0.
        2    1    3    3  502    0  0.80133482068E+03 -0.14504525713E+04  0.11739063556E+04  0.20307649514E+04  0.25500000920E-02 0.  1.
       -2    1    3    3    0  502 -0.80133482068E+03  0.14504525713E+04 -0.10353048497E+04  0.19539207477E+04  0.25500000920E-02 0. -1.
</event>
<event>
 5   0  0.1351000E-07  0.2748028E+04  0.7818609E-02  0.8319588E-01
        1   -1    0    0  501    0  0.00000000000E+00  0.00000000000E+00  0.15878840946E+04  0.15878840946E+04  0.50400001928E-02 0. -1.
       -1   -1    0    0    0  501  0.00000000000E+00  0.00000000000E+00 -0.11889497066E+04  0.11889497066E+04  0.50400001928E-02 0.  1.
    10030    2    1    2    0    0  0.00000000000E+00  0.00000000000E+00  0.39893438803E+03  0.27768338012E+04  0.27480278953E+04 0.  0.
        4    1    3    3  502    0 -0.33397950232E+03 -0.18494178261E+03 -0.11342803566E+04  0.11968037898E+04  0.12699999809E+01 0.  1.
       -4    1    3    3    0  502  0.33397950232E+03  0.18494178261E+03  0.15332147446E+04  0.15800300114E+04  0.12699999809E+01 0. -1.
</event>
<event>
 5   0  0.1351000E-07  0.3999453E+04  0.7818609E-02  0.8004657E-01
       -1   -1    0    0    0  501  0.00000000000E+00  0.00000000000E+00  0.14713034461E+04  0.14713034461E+04  0.50400001928E-02 0. -1.
        1   -1    0    0  501    0  0.00000000000E+00  0.00000000000E+00 -0.27179349410E+04  0.27179349410E+04  0.50400001928E-02 0.  1.
    10030    2    1    2    0    0  0.00000000000E+00  0.00000000000E+00 -0.12466314949E+04  0.41892383871E+04  0.39994534851E+04 0.  0.
        4    1    3    3  502    0  0.17445763261E+04  0.15441008448E+03  0.38763425353E+03  0.17937811904E+04  0.12699999809E+01 0. -1.
       -4    1    3    3    0  502 -0.17445763261E+04 -0.15441008448E+03 -0.16342657485E+04  0.23954571967E+04  0.12699999809E+01 0.  1.
</event>
<event>
 5   0  0.1372952E-07  0.4041957E+04  0.7818609E-02  0.7996136E-01
       -1   -1    0    0    0  501  0.00000000000E+00  0.00000000000E+00  0.20459175682E+04  0.20459175683E+04  0.50400001928E-02 0.  1.
        1   -1    0    0  501    0  0.00000000000E+00  0.00000000000E+00 -0.19963435671E+04  0.19963435671E+04  0.50400001928E-02 0. -1.
    10030    2    1    2    0    0  0.00000000000E+00  0.00000000000E+00  0.49574001167E+02  0.40422611353E+04  0.40419571379E+04 0.  0.
        1    1    3    3  502    0  0.16963788053E+04 -0.46061867653E+03  0.10221000691E+04  0.20333615437E+04  0.50400001928E-02 0.  1.
       -1    1    3    3    0  502 -0.16963788053E+04  0.46061867653E+03 -0.97252606792E+03  0.20088995916E+04  0.50400001928E-02 0. -1.
</event>
<event>
 5   0  0.1421304E-07  0.4025051E+04  0.7818609E-02  0.7999512E-01
       -1   -1    0    0    0  501  0.00000000000E+00  0.00000000000E+00  0.25748423736E+04  0.25748423736E+04  0.50400001928E-02 0.  1.
        1   -1    0    0  501    0  0.00000000000E+00  0.00000000000E+00 -0.15730122581E+04  0.15730122581E+04  0.50400001928E-02 0. -1.
    10030    2    1    2    0    0  0.00000000000E+00  0.00000000000E+00  0.10018301154E+04  0.41478546317E+04  0.40250508650E+04 0.  0.
        2    1    3    3  502    0  0.89913924322E+02 -0.43626445837E+03  0.25234064991E+04  0.25624190819E+04  0.25500000920E-02 0.  1.
       -2    1    3    3    0  502 -0.89913924322E+02  0.43626445837E+03 -0.15215763837E+04  0.15854355499E+04  0.25500000920E-02 0. -1.
</event>
<event>
 5   0  0.1958208E-07  0.2492224E+04  0.7818609E-02  0.8405761E-01
       -1   -1    0    0    0  501  0.00000000000E+00  0.00000000000E+00  0.12496778722E+04  0.12496778722E+04  0.50400001928E-02 0. -1.
        1   -1    0    0  501    0  0.00000000000E+00  0.00000000000E+00 -0.12425563350E+04  0.12425563350E+04  0.50400001928E-02 0.  1.
    10030    2    1    2    0    0  0.00000000000E+00  0.00000000000E+00  0.71215372245E+01  0.24922342073E+04  0.24922240324E+04 0.  0.
        2    1    3    3  502    0  0.42601409171E+03  0.44590374060E+02 -0.11666229905E+04  0.12427733139E+04  0.25500000920E-02 0.  1.
       -2    1    3    3    0  502 -0.42601409171E+03 -0.44590374060E+02  0.11737445277E+04  0.12494608934E+04  0.25500000920E-02 0. -1.
</event>
<event>
 5   0  0.4077370E-07  0.4111981E+04  0.7818609E-02  0.7982330E-01
       -2   -1    0    0    0  501  0.00000000000E+00  0.00000000000E+00  0.22957183414E+04  0.22957183414E+04  0.25500000920E-02 0.  1.
        2   -1    0    0  501    0  0.00000000000E+00  0.00000000000E+00 -0.18412956392E+04  0.18412956392E+04  0.25500000920E-02 0. -1.
    10030    2    1    2    0    0  0.00000000000E+00  0.00000000000E+00  0.45442270223E+03  0.41370139806E+04  0.41119806278E+04 0.  0.
        3    1    3    3  502    0 -0.57323292880E+03  0.52441114011E+03 -0.16879247786E+04  0.18581423797E+04  0.10100000352E+00 0. -1.
       -3    1    3    3    0  502  0.57323292880E+03 -0.52441114011E+03  0.21423474809E+04  0.22788716009E+04  0.10100000352E+00 0.  1.
</event>
<event>
 5   0  0.4301754E-07  0.4015840E+04  0.7818609E-02  0.8001359E-01
       -2   -1    0    0    0  501  0.00000000000E+00  0.00000000000E+00  0.16091576168E+04  0.16091576168E+04  0.25500000920E-02 0.  1.
        2   -1    0    0  501    0  0.00000000000E+00  0.00000000000E+00 -0.25054987488E+04  0.25054987488E+04  0.25500000920E-02 0. -1.
    10030    2    1    2    0    0  0.00000000000E+00  0.00000000000E+00 -0.89634113201E+03  0.41146563655E+04  0.40158398351E+04 0.  0.
        1    1    3    3  502    0  0.16854188202E+04  0.73637115460E+03 -0.12735122871E+04  0.22371215037E+04  0.50400001928E-02 0. -1.
       -1    1    3    3    0  502 -0.16854188202E+04 -0.73637115460E+03  0.37717115513E+03  0.18775348618E+04  0.50400001928E-02 0.  1.
</event>
<event>
 5   0  0.4077370E-07  0.3824090E+04  0.7818609E-02  0.8041005E-01
        2   -1    0    0  501    0  0.00000000000E+00  0.00000000000E+00  0.23468828406E+04  0.23468828406E+04  0.25500000920E-02 0.  1.
       -2   -1    0    0    0  501  0.00000000000E+00  0.00000000000E+00 -0.15577750241E+04  0.15577750241E+04  0.25500000920E-02 0. -1.
    10030    2    1    2    0    0  0.00000000000E+00  0.00000000000E+00  0.78910781653E+03  0.39046578647E+04  0.38240896818E+04 0.  0.
        3    1    3    3  502    0  0.69753148856E+03  0.15805010689E+04 -0.44208807325E+03  0.17832486313E+04  0.10100000352E+00 0. -1.
       -3    1    3    3    0  502 -0.69753148856E+03 -0.15805010689E+04  0.12311958898E+04  0.21214092334E+04  0.10100000352E+00 0.  1.
</event>
<event>
 5   0  0.1372952E-07  0.4024058E+04  0.7818609E-02  0.7999711E-01
       -1   -1    0    0    0  501  0.00000000000E+00  0.00000000000E+00  0.33274673606E+04  0.33274673606E+04  0.50400001928E-02 0.  1.
        1   -1    0    0  501    0  0.00000000000E+00  0.00000000000E+00 -0.12166192108E+04  0.12166192108E+04  0.50400001928E-02 0. -1.
    10030    2    1    2    0    0  0.00000000000E+00  0.00000000000E+00  0.21108481498E+04  0.45440865713E+04  0.40240580086E+04 0.  0.
        1    1    3    3  502    0  0.14799403887E+04 -0.89417977031E+03 -0.10635521497E+03  0.17323661413E+04  0.50400001928E-02 0. -1.
       -1    1    3    3    0  502 -0.14799403887E+04  0.89417977031E+03  0.22172033648E+04  0.28117204300E+04  0.50400001928E-02 0.  1.
</event>
<event>
 5   0  0.4149487E-07  0.3661818E+04  0.7818609E-02  0.8076476E-01
       -2   -1    0    0    0  501  0.00000000000E+00  0.00000000000E+00  0.13764805970E+04  0.13764805970E+04  0.25500000920E-02 0. -1.
        2   -1    0    0  501    0  0.00000000000E+00  0.00000000000E+00 -0.24353618832E+04  0.24353618832E+04  0.25500000920E-02 0.  1.
    10030    2    1    2    0    0  0.00000000000E+00  0.00000000000E+00 -0.10588812861E+04  0.38118424802E+04  0.36618183346E+04 0.  0.
        2    1    3    3  502    0 -0.35442544788E+03  0.55116837287E+03 -0.23091107813E+04  0.24002909352E+04  0.25500000920E-02 0.  1.
       -2    1    3    3    0  502  0.35442544788E+03 -0.55116837287E+03  0.12502294952E+04  0.14115515449E+04  0.25500000920E-02 0. -1.
</event>
<event>
 5   0  0.4149487E-07  0.4116726E+04  0.7818609E-02  0.7981404E-01
        2   -1    0    0  501    0  0.00000000000E+00  0.00000000000E+00  0.16771330289E+04  0.16771330289E+04  0.25500000920E-02 0. -1.
       -2   -1    0    0    0  501  0.00000000000E+00  0.00000000000E+00 -0.25262507333E+04  0.25262507333E+04  0.25500000920E-02 0.  1.
    10030    2    1    2    0    0  0.00000000000E+00  0.00000000000E+00 -0.84911770439E+03  0.42033837622E+04  0.41167261479E+04 0.  0.
        2    1    3    3  502    0  0.13078721572E+04 -0.84745871506E+03  0.94841862948E+03  0.18243392639E+04  0.25500000920E-02 0. -1.
       -2    1    3    3    0  502 -0.13078721572E+04  0.84745871506E+03 -0.17975363339E+04  0.23790444983E+04  0.25500000920E-02 0.  1.
</event>
<event>
 5   0  0.1372952E-07  0.3732512E+04  0.7818609E-02  0.8060795E-01
       -1   -1    0    0    0  501  0.00000000000E+00  0.00000000000E+00  0.17835894776E+04  0.17835894777E+04  0.50400001928E-02 0. -1.
        1   -1    0    0  501    0  0.00000000000E+00  0.00000000000E+00 -0.19527542693E+04  0.19527542693E+04  0.50400001928E-02 0.  1.
    10030    2    1    2    0    0  0.00000000000E+00  0.00000000000E+00 -0.16916479164E+03  0.37363437469E+04  0.37325122731E+04 0.  0.
        1    1    3    3  502    0  0.21623049006E+03  0.13405279328E+04 -0.13661861301E+04  0.19261971097E+04  0.50400001928E-02 0.  1.
       -1    1    3    3    0  502 -0.21623049006E+03 -0.13405279328E+04  0.11970213385E+04  0.18101466372E+04  0.50400001928E-02 0. -1.
</event>
<event>
 5   0  0.1421304E-07  0.3432777E+04  0.7818609E-02  0.8129908E-01
        1   -1    0    0  501    0  0.00000000000E+00  0.00000000000E+00  0.17135742882E+04  0.17135742883E+04  0.50400001928E-02 0. -1.
       -1   -1    0    0    0  501  0.00000000000E+00  0.00000000000E+00 -0.17192068578E+04  0.17192068578E+04  0.50400001928E-02 0.  1.
    10030    2    1    2    0    0  0.00000000000E+00  0.00000000000E+00 -0.56325695236E+01  0.34327811460E+04  0.34327765250E+04 0.  0.
        2    1    3    3  502    0 -0.12631862220E+04  0.11529868960E+04  0.14199569777E+03  0.17161529629E+04  0.25500000920E-02 0. -1.
       -2    1    3    3    0  502  0.12631862220E+04 -0.11529868960E+04 -0.14762826729E+03  0.17166281831E+04  0.25500000920E-02 0.  1.
</event>
<event>
 5   0  0.1368865E-07  0.3402833E+04  0.7818609E-02  0.8137211E-01
        1   -1    0    0  501    0  0.00000000000E+00  0.00000000000E+00  0.22767317921E+04  0.22767317921E+04  0.50400001928E-02 0. -1.
       -1   -1    0    0    0  501  0.00000000000E+00  0.00000000000E+00 -0.12714795090E+04  0.12714795090E+04  0.50400001928E-02 0.  1.
    10030    2    1    2    0    0  0.00000000000E+00  0.00000000000E+00  0.10052522831E+04  0.35482113011E+04  0.34028328323E+04 0.  0.
        5    1    3    3  502    0  0.19732127889E+03  0.88149740898E+03 -0.10007842587E+04  0.13481708318E+04  0.46999998093E+01 0.  1.
       -5    1    3    3    0  502 -0.19732127889E+03 -0.88149740898E+03  0.20060365419E+04  0.22000404693E+04  0.46999998093E+01 0. -1.
</event>
<event>
 5   0  0.4079777E-07  0.3586700E+04  0.7818609E-02  0.8093545E-01
       -2   -1    0    0    0  501  0.00000000000E+00  0.00000000000E+00  0.12018770072E+04  0.12018770072E+04  0.25500000920E-02 0. -1.
        2   -1    0    0  501    0  0.00000000000E+00  0.00000000000E+00 -0.26759005833E+04  0.26759005833E+04  0.25500000920E-02 0.  1.
    10030    2    1    2    0    0  0.00000000000E+00  0.00000000000E+00 -0.14740235761E+04  0.38777775906E+04  0.35866995328E+04 0.  0.
        4    1    3    3  502    0 -0.82850060601E+03  0.26518913199E+02 -0.24563489485E+04  0.25924444597E+04  0.12699999809E+01 0.  1.
       -4    1    3    3    0  502  0.82850060601E+03 -0.26518913199E+02  0.98232537245E+03  0.12853331308E+04  0.12699999809E+01 0. -1.
</event>
<event>
 5   0  0.1368865E-07  0.2696323E+04  0.7818609E-02  0.8336199E-01
       -1   -1    0    0    0  501  0.00000000000E+00  0.00000000000E+00  0.69279153580E+03  0.69279153582E+03  0.50400001928E-02 0. -1.
        1   -1    0    0  501    0  0.00000000000E+00  0.00000000000E+00 -0.26235004353E+04  0.26235004353E+04  0.50400001928E-02 0.  1.
    10030    2    1    2    0    0  0.00000000000E+00  0.00000000000E+00 -0.19307088995E+04  0.33162919711E+04  0.26963226037E+04 0.  0.
        5    1    3    3  502    0 -0.88417880121E+03  0.15039669143E+03  0.27262241242E+03  0.93740940205E+03  0.46999998093E+01 0. -1.
       -5    1    3    3    0  502  0.88417880121E+03 -0.15039669143E+03 -0.22033313120E+04  0.23788825691E+04  0.46999998093E+01 0.  1.
</event>
<event>
 5   0  0.4301754E-07  0.4036535E+04  0.7818609E-02  0.7997217E-01
        2   -1    0    0  501    0  0.00000000000E+00  0.00000000000E+00  0.15655231561E+04  0.15655231561E+04  0.25500000920E-02 0. -1.
       -2   -1    0    0    0  501  0.00000000000E+00  0.00000000000E+00 -0.26019435429E+04  0.26019435429E+04  0.25500000920E-02 0.  1.
    10030    2    1    2    0    0  0.00000000000E+00  0.00000000000E+00 -0.10364203868E+04  0.41674666990E+04  0.40365345867E+04 0.  0.
        1    1    3    3  502    0 -0.41460678043E+03  0.30380280648E+03  0.14968164856E+04  0.15826100339E+04  0.50400001928E-02 0. -1.
       -1    1    3    3    0  502  0.41460678043E+03 -0.30380280648E+03 -0.25332368724E+04  0.25848566652E+04  0.50400001928E-02 0.  1.
</event>
<event>
 5   0  0.1368865E-07  0.2640637E+04  0.7818609E-02  0.8354527E-01
       -1   -1    0    0    0  501  0.00000000000E+00  0.00000000000E+00  0.13285439872E+04  0.13285439872E+04  0.50400001928E-02 0. -1.
        1   -1    0    0  501    0  0.00000000000E+00  0.00000000000E+00 -0.13121437040E+04  0.13121437041E+04  0.50400001928E-02 0.  1.
    10030    2    1    2    0    0  0.00000000000E+00  0.00000000000E+00  0.16400283174E+02  0.26406876913E+04  0.26406367629E+04 0.  0.
        5    1    3    3  502    0  0.56420323055E+02  0.11023111126E+04 -0.71634505742E+03  0.13158439775E+04  0.46999998093E+01 0.  1.
       -5    1    3    3    0  502 -0.56420323055E+02 -0.11023111126E+04  0.73274534059E+03  0.13248437138E+04  0.46999998093E+01 0. -1.
</event>
<event>
 5   0  0.1351000E-07  0.4040559E+04  0.7818609E-02  0.7996414E-01
        1   -1    0    0  501    0  0.00000000000E+00  0.00000000000E+00  0.12256339821E+04  0.12256339821E+04  0.50400001928E-02 0. -1.
       -1   -1    0    0    0  501  0.00000000000E+00  0.00000000000E+00 -0.33301363705E+04  0.33301363705E+04  0.50400001928E-02 0.  1.
    10030    2    1    2    0    0  0.00000000000E+00  0.00000000000E+00 -0.21045023884E+04  0.45557703526E+04  0.40405585261E+04 0.  0.
        3    1    3    3  502    0 -0.80125692598E+03 -0.14027312738E+04  0.31564695714E+03  0.16459953522E+04  0.10100000352E+00 0. -1.
       -3    1    3    3    0  502  0.80125692598E+03  0.14027312738E+04 -0.24201493456E+04  0.29097750004E+04  0.10100000352E+00 0.  1.
</event>
<event>
 5   0  0.1351000E-07  0.3086761E+04  0.7818609E-02  0.8219381E-01
        1   -1    0    0  501    0  0.00000000000E+00  0.00000000000E+00  0.10659255075E+04  0.10659255075E+04  0.50400001928E-02 0. -1.
       -1   -1    0    0    0  501  0.00000000000E+00  0.00000000000E+00 -0.22346994127E+04  0.22346994127E+04  0.50400001928E-02 0.  1.
    10030    2    1    2    0    0  0.00000000000E+00  0.00000000000E+00 -0.11687739052E+04  0.33006249202E+04  0.30867608301E+04 0.  0.
        3    1    3    3  502    0  0.12913318314E+04  0.13946288330E+03  0.30706230010E+03  0.13346441701E+04  0.10100000352E+00 0. -1.
       -3    1    3    3    0  502 -0.12913318314E+04 -0.13946288330E+03 -0.14758362053E+04  0.19659807501E+04  0.10100000352E+00 0.  1.
</event>
<event>
 5   0  0.1368865E-07  0.3923004E+04  0.7818609E-02  0.8020262E-01
        1   -1    0    0  501    0  0.00000000000E+00  0.00000000000E+00  0.20554771084E+04  0.20554771084E+04  0.50400001928E-02 0.  1.
       -1   -1    0    0    0  501  0.00000000000E+00  0.00000000000E+00 -0.18718237288E+04  0.18718237288E+04  0.50400001928E-02 0. -1.
    10030    2    1    2    0    0  0.00000000000E+00  0.00000000000E+00  0.18365337967E+03  0.39273008372E+04  0.39230043719E+04 0.  0.
        5    1    3    3  502    0  0.17082121201E+04 -0.96338443630E+03  0.54765663489E+02  0.19619173243E+04  0.46999998093E+01 0. -1.
       -5    1    3    3    0  502 -0.17082121201E+04  0.96338443630E+03  0.12888771618E+03  0.19653835129E+04  0.46999998093E+01 0.  1.
</event>
<event>
 5   0  0.4079777E-07  0.3964925E+04  0.7818609E-02  0.8011660E-01
        2   -1    0    0  501    0  0.00000000000E+00  0.00000000000E+00  0.19961102938E+04  0.19961102938E+04  0.25500000920E-02 0. -1.
       -2   -1    0    0    0  501  0.00000000000E+00  0.00000000000E+00 -0.19689078268E+04  0.19689078268E+04  0.25500000920E-02 0.  1.
    10030    2    1    2    0    0  0.00000000000E+00  0.00000000000E+00  0.27202466942E+02  0.39650181206E+04  0.39649248066E+04 0.  0.
        4    1    3    3  502    0  0.17019216282E+04 -0.88119281696E+03 -0.49347830780E+03  0.19790301823E+04  0.12699999809E+01 0.  1.
       -4    1    3    3    0  502 -0.17019216282E+04  0.88119281696E+03  0.52068077474E+03  0.19859879383E+04  0.12699999809E+01 0. -1.
</event>
<event>
 5   0  0.4077370E-07  0.3992279E+04  0.7818609E-02  0.8006106E-01
       -2   -1    0    0    0  501  0.00000000000E+00  0.00000000000E+00  0.24128928560E+04  0.24128928560E+04  0.25500000920E-02 0. -1.
        2   -1    0    0  501    0  0.00000000000E+00  0.00000000000E+00 -0.16513679309E+04  0.16513679309E+04  0.25500000920E-02 0.  1.
    10030    2    1    2    0    0  0.00000000000E+00  0.00000000000E+00  0.76152492511E+03  0.40642607869E+04  0.39922794907E+04 0.  0.
        3    1    3    3  502    0 -0.49975143736E+03 -0.97212908013E+03 -0.13196183105E+04  0.17135282149E+04  0.10100000352E+00 0.  1.
       -3    1    3    3    0  502  0.49975143736E+03  0.97212908013E+03  0.20811432356E+04  0.23507325720E+04  0.10100000352E+00 0. -1.
</event>
<event>
 5   0  0.4149487E-07  0.3459589E+04  0.7818609E-02  0.8123434E-01
        2   -1    0    0  501    0  0.00000000000E+00  0.00000000000E+00  0.13663929565E+04  0.13663929565E+04  0.25500000920E-02 0.  1.
       -2   -1    0    0    0  501  0.00000000000E+00  0.00000000000E+00 -0.21898445766E+04  0.21898445766E+04  0.25500000920E-02 0. -1.
    10030    2    1    2    0    0  0.00000000000E+00  0.00000000000E+00 -0.82345162016E+03  0.35562375331E+04  0.34595885335E+04 0.  0.
        2    1    3    3  502    0 -0.71299107044E+03  0.94772395713E+01 -0.20317427784E+04  0.21532358910E+04  0.25500000920E-02 0. -1.
       -2    1    3    3    0  502  0.71299107044E+03 -0.94772395713E+01  0.12082911583E+04  0.14030016421E+04  0.25500000920E-02 0.  1.
</event>
<event>
 5   0  0.4301754E-07  0.4008106E+04  0.7818609E-02  0.8002913E-01
       -2   -1    0    0    0  501  0.00000000000E+00  0.00000000000E+00  0.17707056218E+04  0.17707056218E+04  0.25500000920E-02 0.  1.
        2   -1    0    0  501    0  0.00000000000E+00  0.00000000000E+00 -0.22681509915E+04  0.22681509915E+04  0.25500000920E-02 0. -1.
    10030    2    1    2    0    0  0.00000000000E+00  0.00000000000E+00 -0.49744536970E+03  0.40388566132E+04  0.40081056431E+04 0.  0.
        1    1    3    3  502    0 -0.13848183084E+04 -0.99320217900E+03 -0.13113536967E+04  0.21503071486E+04  0.50400001928E-02 0. -1.
       -1    1    3    3    0  502  0.13848183084E+04  0.99320217900E+03  0.81390832695E+03  0.18885494646E+04  0.50400001928E-02 0.  1.
</event>
<event>
 5   0  0.4047916E-07  0.3954876E+04  0.7818609E-02  0.8013712E-01
        2   -1    0    0  501    0  0.00000000000E+00  0.00000000000E+00  0.13270273920E+04  0.13270273920E+04  0.25500000920E-02 0.  1.
       -2   -1    0    0    0  501  0.00000000000E+00  0.00000000000E+00 -0.29466323248E+04  0.29466323248E+04  0.25500000920E-02 0. -1.
    10030    2    1    2    0    0  0.00000000000E+00  0.00000000000E+00 -0.16196049329E+04  0.42736597168E+04  0.39548763870E+04 0.  0.
        5    1    3    3  502    0 -0.59493196139E+03  0.17900727091E+04 -0.16874274935E+03  0.18938850409E+04  0.46999998093E+01 0.  1.
       -5    1    3    3    0  502  0.59493196139E+03 -0.17900727091E+04 -0.14508621835E+04  0.23797746759E+04  0.46999998093E+01 0. -1.
</event>
<event>
 5   0  0.4077370E-07  0.3957483E+04  0.7818609E-02  0.8013179E-01
        2   -1    0    0  501    0  0.00000000000E+00  0.00000000000E+00  0.16286575988E+04  0.16286575988E+04  0.25500000920E-02 0.  1.
       -2   -1    0    0    0  501  0.00000000000E+00  0.00000000000E+00 -0.24040762395E+04  0.24040762395E+04  0.25500000920E-02 0. -1.
    10030    2    1    2    0    0  0.00000000000E+00  0.00000000000E+00 -0.77541864070E+03  0.40327338383E+04  0.39574825510E+04 0.  0.
        3    1    3    3  502    0  0.99069048195E+03 -0.10454687109E+04  0.99490454139E+03  0.17505163561E+04  0.10100000352E+00 0.  1.
       -3    1    3    3    0  502 -0.99069048195E+03  0.10454687109E+04 -0.17703231821E+04  0.22822174821E+04  0.10100000352E+00 0. -1.
</event>
<event>
 5   0  0.1372952E-07  0.3892256E+04  0.7818609E-02  0.8026642E-01
        1   -1    0    0  501    0  0.00000000000E+00  0.00000000000E+00  0.19121325272E+04  0.19121325272E+04  0.50400001928E-02 0.  1.
       -1   -1    0    0    0  501  0.00000000000E+00  0.00000000000E+00 -0.19807274398E+04  0.19807274399E+04  0.50400001928E-02 0. -1.
    10030    2    1    2    0    0  0.00000000000E+00  0.00000000000E+00 -0.68594912692E+02  0.38928599670E+04  0.38922555750E+04 0.  0.
        1    1    3    3  502    0 -0.98453471685E+03 -0.32974557172E+03  0.16119753358E+04  0.19174215066E+04  0.50400001928E-02 0.  1.
       -1    1    3    3    0  502  0.98453471685E+03  0.32974557172E+03 -0.16805702485E+04  0.19754384604E+04  0.50400001928E-02 0. -1.
</event>
<event>
 5   0  0.1351000E-07  0.3347883E+04  0.7818609E-02  0.8150817E-01
        1   -1    0    0  501    0  0.00000000000E+00  0.00000000000E+00  0.12847743825E+04  0.12847743825E+04  0.50400001928E-02 0.  1.
       -1   -1    0    0    0  501  0.00000000000E+00  0.00000000000E+00 -0.21809906669E+04  0.21809906669E+04  0.50400001928E-02 0. -1.
    10030    2    1    2    0    0  0.00000000000E+00  0.00000000000E+00 -0.89621628437E+03  0.34657650494E+04  0.33478834731E+04 0.  0.
        3    1    3    3  502    0  0.10540279855E+04  0.30325769724E+03 -0.17572060324E+04  0.20714036969E+04  0.10100000352E+00 0. -1.
       -3    1    3    3    0  502 -0.10540279855E+04 -0.30325769724E+03  0.86098974800E+03  0.13943613525E+04  0.10100000352E+00 0.  1.
</event>
<event>
 5   0  0.1368865E-07  0.4000943E+04  0.7818609E-02  0.8004356E-01
        1   -1    0    0  501    0  0.00000000000E+00  0.00000000000E+00  0.25715995737E+04  0.25715995737E+04  0.50400001928E-02 0.  1.
       -1   -1    0    0    0  501  0.00000000000E+00  0.00000000000E+00 -0.15561854210E+04  0.15561854210E+04  0.50400001928E-02 0. -1.
    10030    2    1    2    0    0  0.00000000000E+00  0.00000000000E+00  0.10154141527E+04  0.41277849948E+04  0.40009427716E+04 0.  0.
        5    1    3    3  502    0  0.11422803525E+04  0.16331849081E+04  0.68570599299E+03  0.21076793272E+04  0.46999998093E+01 0. -1.
       -5    1    3    3    0  502 -0.11422803525E+04 -0.16331849081E+04  0.32970815971E+03  0.20201056676E+04  0.46999998093E+01 0.  1.
</event>
<event>
 5   0  0.1351000E-07  0.3930973E+04  0.7818609E-02  0.8018618E-01
       -1   -1    0    0    0  501  0.00000000000E+00  0.00000000000E+00  0.16251451604E+04  0.16251451604E+04  0.50400001928E-02 0. -1.
        1   -1    0    0  501    0  0.00000000000E+00  0.00000000000E+00 -0.23771032082E+04  0.23771032082E+04  0.50400001928E-02 0.  1.
    10030    2    1    2    0    0  0.00000000000E+00  0.00000000000E+00 -0.75195804779E+03  0.40022483685E+04  0.39309733016E+04 0.  0.
        3    1    3    3  502    0  0.16321131143E+04  0.98612725233E+03 -0.86095349979E+03  0.20922430821E+04  0.10100000352E+00 0. -1.
       -3    1    3    3    0  502 -0.16321131143E+04 -0.98612725233E+03  0.10899545200E+03  0.19100052864E+04  0.10100000352E+00 0.  1.
</event>
<event>
 5   0  0.4149487E-07  0.3974774E+04  0.7818609E-02  0.8009655E-01
        2   -1    0    0  501    0  0.00000000000E+00  0.00000000000E+00  0.28176508505E+04  0.28176508505E+04  0.25500000920E-02 0.  1.
       -2   -1    0    0    0  501  0.00000000000E+00  0.00000000000E+00 -0.14017733046E+04  0.14017733046E+04  0.25500000920E-02 0. -1.
    10030    2    1    2    0    0  0.00000000000E+00  0.00000000000E+00  0.14158775459E+04  0.42194241551E+04  0.39747743302E+04 0.  0.
        2    1    3    3  502    0 -0.20103606187E+03  0.72430417961E+03  0.26609252681E+04  0.27650597326E+04  0.25500000920E-02 0.  1.
       -2    1    3    3    0  502  0.20103606187E+03 -0.72430417961E+03 -0.12450477222E+04  0.14543644225E+04  0.25500000920E-02 0. -1.
</event>
<event>
 5   0  0.4077370E-07  0.2612889E+04  0.7818609E-02  0.8363836E-01
        2   -1    0    0  501    0  0.00000000000E+00  0.00000000000E+00  0.65921316358E+03  0.65921316358E+03  0.25500000920E-02 0.  1.
       -2   -1    0    0    0  501  0.00000000000E+00  0.00000000000E+00 -0.25891432659E+04  0.25891432659E+04  0.25500000920E-02 0. -1.
    10030    2    1    2    0    0  0.00000000000E+00  0.00000000000E+00 -0.19299301024E+04  0.32483564295E+04  0.26128890702E+04 0.  0.
        3    1    3    3  502    0 -0.69675261201E+03 -0.61230415061E+03  0.17879474267E+03  0.94464180799E+03  0.10100000352E+00 0.  1.
       -3    1    3    3    0  502  0.69675261201E+03  0.61230415061E+03 -0.21087248450E+04  0.23037146215E+04  0.10100000352E+00 0. -1.
</event>
<event>
 5   0  0.1351000E-07  0.2497776E+04  0.7818609E-02  0.8403778E-01
       -1   -1    0    0    0  501  0.00000000000E+00  0.00000000000E+00  0.13383868889E+04  0.13383868889E+04  0.50400001928E-02 0.  1.
        1   -1    0    0  501    0  0.00000000000E+00  0.00000000000E+00 -0.11653736135E+04  0.11653736135E+04  0.50400001928E-02 0. -1.
    10030    2    1    2    0    0  0.00000000000E+00  0.00000000000E+00  0.17301327539E+03  0.25037605025E+04  0.24977756225E+04 0.  0.
        3    1    3    3  502    0 -0.99175703239E+03  0.15131146627E+03  0.83209231093E+03  0.13034012411E+04  0.10100000352E+00 0.  1.
       -3    1    3    3    0  502  0.99175703239E+03 -0.15131146627E+03 -0.65907903554E+03  0.12003592614E+04  0.10100000352E+00 0. -1.
</event>
<event>
 5   0  0.1421304E-07  0.3118694E+04  0.7818609E-02  0.8210626E-01
       -1   -1    0    0    0  501  0.00000000000E+00  0.00000000000E+00  0.20770428770E+04  0.20770428770E+04  0.50400001928E-02 0.  1.
        1   -1    0    0  501    0  0.00000000000E+00  0.00000000000E+00 -0.11706853480E+04  0.11706853480E+04  0.50400001928E-02 0. -1.
    10030    2    1    2    0    0  0.00000000000E+00  0.00000000000E+00  0.90635752901E+03  0.32477282250E+04  0.31186943827E+04 0.  0.
        2    1    3    3  502    0  0.65485417134E+03 -0.51054489370E+03 -0.92130656853E+03  0.12402805600E+04  0.25500000920E-02 0. -1.
       -2    1    3    3    0  502 -0.65485417134E+03  0.51054489370E+03  0.18276640975E+04  0.20074476650E+04  0.25500000920E-02 0.  1.
</event>
<event>
 5   0  0.4149487E-07  0.4108090E+04  0.7818609E-02  0.7983089E-01
        2   -1    0    0  501    0  0.00000000000E+00  0.00000000000E+00  0.26171375507E+04  0.26171375507E+04  0.25500000920E-02 0.  1.
       -2   -1    0    0    0  501  0.00000000000E+00  0.00000000000E+00 -0.16121050584E+04  0.16121050585E+04  0.25500000920E-02 0. -1.
    10030    2    1    2    0    0  0.00000000000E+00  0.00000000000E+00  0.10050324923E+04  0.42292426092E+04  0.41080899134E+04 0.  0.
        2    1    3    3  502    0 -0.16381837875E+04 -0.12240663240E+04  0.30417894730E+03  0.20674886503E+04  0.25500000920E-02 0.  1.
       -2    1    3    3    0  502  0.16381837875E+04  0.12240663240E+04  0.70085354495E+03  0.21617539589E+04  0.25500000920E-02 0. -1.
</event>
<event>
 5   0  0.1351000E-07  0.2835680E+04  0.7818609E-02  0.8292276E-01
       -1   -1    0    0    0  501  0.00000000000E+00  0.00000000000E+00  0.73508896766E+03  0.73508896768E+03  0.50400001928E-02 0.  1.
        1   -1    0    0  501    0  0.00000000000E+00  0.00000000000E+00 -0.27347310712E+04  0.27347310713E+04  0.50400001928E-02 0. -1.
    10030    2    1    2    0    0  0.00000000000E+00  0.00000000000E+00 -0.19996421036E+04  0.34698200389E+04  0.28356802641E+04 0.  0.
        4    1    3    3  502    0 -0.65620647678E+01 -0.83634787815E+03  0.40108600870E+03  0.92757341125E+03  0.12699999809E+01 0.  1.
       -4    1    3    3    0  502  0.65620647678E+01  0.83634787815E+03 -0.24007281123E+04  0.25422466277E+04  0.12699999809E+01 0. -1.
</event>
<event>
 5   0  0.4301754E-07  0.4046058E+04  0.7818609E-02  0.7995319E-01
        2   -1    0    0  501    0  0.00000000000E+00  0.00000000000E+00  0.25895088362E+04  0.25895088362E+04  0.25500000920E-02 0.  1.
       -2   -1    0    0    0  501  0.00000000000E+00  0.00000000000E+00 -0.15804718405E+04  0.15804718405E+04  0.25500000920E-02 0. -1.
    10030    2    1    2    0    0  0.00000000000E+00  0.00000000000E+00  0.10090369957E+04  0.41699806767E+04  0.40460577338E+04 0.  0.
        1    1    3    3  502    0 -0.92340862253E+02 -0.21034170314E+03  0.25760233195E+04  0.25862456591E+04  0.50400001928E-02 0.  1.
       -1    1    3    3    0  502  0.92340862253E+02  0.21034170314E+03 -0.15669863238E+04  0.15837350176E+04  0.50400001928E-02 0. -1.
</event>
<event>
 5   0  0.1351000E-07  0.2863424E+04  0.7818609E-02  0.8283844E-01
        1   -1    0    0  501    0  0.00000000000E+00  0.00000000000E+00  0.24145454130E+04  0.24145454130E+04  0.50400001928E-02 0.  1.
       -1   -1    0    0    0  501  0.00000000000E+00  0.00000000000E+00 -0.84893769348E+03  0.84893769350E+03  0.50400001928E-02 0. -1.
    10030    2    1    2    0    0  0.00000000000E+00  0.00000000000E+00  0.15656077195E+04  0.32634831065E+04  0.28634235549E+04 0.  0.
        4    1    3    3  502    0 -0.98709140986E+03 -0.20181509083E+03 -0.37652547123E+03  0.10755704652E+04  0.12699999809E+01 0. -1.
       -4    1    3    3    0  502  0.98709140986E+03  0.20181509083E+03  0.19421331907E+04  0.21879126412E+04  0.12699999809E+01 0.  1.
</event>
<event>
 5   0  0.1351000E-07  0.3938092E+04  0.7818609E-02  0.8017153E-01
        1   -1    0    0  501    0  0.00000000000E+00  0.00000000000E+00  0.12856261952E+04  0.12856261952E+04  0.50400001928E-02 0.  1.
       -1   -1    0    0    0  501  0.00000000000E+00  0.00000000000E+00 -0.30157612294E+04  0.30157612294E+04  0.50400001928E-02 0. -1.
    10030    2    1    2    0    0  0.00000000000E+00  0.00000000000E+00 -0.17301350343E+04  0.43013874246E+04  0.39380917384E+04 0.  0.
        3    1    3    3  502    0  0.12646177149E+04 -0.10308190620E+04 -0.20691707340E+04  0.26350167817E+04  0.10100000352E+00 0. -1.
       -3    1    3    3    0  502 -0.12646177149E+04  0.10308190620E+04  0.33903569969E+03  0.16663706429E+04  0.10100000352E+00 0.  1.
</event>
<event>
 5   0  0.1421304E-07  0.4010082E+04  0.7818609E-02  0.8002516E-01
       -1   -1    0    0    0  501  0.00000000000E+00  0.00000000000E+00  0.26975802519E+04  0.26975802519E+04  0.50400001928E-02 0. -1.
        1   -1    0    0  501    0  0.00000000000E+00  0.00000000000E+00 -0.14902943656E+04  0.14902943656E+04  0.50400001928E-02 0.  1.
    10030    2    1    2    0    0  0.00000000000E+00  0.00000000000E+00  0.12072858864E+04  0.41878746175E+04  0.40100816202E+04 0.  0.
        2    1    3    3  502    0 -0.10260188845E+04  0.17007971322E+04  0.31809182949E+03  0.20116182661E+04  0.25500000920E-02 0. -1.
       -2    1    3    3    0  502  0.10260188845E+04 -0.17007971322E+04  0.88919405686E+03  0.21762563514E+04  0.25500000920E-02 0.  1.
</event>
<event>
 5   0  0.4301754E-07  0.4097186E+04  0.7818609E-02  0.7985223E-01
       -2   -1    0    0    0  501  0.00000000000E+00  0.00000000000E+00  0.15688839879E+04  0.15688839879E+04  0.25500000920E-02 0. -1.
        2   -1    0    0  501    0  0.00000000000E+00  0.00000000000E+00 -0.26749799169E+04  0.26749799169E+04  0.25500000920E-02 0.  1.
    10030    2    1    2    0    0  0.00000000000E+00  0.00000000000E+00 -0.11060959289E+04  0.42438639048E+04  0.40971859414E+04 0.  0.
        1    1    3    3  502    0  0.10169565243E+04 -0.35519772419E+03  0.12518510901E+04  0.16515135928E+04  0.50400001928E-02 0. -1.
       -1    1    3    3    0  502 -0.10169565243E+04  0.35519772419E+03 -0.23579470190E+04  0.25923503120E+04  0.50400001928E-02 0.  1.
</event>
<event>
 5   0  0.4047916E-07  0.4083801E+04  0.7818609E-02  0.7987851E-01
        2   -1    0    0  501    0  0.00000000000E+00  0.00000000000E+00  0.23394693294E+04  0.23394693294E+04  0.25500000920E-02 0.  1.
       -2   -1    0    0    0  501  0.00000000000E+00  0.00000000000E+00 -0.17821808246E+04  0.17821808246E+04  0.25500000920E-02 0. -1.
    10030    2    1    2    0    0  0.00000000000E+00  0.00000000000E+00  0.55728850485E+03  0.41216501540E+04  0.40838008662E+04 0.  0.
        5    1    3    3  502    0 -0.99448813610E+03 -0.14893502388E+04 -0.71134671959E+03  0.19269683527E+04  0.46999998093E+01 0. -1.
       -5    1    3    3    0  502  0.99448813610E+03  0.14893502388E+04  0.12686352244E+04  0.21946818014E+04  0.46999998093E+01 0.  1.
</event>
<event>
 5   0  0.1368865E-07  0.3915567E+04  0.7818609E-02  0.8021799E-01
       -1   -1    0    0    0  501  0.00000000000E+00  0.00000000000E+00  0.28387857149E+04  0.28387857149E+04  0.50400001928E-02 0.  1.
        1   -1    0    0  501    0  0.00000000000E+00  0.00000000000E+00 -0.13501956260E+04  0.13501956260E+04  0.50400001928E-02 0. -1.
    10030    2    1    2    0    0  0.00000000000E+00  0.00000000000E+00  0.14885900889E+04  0.41889813409E+04  0.39155669094E+04 0.  0.
        5    1    3    3  502    0 -0.17722489015E+04  0.18648393209E+03 -0.12302539727E+03  0.17862809869E+04  0.46999998093E+01 0. -1.
       -5    1    3    3    0  502  0.17722489015E+04 -0.18648393209E+03  0.16116154861E+04  0.24027003540E+04  0.46999998093E+01 0.  1.
</event>
<event>
 5   0  0.4079777E-07  0.3995990E+04  0.7818609E-02  0.8005356E-01
        2   -1    0    0  501    0  0.00000000000E+00  0.00000000000E+00  0.26388442093E+04  0.26388442093E+04  0.25500000920E-02 0.  1.
       -2   -1    0    0    0  501  0.00000000000E+00  0.00000000000E+00 -0.15127770742E+04  0.15127770742E+04  0.25500000920E-02 0. -1.
    10030    2    1    2    0    0  0.00000000000E+00  0.00000000000E+00  0.11260671351E+04  0.41516212835E+04  0.39959895006E+04 0.  0.
        4    1    3    3  502    0  0.45338972379E+03 -0.15234377635E+03  0.25784864499E+04  0.26224730414E+04  0.12699999809E+01 0.  1.
       -4    1    3    3    0  502 -0.45338972379E+03  0.15234377635E+03 -0.14524193147E+04  0.15291482421E+04  0.12699999809E+01 0. -1.
</event>
<event>
 5   0  0.1372952E-07  0.3931632E+04  0.7818609E-02  0.8018482E-01
       -1   -1    0    0    0  501  0.00000000000E+00  0.00000000000E+00  0.19659027493E+04  0.19659027493E+04  0.50400001928E-02 0.  1.
        1   -1    0    0  501    0  0.00000000000E+00  0.00000000000E+00 -0.19657294023E+04  0.19657294023E+04  0.50400001928E-02 0. -1.
    10030    2    1    2    0    0  0.00000000000E+00  0.00000000000E+00  0.17334696169E+00  0.39316321516E+04  0.39316321477E+04 0.  0.
        1    1    3    3  502    0  0.92026374455E+03 -0.12583411733E+04  0.11976362428E+04  0.19658688761E+04  0.50400001928E-02 0.  1.
       -1    1    3    3    0  502 -0.92026374455E+03  0.12583411733E+04 -0.11974628958E+04  0.19657632754E+04  0.50400001928E-02 0. -1.
</event>
<event>
 5   0  0.1368865E-07  0.4040270E+04  0.7818609E-02  0.7996472E-01
       -1   -1    0    0    0  501  0.00000000000E+00  0.00000000000E+00  0.18028936527E+04  0.18028936527E+04  0.50400001928E-02 0. -1.
        1   -1    0    0  501    0  0.00000000000E+00  0.00000000000E+00 -0.22635531974E+04  0.22635531974E+04  0.50400001928E-02 0.  1.
    10030    2    1    2    0    0  0.00000000000E+00  0.00000000000E+00 -0.46065954474E+03  0.40664468501E+04  0.40402701356E+04 0.  0.
        5    1    3    3  502    0 -0.17575603015E+04  0.53128659721E+03  0.61752939883E+03  0.19371753432E+04  0.46999998093E+01 0. -1.
       -5    1    3    3    0  502  0.17575603015E+04 -0.53128659721E+03 -0.10781889436E+04  0.21292715069E+04  0.46999998093E+01 0.  1.
</event>
<event>
 5   0  0.1421304E-07  0.2704677E+04  0.7818609E-02  0.8333489E-01
        1   -1    0    0  501    0  0.00000000000E+00  0.00000000000E+00  0.24068554173E+04  0.24068554173E+04  0.50400001928E-02 0. -1.
       -1   -1    0    0    0  501  0.00000000000E+00  0.00000000000E+00 -0.75983760650E+03  0.75983760652E+03  0.50400001928E-02 0.  1.
    10030    2    1    2    0    0  0.00000000000E+00  0.00000000000E+00  0.16470178108E+04  0.31666930238E+04  0.27046768824E+04 0.  0.
        2    1    3    3  502    0 -0.78374024317E+03 -0.81149896607E+03 -0.49550030836E+02  0.11292628331E+04  0.25500000920E-02 0.  1.
       -2    1    3    3    0  502  0.78374024317E+03  0.81149896607E+03  0.16965678416E+04  0.20374301907E+04  0.25500000920E-02 0. -1.
</event>
<event>
 5   0  0.1421304E-07  0.3688454E+04  0.7818609E-02  0.8070525E-01
       -1   -1    0    0    0  501  0.00000000000E+00  0.00000000000E+00  0.21295594183E+04  0.21295594183E+04  0.50400001928E-02 0.  1.
        1   -1    0    0  501    0  0.00000000000E+00  0.00000000000E+00 -0.15971255091E+04  0.15971255091E+04  0.50400001928E-02 0. -1.
    10030    2    1    2    0    0  0.00000000000E+00  0.00000000000E+00  0.53243390921E+03  0.37266849273E+04  0.36884542399E+04 0.  0.
        2    1    3    3  502    0  0.10046726730E+04 -0.44037919229E+03 -0.12316717303E+04  0.16493381291E+04  0.25500000920E-02 0. -1.
       -2    1    3    3    0  502 -0.10046726730E+04  0.44037919229E+03  0.17641056395E+04  0.20773467983E+04  0.25500000920E-02 0.  1.
</event>
<event>
 5   0  0.1368865E-07  0.3977959E+04  0.7818609E-02  0.8009008E-01
       -1   -1    0    0    0  501  0.00000000000E+00  0.00000000000E+00  0.28209134234E+04  0.28209134234E+04  0.50400001928E-02 0. -1.
        1   -1    0    0  501    0  0.00000000000E+00  0.00000000000E+00 -0.14023964777E+04  0.14023964777E+04  0.50400001928E-02 0.  1.
    10030    2    1    2    0    0  0.00000000000E+00  0.00000000000E+00  0.14185169457E+04  0.42233099011E+04  0.39779587976E+04 0.  0.
        5    1    3    3  502    0 -0.13243444876E+04 -0.11518785040E+04 -0.28402283510E+03  0.17780335966E+04  0.46999998093E+01 0.  1.
       -5    1    3    3    0  502  0.13243444876E+04  0.11518785040E+04  0.17025397808E+04  0.24452763044E+04  0.46999998093E+01 0. -1.
</event>
<event>
 5   0  0.1368865E-07  0.4022117E+04  0.7818609E-02  0.8000100E-01
       -1   -1    0    0    0  501  0.00000000000E+00  0.00000000000E+00  0.17032922045E+04  0.17032922045E+04  0.50400001928E-02 0.  1.
        1   -1    0    0  501    0  0.00000000000E+00  0.00000000000E+00 -0.23744346766E+04  0.23744346766E+04  0.50400001928E-02 0. -1.
    10030    2    1    2    0    0  0.00000000000E+00  0.00000000000E+00 -0.67114247211E+03  0.40777268810E+04  0.40221168927E+04 0.  0.
        5    1    3    3  502    0  0.59487272751E+03  0.10547589441E+04 -0.19633680155E+04  0.23067782829E+04  0.46999998093E+01 0. -1.
       -5    1    3    3    0  502 -0.59487272751E+03 -0.10547589441E+04  0.12922255434E+04  0.17709485981E+04  0.46999998093E+01 0.  1.
</event>
<event>
 5   0  0.1421304E-07  0.3869753E+04  0.7818609E-02  0.8031350E-01
       -1   -1    0    0    0  501  0.00000000000E+00  0.00000000000E+00  0.15554790621E+04  0.15554790621E+04  0.50400001928E-02 0.  1.
        1   -1    0    0  501    0  0.00000000000E+00  0.00000000000E+00 -0.24068129187E+04  0.24068129188E+04  0.50400001928E-02 0. -1.
    10030    2    1    2    0    0  0.00000000000E+00  0.00000000000E+00 -0.85133385665E+03  0.39622919809E+04  0.38697530162E+04 0.  0.
        2    1    3    3  502    0 -0.52679167063E+02 -0.56521194816E+03  0.14682981792E+04  0.15742106542E+04  0.25500000920E-02 0.  1.
       -2    1    3    3    0  502  0.52679167063E+02  0.56521194816E+03 -0.23196320358E+04  0.23880813266E+04  0.25500000920E-02 0. -1.
</event>
<event>
 5   0  0.1421304E-07  0.3802650E+04  0.7818609E-02  0.8045586E-01
       -1   -1    0    0    0  501  0.00000000000E+00  0.00000000000E+00  0.15479661382E+04  0.15479661382E+04  0.50400001928E-02 0. -1.
        1   -1    0    0  501    0  0.00000000000E+00  0.00000000000E+00 -0.23353464945E+04  0.23353464945E+04  0.50400001928E-02 0.  1.
    10030    2    1    2    0    0  0.00000000000E+00  0.00000000000E+00 -0.78738035629E+03  0.38833126327E+04  0.38026502834E+04 0.  0.
        2    1    3    3  502    0 -0.55255892138E+03 -0.17169305261E+04  0.22062261485E+03  0.18170982723E+04  0.25500000920E-02 0.  1.
       -2    1    3    3    0  502  0.55255892138E+03  0.17169305261E+04 -0.10080029711E+04  0.20662143604E+04  0.25500000920E-02 0. -1.
</event>
<event>
 5   0  0.4047916E-07  0.2919826E+04  0.7818609E-02  0.8267003E-01
        2   -1    0    0  501    0  0.00000000000E+00  0.00000000000E+00  0.17333795564E+04  0.17333795564E+04  0.25500000920E-02 0.  1.
       -2   -1    0    0    0  501  0.00000000000E+00  0.00000000000E+00 -0.12295902280E+04  0.12295902280E+04  0.25500000920E-02 0. -1.
    10030    2    1    2    0    0  0.00000000000E+00  0.00000000000E+00  0.50378932839E+03  0.29629697845E+04  0.29198264086E+04 0.  0.
        5    1    3    3  502    0  0.29612057545E+03 -0.14056644624E+04  0.51601826216E+03  0.15263934332E+04  0.46999998093E+01 0.  1.
       -5    1    3    3    0  502 -0.29612057545E+03  0.14056644624E+04 -0.12228933776E+02  0.14365763512E+04  0.46999998093E+01 0. -1.
</event>
<event>
 5   0  0.4301754E-07  0.3832377E+04  0.7818609E-02  0.8039242E-01
        2   -1    0    0  501    0  0.00000000000E+00  0.00000000000E+00  0.16137293129E+04  0.16137293129E+04  0.25500000920E-02 0.  1.
       -2   -1    0    0    0  501  0.00000000000E+00  0.00000000000E+00 -0.22753369040E+04  0.22753369040E+04  0.25500000920E-02 0. -1.
    10030    2    1    2    0    0  0.00000000000E+00  0.00000000000E+00 -0.66160759115E+03  0.38890662168E+04  0.38323767344E+04 0.  0.
        1    1    3    3  502    0 -0.13008584449E+04 -0.12655326428E+04 -0.95469250522E+03  0.20506689990E+04  0.50400001928E-02 0. -1.
       -1    1    3    3    0  502  0.13008584449E+04  0.12655326428E+04  0.29308491408E+03  0.18383972179E+04  0.50400001928E-02 0.  1.
</event>
<event>
 5   0  0.1368865E-07  0.3896069E+04  0.7818609E-02  0.8025847E-01
       -1   -1    0    0    0  501  0.00000000000E+00  0.00000000000E+00  0.14722873290E+04  0.14722873290E+04  0.50400001928E-02 0. -1.
        1   -1    0    0  501    0  0.00000000000E+00  0.00000000000E+00 -0.25775126253E+04  0.25775126253E+04  0.50400001928E-02 0.  1.
    10030    2    1    2    0    0  0.00000000000E+00  0.00000000000E+00 -0.11052252963E+04  0.40497999543E+04  0.38960693929E+04 0.  0.
        5    1    3    3  502    0  0.12446103535E+03 -0.18367611525E+04  0.10941267557E+03  0.18442275630E+04  0.46999998093E+01 0.  1.
       -5    1    3    3    0  502 -0.12446103535E+03  0.18367611525E+04 -0.12146379719E+04  0.22055723913E+04  0.46999998093E+01 0. -1.
</event>
<event>
 5   0  0.1421304E-07  0.3966459E+04  0.7818609E-02  0.8011347E-01
        1   -1    0    0  501    0  0.00000000000E+00  0.00000000000E+00  0.22282386714E+04  0.22282386714E+04  0.50400001928E-02 0. -1.
       -1   -1    0    0    0  501  0.00000000000E+00  0.00000000000E+00 -0.17651603424E+04  0.17651603424E+04  0.50400001928E-02 0.  1.
    10030    2    1    2    0    0  0.00000000000E+00  0.00000000000E+00  0.46307832906E+03  0.39933990138E+04  0.39664586402E+04 0.  0.
        2    1    3    3  502    0  0.69289051761E+03 -0.14167838447E+04 -0.97905231197E+03  0.18563181736E+04  0.25500000920E-02 0.  1.
       -2    1    3    3    0  502 -0.69289051761E+03  0.14167838447E+04  0.14421306410E+04  0.21370808402E+04  0.25500000920E-02 0. -1.
</event>
<event>
 5   0  0.1372952E-07  0.2631742E+04  0.7818609E-02  0.8357499E-01
        1   -1    0    0  501    0  0.00000000000E+00  0.00000000000E+00  0.20973782210E+04  0.20973782210E+04  0.50400001928E-02 0. -1.
       -1   -1    0    0    0  501  0.00000000000E+00  0.00000000000E+00 -0.82556204113E+03  0.82556204114E+03  0.50400001928E-02 0.  1.
    10030    2    1    2    0    0  0.00000000000E+00  0.00000000000E+00  0.12718161799E+04  0.29229402621E+04  0.26317415110E+04 0.  0.
        1    1    3    3  502    0 -0.70417545889E+03  0.89823075053E+03  0.13632212731E+04  0.17779352625E+04  0.50400001928E-02 0. -1.
       -1    1    3    3    0  502  0.70417545889E+03 -0.89823075053E+03 -0.91405093256E+02  0.11450049996E+04  0.50400001928E-02 0.  1.
</event>
<event>
 5   0  0.4047916E-07  0.4008098E+04  0.7818609E-02  0.8002915E-01
        2   -1    0    0  501    0  0.00000000000E+00  0.00000000000E+00  0.22151164970E+04  0.22151164970E+04  0.25500000920E-02 0. -1.
       -2   -1    0    0    0  501  0.00000000000E+00  0.00000000000E+00 -0.18130931743E+04  0.18130931743E+04  0.25500000920E-02 0.  1.
    10030    2    1    2    0    0  0.00000000000E+00  0.00000000000E+00  0.40202332269E+03  0.40282096713E+04  0.40080981031E+04 0.  0.
        5    1    3    3  502    0  0.89806469719E+03 -0.45723990861E+03  0.19419280772E+04  0.21878517503E+04  0.46999998093E+01 0. -1.
       -5    1    3    3    0  502 -0.89806469719E+03  0.45723990861E+03 -0.15399047545E+04  0.18403579210E+04  0.46999998093E+01 0.  1.
</event>
<event>
 5   0  0.4047916E-07  0.3692897E+04  0.7818609E-02  0.8069538E-01
        2   -1    0    0  501    0  0.00000000000E+00  0.00000000000E+00  0.14284937048E+04  0.14284937048E+04  0.25500000920E-02 0. -1.
       -2   -1    0    0    0  501  0.00000000000E+00  0.00000000000E+00 -0.23866903711E+04  0.23866903711E+04  0.25500000920E-02 0.  1.
    10030    2    1    2    0    0  0.00000000000E+00  0.00000000000E+00 -0.95819666627E+03  0.38151840759E+04  0.36928970581E+04 0.  0.
        5    1    3    3  502    0 -0.70807632633E+03  0.94011263163E+03 -0.19489428052E+04  0.22767485570E+04  0.46999998093E+01 0.  1.
       -5    1    3    3    0  502  0.70807632633E+03 -0.94011263163E+03  0.99074613891E+03  0.15384355189E+04  0.46999998093E+01 0. -1.
</event>
<event>
 5   0  0.4079777E-07  0.4071901E+04  0.7818609E-02  0.7990197E-01
       -2   -1    0    0    0  501  0.00000000000E+00  0.00000000000E+00  0.17695904272E+04  0.17695904272E+04  0.25500000920E-02 0.  1.
        2   -1    0    0  501    0  0.00000000000E+00  0.00000000000E+00 -0.23424031716E+04  0.23424031716E+04  0.25500000920E-02 0. -1.
    10030    2    1    2    0    0  0.00000000000E+00  0.00000000000E+00 -0.57281274446E+03  0.41119935988E+04  0.40719008972E+04 0.  0.
        4    1    3    3  502    0  0.18017764719E+04 -0.31611620080E+03 -0.11889426442E+04  0.21817227439E+04  0.12699999809E+01 0. -1.
       -4    1    3    3    0  502 -0.18017764719E+04  0.31611620080E+03  0.61612989977E+03  0.19302708549E+04  0.12699999809E+01 0.  1.
</event>
<event>
 5   0  0.1368865E-07  0.3953130E+04  0.7818609E-02  0.8014069E-01
       -1   -1    0    0    0  501  0.00000000000E+00  0.00000000000E+00  0.19492328355E+04  0.19492328355E+04  0.50400001928E-02 0. -1.
        1   -1    0    0  501    0  0.00000000000E+00  0.00000000000E+00 -0.20042806382E+04  0.20042806382E+04  0.50400001928E-02 0.  1.
    10030    2    1    2    0    0  0.00000000000E+00  0.00000000000E+00 -0.55047802676E+02  0.39535134738E+04  0.39531302188E+04 0.  0.
        5    1    3    3  502    0  0.18499595531E+03 -0.10526773756E+04  0.16352961219E+04  0.19536040174E+04  0.46999998093E+01 0. -1.
       -5    1    3    3    0  502 -0.18499595531E+03  0.10526773756E+04 -0.16903439245E+04  0.19999094564E+04  0.46999998093E+01 0.  1.
</event>
<event>
 5   0  0.4149487E-07  0.3141708E+04  0.7818609E-02  0.8204384E-01
        2   -1    0    0  501    0  0.00000000000E+00  0.00000000000E+00  0.14542348744E+04  0.14542348744E+04  0.25500000920E-02 0.  1.
       -2   -1    0    0    0  501  0.00000000000E+00  0.00000000000E+00 -0.16968253350E+04  0.16968253350E+04  0.25500000920E-02 0. -1.
    10030    2    1    2    0    0  0.00000000000E+00  0.00000000000E+00 -0.24259046065E+03  0.31510602094E+04  0.31417081838E+04 0.  0.
        2    1    3    3  502    0  0.13988184161E+04 -0.64800738794E+03  0.18122496845E+03  0.15522400025E+04  0.25500000920E-02 0.  1.
       -2    1    3    3    0  502 -0.13988184161E+04  0.64800738794E+03 -0.42381542910E+03  0.15988202069E+04  0.25500000920E-02 0. -1.
</event>
<event>
 5   0  0.1421304E-07  0.3913581E+04  0.7818609E-02  0.8022211E-01
        1   -1    0    0  501    0  0.00000000000E+00  0.00000000000E+00  0.18027348392E+04  0.18027348392E+04  0.50400001928E-02 0. -1.
       -1   -1    0    0    0  501  0.00000000000E+00  0.00000000000E+00 -0.21240113207E+04  0.21240113207E+04  0.50400001928E-02 0.  1.
    10030    2    1    2    0    0  0.00000000000E+00  0.00000000000E+00 -0.32127648146E+03  0.39267461599E+04  0.39135810745E+04 0.  0.
        2    1    3    3  502    0  0.15432079777E+04  0.11528965578E+04  0.18456543483E+03  0.19351293846E+04  0.25500000920E-02 0.  1.
       -2    1    3    3    0  502 -0.15432079777E+04 -0.11528965578E+04 -0.50584191629E+03  0.19916167753E+04  0.25500000920E-02 0. -1.
</event>
<event>
 5   0  0.4149487E-07  0.4082325E+04  0.7818609E-02  0.7988142E-01
       -2   -1    0    0    0  501  0.00000000000E+00  0.00000000000E+00  0.15554232128E+04  0.15554232128E+04  0.25500000920E-02 0.  1.
        2   -1    0    0  501    0  0.00000000000E+00  0.00000000000E+00 -0.26785915662E+04  0.26785915662E+04  0.25500000920E-02 0. -1.
    10030    2    1    2    0    0  0.00000000000E+00  0.00000000000E+00 -0.11231683534E+04  0.42340147790E+04  0.40823245827E+04 0.  0.
        2    1    3    3  502    0  0.20221382066E+04 -0.21735439920E+03 -0.38177068983E+03  0.20693077879E+04  0.25500000920E-02 0. -1.
       -2    1    3    3    0  502 -0.20221382066E+04  0.21735439920E+03 -0.74139766359E+03  0.21647069910E+04  0.25500000920E-02 0.  1.
</event>
<event>
 5   0  0.1368865E-07  0.3996400E+04  0.7818609E-02  0.8005273E-01
       -1   -1    0    0    0  501  0.00000000000E+00  0.00000000000E+00  0.11804885801E+04  0.11804885801E+04  0.50400001928E-02 0. -1.
        1   -1    0    0  501    0  0.00000000000E+00  0.00000000000E+00 -0.33823316782E+04  0.33823316782E+04  0.50400001928E-02 0.  1.
    10030    2    1    2    0    0  0.00000000000E+00  0.00000000000E+00 -0.22018430981E+04  0.45628202583E+04  0.39964003405E+04 0.  0.
        5    1    3    3  502    0 -0.72842365242E+03 -0.60708500114E+03  0.90723914266E+03  0.13123483409E+04  0.46999998093E+01 0. -1.
       -5    1    3    3    0  502  0.72842365242E+03  0.60708500114E+03 -0.31090822407E+04  0.32504719174E+04  0.46999998093E+01 0.  1.
</event>
<event>
 5   0  0.4079777E-07  0.4018307E+04  0.7818609E-02  0.8000864E-01
       -2   -1    0    0    0  501  0.00000000000E+00  0.00000000000E+00  0.19229348851E+04  0.19229348851E+04  0.25500000920E-02 0.  1.
        2   -1    0    0  501    0  0.00000000000E+00  0.00000000000E+00 -0.20992376008E+04  0.20992376008E+04  0.25500000920E-02 0. -1.
    10030    2    1    2    0    0  0.00000000000E+00  0.00000000000E+00 -0.17630271566E+03  0.40221724859E+04  0.40183067153E+04 0.  0.
        4    1    3    3  502    0 -0.17486488566E+04 -0.46530160975E+03  0.78585370331E+03  0.19727762335E+04  0.12699999809E+01 0.  1.
       -4    1    3    3    0  502  0.17486488566E+04  0.46530160975E+03 -0.96215641896E+03  0.20493962523E+04  0.12699999809E+01 0. -1.
</event>
<event>
 5   0  0.1372952E-07  0.4021424E+04  0.7818609E-02  0.8000238E-01
        1   -1    0    0  501    0  0.00000000000E+00  0.00000000000E+00  0.27618745585E+04  0.27618745585E+04  0.50400001928E-02 0.  1.
       -1   -1    0    0    0  501  0.00000000000E+00  0.00000000000E+00 -0.14638475462E+04  0.14638475462E+04  0.50400001928E-02 0. -1.
    10030    2    1    2    0    0  0.00000000000E+00  0.00000000000E+00  0.12980270124E+04  0.42257221047E+04  0.40214242728E+04 0.  0.
        1    1    3    3  502    0 -0.12308848744E+04 -0.74192094955E+03  0.21266669449E+04  0.25667560390E+04  0.50400001928E-02 0.  1.
       -1    1    3    3    0  502  0.12308848744E+04  0.74192094955E+03 -0.82863993251E+03  0.16589660657E+04  0.50400001928E-02 0. -1.
</event>
<event>
 5   0  0.1368865E-07  0.2814979E+04  0.7818609E-02  0.8298633E-01
        1   -1    0    0  501    0  0.00000000000E+00  0.00000000000E+00  0.17629035390E+04  0.17629035390E+04  0.50400001928E-02 0. -1.
       -1   -1    0    0    0  501  0.00000000000E+00  0.00000000000E+00 -0.11237295114E+04  0.11237295114E+04  0.50400001928E-02 0.  1.
    10030    2    1    2    0    0  0.00000000000E+00  0.00000000000E+00  0.63917402755E+03  0.28866330504E+04  0.28149790284E+04 0.  0.
        5    1    3    3  502    0  0.98794749892E+03  0.25491566231E+03  0.13137927719E+04  0.16634589844E+04  0.46999998093E+01 0. -1.
       -5    1    3    3    0  502 -0.98794749892E+03 -0.25491566231E+03 -0.67461874431E+03  0.12231740660E+04  0.46999998093E+01 0.  1.
</event>
<event>
 5   0  0.1372952E-07  0.4051200E+04  0.7818609E-02  0.7994297E-01
       -1   -1    0    0    0  501  0.00000000000E+00  0.00000000000E+00  0.33995531830E+04  0.33995531830E+04  0.50400001928E-02 0.  1.
        1   -1    0    0  501    0  0.00000000000E+00  0.00000000000E+00 -0.12069395740E+04  0.12069395740E+04  0.50400001928E-02 0. -1.
    10030    2    1    2    0    0  0.00000000000E+00  0.00000000000E+00  0.21926136090E+04  0.46064927571E+04  0.40511999559E+04 0.  0.
        1    1    3    3  502    0 -0.12288029907E+03  0.84475849433E+03  0.31850307977E+04  0.32974441108E+04  0.50400001928E-02 0.  1.
       -1    1    3    3    0  502  0.12288029907E+03 -0.84475849433E+03 -0.99241718872E+03  0.13090486462E+04  0.50400001928E-02 0. -1.
</event>
<event>
 5   0  0.4149487E-07  0.4080818E+04  0.7818609E-02  0.7988438E-01
        2   -1    0    0  501    0  0.00000000000E+00  0.00000000000E+00  0.20338587376E+04  0.20338587376E+04  0.25500000920E-02 0. -1.
       -2   -1    0    0    0  501  0.00000000000E+00  0.00000000000E+00 -0.20469808525E+04  0.20469808525E+04  0.25500000920E-02 0.  1.
    10030    2    1    2    0    0  0.00000000000E+00  0.00000000000E+00 -0.13122114843E+02  0.40808395901E+04  0.40808184927E+04 0.  0.
        2    1    3    3  502    0  0.13985465080E+04 -0.19959545173E+03 -0.14788115879E+04  0.20451538798E+04  0.25500000920E-02 0.  1.
       -2    1    3    3    0  502 -0.13985465080E+04  0.19959545173E+03  0.14656894731E+04  0.20356857103E+04  0.25500000920E-02 0. -1.
</event>
<event>
 5   0  0.4301754E-07  0.4220216E+04  0.7818609E-02  0.7961538E-01
       -2   -1    0    0    0  501  0.00000000000E+00  0.00000000000E+00  0.16784691623E+04  0.16784691623E+04  0.25500000920E-02 0.  1.
        2   -1    0    0  501    0  0.00000000000E+00  0.00000000000E+00 -0.26527477035E+04  0.26527477035E+04  0.25500000920E-02 0. -1.
    10030    2    1    2    0    0  0.00000000000E+00  0.00000000000E+00 -0.97427854115E+03  0.43312168658E+04  0.42202157365E+04 0.  0.
        1    1    3    3  502    0  0.68183965766E+03  0.72404740870E+03 -0.23971109702E+04  0.25952439138E+04  0.50400001928E-02 0. -1.
       -1    1    3    3    0  502 -0.68183965766E+03 -0.72404740870E+03  0.14228324291E+04  0.17359729520E+04  0.50400001928E-02 0.  1.
</event>
<event>
 5   0  0.1368865E-07  0.4039432E+04  0.7818609E-02  0.7996639E-01
        1   -1    0    0  501    0  0.00000000000E+00  0.00000000000E+00  0.21049870196E+04  0.21049870196E+04  0.50400001928E-02 0. -1.
       -1   -1    0    0    0  501  0.00000000000E+00  0.00000000000E+00 -0.19378995252E+04  0.19378995253E+04  0.50400001928E-02 0.  1.
    10030    2    1    2    0    0  0.00000000000E+00  0.00000000000E+00  0.16708749437E+03  0.40428865449E+04  0.40394323096E+04 0.  0.
        5    1    3    3  502    0  0.40735361718E+03  0.66228495098E+03 -0.17820977129E+04  0.19443386212E+04  0.46999998093E+01 0.  1.
       -5    1    3    3    0  502 -0.40735361718E+03 -0.66228495098E+03  0.19491852073E+04  0.20985479237E+04  0.46999998093E+01 0. -1.
</event>
<event>
 5   0  0.4047916E-07  0.4065240E+04  0.7818609E-02  0.7991513E-01
       -2   -1    0    0    0  501  0.00000000000E+00  0.00000000000E+00  0.17234522289E+04  0.17234522289E+04  0.25500000920E-02 0.  1.
        2   -1    0    0  501    0  0.00000000000E+00  0.00000000000E+00 -0.23972485337E+04  0.23972485337E+04  0.25500000920E-02 0. -1.
    10030    2    1    2    0    0  0.00000000000E+00  0.00000000000E+00 -0.67379630486E+03  0.41207007626E+04  0.40652396380E+04 0.  0.
        5    1    3    3  502    0 -0.16124077280E+04 -0.40535321694E+03  0.84839284196E+03  0.18665375475E+04  0.46999998093E+01 0.  1.
       -5    1    3    3    0  502  0.16124077280E+04  0.40535321694E+03 -0.15221891468E+04  0.22541632152E+04  0.46999998093E+01 0. -1.
</event>
<event>
 5   0  0.4047916E-07  0.3036019E+04  0.7818609E-02  0.8233520E-01
       -2   -1    0    0    0  501  0.00000000000E+00  0.00000000000E+00  0.10503322764E+04  0.10503322764E+04  0.25500000920E-02 0.  1.
        2   -1    0    0  501    0  0.00000000000E+00  0.00000000000E+00 -0.21939279717E+04  0.21939279717E+04  0.25500000920E-02 0. -1.
    10030    2    1    2    0    0  0.00000000000E+00  0.00000000000E+00 -0.11435956953E+04  0.32442602481E+04  0.30360193417E+04 0.  0.
        5    1    3    3  502    0 -0.12361282404E+04  0.22133406307E+03  0.33953441548E+03  0.13008871986E+04  0.46999998093E+01 0.  1.
       -5    1    3    3    0  502  0.12361282404E+04 -0.22133406307E+03 -0.14831301108E+04  0.19433730496E+04  0.46999998093E+01 0. -1.
</event>
<event>
 5   0  0.4047916E-07  0.3999130E+04  0.7818609E-02  0.8004722E-01
       -2   -1    0    0    0  501  0.00000000000E+00  0.00000000000E+00  0.16401502916E+04  0.16401502916E+04  0.25500000920E-02 0.  1.
        2   -1    0    0  501    0  0.00000000000E+00  0.00000000000E+00 -0.24377397412E+04  0.24377397412E+04  0.25500000920E-02 0. -1.
    10030    2    1    2    0    0  0.00000000000E+00  0.00000000000E+00 -0.79758944958E+03  0.40778900329E+04  0.39991296791E+04 0.  0.
        5    1    3    3  502    0 -0.94359432890E+03 -0.13392605850E+04  0.77018972080E+03  0.18103047998E+04  0.46999998093E+01 0. -1.
       -5    1    3    3    0  502  0.94359432890E+03  0.13392605850E+04 -0.15677791704E+04  0.22675852331E+04  0.46999998093E+01 0.  1.
</event>
<event>
 5   0  0.1372952E-07  0.4078365E+04  0.7818609E-02  0.7988922E-01
       -1   -1    0    0    0  501  0.00000000000E+00  0.00000000000E+00  0.30539295525E+04  0.30539295525E+04  0.50400001928E-02 0. -1.
        1   -1    0    0  501    0  0.00000000000E+00  0.00000000000E+00 -0.13616111302E+04  0.13616111302E+04  0.50400001928E-02 0.  1.
    10030    2    1    2    0    0  0.00000000000E+00  0.00000000000E+00  0.16923184223E+04  0.44155406827E+04  0.40783646082E+04 0.  0.
        1    1    3    3  502    0  0.13405690805E+04 -0.76849131431E+03 -0.59447319204E+03  0.16556275957E+04  0.50400001928E-02 0.  1.
       -1    1    3    3    0  502 -0.13405690805E+04  0.76849131431E+03  0.22867916144E+04  0.27599130869E+04  0.50400001928E-02 0. -1.
</event>
<event>
 5   0  0.4079777E-07  0.3985419E+04  0.7818609E-02  0.8007495E-01
        2   -1    0    0  501    0  0.00000000000E+00  0.00000000000E+00  0.21710208192E+04  0.21710208192E+04  0.25500000920E-02 0.  1.
       -2   -1    0    0    0  501  0.00000000000E+00  0.00000000000E+00 -0.18290429047E+04  0.18290429047E+04  0.25500000920E-02 0. -1.
    10030    2    1    2    0    0  0.00000000000E+00  0.00000000000E+00  0.34197791456E+03  0.40000637239E+04  0.39854185352E+04 0.  0.
        4    1    3    3  502    0 -0.12291794284E+04 -0.88839557639E+03 -0.11263396303E+04  0.18891191977E+04  0.12699999809E+01 0. -1.
       -4    1    3    3    0  502  0.12291794284E+04  0.88839557639E+03  0.14683175449E+04  0.21109445262E+04  0.12699999809E+01 0.  1.
</event>
<event>
 5   0  0.1372952E-07  0.3947057E+04  0.7818609E-02  0.8015313E-01
       -1   -1    0    0    0  501  0.00000000000E+00  0.00000000000E+00  0.18980235439E+04  0.18980235439E+04  0.50400001928E-02 0.  1.
        1   -1    0    0  501    0  0.00000000000E+00  0.00000000000E+00 -0.20520374622E+04  0.20520374622E+04  0.50400001928E-02 0. -1.
    10030    2    1    2    0    0  0.00000000000E+00  0.00000000000E+00 -0.15401391832E+03  0.39500610061E+04  0.39470573425E+04 0.  0.
        1    1    3    3  502    0  0.86677944963E+03 -0.17542276230E+04 -0.33448517786E+03  0.19850696466E+04  0.50400001928E-02 0. -1.
       -1    1    3    3    0  502 -0.86677944963E+03  0.17542276230E+04  0.18047125954E+03  0.19649913595E+04  0.50400001928E-02 0.  1.
</event>
<event>
 5   0  0.1351000E-07  0.3976592E+04  0.7818609E-02  0.8009285E-01
        1   -1    0    0  501    0  0.00000000000E+00  0.00000000000E+00  0.15947654811E+04  0.15947654811E+04  0.50400001928E-02 0. -1.
       -1   -1    0    0    0  501  0.00000000000E+00  0.00000000000E+00 -0.24789353418E+04  0.24789353418E+04  0.50400001928E-02 0.  1.
    10030    2    1    2    0    0  0.00000000000E+00  0.00000000000E+00 -0.88416986070E+03  0.40737008228E+04  0.39765917632E+04 0.  0.
        3    1    3    3  502    0  0.12106763998E+04 -0.48812219205E+03 -0.19784829308E+04  0.23703154510E+04  0.10100000352E+00 0.  1.
       -3    1    3    3    0  502 -0.12106763998E+04  0.48812219205E+03  0.10943130701E+04  0.17033853718E+04  0.10100000352E+00 0. -1.
</event>
<event>
 5   0  0.1421304E-07  0.3398511E+04  0.7818609E-02  0.8138272E-01
       -1   -1    0    0    0  501  0.00000000000E+00  0.00000000000E+00  0.25193300699E+04  0.25193300699E+04  0.50400001928E-02 0. -1.
        1   -1    0    0  501    0  0.00000000000E+00  0.00000000000E+00 -0.11461260313E+04  0.11461260313E+04  0.50400001928E-02 0.  1.
    10030    2    1    2    0    0  0.00000000000E+00  0.00000000000E+00  0.13732040386E+04  0.36654561012E+04  0.33985113062E+04 0.  0.
        2    1    3    3  502    0 -0.41533091157E+03 -0.16157891523E+04  0.33845424276E+03  0.17023000985E+04  0.25500000920E-02 0.  1.
       -2    1    3    3    0  502  0.41533091157E+03  0.16157891523E+04  0.10347497958E+04  0.19631560027E+04  0.25500000920E-02 0. -1.
</event>
<event>
 5   0  0.4079777E-07  0.3990417E+04  0.7818609E-02  0.8006482E-01
       -2   -1    0    0    0  501  0.00000000000E+00  0.00000000000E+00  0.21368058368E+04  0.21368058368E+04  0.25500000920E-02 0.  1.
        2   -1    0    0  501    0  0.00000000000E+00  0.00000000000E+00 -0.18629945938E+04  0.18629945938E+04  0.25500000920E-02 0. -1.
    10030    2    1    2    0    0  0.00000000000E+00  0.00000000000E+00  0.27381124302E+03  0.39998004305E+04  0.39904173826E+04 0.  0.
        4    1    3    3  502    0  0.52267457462E+02  0.12434409286E+03  0.21322302191E+04  0.21364926073E+04  0.12699999809E+01 0.  1.
       -4    1    3    3    0  502 -0.52267457462E+02 -0.12434409286E+03 -0.18584189761E+04  0.18633078233E+04  0.12699999809E+01 0. -1.
</event>
<event>
 5   0  0.1351000E-07  0.2608596E+04  0.7818609E-02  0.8365287E-01
        1   -1    0    0  501    0  0.00000000000E+00  0.00000000000E+00  0.27798459640E+04  0.27798459640E+04  0.50400001928E-02 0. -1.
       -1   -1    0    0    0  501  0.00000000000E+00  0.00000000000E+00 -0.61197409416E+03  0.61197409418E+03  0.50400001928E-02 0.  1.
    10030    2    1    2    0    0  0.00000000000E+00  0.00000000000E+00  0.21678718699E+04  0.33918200582E+04  0.26085963396E+04 0.  0.
        4    1    3    3  502    0 -0.11310614587E+03 -0.11609816726E+04  0.18426841036E+04  0.21808617019E+04  0.12699999809E+01 0. -1.
       -4    1    3    3    0  502  0.11310614587E+03  0.11609816726E+04  0.32518776629E+03  0.12109583563E+04  0.12699999809E+01 0.  1.
</event>
<event>
 5   0  0.1351000E-07  0.3990394E+04  0.7818609E-02  0.8006487E-01
        1   -1    0    0  501    0  0.00000000000E+00  0.00000000000E+00  0.26552965957E+04  0.26552965957E+04  0.50400001928E-02 0. -1.
       -1   -1    0    0    0  501  0.00000000000E+00  0.00000000000E+00 -0.14991965130E+04  0.14991965130E+04  0.50400001928E-02 0.  1.
    10030    2    1    2    0    0  0.00000000000E+00  0.00000000000E+00  0.11561000827E+04  0.41544931087E+04  0.39903941646E+04 0.  0.
        3    1    3    3  502    0  0.42604030283E+03 -0.19437031620E+03 -0.14411716582E+04  0.15153434984E+04  0.10100000352E+00 0.  1.
       -3    1    3    3    0  502 -0.42604030283E+03  0.19437031620E+03  0.25972717409E+04  0.26391496103E+04  0.10100000352E+00 0. -1.
</event>
<event>
 5   0  0.4301754E-07  0.3750875E+04  0.7818609E-02  0.8056780E-01
       -2   -1    0    0    0  501  0.00000000000E+00  0.00000000000E+00  0.15051692384E+04  0.15051692384E+04  0.25500000920E-02 0.  1.
        2   -1    0    0  501    0  0.00000000000E+00  0.00000000000E+00 -0.23367909030E+04  0.23367909030E+04  0.25500000920E-02 0. -1.
    10030    2    1    2    0    0  0.00000000000E+00  0.00000000000E+00 -0.83162166465E+03  0.38419601414E+04  0.37508749825E+04 0.  0.
        1    1    3    3  502    0 -0.26319317949E+03 -0.58536086762E+03  0.13891816152E+04  0.15302756467E+04  0.50400001928E-02 0.  1.
       -1    1    3    3    0  502  0.26319317949E+03  0.58536086762E+03 -0.22208032798E+04  0.23116844946E+04  0.50400001928E-02 0. -1.
</event>
<event>
 5   0  0.4047916E-07  0.4158808E+04  0.7818609E-02  0.7973254E-01
        2   -1    0    0  501    0  0.00000000000E+00  0.00000000000E+00  0.16543176904E+04  0.16543176904E+04  0.25500000920E-02 0.  1.
       -2   -1    0    0    0  501  0.00000000000E+00  0.00000000000E+00 -0.26137184270E+04  0.26137184270E+04  0.25500000920E-02 0. -1.
    10030    2    1    2    0    0  0.00000000000E+00  0.00000000000E+00 -0.95940073659E+03  0.42680361175E+04  0.41588078252E+04 0.  0.
        5    1    3    3  502    0  0.14810564599E+04 -0.42277310816E+03  0.95399978785E+03  0.18117403301E+04  0.46999998093E+01 0.  1.
       -5    1    3    3    0  502 -0.14810564599E+04  0.42277310816E+03 -0.19134005244E+04  0.24562957874E+04  0.46999998093E+01 0. -1.
</event>
<event>
 5   0  0.1351000E-07  0.3819425E+04  0.7818609E-02  0.8041999E-01
       -1   -1    0    0    0  501  0.00000000000E+00  0.00000000000E+00  0.15164704772E+04  0.15164704773E+04  0.50400001928E-02 0.  1.
        1   -1    0    0  501    0  0.00000000000E+00  0.00000000000E+00 -0.24049282957E+04  0.24049282957E+04  0.50400001928E-02 0. -1.
    10030    2    1    2    0    0  0.00000000000E+00  0.00000000000E+00 -0.88845781846E+03  0.39213987730E+04  0.38194254858E+04 0.  0.
        4    1    3    3  502    0 -0.93775159662E+03  0.15421402230E+04  0.19647265792E+03  0.18155378384E+04  0.12699999809E+01 0.  1.
       -4    1    3    3    0  502  0.93775159662E+03 -0.15421402230E+04 -0.10849304764E+04  0.21058609346E+04  0.12699999809E+01 0. -1.
</event>
<event>
 5   0  0.4079777E-07  0.3987716E+04  0.7818609E-02  0.8007029E-01
        2   -1    0    0  501    0  0.00000000000E+00  0.00000000000E+00  0.16694362470E+04  0.16694362470E+04  0.25500000920E-02 0. -1.
       -2   -1    0    0    0  501  0.00000000000E+00  0.00000000000E+00 -0.23813243642E+04  0.23813243642E+04  0.25500000920E-02 0.  1.
    10030    2    1    2    0    0  0.00000000000E+00  0.00000000000E+00 -0.71188811727E+03  0.40507606112E+04  0.39877157419E+04 0.  0.
        4    1    3    3  502    0 -0.34132938405E+03  0.80043145635E+03 -0.21782601660E+04  0.23456374887E+04  0.12699999809E+01 0.  1.
       -4    1    3    3    0  502  0.34132938405E+03 -0.80043145635E+03  0.14663720487E+04  0.17051231225E+04  0.12699999809E+01 0. -1.
</event>
<event>
 5   0  0.4149487E-07  0.3991662E+04  0.7818609E-02  0.8006231E-01
       -2   -1    0    0    0  501  0.00000000000E+00  0.00000000000E+00  0.13107141496E+04  0.13107141496E+04  0.25500000920E-02 0. -1.
        2   -1    0    0  501    0  0.00000000000E+00  0.00000000000E+00 -0.30390619789E+04  0.30390619789E+04  0.25500000920E-02 0.  1.
    10030    2    1    2    0    0  0.00000000000E+00  0.00000000000E+00 -0.17283478292E+04  0.43497761285E+04  0.39916620785E+04 0.  0.
        2    1    3    3  502    0  0.10188222043E+04 -0.68778289647E+03  0.84924479868E+03  0.14940752072E+04  0.25500000920E-02 0. -1.
       -2    1    3    3    0  502 -0.10188222043E+04  0.68778289647E+03 -0.25775926279E+04  0.28557009213E+04  0.25500000920E-02 0.  1.
</event>
<event>
 5   0  0.1372952E-07  0.3257694E+04  0.7818609E-02  0.8173744E-01
       -1   -1    0    0    0  501  0.00000000000E+00  0.00000000000E+00  0.12766099024E+04  0.12766099024E+04  0.50400001928E-02 0. -1.
        1   -1    0    0  501    0  0.00000000000E+00  0.00000000000E+00 -0.20782723653E+04  0.20782723653E+04  0.50400001928E-02 0.  1.
    10030    2    1    2    0    0  0.00000000000E+00  0.00000000000E+00 -0.80166246292E+03  0.33548822677E+04  0.32576943266E+04 0.  0.
        1    1    3    3  502    0 -0.79822251431E+03 -0.33892877980E+03  0.10191111134E+04  0.13381402623E+04  0.50400001928E-02 0. -1.
       -1    1    3    3    0  502  0.79822251431E+03  0.33892877980E+03 -0.18207735763E+04  0.20167420054E+04  0.50400001928E-02 0.  1.
</event>
<event>
 5   0  0.4149487E-07  0.2601835E+04  0.7818609E-02  0.8367578E-01
       -2   -1    0    0    0  501  0.00000000000E+00  0.00000000000E+00  0.11875147646E+04  0.11875147646E+04  0.25500000920E-02 0. -1.
        2   -1    0    0  501    0  0.00000000000E+00  0.00000000000E+00 -0.14251499186E+04  0.14251499187E+04  0.25500000920E-02 0.  1.
    10030    2    1    2    0    0  0.00000000000E+00  0.00000000000E+00 -0.23763515408E+03  0.26126646832E+04  0.26018351755E+04 0.  0.
        2    1    3    3  502    0  0.12922580517E+04  0.11410605890E+03 -0.21276740911E+02  0.12974605060E+04  0.25500000920E-02 0. -1.
       -2    1    3    3    0  502 -0.12922580517E+04 -0.11410605890E+03 -0.21635841316E+03  0.13152041772E+04  0.25500000920E-02 0.  1.
</event>
<event>
 5   0  0.1421304E-07  0.2964580E+04  0.7818609E-02  0.8253918E-01
        1   -1    0    0  501    0  0.00000000000E+00  0.00000000000E+00  0.17288806619E+04  0.17288806619E+04  0.50400001928E-02 0. -1.
       -1   -1    0    0    0  501  0.00000000000E+00  0.00000000000E+00 -0.12708705356E+04  0.12708705356E+04  0.50400001928E-02 0.  1.
    10030    2    1    2    0    0  0.00000000000E+00  0.00000000000E+00  0.45801012635E+03  0.29997511975E+04  0.29645798979E+04 0.  0.
        2    1    3    3  502    0  0.20217778625E+03  0.13709539432E+04  0.76135789104E+03  0.15811566684E+04  0.25500000920E-02 0. -1.
       -2    1    3    3    0  502 -0.20217778625E+03 -0.13709539432E+04 -0.30334776469E+03  0.14185945291E+04  0.25500000920E-02 0.  1.
</event>
<event>
 5   0  0.1351000E-07  0.4060095E+04  0.7818609E-02  0.7992532E-01
        1   -1    0    0  501    0  0.00000000000E+00  0.00000000000E+00  0.23939328292E+04  0.23939328292E+04  0.50400001928E-02 0. -1.
       -1   -1    0    0    0  501  0.00000000000E+00  0.00000000000E+00 -0.17214740435E+04  0.17214740435E+04  0.50400001928E-02 0.  1.
    10030    2    1    2    0    0  0.00000000000E+00  0.00000000000E+00  0.67245878566E+03  0.41154068727E+04  0.40600951848E+04 0.  0.
        4    1    3    3  502    0  0.50876556738E+03  0.16849591923E+04 -0.68906529563E+03  0.18901699597E+04  0.12699999809E+01 0.  1.
       -4    1    3    3    0  502 -0.50876556738E+03 -0.16849591923E+04  0.13615240813E+04  0.22252369130E+04  0.12699999809E+01 0. -1.
</event>
<event>
 5   0  0.4301754E-07  0.3999711E+04  0.7818609E-02  0.8004605E-01
        2   -1    0    0  501    0  0.00000000000E+00  0.00000000000E+00  0.15315984955E+04  0.15315984955E+04  0.25500000920E-02 0. -1.
       -2   -1    0    0    0  501  0.00000000000E+00  0.00000000000E+00 -0.26112727478E+04  0.26112727478E+04  0.25500000920E-02 0.  1.
    10030    2    1    2    0    0  0.00000000000E+00  0.00000000000E+00 -0.10796742523E+04  0.41428712433E+04  0.39997106955E+04 0.  0.
        1    1    3    3  502    0  0.10005833184E+04  0.14005691868E+04 -0.15944452406E+04  0.23462771894E+04  0.50400001928E-02 0.  1.
       -1    1    3    3    0  502 -0.10005833184E+04 -0.14005691868E+04  0.51477098830E+03  0.17965940539E+04  0.50400001928E-02 0. -1.
</event>
<event>
 5   0  0.4149487E-07  0.4144421E+04  0.7818609E-02  0.7976030E-01
        2   -1    0    0  501    0  0.00000000000E+00  0.00000000000E+00  0.23179990975E+04  0.23179990975E+04  0.25500000920E-02 0. -1.
       -2   -1    0    0    0  501  0.00000000000E+00  0.00000000000E+00 -0.18524839982E+04  0.18524839982E+04  0.25500000920E-02 0.  1.
    10030    2    1    2    0    0  0.00000000000E+00  0.00000000000E+00  0.46551509931E+03  0.41704830957E+04  0.41444209420E+04 0.  0.
        2    1    3    3  502    0  0.19645532402E+04  0.34252471969E+03 -0.33404610575E+03  0.20219741388E+04  0.25500000920E-02 0.  1.
       -2    1    3    3    0  502 -0.19645532402E+04 -0.34252471969E+03  0.79956120506E+03  0.21485089569E+04  0.25500000920E-02 0. -1.
</event>
<event>
 5   0  0.1372952E-07  0.4032041E+04  0.7818609E-02  0.7998114E-01
        1   -1    0    0  501    0  0.00000000000E+00  0.00000000000E+00  0.20670232750E+04  0.20670232750E+04  0.50400001928E-02 0.  1.
       -1   -1    0    0    0  501  0.00000000000E+00  0.00000000000E+00 -0.19662766760E+04  0.19662766760E+04  0.50400001928E-02 0. -1.
    10030    2    1    2    0    0  0.00000000000E+00  0.00000000000E+00  0.10074659897E+03  0.40332999510E+04  0.40320414950E+04 0.  0.
        1    1    3    3  502    0 -0.17340057781E+04 -0.21891848060E+03 -0.95474791580E+03  0.19915433518E+04  0.50400001928E-02 0. -1.
       -1    1    3    3    0  502  0.17340057781E+04  0.21891848060E+03  0.10554945148E+04  0.20417565992E+04  0.50400001928E-02 0.  1.
</event>
<event>
 5   0  0.1421304E-07  0.4034340E+04  0.7818609E-02  0.7997655E-01
       -1   -1    0    0    0  501  0.00000000000E+00  0.00000000000E+00  0.15820384367E+04  0.15820384367E+04  0.50400001928E-02 0.  1.
        1   -1    0    0  501    0  0.00000000000E+00  0.00000000000E+00 -0.25719819707E+04  0.25719819707E+04  0.50400001928E-02 0. -1.
    10030    2    1    2    0    0  0.00000000000E+00  0.00000000000E+00 -0.98994353408E+03  0.41540204074E+04  0.40343397656E+04 0.  0.
        2    1    3    3  502    0  0.44217033437E+03 -0.12278150827E+04  0.10888163747E+04  0.16995780593E+04  0.25500000920E-02 0.  1.
       -2    1    3    3    0  502 -0.44217033437E+03  0.12278150827E+04 -0.20787599087E+04  0.24544423481E+04  0.25500000920E-02 0. -1.
</event>
<event>
 5   0  0.4301754E-07  0.2754277E+04  0.7818609E-02  0.8317606E-01
       -2   -1    0    0    0  501  0.00000000000E+00  0.00000000000E+00  0.10651238032E+04  0.10651238032E+04  0.25500000920E-02 0. -1.
        2   -1    0    0  501    0  0.00000000000E+00  0.00000000000E+00 -0.17805536479E+04  0.17805536479E+04  0.25500000920E-02 0.  1.
    10030    2    1    2    0    0  0.00000000000E+00  0.00000000000E+00 -0.71542984468E+03  0.28456774511E+04  0.27542767277E+04 0.  0.
        1    1    3    3  502    0 -0.12860525457E+04 -0.66468993092E+02  0.14649714610E+03  0.12960751102E+04  0.50400001928E-02 0. -1.
       -1    1    3    3    0  502  0.12860525457E+04  0.66468993092E+02 -0.86192699077E+03  0.15496023409E+04  0.50400001928E-02 0.  1.
</event>
<event>
 5   0  0.1421304E-07  0.3952888E+04  0.7818609E-02  0.8014119E-01
       -1   -1    0    0    0  501  0.00000000000E+00  0.00000000000E+00  0.18092780626E+04  0.18092780626E+04  0.50400001928E-02 0.  1.
        1   -1    0    0  501    0  0.00000000000E+00  0.00000000000E+00 -0.21590550273E+04  0.21590550273E+04  0.50400001928E-02 0. -1.
    10030    2    1    2    0    0  0.00000000000E+00  0.00000000000E+00 -0.34977696470E+03  0.39683330898E+04  0.39528880058E+04 0.  0.
        2    1    3    3  502    0 -0.23082091421E+03 -0.18706807525E+04 -0.77185984449E+03  0.20367848172E+04  0.25500000920E-02 0. -1.
       -2    1    3    3    0  502  0.23082091421E+03  0.18706807525E+04  0.42208287979E+03  0.19315482726E+04  0.25500000920E-02 0.  1.
</event>
<event>
 5   0  0.1351000E-07  0.3978698E+04  0.7818609E-02  0.8008858E-01
        1   -1    0    0  501    0  0.00000000000E+00  0.00000000000E+00  0.20109776036E+04  0.20109776036E+04  0.50400001928E-02 0.  1.
       -1   -1    0    0    0  501  0.00000000000E+00  0.00000000000E+00 -0.19679531061E+04  0.19679531061E+04  0.50400001928E-02 0. -1.
    10030    2    1    2    0    0  0.00000000000E+00  0.00000000000E+00  0.43024497528E+02  0.39789307098E+04  0.39786980893E+04 0.  0.
        3    1    3    3  502    0  0.12824704065E+04 -0.85711321370E+03 -0.12348001121E+04  0.19758807484E+04  0.10100000352E+00 0. -1.
       -3    1    3    3    0  502 -0.12824704065E+04  0.85711321370E+03  0.12778246096E+04  0.20030499614E+04  0.10100000352E+00 0.  1.
</event>
<event>
 5   0  0.4079777E-07  0.4172797E+04  0.7818609E-02  0.7970567E-01
       -2   -1    0    0    0  501  0.00000000000E+00  0.00000000000E+00  0.13765509269E+04  0.13765509269E+04  0.25500000920E-02 0.  1.
        2   -1    0    0  501    0  0.00000000000E+00  0.00000000000E+00 -0.31622932266E+04  0.31622932266E+04  0.25500000920E-02 0. -1.
    10030    2    1    2    0    0  0.00000000000E+00  0.00000000000E+00 -0.17857422996E+04  0.45388441535E+04  0.41727965070E+04 0.  0.
        4    1    3    3  502    0 -0.18981181510E+04 -0.55832058978E+03 -0.16131385903E+04  0.25528008384E+04  0.12699999809E+01 0.  1.
       -4    1    3    3    0  502  0.18981181510E+04  0.55832058978E+03 -0.17260370932E+03  0.19860433151E+04  0.12699999809E+01 0. -1.
</event>
<event>
 5   0  0.4079777E-07  0.4044341E+04  0.7818609E-02  0.7995661E-01
        2   -1    0    0  501    0  0.00000000000E+00  0.00000000000E+00  0.21909354521E+04  0.21909354521E+04  0.25500000920E-02 0. -1.
       -2   -1    0    0    0  501  0.00000000000E+00  0.00000000000E+00 -0.18664049696E+04  0.18664049696E+04  0.25500000920E-02 0.  1.
    10030    2    1    2    0    0  0.00000000000E+00  0.00000000000E+00  0.32453048255E+03  0.40573404217E+04  0.40443406463E+04 0.  0.
        4    1    3    3  502    0  0.10691580427E+04  0.51992421257E+03  0.18032954489E+04  0.21599296739E+04  0.12699999809E+01 0. -1.
       -4    1    3    3    0  502 -0.10691580427E+04 -0.51992421257E+03 -0.14787649664E+04  0.18974107478E+04  0.12699999809E+01 0.  1.
</event>
<event>
 5   0  0.4079777E-07  0.3992513E+04  0.7818609E-02  0.8006059E-01
       -2   -1    0    0    0  501  0.00000000000E+00  0.00000000000E+00  0.14661539791E+04  0.14661539791E+04  0.25500000920E-02 0.  1.
        2   -1    0    0  501    0  0.00000000000E+00  0.00000000000E+00 -0.27180231638E+04  0.27180231638E+04  0.25500000920E-02 0. -1.
    10030    2    1    2    0    0  0.00000000000E+00  0.00000000000E+00 -0.12518691847E+04  0.41841771429E+04  0.39925132320E+04 0.  0.
        4    1    3    3  502    0 -0.49881826481E+03 -0.22464851049E+03 -0.26379289950E+04  0.26940596894E+04  0.12699999809E+01 0. -1.
       -4    1    3    3    0  502  0.49881826481E+03  0.22464851049E+03  0.13860598103E+04  0.14901174535E+04  0.12699999809E+01 0.  1.
</event>
<event>
 5   0  0.4077370E-07  0.3983524E+04  0.7818609E-02  0.8007879E-01
        2   -1    0    0  501    0  0.00000000000E+00  0.00000000000E+00  0.18408798979E+04  0.18408798979E+04  0.25500000920E-02 0.  1.
       -2   -1    0    0    0  501  0.00000000000E+00  0.00000000000E+00 -0.21550108569E+04  0.21550108569E+04  0.25500000920E-02 0. -1.
    10030    2    1    2    0    0  0.00000000000E+00  0.00000000000E+00 -0.31413095901E+03  0.39958907548E+04  0.39835241514E+04 0.  0.
        3    1    3    3  502    0 -0.10744767652E+03 -0.15389459033E+04 -0.14208244706E+04  0.20972938952E+04  0.10100000352E+00 0. -1.
       -3    1    3    3    0  502  0.10744767652E+03  0.15389459033E+04  0.11066935116E+04  0.18985968596E+04  0.10100000352E+00 0.  1.
</event>
<event>
 5   0  0.1372952E-07  0.4006640E+04  0.7818609E-02  0.8003208E-01
       -1   -1    0    0    0  501  0.00000000000E+00  0.00000000000E+00  0.15111776910E+04  0.15111776910E+04  0.50400001928E-02 0. -1.
        1   -1    0    0  501    0  0.00000000000E+00  0.00000000000E+00 -0.26557374728E+04  0.26557374728E+04  0.50400001928E-02 0.  1.
    10030    2    1    2    0    0  0.00000000000E+00  0.00000000000E+00 -0.11445597818E+04  0.41669151638E+04  0.40066400996E+04 0.  0.
        1    1    3    3  502    0 -0.97278146185E+03  0.17465869527E+04 -0.70555231232E+03  0.21200645795E+04  0.50400001928E-02 0. -1.
       -1    1    3    3    0  502  0.97278146185E+03 -0.17465869527E+04 -0.43900746948E+03  0.20468505842E+04  0.50400001928E-02 0.  1.
</event>
<event>
 5   0  0.4149487E-07  0.3971260E+04  0.7818609E-02  0.8010369E-01
        2   -1    0    0  501    0  0.00000000000E+00  0.00000000000E+00  0.14358290603E+04  0.14358290603E+04  0.25500000920E-02 0.  1.
       -2   -1    0    0    0  501  0.00000000000E+00  0.00000000000E+00 -0.27459586985E+04  0.27459586985E+04  0.25500000920E-02 0. -1.
    10030    2    1    2    0    0  0.00000000000E+00  0.00000000000E+00 -0.13101296382E+04  0.41817877588E+04  0.39712604033E+04 0.  0.
        2    1    3    3  502    0  0.10329614121E+04  0.14304062467E+04  0.30407660386E+03  0.17904004833E+04  0.25500000920E-02 0.  1.
       -2    1    3    3    0  502 -0.10329614121E+04 -0.14304062467E+04 -0.16142062421E+04  0.23913872755E+04  0.25500000920E-02 0. -1.
</event>
<event>
 5   0  0.4301754E-07  0.3972038E+04  0.7818609E-02  0.8010211E-01
       -2   -1    0    0    0  501  0.00000000000E+00  0.00000000000E+00  0.16244277257E+04  0.16244277257E+04  0.25500000920E-02 0. -1.
        2   -1    0    0  501    0  0.00000000000E+00  0.00000000000E+00 -0.24280989733E+04  0.24280989733E+04  0.25500000920E-02 0.  1.
    10030    2    1    2    0    0  0.00000000000E+00  0.00000000000E+00 -0.80367124767E+03  0.40525266990E+04  0.39720379117E+04 0.  0.
        1    1    3    3  502    0  0.59000341891E+03 -0.65054572048E+03 -0.22192109558E+04  0.23866736340E+04  0.50400001928E-02 0.  1.
       -1    1    3    3    0  502 -0.59000341891E+03  0.65054572048E+03  0.14155397082E+04  0.16658530650E+04  0.50400001928E-02 0. -1.
</event>
<event>
 5   0  0.1421304E-07  0.3302085E+04  0.7818609E-02  0.8162365E-01
       -1   -1    0    0    0  501  0.00000000000E+00  0.00000000000E+00  0.17571913962E+04  0.17571913963E+04  0.50400001928E-02 0.  1.
        1   -1    0    0  501    0  0.00000000000E+00  0.00000000000E+00 -0.15513063010E+04  0.15513063010E+04  0.50400001928E-02 0. -1.
    10030    2    1    2    0    0  0.00000000000E+00  0.00000000000E+00  0.20588509528E+03  0.33084976972E+04  0.33020854532E+04 0.  0.
        2    1    3    3  502    0  0.12618369200E+04 -0.89617694554E+03 -0.47313182202E+03  0.16184002136E+04  0.25500000920E-02 0. -1.
       -2    1    3    3    0  502 -0.12618369200E+04  0.89617694554E+03  0.67901691730E+03  0.16900974837E+04  0.25500000920E-02 0.  1.
</event>
<event>
 5   0  0.1421304E-07  0.2985884E+04  0.7818609E-02  0.8247773E-01
       -1   -1    0    0    0  501  0.00000000000E+00  0.00000000000E+00  0.12652405971E+04  0.12652405971E+04  0.50400001928E-02 0. -1.
        1   -1    0    0  501    0  0.00000000000E+00  0.00000000000E+00 -0.17616220609E+04  0.17616220609E+04  0.50400001928E-02 0.  1.
    10030    2    1    2    0    0  0.00000000000E+00  0.00000000000E+00 -0.49638146375E+03  0.30268626580E+04  0.29858839550E+04 0.  0.
        2    1    3    3  502    0 -0.13310238899E+04 -0.35811378081E+03  0.33327146322E+03  0.14180761418E+04  0.25500000920E-02 0. -1.
       -2    1    3    3    0  502  0.13310238899E+04  0.35811378081E+03 -0.82965292697E+03  0.16087865162E+04  0.25500000920E-02 0.  1.
</event>
<event>
 5   0  0.4079777E-07  0.3977531E+04  0.7818609E-02  0.8009095E-01
       -2   -1    0    0    0  501  0.00000000000E+00  0.00000000000E+00  0.26661568380E+04  0.26661568380E+04  0.25500000920E-02 0. -1.
        2   -1    0    0  501    0  0.00000000000E+00  0.00000000000E+00 -0.14834789877E+04  0.14834789877E+04  0.25500000920E-02 0.  1.
    10030    2    1    2    0    0  0.00000000000E+00  0.00000000000E+00  0.11826778502E+04  0.41496358257E+04  0.39775307149E+04 0.  0.
        4    1    3    3  502    0  0.10342216378E+04  0.20374211964E+03 -0.11680663092E+04  0.15733740060E+04  0.12699999809E+01 0.  1.
       -4    1    3    3    0  502 -0.10342216378E+04 -0.20374211964E+03  0.23507441594E+04  0.25762618196E+04  0.12699999809E+01 0. -1.
</event>
<event>
 5   0  0.4079777E-07  0.3914336E+04  0.7818609E-02  0.8022054E-01
       -2   -1    0    0    0  501  0.00000000000E+00  0.00000000000E+00  0.16958351553E+04  0.16958351553E+04  0.25500000920E-02 0. -1.
        2   -1    0    0  501    0  0.00000000000E+00  0.00000000000E+00 -0.22587731204E+04  0.22587731204E+04  0.25500000920E-02 0.  1.
    10030    2    1    2    0    0  0.00000000000E+00  0.00000000000E+00 -0.56293796517E+03  0.39546082757E+04  0.39143361457E+04 0.  0.
        4    1    3    3  502    0  0.13321386935E+03 -0.14414860249E+04  0.10492297466E+04  0.17878793497E+04  0.12699999809E+01 0. -1.
       -4    1    3    3    0  502 -0.13321386935E+03  0.14414860249E+04 -0.16121677118E+04  0.21667289260E+04  0.12699999809E+01 0.  1.
</event>
<event>
 5   0  0.4079777E-07  0.3846202E+04  0.7818609E-02  0.8036312E-01
        2   -1    0    0  501    0  0.00000000000E+00  0.00000000000E+00  0.26112313110E+04  0.26112313110E+04  0.25500000920E-02 0.  1.
       -2   -1    0    0    0  501  0.00000000000E+00  0.00000000000E+00 -0.14163114094E+04  0.14163114094E+04  0.25500000920E-02 0. -1.
    10030    2    1    2    0    0  0.00000000000E+00  0.00000000000E+00  0.11949199016E+04  0.40275427203E+04  0.38462016058E+04 0.  0.
        4    1    3    3  502    0  0.13973945951E+03  0.30627814883E+02  0.26056513911E+04  0.26095758208E+04  0.12699999809E+01 0.  1.
       -4    1    3    3    0  502 -0.13973945951E+03 -0.30627814883E+02 -0.14107314895E+04  0.14179668995E+04  0.12699999809E+01 0. -1.
</event>
<event>
 5   0  0.1351000E-07  0.4070330E+04  0.7818609E-02  0.7990507E-01
        1   -1    0    0  501    0  0.00000000000E+00  0.00000000000E+00  0.21727139132E+04  0.21727139132E+04  0.50400001928E-02 0. -1.
       -1   -1    0    0    0  501  0.00000000000E+00  0.00000000000E+00 -0.19063239324E+04  0.19063239324E+04  0.50400001928E-02 0.  1.
    10030    2    1    2    0    0  0.00000000000E+00  0.00000000000E+00  0.26638998076E+03  0.40790378456E+04  0.40703299773E+04 0.  0.
        3    1    3    3  502    0 -0.58780174728E+03  0.44697423350E+03  0.20337225243E+04  0.21636367938E+04  0.10100000352E+00 0. -1.
       -3    1    3    3    0  502  0.58780174728E+03 -0.44697423350E+03 -0.17673325436E+04  0.19154010518E+04  0.10100000352E+00 0.  1.
</event>
<event>
 5   0  0.1368865E-07  0.3852207E+04  0.7818609E-02  0.8035043E-01
       -1   -1    0    0    0  501  0.00000000000E+00  0.00000000000E+00  0.19969009299E+04  0.19969009299E+04  0.50400001928E-02 0.  1.
        1   -1    0    0  501    0  0.00000000000E+00  0.00000000000E+00 -0.18578162888E+04  0.18578162888E+04  0.50400001928E-02 0. -1.
    10030    2    1    2    0    0  0.00000000000E+00  0.00000000000E+00  0.13908464110E+03  0.38547172187E+04  0.38522071983E+04 0.  0.
        5    1    3    3  502    0 -0.88780309571E+03  0.16426638072E+04 -0.40332697772E+03  0.19102966946E+04  0.46999998093E+01 0. -1.
       -5    1    3    3    0  502  0.88780309571E+03 -0.16426638072E+04  0.54241161882E+03  0.19444205241E+04  0.46999998093E+01 0.  1.
</event>
<event>
 5   0  0.4149487E-07  0.3985326E+04  0.7818609E-02  0.8007513E-01
       -2   -1    0    0    0  501  0.00000000000E+00  0.00000000000E+00  0.19702555359E+04  0.19702555359E+04  0.25500000920E-02 0. -1.
        2   -1    0    0  501    0  0.00000000000E+00  0.00000000000E+00 -0.20153255476E+04  0.20153255476E+04  0.25500000920E-02 0.  1.
    10030    2    1    2    0    0  0.00000000000E+00  0.00000000000E+00 -0.45070011664E+02  0.39855810835E+04  0.39853262435E+04 0.  0.
        2    1    3    3  502    0  0.79733441654E+03 -0.12378744969E+04  0.13201717452E+04  0.19776068564E+04  0.25500000920E-02 0.  1.
       -2    1    3    3    0  502 -0.79733441654E+03  0.12378744969E+04 -0.13652417569E+04  0.20079742271E+04  0.25500000920E-02 0. -1.
</event>
<event>
 5   0  0.1421304E-07  0.3968117E+04  0.7818609E-02  0.8011009E-01
       -1   -1    0    0    0  501  0.00000000000E+00  0.00000000000E+00  0.13089954619E+04  0.13089954619E+04  0.50400001928E-02 0. -1.
        1   -1    0    0  501    0  0.00000000000E+00  0.00000000000E+00 -0.30072588988E+04  0.30072588988E+04  0.50400001928E-02 0.  1.
    10030    2    1    2    0    0  0.00000000000E+00  0.00000000000E+00 -0.16982634369E+04  0.43162543607E+04  0.39681170604E+04 0.  0.
        2    1    3    3  502    0 -0.17546553009E+04  0.29278560475E+03 -0.18048216979E+04  0.25341507447E+04  0.25500000920E-02 0.  1.
       -2    1    3    3    0  502  0.17546553009E+04 -0.29278560475E+03  0.10655826097E+03  0.17821036161E+04  0.25500000920E-02 0. -1.
</event>
<event>
 5   0  0.1421304E-07  0.3975322E+04  0.7818609E-02  0.8009543E-01
       -1   -1    0    0    0  501  0.00000000000E+00  0.00000000000E+00  0.24583778565E+04  0.24583778565E+04  0.50400001928E-02 0.  1.
        1   -1    0    0  501    0  0.00000000000E+00  0.00000000000E+00 -0.16070747116E+04  0.16070747116E+04  0.50400001928E-02 0. -1.
    10030    2    1    2    0    0  0.00000000000E+00  0.00000000000E+00  0.85130314488E+03  0.40654525681E+04  0.39753223189E+04 0.  0.
        2    1    3    3  502    0  0.23660816392E+03 -0.19732828553E+04  0.39382961876E+03  0.20260627875E+04  0.25500000920E-02 0. -1.
       -2    1    3    3    0  502 -0.23660816392E+03  0.19732828553E+04  0.45747352612E+03  0.20393897806E+04  0.25500000920E-02 0.  1.
</event>
<event>
 5   0  0.1372952E-07  0.3395774E+04  0.7818609E-02  0.8138944E-01
       -1   -1    0    0    0  501  0.00000000000E+00  0.00000000000E+00  0.12407823298E+04  0.12407823298E+04  0.50400001928E-02 0.  1.
        1   -1    0    0  501    0  0.00000000000E+00  0.00000000000E+00 -0.23233895133E+04  0.23233895133E+04  0.50400001928E-02 0. -1.
    10030    2    1    2    0    0  0.00000000000E+00  0.00000000000E+00 -0.10826071835E+04  0.35641718432E+04  0.33957742290E+04 0.  0.
        1    1    3    3  502    0 -0.34551965275E+03  0.15275416258E+04 -0.12296087463E+04  0.19911566784E+04  0.50400001928E-02 0. -1.
       -1    1    3    3    0  502  0.34551965275E+03 -0.15275416258E+04  0.14700156278E+03  0.15730151648E+04  0.50400001928E-02 0.  1.
</event>
<event>
 5   0  0.4149487E-07  0.4003291E+04  0.7818609E-02  0.8003883E-01
        2   -1    0    0  501    0  0.00000000000E+00  0.00000000000E+00  0.19163847457E+04  0.19163847457E+04  0.25500000920E-02 0.  1.
       -2   -1    0    0    0  501  0.00000000000E+00  0.00000000000E+00 -0.20906993877E+04  0.20906993877E+04  0.25500000920E-02 0. -1.
    10030    2    1    2    0    0  0.00000000000E+00  0.00000000000E+00 -0.17431464201E+03  0.40070841334E+04  0.40032908535E+04 0.  0.
        2    1    3    3  502    0  0.17888416751E+04  0.28274269026E+03  0.76610947720E+03  0.19664235807E+04  0.25500000920E-02 0.  1.
       -2    1    3    3    0  502 -0.17888416751E+04 -0.28274269026E+03 -0.94042411921E+03  0.20406605528E+04  0.25500000920E-02 0. -1.
</event>
<event>
 5   0  0.4079777E-07  0.4173315E+04  0.7818609E-02  0.7970468E-01
        2   -1    0    0  501    0  0.00000000000E+00  0.00000000000E+00  0.19708543672E+04  0.19708543672E+04  0.25500000920E-02 0.  1.
       -2   -1    0    0    0  501  0.00000000000E+00  0.00000000000E+00 -0.22092647240E+04  0.22092647240E+04  0.25500000920E-02 0. -1.
    10030    2    1    2    0    0  0.00000000000E+00  0.00000000000E+00 -0.23841035686E+03  0.41801190912E+04  0.41733147639E+04 0.  0.
        4    1    3    3  502    0 -0.70139544088E+03  0.10736031066E+04 -0.17679625752E+04  0.21840953448E+04  0.12699999809E+01 0. -1.
       -4    1    3    3    0  502  0.70139544088E+03 -0.10736031066E+04  0.15295522183E+04  0.19960237465E+04  0.12699999809E+01 0.  1.
</event>
<event>
 5   0  0.1372952E-07  0.2816905E+04  0.7818609E-02  0.8298039E-01
       -1   -1    0    0    0  501  0.00000000000E+00  0.00000000000E+00  0.14663504849E+04  0.14663504849E+04  0.50400001928E-02 0.  1.
        1   -1    0    0  501    0  0.00000000000E+00  0.00000000000E+00 -0.13528406450E+04  0.13528406451E+04  0.50400001928E-02 0. -1.
    10030    2    1    2    0    0  0.00000000000E+00  0.00000000000E+00  0.11350983985E+03  0.28191911300E+04  0.28169050647E+04 0.  0.
        1    1    3    3  502    0  0.85035517670E+03  0.47968463265E+03  0.10727325824E+04  0.14505021429E+04  0.50400001928E-02 0.  1.
       -1    1    3    3    0  502 -0.85035517670E+03 -0.47968463265E+03 -0.95922274254E+03  0.13686889870E+04  0.50400001928E-02 0. -1.
</event>
<event>
 5   0  0.4301754E-07  0.4008384E+04  0.7818609E-02  0.8002857E-01
       -2   -1    0    0    0  501  0.00000000000E+00  0.00000000000E+00  0.33734041395E+04  0.33734041395E+04  0.25500000920E-02 0.  1.
        2   -1    0    0  501    0  0.00000000000E+00  0.00000000000E+00 -0.11907219063E+04  0.11907219063E+04  0.25500000920E-02 0. -1.
    10030    2    1    2    0    0  0.00000000000E+00  0.00000000000E+00  0.21826822332E+04  0.45641260458E+04  0.40083843167E+04 0.  0.
        1    1    3    3  502    0 -0.11499100871E+04 -0.24965236723E+03  0.29386731888E+04  0.31655046396E+04  0.50400001928E-02 0.  1.
       -1    1    3    3    0  502  0.11499100871E+04  0.24965236723E+03 -0.75599095559E+03  0.13986214062E+04  0.50400001928E-02 0. -1.
</event>
<event>
 5   0  0.1421304E-07  0.3933001E+04  0.7818609E-02  0.8018200E-01
       -1   -1    0    0    0  501  0.00000000000E+00  0.00000000000E+00  0.25116044392E+04  0.25116044392E+04  0.50400001928E-02 0.  1.
        1   -1    0    0  501    0  0.00000000000E+00  0.00000000000E+00 -0.15397027027E+04  0.15397027027E+04  0.50400001928E-02 0. -1.
    10030    2    1    2    0    0  0.00000000000E+00  0.00000000000E+00  0.97190173653E+03  0.40513071419E+04  0.39330009627E+04 0.  0.
        2    1    3    3  502    0 -0.96230449564E+03 -0.13226541099E+04 -0.63852722230E+03  0.17558931774E+04  0.25500000920E-02 0. -1.
       -2    1    3    3    0  502  0.96230449564E+03  0.13226541099E+04  0.16104289588E+04  0.22954139645E+04  0.25500000920E-02 0.  1.
</event>
<event>
 5   0  0.1372952E-07  0.2525684E+04  0.7818609E-02  0.8393892E-01
       -1   -1    0    0    0  501  0.00000000000E+00  0.00000000000E+00  0.14174234582E+04  0.14174234583E+04  0.50400001928E-02 0. -1.
        1   -1    0    0  501    0  0.00000000000E+00  0.00000000000E+00 -0.11251192330E+04  0.11251192330E+04  0.50400001928E-02 0.  1.
    10030    2    1    2    0    0  0.00000000000E+00  0.00000000000E+00  0.29230422527E+03  0.25425426912E+04  0.25256843779E+04 0.  0.
        1    1    3    3  502    0 -0.16666032338E+02 -0.74645553910E+03  0.11714278678E+04  0.13891424973E+04  0.50400001928E-02 0. -1.
       -1    1    3    3    0  502  0.16666032338E+02  0.74645553910E+03 -0.87912364250E+03  0.11534001939E+04  0.50400001928E-02 0.  1.
</event>
<event>
 5   0  0.1372952E-07  0.3717248E+04  0.7818609E-02  0.8064150E-01
        1   -1    0    0  501    0  0.00000000000E+00  0.00000000000E+00  0.13694280252E+04  0.13694280253E+04  0.50400001928E-02 0. -1.
       -1   -1    0    0    0  501  0.00000000000E+00  0.00000000000E+00 -0.25225740061E+04  0.25225740061E+04  0.50400001928E-02 0.  1.
    10030    2    1    2    0    0  0.00000000000E+00  0.00000000000E+00 -0.11531459808E+04  0.38920020313E+04  0.37172481971E+04 0.  0.
        1    1    3    3  502    0 -0.31209895136E+03 -0.49808455285E+03  0.12695521256E+04  0.13990198629E+04  0.50400001928E-02 0. -1.
       -1    1    3    3    0  502  0.31209895136E+03  0.49808455285E+03 -0.24226981064E+04  0.24929821684E+04  0.50400001928E-02 0.  1.
</event>
<event>
 5   0  0.1372952E-07  0.4121701E+04  0.7818609E-02  0.7980436E-01
        1   -1    0    0  501    0  0.00000000000E+00  0.00000000000E+00  0.22270075665E+04  0.22270075665E+04  0.50400001928E-02 0. -1.
       -1   -1    0    0    0  501  0.00000000000E+00  0.00000000000E+00 -0.19070906162E+04  0.19070906162E+04  0.50400001928E-02 0.  1.
    10030    2    1    2    0    0  0.00000000000E+00  0.00000000000E+00  0.31991695031E+03  0.41340981828E+04  0.41217012179E+04 0.  0.
        1    1    3    3  502    0 -0.15365826123E+04  0.12964679397E+04  0.61429993007E+03  0.21022082788E+04  0.50400001928E-02 0.  1.
       -1    1    3    3    0  502  0.15365826123E+04 -0.12964679397E+04 -0.29438297976E+03  0.20318899040E+04  0.50400001928E-02 0. -1.
</event>
<event>
 5   0  0.1372952E-07  0.4046126E+04  0.7818609E-02  0.7995306E-01
       -1   -1    0    0    0  501  0.00000000000E+00  0.00000000000E+00  0.25376115087E+04  0.25376115087E+04  0.50400001928E-02 0.  1.
        1   -1    0    0  501    0  0.00000000000E+00  0.00000000000E+00 -0.16128487033E+04  0.16128487033E+04  0.50400001928E-02 0. -1.
    10030    2    1    2    0    0  0.00000000000E+00  0.00000000000E+00  0.92476280541E+03  0.41504602119E+04  0.40461257673E+04 0.  0.
        1    1    3    3  502    0  0.10066316140E+04 -0.10631559038E+04  0.18945111859E+04  0.23943225170E+04  0.50400001928E-02 0.  1.
       -1    1    3    3    0  502 -0.10066316140E+04  0.10631559038E+04 -0.96974838053E+03  0.17561376949E+04  0.50400001928E-02 0. -1.
</event>
<event>
 5   0  0.1421304E-07  0.4000548E+04  0.7818609E-02  0.8004436E-01
        1   -1    0    0  501    0  0.00000000000E+00  0.00000000000E+00  0.15044383383E+04  0.15044383383E+04  0.50400001928E-02 0. -1.
       -1   -1    0    0    0  501  0.00000000000E+00  0.00000000000E+00 -0.26595284191E+04  0.26595284191E+04  0.50400001928E-02 0.  1.
    10030    2    1    2    0    0  0.00000000000E+00  0.00000000000E+00 -0.11550900808E+04  0.41639667574E+04  0.40005482202E+04 0.  0.
        2    1    3    3  502    0 -0.11058026365E+04 -0.15518947088E+03 -0.23049196339E+04  0.25611594565E+04  0.25500000920E-02 0.  1.
       -2    1    3    3    0  502  0.11058026365E+04  0.15518947088E+03  0.11498295531E+04  0.16028073009E+04  0.25500000920E-02 0. -1.
</event>
<event>
 5   0  0.1351000E-07  0.4006559E+04  0.7818609E-02  0.8003225E-01
        1   -1    0    0  501    0  0.00000000000E+00  0.00000000000E+00  0.23755738449E+04  0.23755738449E+04  0.50400001928E-02 0.  1.
       -1   -1    0    0    0  501  0.00000000000E+00  0.00000000000E+00 -0.16893302171E+04  0.16893302171E+04  0.50400001928E-02 0. -1.
    10030    2    1    2    0    0  0.00000000000E+00  0.00000000000E+00  0.68624362780E+03  0.40649040621E+04  0.40065589621E+04 0.  0.
        4    1    3    3  502    0 -0.51909281496E+03  0.50905131729E+03  0.22369966297E+04  0.23521790170E+04  0.12699999809E+01 0.  1.
       -4    1    3    3    0  502  0.51909281496E+03 -0.50905131729E+03 -0.15507530019E+04  0.17127250450E+04  0.12699999809E+01 0. -1.
</event>
<event>
 5   0  0.4149487E-07  0.3851826E+04  0.7818609E-02  0.8035124E-01
        2   -1    0    0  501    0  0.00000000000E+00  0.00000000000E+00  0.19021154357E+04  0.19021154357E+04  0.25500000920E-02 0. -1.
       -2   -1    0    0    0  501  0.00000000000E+00  0.00000000000E+00 -0.19500086524E+04  0.19500086524E+04  0.25500000920E-02 0.  1.
    10030    2    1    2    0    0  0.00000000000E+00  0.00000000000E+00 -0.47893216720E+02  0.38521240881E+04  0.38518263499E+04 0.  0.
        2    1    3    3  502    0 -0.13000799538E+04  0.13597228450E+04  0.38850187535E+03  0.19209340980E+04  0.25500000920E-02 0. -1.
       -2    1    3    3    0  502  0.13000799538E+04 -0.13597228450E+04 -0.43639509207E+03  0.19311899901E+04  0.25500000920E-02 0.  1.
</event>
<event>
 5   0  0.1421304E-07  0.3102341E+04  0.7818609E-02  0.8215096E-01
        1   -1    0    0  501    0  0.00000000000E+00  0.00000000000E+00  0.94985774519E+03  0.94985774520E+03  0.50400001928E-02 0.  1.
       -1   -1    0    0    0  501  0.00000000000E+00  0.00000000000E+00 -0.25331473633E+04  0.25331473633E+04  0.50400001928E-02 0. -1.
    10030    2    1    2    0    0  0.00000000000E+00  0.00000000000E+00 -0.15832896181E+04  0.34830051085E+04  0.31023408212E+04 0.  0.
        2    1    3    3  502    0 -0.12015329457E+04  0.50759845122E+03 -0.17341746256E+04  0.21699537413E+04  0.25500000920E-02 0. -1.
       -2    1    3    3    0  502  0.12015329457E+04 -0.50759845122E+03  0.15088500752E+03  0.13130513672E+04  0.25500000920E-02 0.  1.
</event>
<event>
 5   0  0.1368865E-07  0.3671929E+04  0.7818609E-02  0.8074211E-01
       -1   -1    0    0    0  501  0.00000000000E+00  0.00000000000E+00  0.18765229686E+04  0.18765229686E+04  0.50400001928E-02 0.  1.
        1   -1    0    0  501    0  0.00000000000E+00  0.00000000000E+00 -0.17962826541E+04  0.17962826542E+04  0.50400001928E-02 0. -1.
    10030    2    1    2    0    0  0.00000000000E+00  0.00000000000E+00  0.80240314446E+02  0.36728056227E+04  0.36719290073E+04 0.  0.
        5    1    3    3  502    0  0.15334993660E+03 -0.79007899108E+03  0.16906663871E+04  0.18724625330E+04  0.46999998093E+01 0.  1.
       -5    1    3    3    0  502 -0.15334993660E+03  0.79007899108E+03 -0.16104260726E+04  0.18003430897E+04  0.46999998093E+01 0. -1.
</event>
<event>
 5   0  0.4301754E-07  0.4290689E+04  0.7818609E-02  0.7948342E-01
       -2   -1    0    0    0  501  0.00000000000E+00  0.00000000000E+00  0.20019248677E+04  0.20019248677E+04  0.25500000920E-02 0. -1.
        2   -1    0    0  501    0  0.00000000000E+00  0.00000000000E+00 -0.22990389065E+04  0.22990389065E+04  0.25500000920E-02 0.  1.
    10030    2    1    2    0    0  0.00000000000E+00  0.00000000000E+00 -0.29711403882E+03  0.43009637743E+04  0.42906890630E+04 0.  0.
        1    1    3    3  502    0  0.10858183857E+04  0.11331198713E+04  0.13176626553E+04  0.20491942520E+04  0.50400001928E-02 0. -1.
       -1    1    3    3    0  502 -0.10858183857E+04 -0.11331198713E+04 -0.16147766941E+04  0.22517695222E+04  0.50400001928E-02 0.  1.
</event>
<event>
 5   0  0.4301754E-07  0.3955826E+04  0.7818609E-02  0.8013518E-01
       -2   -1    0    0    0  501  0.00000000000E+00  0.00000000000E+00  0.14831693958E+04  0.14831693958E+04  0.25500000920E-02 0.  1.
        2   -1    0    0  501    0  0.00000000000E+00  0.00000000000E+00 -0.26376890679E+04  0.26376890679E+04  0.25500000920E-02 0. -1.
    10030    2    1    2    0    0  0.00000000000E+00  0.00000000000E+00 -0.11545196721E+04  0.41208584637E+04  0.39558259320E+04 0.  0.
        1    1    3    3  502    0  0.67683019045E+03  0.11267827414E+04  0.96237147012E+03  0.16290786659E+04  0.50400001928E-02 0.  1.
       -1    1    3    3    0  502 -0.67683019045E+03 -0.11267827414E+04 -0.21168911422E+04  0.24917797978E+04  0.50400001928E-02 0. -1.
</event>
<event>
 5   0  0.4149487E-07  0.3214518E+04  0.7818609E-02  0.8184994E-01
        2   -1    0    0  501    0  0.00000000000E+00  0.00000000000E+00  0.18726414840E+04  0.18726414840E+04  0.25500000920E-02 0.  1.
       -2   -1    0    0    0  501  0.00000000000E+00  0.00000000000E+00 -0.13794853537E+04  0.13794853537E+04  0.25500000920E-02 0. -1.
    10030    2    1    2    0    0  0.00000000000E+00  0.00000000000E+00  0.49315613023E+03  0.32521268377E+04  0.32145180043E+04 0.  0.
        2    1    3    3  502    0  0.61715754549E+02  0.12456541849E+03  0.18665478233E+04  0.18717174345E+04  0.25500000920E-02 0.  1.
       -2    1    3    3    0  502 -0.61715754549E+02 -0.12456541849E+03 -0.13733916931E+04  0.13804094032E+04  0.25500000920E-02 0. -1.
</event>
<event>
 5   0  0.4047916E-07  0.3959175E+04  0.7818609E-02  0.8012833E-01
       -2   -1    0    0    0  501  0.00000000000E+00  0.00000000000E+00  0.19450007017E+04  0.19450007017E+04  0.25500000920E-02 0.  1.
        2   -1    0    0  501    0  0.00000000000E+00  0.00000000000E+00 -0.20147891284E+04  0.20147891284E+04  0.25500000920E-02 0. -1.
    10030    2    1    2    0    0  0.00000000000E+00  0.00000000000E+00 -0.69788426703E+02  0.39597898300E+04  0.39591747970E+04 0.  0.
        5    1    3    3  502    0  0.54372667801E+03  0.13745592573E+03 -0.19336651887E+04  0.20133593777E+04  0.46999998093E+01 0. -1.
       -5    1    3    3    0  502 -0.54372667801E+03 -0.13745592573E+03  0.18638767620E+04  0.19464304523E+04  0.46999998093E+01 0.  1.
</event>
<event>
 5   0  0.1351000E-07  0.3676300E+04  0.7818609E-02  0.8073234E-01
       -1   -1    0    0    0  501  0.00000000000E+00  0.00000000000E+00  0.23117724037E+04  0.23117724037E+04  0.50400001928E-02 0.  1.
        1   -1    0    0  501    0  0.00000000000E+00  0.00000000000E+00 -0.14615603666E+04  0.14615603666E+04  0.50400001928E-02 0. -1.
    10030    2    1    2    0    0  0.00000000000E+00  0.00000000000E+00  0.85021203709E+03  0.37733327703E+04  0.36762997277E+04 0.  0.
        4    1    3    3  502    0 -0.14645231163E+04 -0.68298256533E+03  0.13243000890E+04  0.20892739125E+04  0.12699999809E+01 0. -1.
       -4    1    3    3    0  502  0.14645231163E+04  0.68298256533E+03 -0.47408805194E+03  0.16840588578E+04  0.12699999809E+01 0.  1.
</event>
<event>
 5   0  0.4301754E-07  0.2656635E+04  0.7818609E-02  0.8349214E-01
       -2   -1    0    0    0  501  0.00000000000E+00  0.00000000000E+00  0.75114344322E+03  0.75114344323E+03  0.25500000920E-02 0.  1.
        2   -1    0    0  501    0  0.00000000000E+00  0.00000000000E+00 -0.23489884223E+04  0.23489884223E+04  0.25500000920E-02 0. -1.
    10030    2    1    2    0    0  0.00000000000E+00  0.00000000000E+00 -0.15978449791E+04  0.31001318655E+04  0.26566349028E+04 0.  0.
        1    1    3    3  502    0 -0.45235121043E+03 -0.32740041510E+03 -0.22053698937E+04  0.22749657179E+04  0.50400001928E-02 0. -1.
       -1    1    3    3    0  502  0.45235121043E+03  0.32740041510E+03  0.60752491461E+03  0.82516614768E+03  0.50400001928E-02 0.  1.
</event>
<event>
 5   0  0.1372952E-07  0.4059514E+04  0.7818609E-02  0.7992647E-01
       -1   -1    0    0    0  501  0.00000000000E+00  0.00000000000E+00  0.20704664148E+04  0.20704664148E+04  0.50400001928E-02 0. -1.
        1   -1    0    0  501    0  0.00000000000E+00  0.00000000000E+00 -0.19898480594E+04  0.19898480594E+04  0.50400001928E-02 0.  1.
    10030    2    1    2    0    0  0.00000000000E+00  0.00000000000E+00  0.80618355415E+02  0.40603144742E+04  0.40595140485E+04 0.  0.
        1    1    3    3  502    0  0.18896898072E+03  0.18221863552E+03 -0.19727974569E+04  0.19901866025E+04  0.50400001928E-02 0.  1.
       -1    1    3    3    0  502 -0.18896898072E+03 -0.18221863552E+03  0.20534158123E+04  0.20701278717E+04  0.50400001928E-02 0. -1.
</event>
<event>
 5   0  0.1351000E-07  0.3905021E+04  0.7818609E-02  0.8023986E-01
        4   -1    0    0  501    0  0.00000000000E+00  0.00000000000E+00  0.19831629744E+04  0.19831633811E+04  0.12699999809E+01 0.  1.
       -4   -1    0    0    0  501  0.00000000000E+00  0.00000000000E+00 -0.19223305359E+04  0.19223309554E+04  0.12699999809E+01 0. -1.
    10030    2    1    2    0    0  0.00000000000E+00  0.00000000000E+00  0.60832438557E+02  0.39054943365E+04  0.39050205412E+04 0.  0.
        1    1    3    3  502    0 -0.15454999884E+04 -0.67421334072E+03 -0.95416374419E+03  0.19374112351E+04  0.50400001928E-02 0. -1.
       -1    1    3    3    0  502  0.15454999884E+04  0.67421334072E+03  0.10149961827E+04  0.19680831014E+04  0.50400001928E-02 0.  1.
</event>
<event>
 5   0  0.1372952E-07  0.3921775E+04  0.7818609E-02  0.8020516E-01
       -1   -1    0    0    0  501  0.00000000000E+00  0.00000000000E+00  0.31769075795E+04  0.31769075795E+04  0.50400001928E-02 0.  1.
        1   -1    0    0  501    0  0.00000000000E+00  0.00000000000E+00 -0.12103215255E+04  0.12103215255E+04  0.50400001928E-02 0. -1.
    10030    2    1    2    0    0  0.00000000000E+00  0.00000000000E+00  0.19665860540E+04  0.43872291050E+04  0.39217749186E+04 0.  0.
        1    1    3    3  502    0  0.19512517932E+04 -0.30505938279E+02  0.11977931887E+04  0.22897647686E+04  0.50400001928E-02 0. -1.
       -1    1    3    3    0  502 -0.19512517932E+04  0.30505938279E+02  0.76879286530E+03  0.20974643364E+04  0.50400001928E-02 0.  1.
</event>
<event>
 5   0  0.1368865E-07  0.3920895E+04  0.7818609E-02  0.8020697E-01
       -1   -1    0    0    0  501  0.00000000000E+00  0.00000000000E+00  0.13279022381E+04  0.13279022381E+04  0.50400001928E-02 0. -1.
        1   -1    0    0  501    0  0.00000000000E+00  0.00000000000E+00 -0.28943058396E+04  0.28943058396E+04  0.50400001928E-02 0.  1.
    10030    2    1    2    0    0  0.00000000000E+00  0.00000000000E+00 -0.15664036014E+04  0.42222080777E+04  0.39208954090E+04 0.  0.
        5    1    3    3  502    0  0.15051971842E+04  0.10188097202E+03  0.56493903933E+03  0.16109551527E+04  0.46999998093E+01 0. -1.
       -5    1    3    3    0  502 -0.15051971842E+04 -0.10188097202E+03 -0.21313426408E+04  0.26112529250E+04  0.46999998093E+01 0.  1.
</event>
<event>
 5   0  0.1421304E-07  0.3037074E+04  0.7818609E-02  0.8233223E-01
        1   -1    0    0  501    0  0.00000000000E+00  0.00000000000E+00  0.15214846733E+04  0.15214846733E+04  0.50400001928E-02 0.  1.
       -1   -1    0    0    0  501  0.00000000000E+00  0.00000000000E+00 -0.15155953347E+04  0.15155953348E+04  0.50400001928E-02 0. -1.
    10030    2    1    2    0    0  0.00000000000E+00  0.00000000000E+00  0.58893385177E+01  0.30370800080E+04  0.30370742979E+04 0.  0.
        2    1    3    3  502    0  0.50218086347E+03 -0.81390634491E+03  0.11824916783E+04  0.15208273167E+04  0.25500000920E-02 0.  1.
       -2    1    3    3    0  502 -0.50218086347E+03  0.81390634491E+03 -0.11766023398E+04  0.15162526913E+04  0.25500000920E-02 0. -1.
</event>
<event>
 5   0  0.4301754E-07  0.4021094E+04  0.7818609E-02  0.8000305E-01
       -2   -1    0    0    0  501  0.00000000000E+00  0.00000000000E+00  0.19105899111E+04  0.19105899111E+04  0.25500000920E-02 0. -1.
        2   -1    0    0  501    0  0.00000000000E+00  0.00000000000E+00 -0.21157335456E+04  0.21157335456E+04  0.25500000920E-02 0.  1.
    10030    2    1    2    0    0  0.00000000000E+00  0.00000000000E+00 -0.20514363452E+03  0.40263234567E+04  0.40210939640E+04 0.  0.
        1    1    3    3  502    0  0.11307686420E+04  0.15773788937E+04  0.42302728601E+03  0.19863821336E+04  0.50400001928E-02 0. -1.
       -1    1    3    3    0  502 -0.11307686420E+04 -0.15773788937E+04 -0.62817092053E+03  0.20399413231E+04  0.50400001928E-02 0.  1.
</event>
<event>
 5   0  0.4077370E-07  0.4038867E+04  0.7818609E-02  0.7996751E-01
       -2   -1    0    0    0  501  0.00000000000E+00  0.00000000000E+00  0.15286251229E+04  0.15286251229E+04  0.25500000920E-02 0. -1.
        2   -1    0    0  501    0  0.00000000000E+00  0.00000000000E+00 -0.26678302147E+04  0.26678302147E+04  0.25500000920E-02 0.  1.
    10030    2    1    2    0    0  0.00000000000E+00  0.00000000000E+00 -0.11392050918E+04  0.41964553375E+04  0.40388673113E+04 0.  0.
        3    1    3    3  502    0 -0.19192856537E+04  0.26578274127E+03  0.21647373241E+02  0.19377219885E+04  0.10100000352E+00 0. -1.
       -3    1    3    3    0  502  0.19192856537E+04 -0.26578274127E+03 -0.11608524650E+04  0.22587333490E+04  0.10100000352E+00 0.  1.
</event>
<event>
 5   0  0.1372952E-07  0.3996719E+04  0.7818609E-02  0.8005209E-01
       -1   -1    0    0    0  501  0.00000000000E+00  0.00000000000E+00  0.14387146933E+04  0.14387146933E+04  0.50400001928E-02 0.  1.
        1   -1    0    0  501    0  0.00000000000E+00  0.00000000000E+00 -0.27757006804E+04  0.27757006804E+04  0.50400001928E-02 0. -1.
    10030    2    1    2    0    0  0.00000000000E+00  0.00000000000E+00 -0.13369859870E+04  0.42144153737E+04  0.39967193312E+04 0.  0.
        1    1    3    3  502    0 -0.80872992125E+03  0.74061805816E+03  0.10930953836E+04  0.15483593612E+04  0.50400001928E-02 0.  1.
       -1    1    3    3    0  502  0.80872992125E+03 -0.74061805816E+03 -0.24300813707E+04  0.26660560125E+04  0.50400001928E-02 0. -1.
</event>
<event>
 5   0  0.1421304E-07  0.3735961E+04  0.7818609E-02  0.8060039E-01
        1   -1    0    0  501    0  0.00000000000E+00  0.00000000000E+00  0.11367804999E+04  0.11367804999E+04  0.50400001928E-02 0. -1.
       -1   -1    0    0    0  501  0.00000000000E+00  0.00000000000E+00 -0.30695034312E+04  0.30695034312E+04  0.50400001928E-02 0.  1.
    10030    2    1    2    0    0  0.00000000000E+00  0.00000000000E+00 -0.19327229313E+04  0.42062839311E+04  0.37359612658E+04 0.  0.
        2    1    3    3  502    0  0.11544713402E+04  0.14657052415E+04 -0.86406195431E+03  0.20561369096E+04  0.25500000920E-02 0.  1.
       -2    1    3    3    0  502 -0.11544713402E+04 -0.14657052415E+04 -0.10686609770E+04  0.21501470215E+04  0.25500000920E-02 0. -1.
</event>
<event>
 5   0  0.1372952E-07  0.3970786E+04  0.7818609E-02  0.8010466E-01
        1   -1    0    0  501    0  0.00000000000E+00  0.00000000000E+00  0.21425892241E+04  0.21425892241E+04  0.50400001928E-02 0.  1.
       -1   -1    0    0    0  501  0.00000000000E+00  0.00000000000E+00 -0.18397297727E+04  0.18397297727E+04  0.50400001928E-02 0. -1.
    10030    2    1    2    0    0  0.00000000000E+00  0.00000000000E+00  0.30285945143E+03  0.39823189968E+04  0.39707859103E+04 0.  0.
        1    1    3    3  502    0  0.37568907742E+03 -0.18267368280E+04 -0.53148524172E+03  0.19392231135E+04  0.50400001928E-02 0. -1.
       -1    1    3    3    0  502 -0.37568907742E+03  0.18267368280E+04  0.83434469315E+03  0.20430958834E+04  0.50400001928E-02 0.  1.
</event>
<event>
 5   0  0.1421304E-07  0.3928194E+04  0.7818609E-02  0.8019191E-01
       -1   -1    0    0    0  501  0.00000000000E+00  0.00000000000E+00  0.15892960955E+04  0.15892960955E+04  0.50400001928E-02 0. -1.
        1   -1    0    0  501    0  0.00000000000E+00  0.00000000000E+00 -0.24272863665E+04  0.24272863665E+04  0.50400001928E-02 0.  1.
    10030    2    1    2    0    0  0.00000000000E+00  0.00000000000E+00 -0.83799027104E+03  0.40165824620E+04  0.39281938572E+04 0.  0.
        2    1    3    3  502    0 -0.15453805784E+04 -0.65269813827E+03  0.62548896865E+03  0.17903777372E+04  0.25500000920E-02 0. -1.
       -2    1    3    3    0  502  0.15453805784E+04  0.65269813827E+03 -0.14634792397E+04  0.22262047248E+04  0.25500000920E-02 0.  1.
</event>
<event>
 5   0  0.1351000E-07  0.3774726E+04  0.7818609E-02  0.8051600E-01
       -1   -1    0    0    0  501  0.00000000000E+00  0.00000000000E+00  0.14696478869E+04  0.14696478869E+04  0.50400001928E-02 0. -1.
        1   -1    0    0  501    0  0.00000000000E+00  0.00000000000E+00 -0.24238048736E+04  0.24238048736E+04  0.50400001928E-02 0.  1.
    10030    2    1    2    0    0  0.00000000000E+00  0.00000000000E+00 -0.95415698678E+03  0.38934527605E+04  0.37747263269E+04 0.  0.
        3    1    3    3  502    0  0.14501008674E+04 -0.75239266812E+03  0.49776870317E+03  0.17078234525E+04  0.10100000352E+00 0. -1.
       -3    1    3    3    0  502 -0.14501008674E+04  0.75239266812E+03 -0.14519256900E+04  0.21856293080E+04  0.10100000352E+00 0.  1.
</event>
<event>
 5   0  0.4301754E-07  0.4007454E+04  0.7818609E-02  0.8003045E-01
        2   -1    0    0  501    0  0.00000000000E+00  0.00000000000E+00  0.12202935060E+04  0.12202935060E+04  0.25500000920E-02 0. -1.
       -2   -1    0    0    0  501  0.00000000000E+00  0.00000000000E+00 -0.32901282159E+04  0.32901282159E+04  0.25500000920E-02 0.  1.
    10030    2    1    2    0    0  0.00000000000E+00  0.00000000000E+00 -0.20698347100E+04  0.45104217219E+04  0.40074541024E+04 0.  0.
        1    1    3    3  502    0  0.59158577807E+03 -0.50072941028E+03  0.10447517667E+04  0.13008496950E+04  0.50400001928E-02 0. -1.
       -1    1    3    3    0  502 -0.59158577807E+03  0.50072941028E+03 -0.31145864766E+04  0.32095720269E+04  0.50400001928E-02 0.  1.
</event>
<event>
 5   0  0.1368865E-07  0.3307479E+04  0.7818609E-02  0.8160995E-01
       -1   -1    0    0    0  501  0.00000000000E+00  0.00000000000E+00  0.99396144325E+03  0.99396144326E+03  0.50400001928E-02 0. -1.
        1   -1    0    0  501    0  0.00000000000E+00  0.00000000000E+00 -0.27514700148E+04  0.27514700148E+04  0.50400001928E-02 0.  1.
    10030    2    1    2    0    0  0.00000000000E+00  0.00000000000E+00 -0.17575085716E+04  0.37454314581E+04  0.33074794675E+04 0.  0.
        5    1    3    3  502    0  0.88263594015E+03  0.13700615708E+04 -0.11964724294E+04  0.20218019870E+04  0.46999998093E+01 0.  1.
       -5    1    3    3    0  502 -0.88263594015E+03 -0.13700615708E+04 -0.56103614222E+03  0.17236294710E+04  0.46999998093E+01 0. -1.
</event>
<event>
 5   0  0.4149487E-07  0.4094844E+04  0.7818609E-02  0.7985682E-01
        2   -1    0    0  501    0  0.00000000000E+00  0.00000000000E+00  0.25908773158E+04  0.25908773158E+04  0.25500000920E-02 0. -1.
       -2   -1    0    0    0  501  0.00000000000E+00  0.00000000000E+00 -0.16179602188E+04  0.16179602188E+04  0.25500000920E-02 0.  1.
    10030    2    1    2    0    0  0.00000000000E+00  0.00000000000E+00  0.97291709701E+03  0.42088375345E+04  0.40948437961E+04 0.  0.
        2    1    3    3  502    0 -0.45568640012E+03  0.12917300991E+04 -0.10776533360E+04  0.17428578418E+04  0.25500000920E-02 0.  1.
       -2    1    3    3    0  502  0.45568640012E+03 -0.12917300991E+04  0.20505704330E+04  0.24659796927E+04  0.25500000920E-02 0. -1.
</event>
<event>
 5   0  0.1421304E-07  0.3776183E+04  0.7818609E-02  0.8051285E-01
       -1   -1    0    0    0  501  0.00000000000E+00  0.00000000000E+00  0.14924048465E+04  0.14924048465E+04  0.50400001928E-02 0.  1.
        1   -1    0    0  501    0  0.00000000000E+00  0.00000000000E+00 -0.23886882987E+04  0.23886882987E+04  0.50400001928E-02 0. -1.
    10030    2    1    2    0    0  0.00000000000E+00  0.00000000000E+00 -0.89628345218E+03  0.38810931452E+04  0.37761832549E+04 0.  0.
        2    1    3    3  502    0 -0.19788431502E+03 -0.14076750310E+03  0.14762867545E+04  0.14961270914E+04  0.25500000920E-02 0.  1.
       -2    1    3    3    0  502  0.19788431502E+03  0.14076750310E+03 -0.23725702067E+04  0.23849660538E+04  0.25500000920E-02 0. -1.
</event>
<event>
 5   0  0.4077370E-07  0.3977266E+04  0.7818609E-02  0.8009148E-01
       -2   -1    0    0    0  501  0.00000000000E+00  0.00000000000E+00  0.14430073544E+04  0.14430073544E+04  0.25500000920E-02 0.  1.
        2   -1    0    0  501    0  0.00000000000E+00  0.00000000000E+00 -0.27405694950E+04  0.27405694950E+04  0.25500000920E-02 0. -1.
    10030    2    1    2    0    0  0.00000000000E+00  0.00000000000E+00 -0.12975621406E+04  0.41835768494E+04  0.39772663660E+04 0.  0.
        3    1    3    3  502    0 -0.11478050346E+04 -0.13044474278E+04 -0.16662317998E+04  0.24073570384E+04  0.10100000352E+00 0. -1.
       -3    1    3    3    0  502  0.11478050346E+04  0.13044474278E+04  0.36866965919E+03  0.17762198111E+04  0.10100000352E+00 0.  1.
</event>
<event>
 5   0  0.1372952E-07  0.3934061E+04  0.7818609E-02  0.8017982E-01
        1   -1    0    0  501    0  0.00000000000E+00  0.00000000000E+00  0.25570865969E+04  0.25570865969E+04  0.50400001928E-02 0. -1.
       -1   -1    0    0    0  501  0.00000000000E+00  0.00000000000E+00 -0.15131320226E+04  0.15131320226E+04  0.50400001928E-02 0.  1.
    10030    2    1    2    0    0  0.00000000000E+00  0.00000000000E+00  0.10439545743E+04  0.40702186195E+04  0.39340613185E+04 0.  0.
        1    1    3    3  502    0  0.72401037689E+03 -0.17860371051E+04  0.11453267724E+03  0.19306054233E+04  0.50400001928E-02 0.  1.
       -1    1    3    3    0  502 -0.72401037689E+03  0.17860371051E+04  0.92942189711E+03  0.21396131962E+04  0.50400001928E-02 0. -1.
</event>
<event>
 5   0  0.4077370E-07  0.3917760E+04  0.7818609E-02  0.8021346E-01
       -2   -1    0    0    0  501  0.00000000000E+00  0.00000000000E+00  0.31886193300E+04  0.31886193300E+04  0.25500000920E-02 0.  1.
        2   -1    0    0  501    0  0.00000000000E+00  0.00000000000E+00 -0.12034083016E+04  0.12034083016E+04  0.25500000920E-02 0. -1.
    10030    2    1    2    0    0  0.00000000000E+00  0.00000000000E+00  0.19852110284E+04  0.43920276316E+04  0.39177600602E+04 0.  0.
        3    1    3    3  502    0  0.30016630427E+03  0.17338533233E+04  0.19575368677E+04  0.26321659818E+04  0.10100000352E+00 0.  1.
       -3    1    3    3    0  502 -0.30016630427E+03 -0.17338533233E+04  0.27674160737E+02  0.17598616498E+04  0.10100000352E+00 0. -1.
</event>
<event>
 5   0  0.1351000E-07  0.2993494E+04  0.7818609E-02  0.8245591E-01
       -1   -1    0    0    0  501  0.00000000000E+00  0.00000000000E+00  0.13561704878E+04  0.13561704878E+04  0.50400001928E-02 0. -1.
        1   -1    0    0  501    0  0.00000000000E+00  0.00000000000E+00 -0.16518952469E+04  0.16518952469E+04  0.50400001928E-02 0.  1.
    10030    2    1    2    0    0  0.00000000000E+00  0.00000000000E+00 -0.29572475914E+03  0.30080657347E+04  0.29934940005E+04 0.  0.
        3    1    3    3  502    0  0.10551824720E+03  0.13274508416E+04 -0.83455681449E+03  0.15715422120E+04  0.10100000352E+00 0.  1.
       -3    1    3    3    0  502 -0.10551824720E+03 -0.13274508416E+04  0.53883205535E+03  0.14365235227E+04  0.10100000352E+00 0. -1.
</event>
<event>
 5   0  0.1368865E-07  0.2760205E+04  0.7818609E-02  0.8315731E-01
        1   -1    0    0  501    0  0.00000000000E+00  0.00000000000E+00  0.16777562256E+04  0.16777562256E+04  0.50400001928E-02 0.  1.
       -1   -1    0    0    0  501  0.00000000000E+00  0.00000000000E+00 -0.11352560083E+04  0.11352560083E+04  0.50400001928E-02 0. -1.
    10030    2    1    2    0    0  0.00000000000E+00  0.00000000000E+00  0.54250021733E+03  0.28130122339E+04  0.27602049457E+04 0.  0.
        5    1    3    3  502    0 -0.16502157941E+03 -0.10281013678E+04  0.11943585000E+04  0.15845311169E+04  0.46999998093E+01 0.  1.
       -5    1    3    3    0  502  0.16502157941E+03  0.10281013678E+04 -0.65185828265E+03  0.12284811170E+04  0.46999998093E+01 0. -1.
</event>
<event>
 5   0  0.1351000E-07  0.3936786E+04  0.7818609E-02  0.8017422E-01
       -1   -1    0    0    0  501  0.00000000000E+00  0.00000000000E+00  0.14309323836E+04  0.14309323836E+04  0.50400001928E-02 0. -1.
        1   -1    0    0  501    0  0.00000000000E+00  0.00000000000E+00 -0.27077248803E+04  0.27077248803E+04  0.50400001928E-02 0.  1.
    10030    2    1    2    0    0  0.00000000000E+00  0.00000000000E+00 -0.12767924967E+04  0.41386572639E+04  0.39367861090E+04 0.  0.
        3    1    3    3  502    0  0.10303188852E+04 -0.10713393501E+04 -0.19950120406E+04  0.24878500880E+04  0.10100000352E+00 0.  1.
       -3    1    3    3    0  502 -0.10303188852E+04  0.10713393501E+04  0.71821954389E+03  0.16508071758E+04  0.10100000352E+00 0. -1.
</event>
<event>
 5   0  0.4047916E-07  0.3931470E+04  0.7818609E-02  0.8018516E-01
        2   -1    0    0  501    0  0.00000000000E+00  0.00000000000E+00  0.24896917229E+04  0.24896917229E+04  0.25500000920E-02 0. -1.
       -2   -1    0    0    0  501  0.00000000000E+00  0.00000000000E+00 -0.15520448484E+04  0.15520448484E+04  0.25500000920E-02 0.  1.
    10030    2    1    2    0    0  0.00000000000E+00  0.00000000000E+00  0.93764687457E+03  0.40417365713E+04  0.39314695536E+04 0.  0.
        5    1    3    3  502    0 -0.71208268050E+03 -0.16375854495E+04 -0.37601833099E+03  0.18248725226E+04  0.46999998093E+01 0. -1.
       -5    1    3    3    0  502  0.71208268050E+03  0.16375854495E+04  0.13136652056E+04  0.22168640488E+04  0.46999998093E+01 0.  1.
</event>
<event>
 5   0  0.4301754E-07  0.4003194E+04  0.7818609E-02  0.8003903E-01
       -2   -1    0    0    0  501  0.00000000000E+00  0.00000000000E+00  0.20308459798E+04  0.20308459798E+04  0.25500000920E-02 0.  1.
        2   -1    0    0  501    0  0.00000000000E+00  0.00000000000E+00 -0.19727691280E+04  0.19727691280E+04  0.25500000920E-02 0. -1.
    10030    2    1    2    0    0  0.00000000000E+00  0.00000000000E+00  0.58076851756E+02  0.40036151078E+04  0.40031938513E+04 0.  0.
        1    1    3    3  502    0  0.11770035422E+04  0.12093921386E+04  0.11054525583E+04  0.20174221278E+04  0.50400001928E-02 0.  1.
       -1    1    3    3    0  502 -0.11770035422E+04 -0.12093921386E+04 -0.10473757065E+04  0.19861929800E+04  0.50400001928E-02 0. -1.
</event>
<event>
 5   0  0.4301754E-07  0.3055268E+04  0.7818609E-02  0.8228122E-01
        2   -1    0    0  501    0  0.00000000000E+00  0.00000000000E+00  0.14453842482E+04  0.14453842482E+04  0.25500000920E-02 0. -1.
       -2   -1    0    0    0  501  0.00000000000E+00  0.00000000000E+00 -0.16145643046E+04  0.16145643046E+04  0.25500000920E-02 0.  1.
    10030    2    1    2    0    0  0.00000000000E+00  0.00000000000E+00 -0.16918005637E+03  0.30599485529E+04  0.30552681150E+04 0.  0.
        1    1    3    3  502    0 -0.10298910489E+03 -0.10643740214E+04  0.10080289739E+04  0.14695649783E+04  0.50400001928E-02 0. -1.
       -1    1    3    3    0  502  0.10298910489E+03  0.10643740214E+04 -0.11772090303E+04  0.15903835745E+04  0.50400001928E-02 0.  1.
</event>
<event>
 5   0  0.1421304E-07  0.3737003E+04  0.7818609E-02  0.8059811E-01
        1   -1    0    0  501    0  0.00000000000E+00  0.00000000000E+00  0.22570095275E+04  0.22570095276E+04  0.50400001928E-02 0.  1.
       -1   -1    0    0    0  501  0.00000000000E+00  0.00000000000E+00 -0.15468691390E+04  0.15468691390E+04  0.50400001928E-02 0. -1.
    10030    2    1    2    0    0  0.00000000000E+00  0.00000000000E+00  0.71014038854E+03  0.38038786666E+04  0.37370032832E+04 0.  0.
        2    1    3    3  502    0  0.14188372835E+03 -0.32222140057E+03  0.22229404655E+04  0.22506492256E+04  0.25500000920E-02 0.  1.
       -2    1    3    3    0  502 -0.14188372835E+03  0.32222140057E+03 -0.15128000770E+04  0.15532294410E+04  0.25500000920E-02 0. -1.
</event>
<event>
 5   0  0.4047916E-07  0.4041830E+04  0.7818609E-02  0.7996161E-01
       -2   -1    0    0    0  501  0.00000000000E+00  0.00000000000E+00  0.25841152939E+04  0.25841152939E+04  0.25500000920E-02 0. -1.
        2   -1    0    0  501    0  0.00000000000E+00  0.00000000000E+00 -0.15804622660E+04  0.15804622660E+04  0.25500000920E-02 0.  1.
    10030    2    1    2    0    0  0.00000000000E+00  0.00000000000E+00  0.10036530279E+04  0.41645775600E+04  0.40418296417E+04 0.  0.
        5    1    3    3  502    0  0.13294769669E+04 -0.13110671742E+04  0.12983950118E+04  0.22742598439E+04  0.46999998093E+01 0. -1.
       -5    1    3    3    0  502 -0.13294769669E+04  0.13110671742E+04 -0.29474198393E+03  0.18903177161E+04  0.46999998093E+01 0.  1.
</event>
<event>
 5   0  0.4149487E-07  0.3989058E+04  0.7818609E-02  0.8006758E-01
       -2   -1    0    0    0  501  0.00000000000E+00  0.00000000000E+00  0.17331460179E+04  0.17331460179E+04  0.25500000920E-02 0.  1.
        2   -1    0    0  501    0  0.00000000000E+00  0.00000000000E+00 -0.22953318750E+04  0.22953318750E+04  0.25500000920E-02 0. -1.
    10030    2    1    2    0    0  0.00000000000E+00  0.00000000000E+00 -0.56218585713E+03  0.40284778929E+04  0.39890576827E+04 0.  0.
        2    1    3    3  502    0  0.60845719068E+03  0.17467708570E+04  0.47241495482E+03  0.19090847203E+04  0.25500000920E-02 0.  1.
       -2    1    3    3    0  502 -0.60845719068E+03 -0.17467708570E+04 -0.10346008120E+04  0.21193931726E+04  0.25500000920E-02 0. -1.
</event>
<event>
 5   0  0.1368865E-07  0.3954457E+04  0.7818609E-02  0.8013798E-01
        1   -1    0    0  501    0  0.00000000000E+00  0.00000000000E+00  0.28098161110E+04  0.28098161110E+04  0.50400001928E-02 0. -1.
       -1   -1    0    0    0  501  0.00000000000E+00  0.00000000000E+00 -0.13913482802E+04  0.13913482802E+04  0.50400001928E-02 0.  1.
    10030    2    1    2    0    0  0.00000000000E+00  0.00000000000E+00  0.14184678308E+04  0.42011643912E+04  0.39544571379E+04 0.  0.
        5    1    3    3  502    0 -0.14289844704E+04 -0.12256361467E+04  0.13512798639E+04  0.23173605549E+04  0.46999998093E+01 0. -1.
       -5    1    3    3    0  502  0.14289844704E+04  0.12256361467E+04  0.67187966901E+02  0.18838038363E+04  0.46999998093E+01 0.  1.
</event>
<event>
 5   0  0.1351000E-07  0.3874401E+04  0.7818609E-02  0.8030374E-01
        1   -1    0    0  501    0  0.00000000000E+00  0.00000000000E+00  0.21162407892E+04  0.21162407892E+04  0.50400001928E-02 0. -1.
       -1   -1    0    0    0  501  0.00000000000E+00  0.00000000000E+00 -0.17733076234E+04  0.17733076234E+04  0.50400001928E-02 0.  1.
    10030    2    1    2    0    0  0.00000000000E+00  0.00000000000E+00  0.34293316584E+03  0.38895484126E+04  0.38744010760E+04 0.  0.
        4    1    3    3  502    0  0.15946593372E+04 -0.48039470103E+03  0.11647928138E+04  0.20323536559E+04  0.12699999809E+01 0. -1.
       -4    1    3    3    0  502 -0.15946593372E+04  0.48039470103E+03 -0.82185964792E+03  0.18571947567E+04  0.12699999809E+01 0.  1.
</event>
<event>
 5   0  0.1351000E-07  0.2918669E+04  0.7818609E-02  0.8267345E-01
        1   -1    0    0  501    0  0.00000000000E+00  0.00000000000E+00  0.13196971488E+04  0.13196971488E+04  0.50400001928E-02 0. -1.
       -1   -1    0    0    0  501  0.00000000000E+00  0.00000000000E+00 -0.16137467207E+04  0.16137467207E+04  0.50400001928E-02 0.  1.
    10030    2    1    2    0    0  0.00000000000E+00  0.00000000000E+00 -0.29404957197E+03  0.29334438695E+04  0.29186688378E+04 0.  0.
        3    1    3    3  502    0  0.21132429097E+03 -0.10299758313E+04 -0.11641501503E+04  0.15686789830E+04  0.10100000352E+00 0.  1.
       -3    1    3    3    0  502 -0.21132429097E+03  0.10299758313E+04  0.87010057829E+03  0.13647648866E+04  0.10100000352E+00 0. -1.
</event>
<event>
 5   0  0.1368865E-07  0.4043934E+04  0.7818609E-02  0.7995742E-01
        1   -1    0    0  501    0  0.00000000000E+00  0.00000000000E+00  0.16866919869E+04  0.16866919870E+04  0.50400001928E-02 0. -1.
       -1   -1    0    0    0  501  0.00000000000E+00  0.00000000000E+00 -0.24238867371E+04  0.24238867371E+04  0.50400001928E-02 0.  1.
    10030    2    1    2    0    0  0.00000000000E+00  0.00000000000E+00 -0.73719475016E+03  0.41105787241E+04  0.40439338950E+04 0.  0.
        5    1    3    3  502    0 -0.99402897142E+03  0.16715347642E+04  0.19388109044E+03  0.19544139866E+04  0.46999998093E+01 0. -1.
       -5    1    3    3    0  502  0.99402897142E+03 -0.16715347642E+04 -0.93107584060E+03  0.21561647374E+04  0.46999998093E+01 0.  1.
</event>
<event>
 5   0  0.4149487E-07  0.3862084E+04  0.7818609E-02  0.8032962E-01
       -2   -1    0    0    0  501  0.00000000000E+00  0.00000000000E+00  0.13563893554E+04  0.13563893554E+04  0.25500000920E-02 0. -1.
        2   -1    0    0  501    0  0.00000000000E+00  0.00000000000E+00 -0.27491539297E+04  0.27491539297E+04  0.25500000920E-02 0.  1.
    10030    2    1    2    0    0  0.00000000000E+00  0.00000000000E+00 -0.13927645743E+04  0.41055432851E+04  0.38620839589E+04 0.  0.
        2    1    3    3  502    0 -0.34599593922E+00 -0.19091273753E+04 -0.10047654224E+04  0.21573875426E+04  0.25500000920E-02 0.  1.
       -2    1    3    3    0  502  0.34599593922E+00  0.19091273753E+04 -0.38799915191E+03  0.19481557424E+04  0.25500000920E-02 0. -1.
</event>
<event>
 5   0  0.4149487E-07  0.2619498E+04  0.7818609E-02  0.8361608E-01
       -2   -1    0    0    0  501  0.00000000000E+00  0.00000000000E+00  0.22573531482E+04  0.22573531482E+04  0.25500000920E-02 0.  1.
        2   -1    0    0  501    0  0.00000000000E+00  0.00000000000E+00 -0.75993511075E+03  0.75993511075E+03  0.25500000920E-02 0. -1.
    10030    2    1    2    0    0  0.00000000000E+00  0.00000000000E+00  0.14974180375E+04  0.30172882590E+04  0.26194975966E+04 0.  0.
        2    1    3    3  502    0  0.50023739274E+02 -0.74073117068E+03 -0.49415382219E+03  0.89183689187E+03  0.25500000920E-02 0. -1.
       -2    1    3    3    0  502 -0.50023739274E+02  0.74073117068E+03  0.19915718597E+04  0.21254513671E+04  0.25500000920E-02 0.  1.
</event>
<event>
 5   0  0.1351000E-07  0.3945628E+04  0.7818609E-02  0.8015606E-01
       -1   -1    0    0    0  501  0.00000000000E+00  0.00000000000E+00  0.16124572768E+04  0.16124572768E+04  0.50400001928E-02 0. -1.
        1   -1    0    0  501    0  0.00000000000E+00  0.00000000000E+00 -0.24137038549E+04  0.24137038549E+04  0.50400001928E-02 0.  1.
    10030    2    1    2    0    0  0.00000000000E+00  0.00000000000E+00 -0.80124657801E+03  0.40261611317E+04  0.39456276281E+04 0.  0.
        4    1    3    3  502    0 -0.32009156062E+03 -0.16836742095E+04 -0.13976932660E+04  0.22115075242E+04  0.12699999809E+01 0. -1.
       -4    1    3    3    0  502  0.32009156062E+03  0.16836742095E+04  0.59644668799E+03  0.18146536075E+04  0.12699999809E+01 0.  1.
</event>
<event>
 5   0  0.1372952E-07  0.4214790E+04  0.7818609E-02  0.7962565E-01
        1   -1    0    0  501    0  0.00000000000E+00  0.00000000000E+00  0.19944700453E+04  0.19944700454E+04  0.50400001928E-02 0. -1.
       -1   -1    0    0    0  501  0.00000000000E+00  0.00000000000E+00 -0.22267132689E+04  0.22267132689E+04  0.50400001928E-02 0.  1.
    10030    2    1    2    0    0  0.00000000000E+00  0.00000000000E+00 -0.23224322360E+03  0.42211833143E+04  0.42147896339E+04 0.  0.
        1    1    3    3  502    0 -0.92507152825E+02  0.23094016195E+03 -0.22119551683E+04  0.22259013002E+04  0.50400001928E-02 0.  1.
       -1    1    3    3    0  502  0.92507152825E+02 -0.23094016195E+03  0.19797119447E+04  0.19952820141E+04  0.50400001928E-02 0. -1.
</event>
<event>
 5   0  0.1372952E-07  0.4068219E+04  0.7818609E-02  0.7990924E-01
       -1   -1    0    0    0  501  0.00000000000E+00  0.00000000000E+00  0.15329595144E+04  0.15329595144E+04  0.50400001928E-02 0. -1.
        1   -1    0    0  501    0  0.00000000000E+00  0.00000000000E+00 -0.26990932583E+04  0.26990932583E+04  0.50400001928E-02 0.  1.
    10030    2    1    2    0    0  0.00000000000E+00  0.00000000000E+00 -0.11661337440E+04  0.42320527727E+04  0.40682186227E+04 0.  0.
        1    1    3    3  502    0 -0.11141745440E+04 -0.14913029671E+04  0.26984888070E+03  0.18810071431E+04  0.50400001928E-02 0. -1.
       -1    1    3    3    0  502  0.11141745440E+04  0.14913029671E+04 -0.14359826247E+04  0.23510456296E+04  0.50400001928E-02 0.  1.
</event>
<event>
 5   0  0.1368865E-07  0.2602015E+04  0.7818609E-02  0.8367517E-01
       -1   -1    0    0    0  501  0.00000000000E+00  0.00000000000E+00  0.69268654747E+03  0.69268654749E+03  0.50400001928E-02 0. -1.
        1   -1    0    0  501    0  0.00000000000E+00  0.00000000000E+00 -0.24435587647E+04  0.24435587647E+04  0.50400001928E-02 0.  1.
    10030    2    1    2    0    0  0.00000000000E+00  0.00000000000E+00 -0.17508722172E+04  0.31362453122E+04  0.26020148226E+04 0.  0.
        5    1    3    3  502    0 -0.10157571460E+04  0.81075092309E+03 -0.80393999140E+03  0.15282085063E+04  0.46999998093E+01 0. -1.
       -5    1    3    3    0  502  0.10157571460E+04 -0.81075092309E+03 -0.94693222581E+03  0.16080368059E+04  0.46999998093E+01 0.  1.
</event>
<event>
 5   0  0.4079777E-07  0.3994034E+04  0.7818609E-02  0.8005751E-01
        2   -1    0    0  501    0  0.00000000000E+00  0.00000000000E+00  0.12673140246E+04  0.12673140246E+04  0.25500000920E-02 0. -1.
       -2   -1    0    0    0  501  0.00000000000E+00  0.00000000000E+00 -0.31468738138E+04  0.31468738138E+04  0.25500000920E-02 0.  1.
    10030    2    1    2    0    0  0.00000000000E+00  0.00000000000E+00 -0.18795597892E+04  0.44141878385E+04  0.39940342102E+04 0.  0.
        4    1    3    3  502    0 -0.31229810128E+03 -0.17904044626E+04 -0.18544900705E+04  0.25965772236E+04  0.12699999809E+01 0.  1.
       -4    1    3    3    0  502  0.31229810128E+03  0.17904044626E+04 -0.25069718709E+02  0.18176106149E+04  0.12699999809E+01 0. -1.
</event>
<event>
 5   0  0.4077370E-07  0.4041244E+04  0.7818609E-02  0.7996278E-01
       -2   -1    0    0    0  501  0.00000000000E+00  0.00000000000E+00  0.31475847191E+04  0.31475847191E+04  0.25500000920E-02 0.  1.
        2   -1    0    0  501    0  0.00000000000E+00  0.00000000000E+00 -0.12971575465E+04  0.12971575465E+04  0.25500000920E-02 0. -1.
    10030    2    1    2    0    0  0.00000000000E+00  0.00000000000E+00  0.18504271726E+04  0.44447422656E+04  0.40412440024E+04 0.  0.
        3    1    3    3  502    0 -0.93843316049E+02 -0.19130725800E+04  0.16331072234E+04  0.25170801492E+04  0.10100000352E+00 0. -1.
       -3    1    3    3    0  502  0.93843316049E+02  0.19130725800E+04  0.21731994924E+03  0.19276621164E+04  0.10100000352E+00 0.  1.
</event>
<event>
 5   0  0.4301754E-07  0.4167783E+04  0.7818609E-02  0.7971529E-01
       -2   -1    0    0    0  501  0.00000000000E+00  0.00000000000E+00  0.20541288225E+04  0.20541288225E+04  0.25500000920E-02 0.  1.
        2   -1    0    0  501    0  0.00000000000E+00  0.00000000000E+00 -0.21140850441E+04  0.21140850441E+04  0.25500000920E-02 0. -1.
    10030    2    1    2    0    0  0.00000000000E+00  0.00000000000E+00 -0.59956221611E+02  0.41682138667E+04  0.41677826347E+04 0.  0.
        1    1    3    3  502    0  0.11317004018E+04 -0.57801571120E+03 -0.16817406725E+04  0.21078661370E+04  0.50400001928E-02 0. -1.
       -1    1    3    3    0  502 -0.11317004018E+04  0.57801571120E+03  0.16217844509E+04  0.20603477297E+04  0.50400001928E-02 0.  1.
</event>
<event>
 5   0  0.4077370E-07  0.3980116E+04  0.7818609E-02  0.8008570E-01
       -2   -1    0    0    0  501  0.00000000000E+00  0.00000000000E+00  0.14539177284E+04  0.14539177285E+04  0.25500000920E-02 0. -1.
        2   -1    0    0  501    0  0.00000000000E+00  0.00000000000E+00 -0.27239036699E+04  0.27239036699E+04  0.25500000920E-02 0.  1.
    10030    2    1    2    0    0  0.00000000000E+00  0.00000000000E+00 -0.12699859415E+04  0.41778213984E+04  0.39801164990E+04 0.  0.
        3    1    3    3  502    0  0.17454456897E+04 -0.74680525315E+03 -0.12613172744E+04  0.22793025289E+04  0.10100000352E+00 0.  1.
       -3    1    3    3    0  502 -0.17454456897E+04  0.74680525315E+03 -0.86686671459E+01  0.18985188695E+04  0.10100000352E+00 0. -1.
</event>
<event>
 5   0  0.4047916E-07  0.4014194E+04  0.7818609E-02  0.8001689E-01
       -2   -1    0    0    0  501  0.00000000000E+00  0.00000000000E+00  0.13238507695E+04  0.13238507695E+04  0.25500000920E-02 0.  1.
        2   -1    0    0  501    0  0.00000000000E+00  0.00000000000E+00 -0.30429697489E+04  0.30429697489E+04  0.25500000920E-02 0. -1.
    10030    2    1    2    0    0  0.00000000000E+00  0.00000000000E+00 -0.17191189795E+04  0.43668205184E+04  0.40141937391E+04 0.  0.
        5    1    3    3  502    0  0.18665221504E+04  0.23579842479E+03 -0.98915501856E+02  0.18839618366E+04  0.46999998093E+01 0.  1.
       -5    1    3    3    0  502 -0.18665221504E+04 -0.23579842479E+03 -0.16202034776E+04  0.24828586818E+04  0.46999998093E+01 0. -1.
</event>
<event>
 5   0  0.4047916E-07  0.4020334E+04  0.7818609E-02  0.8000457E-01
       -2   -1    0    0    0  501  0.00000000000E+00  0.00000000000E+00  0.19228930505E+04  0.19228930505E+04  0.25500000920E-02 0. -1.
        2   -1    0    0  501    0  0.00000000000E+00  0.00000000000E+00 -0.21014025133E+04  0.21014025133E+04  0.25500000920E-02 0.  1.
    10030    2    1    2    0    0  0.00000000000E+00  0.00000000000E+00 -0.17850946275E+03  0.40242955638E+04  0.40203344583E+04 0.  0.
        5    1    3    3  502    0 -0.52732373312E+03  0.45758146012E+03  0.17976221691E+04  0.19284498088E+04  0.46999998093E+01 0. -1.
       -5    1    3    3    0  502  0.52732373312E+03 -0.45758146012E+03 -0.19761316319E+04  0.20958457550E+04  0.46999998093E+01 0.  1.
</event>
<event>
 5   0  0.1351000E-07  0.2979294E+04  0.7818609E-02  0.8249668E-01
        1   -1    0    0  501    0  0.00000000000E+00  0.00000000000E+00  0.10012188267E+04  0.10012188267E+04  0.50400001928E-02 0.  1.
       -1   -1    0    0    0  501  0.00000000000E+00  0.00000000000E+00 -0.22163470752E+04  0.22163470752E+04  0.50400001928E-02 0. -1.
    10030    2    1    2    0    0  0.00000000000E+00  0.00000000000E+00 -0.12151282485E+04  0.32175659020E+04  0.29792941569E+04 0.  0.
        3    1    3    3  502    0  0.42385331828E+03 -0.10159959558E+04  0.47626527411E+03  0.11994698992E+04  0.10100000352E+00 0.  1.
       -3    1    3    3    0  502 -0.42385331828E+03  0.10159959558E+04 -0.16913935226E+04  0.20180960027E+04  0.10100000352E+00 0. -1.
</event>
<event>
 5   0  0.4079777E-07  0.3972040E+04  0.7818609E-02  0.8010211E-01
       -2   -1    0    0    0  501  0.00000000000E+00  0.00000000000E+00  0.18614273224E+04  0.18614273224E+04  0.25500000920E-02 0. -1.
        2   -1    0    0  501    0  0.00000000000E+00  0.00000000000E+00 -0.21189522705E+04  0.21189522705E+04  0.25500000920E-02 0.  1.
    10030    2    1    2    0    0  0.00000000000E+00  0.00000000000E+00 -0.25752494814E+03  0.39803795929E+04  0.39720401062E+04 0.  0.
        4    1    3    3  502    0 -0.15831627420E+04  0.61256809720E+03 -0.11617662814E+04  0.20570236865E+04  0.12699999809E+01 0.  1.
       -4    1    3    3    0  502  0.15831627420E+04 -0.61256809720E+03  0.90424133325E+03  0.19233559065E+04  0.12699999809E+01 0. -1.
</event>
<event>
 5   0  0.1351000E-07  0.3961510E+04  0.7818609E-02  0.8012356E-01
       -1   -1    0    0    0  501  0.00000000000E+00  0.00000000000E+00  0.13050225174E+04  0.13050225174E+04  0.50400001928E-02 0.  1.
        1   -1    0    0  501    0  0.00000000000E+00  0.00000000000E+00 -0.30063779686E+04  0.30063779686E+04  0.50400001928E-02 0. -1.
    10030    2    1    2    0    0  0.00000000000E+00  0.00000000000E+00 -0.17013554512E+04  0.43114004860E+04  0.39615102902E+04 0.  0.
        3    1    3    3  502    0  0.86275951919E+03 -0.21747145959E+03  0.10752972649E+04  0.13956761952E+04  0.10100000352E+00 0.  1.
       -3    1    3    3    0  502 -0.86275951919E+03  0.21747145959E+03 -0.27766527161E+04  0.29157242908E+04  0.10100000352E+00 0. -1.
</event>
<event>
 5   0  0.1421304E-07  0.3978600E+04  0.7818609E-02  0.8008878E-01
        1   -1    0    0  501    0  0.00000000000E+00  0.00000000000E+00  0.13590887005E+04  0.13590887005E+04  0.50400001928E-02 0. -1.
       -1   -1    0    0    0  501  0.00000000000E+00  0.00000000000E+00 -0.29117414340E+04  0.29117414340E+04  0.50400001928E-02 0.  1.
    10030    2    1    2    0    0  0.00000000000E+00  0.00000000000E+00 -0.15526527335E+04  0.42708301345E+04  0.39786001969E+04 0.  0.
        2    1    3    3  502    0  0.87997672423E+03  0.17713343361E+04 -0.10048743175E+04  0.22185032701E+04  0.25500000920E-02 0.  1.
       -2    1    3    3    0  502 -0.87997672423E+03 -0.17713343361E+04 -0.54777841598E+03  0.20523268644E+04  0.25500000920E-02 0. -1.
</event>
<event>
 5   0  0.1351000E-07  0.4029657E+04  0.7818609E-02  0.7998590E-01
       -1   -1    0    0    0  501  0.00000000000E+00  0.00000000000E+00  0.21825809895E+04  0.21825809895E+04  0.50400001928E-02 0.  1.
        1   -1    0    0  501    0  0.00000000000E+00  0.00000000000E+00 -0.18599694786E+04  0.18599694786E+04  0.50400001928E-02 0. -1.
    10030    2    1    2    0    0  0.00000000000E+00  0.00000000000E+00  0.32261151091E+03  0.40425504682E+04  0.40296570699E+04 0.  0.
        4    1    3    3  502    0 -0.11518787752E+04 -0.16258321337E+04  0.46122313958E+03  0.20452098272E+04  0.12699999809E+01 0.  1.
       -4    1    3    3    0  502  0.11518787752E+04  0.16258321337E+04 -0.13861162867E+03  0.19973406410E+04  0.12699999809E+01 0. -1.
</event>
<event>
 5   0  0.4079777E-07  0.3946153E+04  0.7818609E-02  0.8015498E-01
        2   -1    0    0  501    0  0.00000000000E+00  0.00000000000E+00  0.17351588797E+04  0.17351588797E+04  0.25500000920E-02 0.  1.
       -2   -1    0    0    0  501  0.00000000000E+00  0.00000000000E+00 -0.22436161318E+04  0.22436161318E+04  0.25500000920E-02 0. -1.
    10030    2    1    2    0    0  0.00000000000E+00  0.00000000000E+00 -0.50845725201E+03  0.39787750115E+04  0.39461527866E+04 0.  0.
        4    1    3    3  502    0  0.11499558670E+03  0.10722359064E+04  0.14117366973E+04  0.17764897803E+04  0.12699999809E+01 0.  1.
       -4    1    3    3    0  502 -0.11499558670E+03 -0.10722359064E+04 -0.19201939493E+04  0.22022852313E+04  0.12699999809E+01 0. -1.
</event>
<event>
 5   0  0.1368865E-07  0.3968923E+04  0.7818609E-02  0.8010845E-01
       -1   -1    0    0    0  501  0.00000000000E+00  0.00000000000E+00  0.20510865861E+04  0.20510865861E+04  0.50400001928E-02 0.  1.
        1   -1    0    0  501    0  0.00000000000E+00  0.00000000000E+00 -0.19200002630E+04  0.19200002630E+04  0.50400001928E-02 0. -1.
    10030    2    1    2    0    0  0.00000000000E+00  0.00000000000E+00  0.13108632313E+03  0.39710868491E+04  0.39689226673E+04 0.  0.
        5    1    3    3  502    0 -0.11312927910E+04 -0.15288780781E+04 -0.50113404565E+03  0.19668373034E+04  0.46999998093E+01 0. -1.
       -5    1    3    3    0  502  0.11312927910E+04  0.15288780781E+04  0.63222036877E+03  0.20042495456E+04  0.46999998093E+01 0.  1.
</event>
<event>
 5   0  0.1368865E-07  0.4031644E+04  0.7818609E-02  0.7998193E-01
       -1   -1    0    0    0  501  0.00000000000E+00  0.00000000000E+00  0.17961947296E+04  0.17961947296E+04  0.50400001928E-02 0.  1.
        1   -1    0    0  501    0  0.00000000000E+00  0.00000000000E+00 -0.22623044452E+04  0.22623044452E+04  0.50400001928E-02 0. -1.
    10030    2    1    2    0    0  0.00000000000E+00  0.00000000000E+00 -0.46610971562E+03  0.40584991748E+04  0.40316444889E+04 0.  0.
        5    1    3    3  502    0 -0.19327242036E+04 -0.29731581071E+03  0.25979559491E+03  0.19726467955E+04  0.46999998093E+01 0.  1.
       -5    1    3    3    0  502  0.19327242036E+04  0.29731581071E+03 -0.72590531053E+03  0.20858523793E+04  0.46999998093E+01 0. -1.
</event>
<event>
 5   0  0.1368865E-07  0.3994608E+04  0.7818609E-02  0.8005635E-01
       -1   -1    0    0    0  501  0.00000000000E+00  0.00000000000E+00  0.17036466761E+04  0.17036466761E+04  0.50400001928E-02 0.  1.
        1   -1    0    0  501    0  0.00000000000E+00  0.00000000000E+00 -0.23415794525E+04  0.23415794526E+04  0.50400001928E-02 0. -1.
    10030    2    1    2    0    0  0.00000000000E+00  0.00000000000E+00 -0.63793277645E+03  0.40452261287E+04  0.39946083919E+04 0.  0.
        5    1    3    3  502    0  0.11614288723E+04 -0.15858121944E+04  0.39760428074E+02  0.19660417908E+04  0.46999998093E+01 0.  1.
       -5    1    3    3    0  502 -0.11614288723E+04  0.15858121944E+04 -0.67769320452E+03  0.20791843379E+04  0.46999998093E+01 0. -1.
</event>
<event>
 5   0  0.4047916E-07  0.2503248E+04  0.7818609E-02  0.8401829E-01
       -2   -1    0    0    0  501  0.00000000000E+00  0.00000000000E+00  0.15483748841E+04  0.15483748841E+04  0.25500000920E-02 0. -1.
        2   -1    0    0  501    0  0.00000000000E+00  0.00000000000E+00 -0.10117467071E+04  0.10117467071E+04  0.25500000920E-02 0.  1.
    10030    2    1    2    0    0  0.00000000000E+00  0.00000000000E+00  0.53662817701E+03  0.25601215912E+04  0.25032484418E+04 0.  0.
        5    1    3    3  502    0 -0.27973492622E+03 -0.60063543279E+03  0.13542895847E+04  0.15076925819E+04  0.46999998093E+01 0. -1.
       -5    1    3    3    0  502  0.27973492622E+03  0.60063543279E+03 -0.81766140772E+03  0.10524290094E+04  0.46999998093E+01 0.  1.
</event>
<event>
 5   0  0.4301754E-07  0.3990732E+04  0.7818609E-02  0.8006419E-01
        2   -1    0    0  501    0  0.00000000000E+00  0.00000000000E+00  0.14502860014E+04  0.14502860014E+04  0.25500000920E-02 0.  1.
       -2   -1    0    0    0  501  0.00000000000E+00  0.00000000000E+00 -0.27453106188E+04  0.27453106188E+04  0.25500000920E-02 0. -1.
    10030    2    1    2    0    0  0.00000000000E+00  0.00000000000E+00 -0.12950246173E+04  0.41955966202E+04  0.39907320431E+04 0.  0.
        1    1    3    3  502    0  0.11118174334E+04  0.16390453783E+04 -0.39240849220E+03  0.20190572508E+04  0.50400001928E-02 0. -1.
       -1    1    3    3    0  502 -0.11118174334E+04 -0.16390453783E+04 -0.90261612511E+03  0.21765393694E+04  0.50400001928E-02 0.  1.
</event>
<event>
 5   0  0.1421304E-07  0.2992165E+04  0.7818609E-02  0.8245972E-01
        1   -1    0    0  501    0  0.00000000000E+00  0.00000000000E+00  0.20809310299E+04  0.20809310300E+04  0.50400001928E-02 0.  1.
       -1   -1    0    0    0  501  0.00000000000E+00  0.00000000000E+00 -0.10756065384E+04  0.10756065384E+04  0.50400001928E-02 0. -1.
    10030    2    1    2    0    0  0.00000000000E+00  0.00000000000E+00  0.10053244916E+04  0.31565375683E+04  0.29921651169E+04 0.  0.
        2    1    3    3  502    0  0.11615582793E+04 -0.50044035830E+02  0.14959493904E+04  0.18946204423E+04  0.25500000920E-02 0.  1.
       -2    1    3    3    0  502 -0.11615582793E+04  0.50044035830E+02 -0.49062489878E+03  0.12619171261E+04  0.25500000920E-02 0. -1.
</event>
<event>
 5   0  0.4047916E-07  0.3920731E+04  0.7818609E-02  0.8020731E-01
       -2   -1    0    0    0  501  0.00000000000E+00  0.00000000000E+00  0.15380065689E+04  0.15380065689E+04  0.25500000920E-02 0.  1.
        2   -1    0    0  501    0  0.00000000000E+00  0.00000000000E+00 -0.24987108662E+04  0.24987108662E+04  0.25500000920E-02 0. -1.
    10030    2    1    2    0    0  0.00000000000E+00  0.00000000000E+00 -0.96070429729E+03  0.40367174352E+04  0.39207314247E+04 0.  0.
        5    1    3    3  502    0 -0.30818679947E+03  0.12517377964E+04 -0.20009259734E+04  0.23802423102E+04  0.46999998093E+01 0. -1.
       -5    1    3    3    0  502  0.30818679947E+03 -0.12517377964E+04  0.10402216761E+04  0.16564751250E+04  0.46999998093E+01 0.  1.
</event>
<event>
 5   0  0.4301754E-07  0.2600731E+04  0.7818609E-02  0.8367953E-01
       -2   -1    0    0    0  501  0.00000000000E+00  0.00000000000E+00  0.60564445343E+03  0.60564445343E+03  0.25500000920E-02 0.  1.
        2   -1    0    0  501    0  0.00000000000E+00  0.00000000000E+00 -0.27919843193E+04  0.27919843193E+04  0.25500000920E-02 0. -1.
    10030    2    1    2    0    0  0.00000000000E+00  0.00000000000E+00 -0.21863398659E+04  0.33976287727E+04  0.26007305259E+04 0.  0.
        1    1    3    3  502    0  0.48579400025E+03  0.81084660342E+03  0.73481069860E+02  0.94808622635E+03  0.50400001928E-02 0.  1.
       -1    1    3    3    0  502 -0.48579400025E+03 -0.81084660342E+03 -0.22598209357E+04  0.24495425464E+04  0.50400001928E-02 0. -1.
</event>
<event>
 5   0  0.4301754E-07  0.4131021E+04  0.7818609E-02  0.7978625E-01
       -2   -1    0    0    0  501  0.00000000000E+00  0.00000000000E+00  0.15741563384E+04  0.15741563384E+04  0.25500000920E-02 0.  1.
        2   -1    0    0  501    0  0.00000000000E+00  0.00000000000E+00 -0.27102348104E+04  0.27102348104E+04  0.25500000920E-02 0. -1.
    10030    2    1    2    0    0  0.00000000000E+00  0.00000000000E+00 -0.11360784720E+04  0.42843911489E+04  0.41310208450E+04 0.  0.
        1    1    3    3  502    0  0.17004649206E+04 -0.18497477650E+03  0.63276187125E+03  0.18237829366E+04  0.50400001928E-02 0.  1.
       -1    1    3    3    0  502 -0.17004649206E+04  0.18497477650E+03 -0.17688403432E+04  0.24606082122E+04  0.50400001928E-02 0. -1.
</event>
<event>
 5   0  0.4077370E-07  0.3086710E+04  0.7818609E-02  0.8219395E-01
       -2   -1    0    0    0  501  0.00000000000E+00  0.00000000000E+00  0.13233962692E+04  0.13233962692E+04  0.25500000920E-02 0. -1.
        2   -1    0    0  501    0  0.00000000000E+00  0.00000000000E+00 -0.17998725246E+04  0.17998725246E+04  0.25500000920E-02 0.  1.
    10030    2    1    2    0    0  0.00000000000E+00  0.00000000000E+00 -0.47647625532E+03  0.31232687938E+04  0.30867099534E+04 0.  0.
        3    1    3    3  502    0  0.52225400474E+03  0.73531089648E+03 -0.15054745026E+04  0.17549600702E+04  0.10100000352E+00 0.  1.
       -3    1    3    3    0  502 -0.52225400474E+03 -0.73531089648E+03  0.10289982473E+04  0.13683087236E+04  0.10100000352E+00 0. -1.
</event>
<event>
 5   0  0.1351000E-07  0.2574508E+04  0.7818609E-02  0.8376912E-01
        1   -1    0    0  501    0  0.00000000000E+00  0.00000000000E+00  0.13267439998E+04  0.13267439998E+04  0.50400001928E-02 0. -1.
       -1   -1    0    0    0  501  0.00000000000E+00  0.00000000000E+00 -0.12489393020E+04  0.12489393020E+04  0.50400001928E-02 0.  1.
    10030    2    1    2    0    0  0.00000000000E+00  0.00000000000E+00  0.77804697800E+02  0.25756833019E+04  0.25745078948E+04 0.  0.
        4    1    3    3  502    0  0.12609120640E+04 -0.13324171666E+03 -0.18338938153E+03  0.12811267956E+04  0.12699999809E+01 0.  1.
       -4    1    3    3    0  502 -0.12609120640E+04  0.13324171666E+03  0.26119407933E+03  0.12945565063E+04  0.12699999809E+01 0. -1.
</event>
<event>
 5   0  0.1351000E-07  0.2624839E+04  0.7818609E-02  0.8359813E-01
       -1   -1    0    0    0  501  0.00000000000E+00  0.00000000000E+00  0.12456055261E+04  0.12456055261E+04  0.50400001928E-02 0. -1.
        1   -1    0    0  501    0  0.00000000000E+00  0.00000000000E+00 -0.13828176635E+04  0.13828176635E+04  0.50400001928E-02 0.  1.
    10030    2    1    2    0    0  0.00000000000E+00  0.00000000000E+00 -0.13721213741E+03  0.26284231897E+04  0.26248392891E+04 0.  0.
        4    1    3    3  502    0  0.38292791788E+03 -0.96828361263E+03  0.73138194728E+03  0.12724496495E+04  0.12699999809E+01 0. -1.
       -4    1    3    3    0  502 -0.38292791788E+03  0.96828361263E+03 -0.86859408470E+03  0.13559735402E+04  0.12699999809E+01 0.  1.
</event>
<event>
 5   0  0.1372952E-07  0.3967760E+04  0.7818609E-02  0.8011082E-01
       -1   -1    0    0    0  501  0.00000000000E+00  0.00000000000E+00  0.13946300407E+04  0.13946300407E+04  0.50400001928E-02 0.  1.
        1   -1    0    0  501    0  0.00000000000E+00  0.00000000000E+00 -0.28220957123E+04  0.28220957123E+04  0.50400001928E-02 0. -1.
    10030    2    1    2    0    0  0.00000000000E+00  0.00000000000E+00 -0.14274656717E+04  0.42167257530E+04  0.39677598002E+04 0.  0.
        1    1    3    3  502    0  0.17446065732E+04 -0.93655931765E+03 -0.58364281806E+03  0.20643241968E+04  0.50400001928E-02 0. -1.
       -1    1    3    3    0  502 -0.17446065732E+04  0.93655931765E+03 -0.84382285361E+03  0.21524015561E+04  0.50400001928E-02 0.  1.
</event>
<event>
 5   0  0.4047916E-07  0.3821927E+04  0.7818609E-02  0.8041466E-01
        2   -1    0    0  501    0  0.00000000000E+00  0.00000000000E+00  0.24178990577E+04  0.24178990577E+04  0.25500000920E-02 0.  1.
       -2   -1    0    0    0  501  0.00000000000E+00  0.00000000000E+00 -0.15103119761E+04  0.15103119761E+04  0.25500000920E-02 0. -1.
    10030    2    1    2    0    0  0.00000000000E+00  0.00000000000E+00  0.90758708157E+03  0.39282110338E+04  0.38219272122E+04 0.  0.
        5    1    3    3  502    0 -0.51746276298E+03 -0.11940029334E+04  0.18921199530E+04  0.22964212860E+04  0.46999998093E+01 0.  1.
       -5    1    3    3    0  502  0.51746276298E+03  0.11940029334E+04 -0.98453287148E+03  0.16317897478E+04  0.46999998093E+01 0. -1.
</event>
<event>
 5   0  0.1372952E-07  0.3865123E+04  0.7818609E-02  0.8032322E-01
        1   -1    0    0  501    0  0.00000000000E+00  0.00000000000E+00  0.25051856376E+04  0.25051856376E+04  0.50400001928E-02 0.  1.
       -1   -1    0    0    0  501  0.00000000000E+00  0.00000000000E+00 -0.14908250917E+04  0.14908250917E+04  0.50400001928E-02 0. -1.
    10030    2    1    2    0    0  0.00000000000E+00  0.00000000000E+00  0.10143605460E+04  0.39960107293E+04  0.38651228223E+04 0.  0.
        1    1    3    3  502    0 -0.33136464273E+03  0.22278657827E+03 -0.14477130640E+04  0.15017687910E+04  0.50400001928E-02 0. -1.
       -1    1    3    3    0  502  0.33136464273E+03 -0.22278657827E+03  0.24620736100E+04  0.24942419383E+04  0.50400001928E-02 0.  1.
</event>
<event>
 5   0  0.4047916E-07  0.3995596E+04  0.7818609E-02  0.8005436E-01
       -2   -1    0    0    0  501  0.00000000000E+00  0.00000000000E+00  0.16956174139E+04  0.16956174140E+04  0.25500000920E-02 0. -1.
        2   -1    0    0  501    0  0.00000000000E+00  0.00000000000E+00 -0.23538311095E+04  0.23538311095E+04  0.25500000920E-02 0.  1.
    10030    2    1    2    0    0  0.00000000000E+00  0.00000000000E+00 -0.65821369553E+03  0.40494485234E+04  0.39955960851E+04 0.  0.
        5    1    3    3  502    0 -0.12532402932E+03 -0.17305238352E+04  0.67457208066E+03  0.18615822406E+04  0.46999998093E+01 0. -1.
       -5    1    3    3    0  502  0.12532402932E+03  0.17305238352E+04 -0.13327857762E+04  0.21878662829E+04  0.46999998093E+01 0.  1.
</event>
<event>
 5   0  0.4301754E-07  0.3251407E+04  0.7818609E-02  0.8175371E-01
       -2   -1    0    0    0  501  0.00000000000E+00  0.00000000000E+00  0.18201538180E+04  0.18201538180E+04  0.25500000920E-02 0. -1.
        2   -1    0    0  501    0  0.00000000000E+00  0.00000000000E+00 -0.14520264981E+04  0.14520264981E+04  0.25500000920E-02 0.  1.
    10030    2    1    2    0    0  0.00000000000E+00  0.00000000000E+00  0.36812731993E+03  0.32721803161E+04  0.32514068182E+04 0.  0.
        1    1    3    3  502    0  0.87600732085E+03  0.30101077593E+03  0.15286067251E+04  0.17873541433E+04  0.50400001928E-02 0. -1.
       -1    1    3    3    0  502 -0.87600732085E+03 -0.30101077593E+03 -0.11604794052E+04  0.14848261728E+04  0.50400001928E-02 0.  1.
</event>
<event>
 5   0  0.4079777E-07  0.3648823E+04  0.7818609E-02  0.8079399E-01
       -2   -1    0    0    0  501  0.00000000000E+00  0.00000000000E+00  0.12815008286E+04  0.12815008286E+04  0.25500000920E-02 0. -1.
        2   -1    0    0  501    0  0.00000000000E+00  0.00000000000E+00 -0.25973273631E+04  0.25973273631E+04  0.25500000920E-02 0.  1.
    10030    2    1    2    0    0  0.00000000000E+00  0.00000000000E+00 -0.13158265345E+04  0.38788281918E+04  0.36488229160E+04 0.  0.
        4    1    3    3  502    0 -0.12155922301E+04 -0.25754649574E+03 -0.20779634993E+04  0.24211420001E+04  0.12699999809E+01 0.  1.
       -4    1    3    3    0  502  0.12155922301E+04  0.25754649574E+03  0.76213696479E+03  0.14576861917E+04  0.12699999809E+01 0. -1.
</event>
<event>
 5   0  0.4047916E-07  0.3475447E+04  0.7818609E-02  0.8119633E-01
        2   -1    0    0  501    0  0.00000000000E+00  0.00000000000E+00  0.29280949595E+04  0.29280949595E+04  0.25500000920E-02 0.  1.
       -2   -1    0    0    0  501  0.00000000000E+00  0.00000000000E+00 -0.10312789416E+04  0.10312789416E+04  0.25500000920E-02 0. -1.
    10030    2    1    2    0    0  0.00000000000E+00  0.00000000000E+00  0.18968160179E+04  0.39593739012E+04  0.34754468322E+04 0.  0.
        5    1    3    3  502    0  0.37278914468E+03 -0.14082709935E+04 -0.13084635946E+03  0.14626488974E+04  0.46999998093E+01 0. -1.
       -5    1    3    3    0  502 -0.37278914468E+03  0.14082709935E+04  0.20276623774E+04  0.24967250037E+04  0.46999998093E+01 0.  1.
</event>
<event>
 5   0  0.1351000E-07  0.3782266E+04  0.7818609E-02  0.8049971E-01
       -1   -1    0    0    0  501  0.00000000000E+00  0.00000000000E+00  0.15574312584E+04  0.15574312584E+04  0.50400001928E-02 0.  1.
        1   -1    0    0  501    0  0.00000000000E+00  0.00000000000E+00 -0.22963350056E+04  0.22963350057E+04  0.50400001928E-02 0. -1.
    10030    2    1    2    0    0  0.00000000000E+00  0.00000000000E+00 -0.73890374724E+03  0.38537662641E+04  0.37822659439E+04 0.  0.
        4    1    3    3  502    0  0.11705420582E+04  0.67351244153E+02 -0.18813069099E+04  0.22167593920E+04  0.12699999809E+01 0. -1.
       -4    1    3    3    0  502 -0.11705420582E+04 -0.67351244153E+02  0.11424031626E+04  0.16370068720E+04  0.12699999809E+01 0.  1.
</event>
<event>
 5   0  0.4301754E-07  0.4002816E+04  0.7818609E-02  0.8003979E-01
       -2   -1    0    0    0  501  0.00000000000E+00  0.00000000000E+00  0.14273099375E+04  0.14273099375E+04  0.25500000920E-02 0.  1.
        2   -1    0    0  501    0  0.00000000000E+00  0.00000000000E+00 -0.28064221593E+04  0.28064221593E+04  0.25500000920E-02 0. -1.
    10030    2    1    2    0    0  0.00000000000E+00  0.00000000000E+00 -0.13791122218E+04  0.42337320968E+04  0.40028161271E+04 0.  0.
        1    1    3    3  502    0  0.18138026231E+04 -0.77754439296E+03 -0.33688562961E+03  0.20019858057E+04  0.50400001928E-02 0. -1.
       -1    1    3    3    0  502 -0.18138026231E+04  0.77754439296E+03 -0.10422265922E+04  0.22317462912E+04  0.50400001928E-02 0.  1.
</event>
<event>
 5   0  0.1351000E-07  0.3985997E+04  0.7818609E-02  0.8007377E-01
        1   -1    0    0  501    0  0.00000000000E+00  0.00000000000E+00  0.22159847074E+04  0.22159847074E+04  0.50400001928E-02 0.  1.
       -1   -1    0    0    0  501  0.00000000000E+00  0.00000000000E+00 -0.17924506653E+04  0.17924506653E+04  0.50400001928E-02 0. -1.
    10030    2    1    2    0    0  0.00000000000E+00  0.00000000000E+00  0.42353404210E+03  0.40084353727E+04  0.39859971214E+04 0.  0.
        4    1    3    3  502    0  0.33502399153E+03 -0.18401275618E+04  0.90392282994E+03  0.20773513458E+04  0.12699999809E+01 0.  1.
       -4    1    3    3    0  502 -0.33502399153E+03  0.18401275618E+04 -0.48038878784E+03  0.19310840269E+04  0.12699999809E+01 0. -1.
</event>
<event>
 5   0  0.1421304E-07  0.3930238E+04  0.7818609E-02  0.8018770E-01
        1   -1    0    0  501    0  0.00000000000E+00  0.00000000000E+00  0.24841314463E+04  0.24841314463E+04  0.50400001928E-02 0. -1.
       -1   -1    0    0    0  501  0.00000000000E+00  0.00000000000E+00 -0.15545441604E+04  0.15545441604E+04  0.50400001928E-02 0.  1.
    10030    2    1    2    0    0  0.00000000000E+00  0.00000000000E+00  0.92958728595E+03  0.40386756067E+04  0.39302376689E+04 0.  0.
        2    1    3    3  502    0  0.35020377275E+03 -0.17232246838E+04 -0.43664767737E+03  0.18118518669E+04  0.25500000920E-02 0.  1.
       -2    1    3    3    0  502 -0.35020377275E+03  0.17232246838E+04  0.13662349633E+04  0.22268237398E+04  0.25500000920E-02 0. -1.
</event>
<event>
 5   0  0.4047916E-07  0.3988953E+04  0.7818609E-02  0.8006779E-01
        2   -1    0    0  501    0  0.00000000000E+00  0.00000000000E+00  0.17629189552E+04  0.17629189552E+04  0.25500000920E-02 0. -1.
       -2   -1    0    0    0  501  0.00000000000E+00  0.00000000000E+00 -0.22564489451E+04  0.22564489451E+04  0.25500000920E-02 0.  1.
    10030    2    1    2    0    0  0.00000000000E+00  0.00000000000E+00 -0.49352998985E+03  0.40193679003E+04  0.39889530540E+04 0.  0.
        5    1    3    3  502    0  0.58641762166E+03  0.17375562121E+04  0.54338715325E+03  0.19126627788E+04  0.46999998093E+01 0. -1.
       -5    1    3    3    0  502 -0.58641762166E+03 -0.17375562121E+04 -0.10369171431E+04  0.21067051215E+04  0.46999998093E+01 0.  1.
</event>
<event>
 5   0  0.1372952E-07  0.4088108E+04  0.7818609E-02  0.7987005E-01
       -1   -1    0    0    0  501  0.00000000000E+00  0.00000000000E+00  0.15243435668E+04  0.15243435668E+04  0.50400001928E-02 0. -1.
        1   -1    0    0  501    0  0.00000000000E+00  0.00000000000E+00 -0.27409541911E+04  0.27409541911E+04  0.50400001928E-02 0.  1.
    10030    2    1    2    0    0  0.00000000000E+00  0.00000000000E+00 -0.12166106243E+04  0.42652977579E+04  0.40881075759E+04 0.  0.
        1    1    3    3  502    0  0.50242913697E+02 -0.75217987803E+03 -0.25906174316E+04  0.26980729413E+04  0.50400001928E-02 0.  1.
       -1    1    3    3    0  502 -0.50242913697E+02  0.75217987803E+03  0.13740068073E+04  0.15672248166E+04  0.50400001928E-02 0. -1.
</event>
<event>
 5   0  0.1351000E-07  0.3700554E+04  0.7818609E-02  0.8067839E-01
       -1   -1    0    0    0  501  0.00000000000E+00  0.00000000000E+00  0.22609616268E+04  0.22609616268E+04  0.50400001928E-02 0. -1.
        1   -1    0    0  501    0  0.00000000000E+00  0.00000000000E+00 -0.15141895314E+04  0.15141895314E+04  0.50400001928E-02 0.  1.
    10030    2    1    2    0    0  0.00000000000E+00  0.00000000000E+00  0.74677209541E+03  0.37751511583E+04  0.37005537025E+04 0.  0.
        4    1    3    3  502    0  0.12534359954E+04  0.92857840843E+03 -0.64174244110E+03  0.16867704731E+04  0.12699999809E+01 0.  1.
       -4    1    3    3    0  502 -0.12534359954E+04 -0.92857840843E+03  0.13885145365E+04  0.20883806852E+04  0.12699999809E+01 0. -1.
</event>
<event>
 5   0  0.4079777E-07  0.2939595E+04  0.7818609E-02  0.8261193E-01
       -2   -1    0    0    0  501  0.00000000000E+00  0.00000000000E+00  0.13470769087E+04  0.13470769087E+04  0.25500000920E-02 0. -1.
        2   -1    0    0  501    0  0.00000000000E+00  0.00000000000E+00 -0.16036979504E+04  0.16036979504E+04  0.25500000920E-02 0.  1.
    10030    2    1    2    0    0  0.00000000000E+00  0.00000000000E+00 -0.25662104178E+03  0.29507748591E+04  0.29395948547E+04 0.  0.
        4    1    3    3  502    0  0.85240737186E+03 -0.15119918415E+03 -0.13206172439E+04  0.15790791743E+04  0.12699999809E+01 0.  1.
       -4    1    3    3    0  502 -0.85240737186E+03  0.15119918415E+03  0.10639962021E+04  0.13716956848E+04  0.12699999809E+01 0. -1.
</event>
<event>
 5   0  0.4149487E-07  0.4049924E+04  0.7818609E-02  0.7994550E-01
       -2   -1    0    0    0  501  0.00000000000E+00  0.00000000000E+00  0.16746217727E+04  0.16746217727E+04  0.25500000920E-02 0.  1.
        2   -1    0    0  501    0  0.00000000000E+00  0.00000000000E+00 -0.24485955786E+04  0.24485955786E+04  0.25500000920E-02 0. -1.
    10030    2    1    2    0    0  0.00000000000E+00  0.00000000000E+00 -0.77397380590E+03  0.41232173514E+04  0.40499241813E+04 0.  0.
        2    1    3    3  502    0 -0.81883101997E+03 -0.16586719031E+04  0.45181338798E+03  0.19041565217E+04  0.25500000920E-02 0.  1.
       -2    1    3    3    0  502  0.81883101997E+03  0.16586719031E+04 -0.12257871939E+04  0.22190608297E+04  0.25500000920E-02 0. -1.
</event>
<event>
 5   0  0.1368865E-07  0.4043590E+04  0.7818609E-02  0.7995810E-01
        1   -1    0    0  501    0  0.00000000000E+00  0.00000000000E+00  0.25348433129E+04  0.25348433129E+04  0.50400001928E-02 0. -1.
       -1   -1    0    0    0  501  0.00000000000E+00  0.00000000000E+00 -0.16125865162E+04  0.16125865162E+04  0.50400001928E-02 0.  1.
    10030    2    1    2    0    0  0.00000000000E+00  0.00000000000E+00  0.92225679676E+03  0.41474298291E+04  0.40435895672E+04 0.  0.
        5    1    3    3  502    0 -0.24612929442E+03 -0.16656948853E+04 -0.68676906593E+03  0.18184589411E+04  0.46999998093E+01 0.  1.
       -5    1    3    3    0  502  0.24612929442E+03  0.16656948853E+04  0.16090258627E+04  0.23289708880E+04  0.46999998093E+01 0. -1.
</event>
<event>
 5   0  0.4149487E-07  0.4026914E+04  0.7818609E-02  0.7999139E-01
       -2   -1    0    0    0  501  0.00000000000E+00  0.00000000000E+00  0.19850193870E+04  0.19850193870E+04  0.25500000920E-02 0. -1.
        2   -1    0    0  501    0  0.00000000000E+00  0.00000000000E+00 -0.20423015564E+04  0.20423015564E+04  0.25500000920E-02 0.  1.
    10030    2    1    2    0    0  0.00000000000E+00  0.00000000000E+00 -0.57282169371E+02  0.40273209434E+04  0.40269135494E+04 0.  0.
        2    1    3    3  502    0  0.36605487333E+03 -0.18645365294E+04  0.63739591680E+03  0.20041871655E+04  0.25500000920E-02 0.  1.
       -2    1    3    3    0  502 -0.36605487333E+03  0.18645365294E+04 -0.69467808617E+03  0.20231337779E+04  0.25500000920E-02 0. -1.
</event>
<event>
 5   0  0.1368865E-07  0.3370109E+04  0.7818609E-02  0.8145282E-01
        1   -1    0    0  501    0  0.00000000000E+00  0.00000000000E+00  0.20620926838E+04  0.20620926838E+04  0.50400001928E-02 0. -1.
       -1   -1    0    0    0  501  0.00000000000E+00  0.00000000000E+00 -0.13769546715E+04  0.13769546716E+04  0.50400001928E-02 0.  1.
    10030    2    1    2    0    0  0.00000000000E+00  0.00000000000E+00  0.68513801224E+03  0.34390473554E+04  0.33701086951E+04 0.  0.
        5    1    3    3  502    0  0.57632072658E+03 -0.12066656772E+04 -0.70368371164E+03  0.15110858653E+04  0.46999998093E+01 0.  1.
       -5    1    3    3    0  502 -0.57632072658E+03  0.12066656772E+04  0.13888217239E+04  0.19279614900E+04  0.46999998093E+01 0. -1.
</event>
<event>
 5   0  0.4301754E-07  0.4114635E+04  0.7818609E-02  0.7981812E-01
       -2   -1    0    0    0  501  0.00000000000E+00  0.00000000000E+00  0.20170646099E+04  0.20170646099E+04  0.25500000920E-02 0. -1.
        2   -1    0    0  501    0  0.00000000000E+00  0.00000000000E+00 -0.20983741930E+04  0.20983741930E+04  0.25500000920E-02 0.  1.
    10030    2    1    2    0    0  0.00000000000E+00  0.00000000000E+00 -0.81309583157E+02  0.41154388029E+04  0.41146354993E+04 0.  0.
        1    1    3    3  502    0  0.18013676940E+04  0.38393353230E+01  0.95332794337E+03  0.20380810772E+04  0.50400001928E-02 0. -1.
       -1    1    3    3    0  502 -0.18013676940E+04 -0.38393353230E+01 -0.10346375265E+04  0.20773577258E+04  0.50400001928E-02 0.  1.
</event>
<event>
 5   0  0.4079777E-07  0.4034586E+04  0.7818609E-02  0.7997605E-01
        2   -1    0    0  501    0  0.00000000000E+00  0.00000000000E+00  0.15987044950E+04  0.15987044950E+04  0.25500000920E-02 0. -1.
       -2   -1    0    0    0  501  0.00000000000E+00  0.00000000000E+00 -0.25454810134E+04  0.25454810134E+04  0.25500000920E-02 0.  1.
    10030    2    1    2    0    0  0.00000000000E+00  0.00000000000E+00 -0.94677651838E+03  0.41441855084E+04  0.40345864413E+04 0.  0.
        4    1    3    3  502    0 -0.26492142822E+03  0.79853017717E+02 -0.25258966848E+04  0.25410067971E+04  0.12699999809E+01 0.  1.
       -4    1    3    3    0  502  0.26492142822E+03 -0.79853017717E+02  0.15791201664E+04  0.16031787113E+04  0.12699999809E+01 0. -1.
</event>
<event>
 5   0  0.1368865E-07  0.3996695E+04  0.7818609E-02  0.8005214E-01
        1   -1    0    0  501    0  0.00000000000E+00  0.00000000000E+00  0.24618706668E+04  0.24618706668E+04  0.50400001928E-02 0.  1.
       -1   -1    0    0    0  501  0.00000000000E+00  0.00000000000E+00 -0.16220965241E+04  0.16220965241E+04  0.50400001928E-02 0. -1.
    10030    2    1    2    0    0  0.00000000000E+00  0.00000000000E+00  0.83977414271E+03  0.40839671908E+04  0.39966945599E+04 0.  0.
        5    1    3    3  502    0 -0.11995871595E+04  0.36147784269E+03 -0.11709298242E+04  0.17148686035E+04  0.46999998093E+01 0. -1.
       -5    1    3    3    0  502  0.11995871595E+04 -0.36147784269E+03  0.20107039669E+04  0.23690985873E+04  0.46999998093E+01 0.  1.
</event>
<event>
 5   0  0.4079777E-07  0.3925456E+04  0.7818609E-02  0.8019756E-01
        2   -1    0    0  501    0  0.00000000000E+00  0.00000000000E+00  0.14105999301E+04  0.14105999301E+04  0.25500000920E-02 0.  1.
       -2   -1    0    0    0  501  0.00000000000E+00  0.00000000000E+00 -0.27309666639E+04  0.27309666639E+04  0.25500000920E-02 0. -1.
    10030    2    1    2    0    0  0.00000000000E+00  0.00000000000E+00 -0.13203667339E+04  0.41415665940E+04  0.39254560933E+04 0.  0.
        4    1    3    3  502    0 -0.80467651381E+03 -0.13596196176E+04 -0.18888701720E+04  0.24624991241E+04  0.12699999809E+01 0. -1.
       -4    1    3    3    0  502  0.80467651381E+03  0.13596196176E+04  0.56850343813E+03  0.16790674699E+04  0.12699999809E+01 0.  1.
</event>
<event>
 5   0  0.4047916E-07  0.3960327E+04  0.7818609E-02  0.8012598E-01
        2   -1    0    0  501    0  0.00000000000E+00  0.00000000000E+00  0.21493808455E+04  0.21493808455E+04  0.25500000920E-02 0.  1.
       -2   -1    0    0    0  501  0.00000000000E+00  0.00000000000E+00 -0.18242687236E+04  0.18242687236E+04  0.25500000920E-02 0. -1.
    10030    2    1    2    0    0  0.00000000000E+00  0.00000000000E+00  0.32511212195E+03  0.39736495691E+04  0.39603273863E+04 0.  0.
        5    1    3    3  502    0 -0.98872948127E+03  0.46339302769E+03 -0.14948805747E+04  0.18512182767E+04  0.46999998093E+01 0. -1.
       -5    1    3    3    0  502  0.98872948127E+03 -0.46339302769E+03  0.18199926967E+04  0.21224312924E+04  0.46999998093E+01 0.  1.
</event>
<event>
 5   0  0.4301754E-07  0.3939794E+04  0.7818609E-02  0.8016803E-01
       -2   -1    0    0    0  501  0.00000000000E+00  0.00000000000E+00  0.23125713680E+04  0.23125713680E+04  0.25500000920E-02 0. -1.
        2   -1    0    0  501    0  0.00000000000E+00  0.00000000000E+00 -0.16779993495E+04  0.16779993495E+04  0.25500000920E-02 0.  1.
    10030    2    1    2    0    0  0.00000000000E+00  0.00000000000E+00  0.63457201856E+03  0.39905707175E+04  0.39397935231E+04 0.  0.
        1    1    3    3  502    0 -0.16085473718E+04  0.24738892718E+03  0.14414858436E+04  0.21740532114E+04  0.50400001928E-02 0. -1.
       -1    1    3    3    0  502  0.16085473718E+04 -0.24738892718E+03 -0.80691382509E+03  0.18165175061E+04  0.50400001928E-02 0.  1.
</event>
<event>
 5   0  0.1351000E-07  0.3942410E+04  0.7818609E-02  0.8016266E-01
        1   -1    0    0  501    0  0.00000000000E+00  0.00000000000E+00  0.14075726089E+04  0.14075726089E+04  0.50400001928E-02 0.  1.
       -1   -1    0    0    0  501  0.00000000000E+00  0.00000000000E+00 -0.27605317044E+04  0.27605317044E+04  0.50400001928E-02 0. -1.
    10030    2    1    2    0    0  0.00000000000E+00  0.00000000000E+00 -0.13529590956E+04  0.41681043133E+04  0.39424098281E+04 0.  0.
        4    1    3    3  502    0 -0.10383187817E+04 -0.96439214288E+03 -0.21251363933E+04  0.25542835396E+04  0.12699999809E+01 0. -1.
       -4    1    3    3    0  502  0.10383187817E+04  0.96439214288E+03  0.77217729776E+03  0.16138207737E+04  0.12699999809E+01 0.  1.
</event>
<event>
 5   0  0.4301754E-07  0.3954579E+04  0.7818609E-02  0.8013773E-01
       -2   -1    0    0    0  501  0.00000000000E+00  0.00000000000E+00  0.12696280793E+04  0.12696280793E+04  0.25500000920E-02 0.  1.
        2   -1    0    0  501    0  0.00000000000E+00  0.00000000000E+00 -0.30793857270E+04  0.30793857270E+04  0.25500000920E-02 0. -1.
    10030    2    1    2    0    0  0.00000000000E+00  0.00000000000E+00 -0.18097576477E+04  0.43490138063E+04  0.39545794143E+04 0.  0.
        1    1    3    3  502    0  0.18126303192E+04 -0.42093167844E+03 -0.16972637459E+03  0.18685874864E+04  0.50400001928E-02 0. -1.
       -1    1    3    3    0  502 -0.18126303192E+04  0.42093167844E+03 -0.16400312731E+04  0.24804263199E+04  0.50400001928E-02 0.  1.
</event>
<event>
 5   0  0.1421304E-07  0.4012605E+04  0.7818609E-02  0.8002009E-01
       -1   -1    0    0    0  501  0.00000000000E+00  0.00000000000E+00  0.29080102937E+04  0.29080102937E+04  0.50400001928E-02 0.  1.
        1   -1    0    0  501    0  0.00000000000E+00  0.00000000000E+00 -0.13841936514E+04  0.13841936514E+04  0.50400001928E-02 0. -1.
    10030    2    1    2    0    0  0.00000000000E+00  0.00000000000E+00  0.15238166423E+04  0.42922039451E+04  0.40126048331E+04 0.  0.
        2    1    3    3  502    0  0.21879563825E+03 -0.17536812591E+03 -0.13631302973E+04  0.13916715555E+04  0.25500000920E-02 0. -1.
       -2    1    3    3    0  502 -0.21879563825E+03  0.17536812591E+03  0.28869469396E+04  0.29005323896E+04  0.25500000920E-02 0.  1.
</event>
<event>
 5   0  0.4077370E-07  0.4010322E+04  0.7818609E-02  0.8002468E-01
       -2   -1    0    0    0  501  0.00000000000E+00  0.00000000000E+00  0.27577598136E+04  0.27577598136E+04  0.25500000920E-02 0.  1.
        2   -1    0    0  501    0  0.00000000000E+00  0.00000000000E+00 -0.14579478918E+04  0.14579478918E+04  0.25500000920E-02 0. -1.
    10030    2    1    2    0    0  0.00000000000E+00  0.00000000000E+00  0.12998119218E+04  0.42157077054E+04  0.40103217359E+04 0.  0.
        3    1    3    3  502    0 -0.84886051285E+03 -0.59827655679E+03  0.24530284794E+04  0.26638032471E+04  0.10100000352E+00 0.  1.
       -3    1    3    3    0  502  0.84886051285E+03  0.59827655679E+03 -0.11532165576E+04  0.15519044583E+04  0.10100000352E+00 0. -1.
</event>
<event>
 5   0  0.1351000E-07  0.3946894E+04  0.7818609E-02  0.8015346E-01
        1   -1    0    0  501    0  0.00000000000E+00  0.00000000000E+00  0.23266187831E+04  0.23266187831E+04  0.50400001928E-02 0. -1.
       -1   -1    0    0    0  501  0.00000000000E+00  0.00000000000E+00 -0.16738856545E+04  0.16738856545E+04  0.50400001928E-02 0.  1.
    10030    2    1    2    0    0  0.00000000000E+00  0.00000000000E+00  0.65273312853E+03  0.40005044376E+04  0.39468943764E+04 0.  0.
        4    1    3    3  502    0  0.15565646665E+04  0.11731722284E+04  0.13523018956E+02  0.19492078195E+04  0.12699999809E+01 0. -1.
       -4    1    3    3    0  502 -0.15565646665E+04 -0.11731722284E+04  0.63921010958E+03  0.20512966181E+04  0.12699999809E+01 0.  1.
</event>
<event>
 5   0  0.1351000E-07  0.3499603E+04  0.7818609E-02  0.8113884E-01
       -1   -1    0    0    0  501  0.00000000000E+00  0.00000000000E+00  0.15143540020E+04  0.15143540020E+04  0.50400001928E-02 0.  1.
        1   -1    0    0  501    0  0.00000000000E+00  0.00000000000E+00 -0.20218553954E+04  0.20218553954E+04  0.50400001928E-02 0. -1.
    10030    2    1    2    0    0  0.00000000000E+00  0.00000000000E+00 -0.50750139341E+03  0.35362093973E+04  0.34996027257E+04 0.  0.
        4    1    3    3  502    0 -0.80397202502E+03 -0.14812514445E+03  0.13095234233E+04  0.15437503958E+04  0.12699999809E+01 0.  1.
       -4    1    3    3    0  502  0.80397202502E+03  0.14812514445E+03 -0.18170248167E+04  0.19924590015E+04  0.12699999809E+01 0. -1.
</event>
<event>
 5   0  0.4301754E-07  0.3947826E+04  0.7818609E-02  0.8015155E-01
        2   -1    0    0  501    0  0.00000000000E+00  0.00000000000E+00  0.25847701477E+04  0.25847701477E+04  0.25500000920E-02 0. -1.
       -2   -1    0    0    0  501  0.00000000000E+00  0.00000000000E+00 -0.15074196892E+04  0.15074196892E+04  0.25500000920E-02 0.  1.
    10030    2    1    2    0    0  0.00000000000E+00  0.00000000000E+00  0.10773504585E+04  0.40921898368E+04  0.39478264463E+04 0.  0.
        1    1    3    3  502    0 -0.19387427031E+04 -0.82339902472E+02  0.91360667179E+03  0.21448030863E+04  0.50400001928E-02 0.  1.
       -1    1    3    3    0  502  0.19387427031E+04  0.82339902472E+02  0.16374378672E+03  0.19473867505E+04  0.50400001928E-02 0. -1.
</event>
<event>
 5   0  0.4079777E-07  0.4081310E+04  0.7818609E-02  0.7988342E-01
        2   -1    0    0  501    0  0.00000000000E+00  0.00000000000E+00  0.15644170537E+04  0.15644170537E+04  0.25500000920E-02 0.  1.
       -2   -1    0    0    0  501  0.00000000000E+00  0.00000000000E+00 -0.26618692326E+04  0.26618692326E+04  0.25500000920E-02 0. -1.
    10030    2    1    2    0    0  0.00000000000E+00  0.00000000000E+00 -0.10974521789E+04  0.42262862863E+04  0.40813103887E+04 0.  0.
        4    1    3    3  502    0  0.34975530858E+02 -0.19970870017E+04 -0.11591729048E+03  0.20007544105E+04  0.12699999809E+01 0.  1.
       -4    1    3    3    0  502 -0.34975530858E+02  0.19970870017E+04 -0.98153488839E+03  0.22255318758E+04  0.12699999809E+01 0. -1.
</event>
<event>
 5   0  0.1368865E-07  0.3902870E+04  0.7818609E-02  0.8024432E-01
        1   -1    0    0  501    0  0.00000000000E+00  0.00000000000E+00  0.11763486649E+04  0.11763486649E+04  0.50400001928E-02 0. -1.
       -1   -1    0    0    0  501  0.00000000000E+00  0.00000000000E+00 -0.32372200714E+04  0.32372200714E+04  0.50400001928E-02 0.  1.
    10030    2    1    2    0    0  0.00000000000E+00  0.00000000000E+00 -0.20608714066E+04  0.44135687363E+04  0.39028704867E+04 0.  0.
        5    1    3    3  502    0  0.42248689746E+03 -0.72096946717E+03 -0.30246460063E+04  0.31379607557E+04  0.46999998093E+01 0.  1.
       -5    1    3    3    0  502 -0.42248689746E+03  0.72096946717E+03  0.96377459974E+03  0.12756079806E+04  0.46999998093E+01 0. -1.
</event>
<event>
 5   0  0.4301754E-07  0.3990339E+04  0.7818609E-02  0.8006498E-01
       -2   -1    0    0    0  501  0.00000000000E+00  0.00000000000E+00  0.15546511169E+04  0.15546511169E+04  0.25500000920E-02 0.  1.
        2   -1    0    0  501    0  0.00000000000E+00  0.00000000000E+00 -0.25605112644E+04  0.25605112644E+04  0.25500000920E-02 0. -1.
    10030    2    1    2    0    0  0.00000000000E+00  0.00000000000E+00 -0.10058601475E+04  0.41151623813E+04  0.39903391821E+04 0.  0.
        1    1    3    3  502    0 -0.89535907231E+03  0.64706406743E+02 -0.23404775069E+04  0.25067288940E+04  0.50400001928E-02 0. -1.
       -1    1    3    3    0  502  0.89535907231E+03 -0.64706406743E+02  0.13346173594E+04  0.16084334874E+04  0.50400001928E-02 0.  1.
</event>
<event>
 5   0  0.4077370E-07  0.2463698E+04  0.7818609E-02  0.8416033E-01
       -2   -1    0    0    0  501  0.00000000000E+00  0.00000000000E+00  0.94180156386E+03  0.94180156386E+03  0.25500000920E-02 0.  1.
        2   -1    0    0  501    0  0.00000000000E+00  0.00000000000E+00 -0.16112231016E+04  0.16112231016E+04  0.25500000920E-02 0. -1.
    10030    2    1    2    0    0  0.00000000000E+00  0.00000000000E+00 -0.66942153776E+03  0.25530246655E+04  0.24636983881E+04 0.  0.
        3    1    3    3  502    0  0.79130818883E+02  0.13588805153E+03  0.93135830464E+03  0.94453986198E+03  0.10100000352E+00 0.  1.
       -3    1    3    3    0  502 -0.79130818883E+02 -0.13588805153E+03 -0.16007798424E+04  0.16084848035E+04  0.10100000352E+00 0. -1.
</event>
<event>
 5   0  0.1372952E-07  0.4041364E+04  0.7818609E-02  0.7996254E-01
        1   -1    0    0  501    0  0.00000000000E+00  0.00000000000E+00  0.17802903108E+04  0.17802903108E+04  0.50400001928E-02 0. -1.
       -1   -1    0    0    0  501  0.00000000000E+00  0.00000000000E+00 -0.22935332616E+04  0.22935332616E+04  0.50400001928E-02 0.  1.
    10030    2    1    2    0    0  0.00000000000E+00  0.00000000000E+00 -0.51324295087E+03  0.40738235724E+04  0.40413636526E+04 0.  0.
        1    1    3    3  502    0 -0.10675120211E+04 -0.15649774531E+04 -0.96541824484E+03  0.21262099453E+04  0.50400001928E-02 0.  1.
       -1    1    3    3    0  502  0.10675120211E+04  0.15649774531E+04  0.45217529397E+03  0.19476136271E+04  0.50400001928E-02 0. -1.
</event>
<event>
 5   0  0.1351000E-07  0.2743415E+04  0.7818609E-02  0.8321054E-01
        1   -1    0    0  501    0  0.00000000000E+00  0.00000000000E+00  0.10051287607E+04  0.10051287607E+04  0.50400001928E-02 0.  1.
       -1   -1    0    0    0  501  0.00000000000E+00  0.00000000000E+00 -0.18719800812E+04  0.18719800812E+04  0.50400001928E-02 0. -1.
    10030    2    1    2    0    0  0.00000000000E+00  0.00000000000E+00 -0.86685132052E+03  0.28771088418E+04  0.27434146744E+04 0.  0.
        4    1    3    3  502    0 -0.10828153034E+04  0.61443325969E+02  0.44733201872E+03  0.11731887365E+04  0.12699999809E+01 0. -1.
       -4    1    3    3    0  502  0.10828153034E+04 -0.61443325969E+02 -0.13141833392E+04  0.17039201054E+04  0.12699999809E+01 0.  1.
</event>
<event>
 5   0  0.1351000E-07  0.2596336E+04  0.7818609E-02  0.8369447E-01
       -1   -1    0    0    0  501  0.00000000000E+00  0.00000000000E+00  0.10950558610E+04  0.10950558610E+04  0.50400001928E-02 0. -1.
        1   -1    0    0  501    0  0.00000000000E+00  0.00000000000E+00 -0.15389531458E+04  0.15389531458E+04  0.50400001928E-02 0.  1.
    10030    2    1    2    0    0  0.00000000000E+00  0.00000000000E+00 -0.44389728481E+03  0.26340090067E+04  0.25963356193E+04 0.  0.
        3    1    3    3  502    0  0.65226313313E+02  0.11169862472E+04  0.44587878414E+03  0.12044586538E+04  0.10100000352E+00 0. -1.
       -3    1    3    3    0  502 -0.65226313313E+02 -0.11169862472E+04 -0.88977606895E+03  0.14295503529E+04  0.10100000352E+00 0.  1.
</event>
<event>
 5   0  0.1368865E-07  0.3965048E+04  0.7818609E-02  0.8011635E-01
        1   -1    0    0  501    0  0.00000000000E+00  0.00000000000E+00  0.17613682282E+04  0.17613682282E+04  0.50400001928E-02 0.  1.
       -1   -1    0    0    0  501  0.00000000000E+00  0.00000000000E+00 -0.22314475691E+04  0.22314475691E+04  0.50400001928E-02 0. -1.
    10030    2    1    2    0    0  0.00000000000E+00  0.00000000000E+00 -0.47007934085E+03  0.39928157973E+04  0.39650477178E+04 0.  0.
        5    1    3    3  502    0 -0.89454654989E+03 -0.17206850877E+03 -0.20082112546E+04  0.22051656706E+04  0.46999998093E+01 0. -1.
       -5    1    3    3    0  502  0.89454654989E+03  0.17206850877E+03  0.15381319137E+04  0.17876501267E+04  0.46999998093E+01 0.  1.
</event>
<event>
 5   0  0.1351000E-07  0.3964488E+04  0.7818609E-02  0.8011749E-01
        1   -1    0    0  501    0  0.00000000000E+00  0.00000000000E+00  0.14870807234E+04  0.14870807234E+04  0.50400001928E-02 0.  1.
       -1   -1    0    0    0  501  0.00000000000E+00  0.00000000000E+00 -0.26422849228E+04  0.26422849228E+04  0.50400001928E-02 0. -1.
    10030    2    1    2    0    0  0.00000000000E+00  0.00000000000E+00 -0.11552041993E+04  0.41293656462E+04  0.39644878481E+04 0.  0.
        3    1    3    3  502    0 -0.18636968111E+04 -0.55111388422E+02  0.12335526977E+03  0.18685875954E+04  0.10100000352E+00 0.  1.
       -3    1    3    3    0  502  0.18636968111E+04  0.55111388422E+02 -0.12785594691E+04  0.22607780508E+04  0.10100000352E+00 0. -1.
</event>
<event>
 5   0  0.4079777E-07  0.3904883E+04  0.7818609E-02  0.8024014E-01
       -2   -1    0    0    0  501  0.00000000000E+00  0.00000000000E+00  0.19900618860E+04  0.19900618860E+04  0.25500000920E-02 0.  1.
        2   -1    0    0  501    0  0.00000000000E+00  0.00000000000E+00 -0.19155326429E+04  0.19155326430E+04  0.25500000920E-02 0. -1.
    10030    2    1    2    0    0  0.00000000000E+00  0.00000000000E+00  0.74529243044E+02  0.39055945289E+04  0.39048833550E+04 0.  0.
        4    1    3    3  502    0  0.30828767734E+03 -0.14683965484E+04 -0.12122815944E+04  0.19289525635E+04  0.12699999809E+01 0. -1.
       -4    1    3    3    0  502 -0.30828767734E+03  0.14683965484E+04  0.12868108374E+04  0.19766419654E+04  0.12699999809E+01 0.  1.
</event>
<event>
 5   0  0.4301754E-07  0.3956827E+04  0.7818609E-02  0.8013313E-01
       -2   -1    0    0    0  501  0.00000000000E+00  0.00000000000E+00  0.17997175991E+04  0.17997175991E+04  0.25500000920E-02 0.  1.
        2   -1    0    0  501    0  0.00000000000E+00  0.00000000000E+00 -0.21748523105E+04  0.21748523105E+04  0.25500000920E-02 0. -1.
    10030    2    1    2    0    0  0.00000000000E+00  0.00000000000E+00 -0.37513471136E+03  0.39745699096E+04  0.39568270008E+04 0.  0.
        1    1    3    3  502    0 -0.34927558264E+03 -0.24732912947E+02  0.17683453016E+04  0.18026786334E+04  0.50400001928E-02 0.  1.
       -1    1    3    3    0  502  0.34927558264E+03  0.24732912947E+02 -0.21434800130E+04  0.21718912762E+04  0.50400001928E-02 0. -1.
</event>
<event>
 5   0  0.1421304E-07  0.4063086E+04  0.7818609E-02  0.7991940E-01
       -1   -1    0    0    0  501  0.00000000000E+00  0.00000000000E+00  0.16451299441E+04  0.16451299441E+04  0.50400001928E-02 0.  1.
        1   -1    0    0  501    0  0.00000000000E+00  0.00000000000E+00 -0.25087182694E+04  0.25087182694E+04  0.50400001928E-02 0. -1.
    10030    2    1    2    0    0  0.00000000000E+00  0.00000000000E+00 -0.86358832532E+03  0.41538482134E+04  0.40630862881E+04 0.  0.
        2    1    3    3  502    0  0.59858589620E+03 -0.40454690760E+03  0.15093577121E+04  0.16733570984E+04  0.25500000920E-02 0.  1.
       -2    1    3    3    0  502 -0.59858589620E+03  0.40454690760E+03 -0.23729460374E+04  0.24804911151E+04  0.25500000920E-02 0. -1.
</event>
<event>
 5   0  0.4047916E-07  0.3999745E+04  0.7818609E-02  0.8004598E-01
        2   -1    0    0  501    0  0.00000000000E+00  0.00000000000E+00  0.20859088621E+04  0.20859088621E+04  0.25500000920E-02 0. -1.
       -2   -1    0    0    0  501  0.00000000000E+00  0.00000000000E+00 -0.19173848705E+04  0.19173848705E+04  0.25500000920E-02 0.  1.
    10030    2    1    2    0    0  0.00000000000E+00  0.00000000000E+00  0.16852399156E+03  0.40032937326E+04  0.39997450386E+04 0.  0.
        5    1    3    3  502    0  0.11252724715E+04  0.12990921778E+04 -0.93918588344E+03  0.19585634622E+04  0.46999998093E+01 0.  1.
       -5    1    3    3    0  502 -0.11252724715E+04 -0.12990921778E+04  0.11077098750E+04  0.20447302704E+04  0.46999998093E+01 0. -1.
</event>
<event>
 5   0  0.1421304E-07  0.3593760E+04  0.7818609E-02  0.8091923E-01
       -1   -1    0    0    0  501  0.00000000000E+00  0.00000000000E+00  0.15888731566E+04  0.15888731566E+04  0.50400001928E-02 0. -1.
        1   -1    0    0  501    0  0.00000000000E+00  0.00000000000E+00 -0.20321180178E+04  0.20321180178E+04  0.50400001928E-02 0.  1.
    10030    2    1    2    0    0  0.00000000000E+00  0.00000000000E+00 -0.44324486114E+03  0.36209911744E+04  0.35937600195E+04 0.  0.
        2    1    3    3  502    0  0.83911222129E+03 -0.32549277694E+03  0.13453864287E+04  0.16186783220E+04  0.25500000920E-02 0. -1.
       -2    1    3    3    0  502 -0.83911222129E+03  0.32549277694E+03 -0.17886312898E+04  0.20023128523E+04  0.25500000920E-02 0.  1.
</event>
<event>
 5   0  0.4149487E-07  0.3972331E+04  0.7818609E-02  0.8010152E-01
        2   -1    0    0  501    0  0.00000000000E+00  0.00000000000E+00  0.22501300790E+04  0.22501300790E+04  0.25500000920E-02 0.  1.
       -2   -1    0    0    0  501  0.00000000000E+00  0.00000000000E+00 -0.17531669067E+04  0.17531669067E+04  0.25500000920E-02 0. -1.
    10030    2    1    2    0    0  0.00000000000E+00  0.00000000000E+00  0.49696317228E+03  0.40032969857E+04  0.39723310991E+04 0.  0.
        2    1    3    3  502    0  0.10003265714E+04 -0.40962590268E+03 -0.14307629020E+04  0.17931896473E+04  0.25500000920E-02 0. -1.
       -2    1    3    3    0  502 -0.10003265714E+04  0.40962590268E+03  0.19277260743E+04  0.22101073383E+04  0.25500000920E-02 0.  1.
</event>
<event>
 5   0  0.4077370E-07  0.3973999E+04  0.7818609E-02  0.8009812E-01
        2   -1    0    0  501    0  0.00000000000E+00  0.00000000000E+00  0.23347817503E+04  0.23347817503E+04  0.25500000920E-02 0. -1.
       -2   -1    0    0    0  501  0.00000000000E+00  0.00000000000E+00 -0.16910215160E+04  0.16910215160E+04  0.25500000920E-02 0.  1.
    10030    2    1    2    0    0  0.00000000000E+00  0.00000000000E+00  0.64376023436E+03  0.40258032663E+04  0.39739985782E+04 0.  0.
        3    1    3    3  502    0 -0.24252030379E+03 -0.19273654428E+04  0.74519401446E+03  0.20805931311E+04  0.10100000352E+00 0. -1.
       -3    1    3    3    0  502  0.24252030379E+03  0.19273654428E+04 -0.10143378010E+03  0.19452101352E+04  0.10100000352E+00 0.  1.
</event>
<event>
 5   0  0.4301754E-07  0.2642273E+04  0.7818609E-02  0.8353982E-01
        2   -1    0    0  501    0  0.00000000000E+00  0.00000000000E+00  0.94263919079E+03  0.94263919079E+03  0.25500000920E-02 0. -1.
       -2   -1    0    0    0  501  0.00000000000E+00  0.00000000000E+00 -0.18516109820E+04  0.18516109820E+04  0.25500000920E-02 0.  1.
    10030    2    1    2    0    0  0.00000000000E+00  0.00000000000E+00 -0.90897179116E+03  0.27942501727E+04  0.26422725656E+04 0.  0.
        1    1    3    3  502    0  0.12333930876E+04 -0.36762941736E+02 -0.95364218318E+03  0.15595010215E+04  0.50400001928E-02 0.  1.
       -1    1    3    3    0  502 -0.12333930876E+04  0.36762941736E+02  0.44670392019E+02  0.12347491512E+04  0.50400001928E-02 0. -1.
</event>
<event>
 5   0  0.4079777E-07  0.3972825E+04  0.7818609E-02  0.8010051E-01
       -2   -1    0    0    0  501  0.00000000000E+00  0.00000000000E+00  0.18177309884E+04  0.18177309884E+04  0.25500000920E-02 0. -1.
        2   -1    0    0  501    0  0.00000000000E+00  0.00000000000E+00 -0.21707471711E+04  0.21707471711E+04  0.25500000920E-02 0.  1.
    10030    2    1    2    0    0  0.00000000000E+00  0.00000000000E+00 -0.35301618270E+03  0.39884781596E+04  0.39728248897E+04 0.  0.
        4    1    3    3  502    0  0.11616903388E+04 -0.11991637027E+04 -0.12569989333E+04  0.20898722354E+04  0.12699999809E+01 0.  1.
       -4    1    3    3    0  502 -0.11616903388E+04  0.11991637027E+04  0.90398275057E+03  0.18986059242E+04  0.12699999809E+01 0. -1.
</event>
<event>
 5   0  0.1368865E-07  0.3099577E+04  0.7818609E-02  0.8215854E-01
       -1   -1    0    0    0  501  0.00000000000E+00  0.00000000000E+00  0.12848445176E+04  0.12848445176E+04  0.50400001928E-02 0. -1.
        1   -1    0    0  501    0  0.00000000000E+00  0.00000000000E+00 -0.18693663474E+04  0.18693663474E+04  0.50400001928E-02 0.  1.
    10030    2    1    2    0    0  0.00000000000E+00  0.00000000000E+00 -0.58452182977E+03  0.31542108650E+04  0.30995774569E+04 0.  0.
        5    1    3    3  502    0 -0.11250279247E+03  0.10589007197E+04 -0.14381166503E+04  0.17894494132E+04  0.46999998093E+01 0.  1.
       -5    1    3    3    0  502  0.11250279247E+03 -0.10589007197E+04  0.85359482053E+03  0.13647614518E+04  0.46999998093E+01 0. -1.
</event>
<event>
 5   0  0.1351000E-07  0.2637282E+04  0.7818609E-02  0.8355646E-01
        1   -1    0    0  501    0  0.00000000000E+00  0.00000000000E+00  0.23651430759E+04  0.23651430759E+04  0.50400001928E-02 0.  1.
       -1   -1    0    0    0  501  0.00000000000E+00  0.00000000000E+00 -0.73518361228E+03  0.73518361230E+03  0.50400001928E-02 0. -1.
    10030    2    1    2    0    0  0.00000000000E+00  0.00000000000E+00  0.16299594636E+04  0.31003266882E+04  0.26372822603E+04 0.  0.
        4    1    3    3  502    0 -0.17221314084E+03 -0.12730841531E+04  0.46543165222E+03  0.13663926458E+04  0.12699999809E+01 0. -1.
       -4    1    3    3    0  502  0.17221314084E+03  0.12730841531E+04  0.11645278114E+04  0.17339340423E+04  0.12699999809E+01 0.  1.
</event>
<event>
 5   0  0.1368865E-07  0.2927769E+04  0.7818609E-02  0.8264663E-01
       -1   -1    0    0    0  501  0.00000000000E+00  0.00000000000E+00  0.13073891138E+04  0.13073891138E+04  0.50400001928E-02 0. -1.
        1   -1    0    0  501    0  0.00000000000E+00  0.00000000000E+00 -0.16391127275E+04  0.16391127275E+04  0.50400001928E-02 0.  1.
    10030    2    1    2    0    0  0.00000000000E+00  0.00000000000E+00 -0.33172361370E+03  0.29465018412E+04  0.29277692096E+04 0.  0.
        5    1    3    3  502    0 -0.83392938669E+03  0.72511859297E+03  0.80033338456E+03  0.13644745554E+04  0.46999998093E+01 0. -1.
       -5    1    3    3    0  502  0.83392938669E+03 -0.72511859297E+03 -0.11320569983E+04  0.15820272858E+04  0.46999998093E+01 0.  1.
</event>
<event>
 5   0  0.4077370E-07  0.3836343E+04  0.7818609E-02  0.8038400E-01
        2   -1    0    0  501    0  0.00000000000E+00  0.00000000000E+00  0.12857504587E+04  0.12857504587E+04  0.25500000920E-02 0.  1.
       -2   -1    0    0    0  501  0.00000000000E+00  0.00000000000E+00 -0.28616614166E+04  0.28616614166E+04  0.25500000920E-02 0. -1.
    10030    2    1    2    0    0  0.00000000000E+00  0.00000000000E+00 -0.15759109579E+04  0.41474118753E+04  0.38363433001E+04 0.  0.
        3    1    3    3  502    0 -0.59974297721E+03  0.87831183063E+03 -0.25137198559E+04  0.27294524789E+04  0.10100000352E+00 0. -1.
       -3    1    3    3    0  502  0.59974297721E+03 -0.87831183063E+03  0.93780889801E+03  0.14179593964E+04  0.10100000352E+00 0.  1.
</event>
<event>
 5   0  0.4149487E-07  0.3919113E+04  0.7818609E-02  0.8021066E-01
        2   -1    0    0  501    0  0.00000000000E+00  0.00000000000E+00  0.15242165855E+04  0.15242165855E+04  0.25500000920E-02 0. -1.
       -2   -1    0    0    0  501  0.00000000000E+00  0.00000000000E+00 -0.25192363322E+04  0.25192363322E+04  0.25500000920E-02 0.  1.
    10030    2    1    2    0    0  0.00000000000E+00  0.00000000000E+00 -0.99501974665E+03  0.40434529177E+04  0.39191130631E+04 0.  0.
        2    1    3    3  502    0  0.10099860863E+04  0.78879631794E+03 -0.20269692983E+04  0.23980984262E+04  0.25500000920E-02 0.  1.
       -2    1    3    3    0  502 -0.10099860863E+04 -0.78879631794E+03  0.10319495516E+04  0.16453544915E+04  0.25500000920E-02 0. -1.
</event>
<event>
 5   0  0.4047916E-07  0.2825660E+04  0.7818609E-02  0.8295346E-01
       -2   -1    0    0    0  501  0.00000000000E+00  0.00000000000E+00  0.17228721350E+04  0.17228721350E+04  0.25500000920E-02 0. -1.
        2   -1    0    0  501    0  0.00000000000E+00  0.00000000000E+00 -0.11585819925E+04  0.11585819925E+04  0.25500000920E-02 0.  1.
    10030    2    1    2    0    0  0.00000000000E+00  0.00000000000E+00  0.56429014254E+03  0.28814541275E+04  0.28256600156E+04 0.  0.
        5    1    3    3  502    0  0.73398333760E+03 -0.16201213381E+03  0.15020467606E+04  0.16796267539E+04  0.46999998093E+01 0. -1.
       -5    1    3    3    0  502 -0.73398333760E+03  0.16201213381E+03 -0.93775661802E+03  0.12018273736E+04  0.46999998093E+01 0.  1.
</event>
<event>
 5   0  0.1351000E-07  0.4052570E+04  0.7818609E-02  0.7994025E-01
        1   -1    0    0  501    0  0.00000000000E+00  0.00000000000E+00  0.27363813195E+04  0.27363813195E+04  0.50400001928E-02 0.  1.
       -1   -1    0    0    0  501  0.00000000000E+00  0.00000000000E+00 -0.15004598344E+04  0.15004598344E+04  0.50400001928E-02 0. -1.
    10030    2    1    2    0    0  0.00000000000E+00  0.00000000000E+00  0.12359214851E+04  0.42368411540E+04  0.40525696843E+04 0.  0.
        4    1    3    3  502    0  0.13569720032E+04  0.76776166507E+03 -0.73510466960E+03  0.17237202441E+04  0.12699999809E+01 0.  1.
       -4    1    3    3    0  502 -0.13569720032E+04 -0.76776166507E+03  0.19710261547E+04  0.25131209098E+04  0.12699999809E+01 0. -1.
</event>
<event>
 5   0  0.1372952E-07  0.3801858E+04  0.7818609E-02  0.8045756E-01
       -1   -1    0    0    0  501  0.00000000000E+00  0.00000000000E+00  0.12370587492E+04  0.12370587492E+04  0.50400001928E-02 0.  1.
        1   -1    0    0  501    0  0.00000000000E+00  0.00000000000E+00 -0.29210662773E+04  0.29210662773E+04  0.50400001928E-02 0. -1.
    10030    2    1    2    0    0  0.00000000000E+00  0.00000000000E+00 -0.16840075282E+04  0.41581250265E+04  0.38018577539E+04 0.  0.
        1    1    3    3  502    0  0.62953250628E+03 -0.17266844773E+04 -0.31092946385E+03  0.18639816501E+04  0.50400001928E-02 0.  1.
       -1    1    3    3    0  502 -0.62953250628E+03  0.17266844773E+04 -0.13730780643E+04  0.22941433764E+04  0.50400001928E-02 0. -1.
</event>
<event>
 5   0  0.4149487E-07  0.2995051E+04  0.7818609E-02  0.8245146E-01
        2   -1    0    0  501    0  0.00000000000E+00  0.00000000000E+00  0.18924879812E+04  0.18924879812E+04  0.25500000920E-02 0.  1.
       -2   -1    0    0    0  501  0.00000000000E+00  0.00000000000E+00 -0.11849915437E+04  0.11849915437E+04  0.25500000920E-02 0. -1.
    10030    2    1    2    0    0  0.00000000000E+00  0.00000000000E+00  0.70749643748E+03  0.30774795248E+04  0.29950507536E+04 0.  0.
        2    1    3    3  502    0  0.22601511899E+03 -0.91970954663E+03 -0.83819186446E+03  0.12647189750E+04  0.25500000920E-02 0. -1.
       -2    1    3    3    0  502 -0.22601511899E+03  0.91970954663E+03  0.15456883019E+04  0.18127605498E+04  0.25500000920E-02 0.  1.
</event>
<event>
 5   0  0.1351000E-07  0.4006282E+04  0.7818609E-02  0.8003281E-01
       -1   -1    0    0    0  501  0.00000000000E+00  0.00000000000E+00  0.19666889343E+04  0.19666889343E+04  0.50400001928E-02 0. -1.
        1   -1    0    0  501    0  0.00000000000E+00  0.00000000000E+00 -0.20402685213E+04  0.20402685213E+04  0.50400001928E-02 0.  1.
    10030    2    1    2    0    0  0.00000000000E+00  0.00000000000E+00 -0.73579587018E+02  0.40069574557E+04  0.40062818293E+04 0.  0.
        4    1    3    3  502    0 -0.64754723064E+03  0.17471792353E+04 -0.77218191485E+03  0.20169827017E+04  0.12699999809E+01 0.  1.
       -4    1    3    3    0  502  0.64754723064E+03 -0.17471792353E+04  0.69860232783E+03  0.19899747540E+04  0.12699999809E+01 0. -1.
</event>
<event>
 5   0  0.4079777E-07  0.4121408E+04  0.7818609E-02  0.7980493E-01
       -2   -1    0    0    0  501  0.00000000000E+00  0.00000000000E+00  0.20232154155E+04  0.20232154155E+04  0.25500000920E-02 0. -1.
        2   -1    0    0  501    0  0.00000000000E+00  0.00000000000E+00 -0.20988870910E+04  0.20988870910E+04  0.25500000920E-02 0.  1.
    10030    2    1    2    0    0  0.00000000000E+00  0.00000000000E+00 -0.75671675456E+02  0.41221025065E+04  0.41214078750E+04 0.  0.
        4    1    3    3  502    0  0.20042509245E+04  0.42775229888E+03 -0.25352307660E+03  0.20650107411E+04  0.12699999809E+01 0.  1.
       -4    1    3    3    0  502 -0.20042509245E+04 -0.42775229888E+03  0.17785140115E+03  0.20570917654E+04  0.12699999809E+01 0. -1.
</event>
<event>
 5   0  0.1368865E-07  0.4006253E+04  0.7818609E-02  0.8003286E-01
        1   -1    0    0  501    0  0.00000000000E+00  0.00000000000E+00  0.20823184196E+04  0.20823184196E+04  0.50400001928E-02 0. -1.
       -1   -1    0    0    0  501  0.00000000000E+00  0.00000000000E+00 -0.19269460129E+04  0.19269460129E+04  0.50400001928E-02 0.  1.
    10030    2    1    2    0    0  0.00000000000E+00  0.00000000000E+00  0.15537240672E+03  0.40092644325E+04  0.40062527011E+04 0.  0.
        5    1    3    3  502    0  0.91914793335E+03 -0.91563667309E+03  0.16050280299E+04  0.20638218206E+04  0.46999998093E+01 0. -1.
       -5    1    3    3    0  502 -0.91914793335E+03  0.91563667309E+03 -0.14496556232E+04  0.19454426119E+04  0.46999998093E+01 0.  1.
</event>
<event>
 5   0  0.4077370E-07  0.4018239E+04  0.7818609E-02  0.8000877E-01
        2   -1    0    0  501    0  0.00000000000E+00  0.00000000000E+00  0.30023401348E+04  0.30023401348E+04  0.25500000920E-02 0. -1.
       -2   -1    0    0    0  501  0.00000000000E+00  0.00000000000E+00 -0.13444717908E+04  0.13444717908E+04  0.25500000920E-02 0.  1.
    10030    2    1    2    0    0  0.00000000000E+00  0.00000000000E+00  0.16578683441E+04  0.43468119256E+04  0.40182392251E+04 0.  0.
        3    1    3    3  502    0  0.10274459023E+04 -0.90489367898E+03  0.24195721154E+04  0.27800731797E+04  0.10100000352E+00 0. -1.
       -3    1    3    3    0  502 -0.10274459023E+04  0.90489367898E+03 -0.76170377137E+03  0.15667387459E+04  0.10100000352E+00 0.  1.
</event>
<event>
 5   0  0.4686529E-07  0.2564538E+04  0.7818609E-02  0.8380348E-01
       -2   -1    0    0    0  501  0.00000000000E+00  0.00000000000E+00  0.89179131813E+03  0.89179131813E+03  0.25500000920E-02 0. -1.
        2   -1    0    0  501    0  0.00000000000E+00  0.00000000000E+00 -0.18437201051E+04  0.18437201051E+04  0.25500000920E-02 0.  1.
    10030    2    1    2    0    0  0.00000000000E+00  0.00000000000E+00 -0.95192878694E+03  0.27355114232E+04  0.25645378397E+04 0.  0.
        1    1    3    3  502    0 -0.60739714693E+03  0.71172669368E+03 -0.14111883053E+04  0.16932036539E+04  0.50400001928E-02 0.  1.
       -1    1    3    3    0  502  0.60739714693E+03 -0.71172669368E+03  0.45925951839E+03  0.10423077693E+04  0.50400001928E-02 0. -1.
</event>
<event>
 5   0  0.1351000E-07  0.2657638E+04  0.7818609E-02  0.8348882E-01
        1   -1    0    0  501    0  0.00000000000E+00  0.00000000000E+00  0.20002162925E+04  0.20002162925E+04  0.50400001928E-02 0. -1.
       -1   -1    0    0    0  501  0.00000000000E+00  0.00000000000E+00 -0.88278462124E+03  0.88278462125E+03  0.50400001928E-02 0.  1.
    10030    2    1    2    0    0  0.00000000000E+00  0.00000000000E+00  0.11174316713E+04  0.28830009138E+04  0.26576381862E+04 0.  0.
        3    1    3    3  502    0  0.23087058509E+03  0.10323387864E+04  0.14311090928E+04  0.17796341879E+04  0.10100000352E+00 0.  1.
       -3    1    3    3    0  502 -0.23087058509E+03 -0.10323387864E+04 -0.31367742153E+03  0.11033667259E+04  0.10100000352E+00 0. -1.
</event>
<event>
 5   0  0.1421304E-07  0.3981415E+04  0.7818609E-02  0.8008306E-01
        1   -1    0    0  501    0  0.00000000000E+00  0.00000000000E+00  0.29408424380E+04  0.29408424380E+04  0.50400001928E-02 0. -1.
       -1   -1    0    0    0  501  0.00000000000E+00  0.00000000000E+00 -0.13475445621E+04  0.13475445621E+04  0.50400001928E-02 0.  1.
    10030    2    1    2    0    0  0.00000000000E+00  0.00000000000E+00  0.15932978760E+04  0.42883870001E+04  0.39814149421E+04 0.  0.
        2    1    3    3  502    0  0.13175247674E+04  0.77763912907E+03  0.21685572015E+04  0.26539092795E+04  0.25500000920E-02 0. -1.
       -2    1    3    3    0  502 -0.13175247674E+04 -0.77763912907E+03 -0.57525932548E+03  0.16344777206E+04  0.25500000920E-02 0.  1.
</event>
<event>
 5   0  0.1351000E-07  0.3839139E+04  0.7818609E-02  0.8037808E-01
       -1   -1    0    0    0  501  0.00000000000E+00  0.00000000000E+00  0.18947462683E+04  0.18947462683E+04  0.50400001928E-02 0. -1.
        1   -1    0    0  501    0  0.00000000000E+00  0.00000000000E+00 -0.19447181203E+04  0.19447181203E+04  0.50400001928E-02 0.  1.
    10030    2    1    2    0    0  0.00000000000E+00  0.00000000000E+00 -0.49971851914E+02  0.38394643886E+04  0.38391391750E+04 0.  0.
        4    1    3    3  502    0 -0.17595326786E+04 -0.62067369623E+03  0.42622266445E+03  0.19138595708E+04  0.12699999809E+01 0. -1.
       -4    1    3    3    0  502  0.17595326786E+04  0.62067369623E+03 -0.47619451636E+03  0.19256048178E+04  0.12699999809E+01 0.  1.
</event>
<event>
 5   0  0.1351000E-07  0.3838054E+04  0.7818609E-02  0.8038038E-01
       -1   -1    0    0    0  501  0.00000000000E+00  0.00000000000E+00  0.22299721158E+04  0.22299721159E+04  0.50400001928E-02 0.  1.
        1   -1    0    0  501    0  0.00000000000E+00  0.00000000000E+00 -0.16514399824E+04  0.16514399824E+04  0.50400001928E-02 0. -1.
    10030    2    1    2    0    0  0.00000000000E+00  0.00000000000E+00  0.57853213345E+03  0.38814120983E+04  0.38380542528E+04 0.  0.
        4    1    3    3  502    0 -0.11987752920E+04 -0.24882757780E+03 -0.12051576597E+04  0.17179592434E+04  0.12699999809E+01 0. -1.
       -4    1    3    3    0  502  0.11987752920E+04  0.24882757780E+03  0.17836897931E+04  0.21634528549E+04  0.12699999809E+01 0.  1.
</event>
<event>
 5   0  0.1351000E-07  0.2812594E+04  0.7818609E-02  0.8299369E-01
        1   -1    0    0  501    0  0.00000000000E+00  0.00000000000E+00  0.18662090993E+04  0.18662090993E+04  0.50400001928E-02 0.  1.
       -1   -1    0    0    0  501  0.00000000000E+00  0.00000000000E+00 -0.10597263114E+04  0.10597263114E+04  0.50400001928E-02 0. -1.
    10030    2    1    2    0    0  0.00000000000E+00  0.00000000000E+00  0.80648278795E+03  0.29259354107E+04  0.28125937390E+04 0.  0.
        3    1    3    3  502    0 -0.11549859912E+03 -0.12727743173E+04  0.10137256583E+04  0.16312369876E+04  0.10100000352E+00 0.  1.
       -3    1    3    3    0  502  0.11549859912E+03  0.12727743173E+04 -0.20724287034E+03  0.12946984231E+04  0.10100000352E+00 0. -1.
</event>
<event>
 5   0  0.4047916E-07  0.4020484E+04  0.7818609E-02  0.8000427E-01
        2   -1    0    0  501    0  0.00000000000E+00  0.00000000000E+00  0.22178152461E+04  0.22178152461E+04  0.25500000920E-02 0. -1.
       -2   -1    0    0    0  501  0.00000000000E+00  0.00000000000E+00 -0.18220966089E+04  0.18220966089E+04  0.25500000920E-02 0.  1.
    10030    2    1    2    0    0  0.00000000000E+00  0.00000000000E+00  0.39571863715E+03  0.40399118550E+04  0.40204843684E+04 0.  0.
        5    1    3    3  502    0  0.14122086202E+04  0.53370652248E+03 -0.11359112987E+04  0.18893100348E+04  0.46999998093E+01 0.  1.
       -5    1    3    3    0  502 -0.14122086202E+04 -0.53370652248E+03  0.15316299358E+04  0.21506018203E+04  0.46999998093E+01 0. -1.
</event>
<event>
 5   0  0.4149487E-07  0.4065364E+04  0.7818609E-02  0.7991489E-01
        2   -1    0    0  501    0  0.00000000000E+00  0.00000000000E+00  0.28164126047E+04  0.28164126047E+04  0.25500000920E-02 0.  1.
       -2   -1    0    0    0  501  0.00000000000E+00  0.00000000000E+00 -0.14670420209E+04  0.14670420209E+04  0.25500000920E-02 0. -1.
    10030    2    1    2    0    0  0.00000000000E+00  0.00000000000E+00  0.13493705838E+04  0.42834546256E+04  0.40653637669E+04 0.  0.
        2    1    3    3  502    0  0.13092210289E+04  0.13919704033E+04  0.14047900603E+04  0.23717243558E+04  0.25500000920E-02 0. -1.
       -2    1    3    3    0  502 -0.13092210289E+04 -0.13919704033E+04 -0.55419476493E+02  0.19117302699E+04  0.25500000920E-02 0.  1.
</event>
<event>
 5   0  0.1421304E-07  0.3791535E+04  0.7818609E-02  0.8047974E-01
        1   -1    0    0  501    0  0.00000000000E+00  0.00000000000E+00  0.21997924798E+04  0.21997924799E+04  0.50400001928E-02 0.  1.
       -1   -1    0    0    0  501  0.00000000000E+00  0.00000000000E+00 -0.16337605158E+04  0.16337605158E+04  0.50400001928E-02 0. -1.
    10030    2    1    2    0    0  0.00000000000E+00  0.00000000000E+00  0.56603196408E+03  0.38335529956E+04  0.37915348325E+04 0.  0.
        2    1    3    3  502    0 -0.18782698432E+04 -0.80383459243E+02  0.36231175538E+02  0.18803382149E+04  0.25500000920E-02 0. -1.
       -2    1    3    3    0  502  0.18782698432E+04  0.80383459243E+02  0.52980078854E+03  0.19532147808E+04  0.25500000920E-02 0.  1.
</event>
<event>
 5   0  0.1372952E-07  0.4032263E+04  0.7818609E-02  0.7998070E-01
        1   -1    0    0  501    0  0.00000000000E+00  0.00000000000E+00  0.19675946886E+04  0.19675946886E+04  0.50400001928E-02 0. -1.
       -1   -1    0    0    0  501  0.00000000000E+00  0.00000000000E+00 -0.20658651801E+04  0.20658651801E+04  0.50400001928E-02 0.  1.
    10030    2    1    2    0    0  0.00000000000E+00  0.00000000000E+00 -0.98270491550E+02  0.40334598687E+04  0.40322625687E+04 0.  0.
        1    1    3    3  502    0  0.18856042092E+03 -0.91528402835E+03  0.17378681253E+04  0.19731917053E+04  0.50400001928E-02 0. -1.
       -1    1    3    3    0  502 -0.18856042092E+03  0.91528402835E+03 -0.18361386168E+04  0.20602681634E+04  0.50400001928E-02 0.  1.
</event>
<event>
 5   0  0.1351000E-07  0.3261172E+04  0.7818609E-02  0.8172846E-01
        1   -1    0    0  501    0  0.00000000000E+00  0.00000000000E+00  0.21644375986E+04  0.21644375986E+04  0.50400001928E-02 0. -1.
       -1   -1    0    0    0  501  0.00000000000E+00  0.00000000000E+00 -0.12284073272E+04  0.12284073272E+04  0.50400001928E-02 0.  1.
    10030    2    1    2    0    0  0.00000000000E+00  0.00000000000E+00  0.93603027137E+03  0.33928449258E+04  0.32611721852E+04 0.  0.
        3    1    3    3  502    0 -0.10648664040E+04  0.19539376114E+01  0.17527284455E+04  0.20508537954E+04  0.10100000352E+00 0. -1.
       -3    1    3    3    0  502  0.10648664040E+04 -0.19539376114E+01 -0.81669817414E+03  0.13419911304E+04  0.10100000352E+00 0.  1.
</event>
<event>
 5   0  0.1372952E-07  0.4010128E+04  0.7818609E-02  0.8002507E-01
        1   -1    0    0  501    0  0.00000000000E+00  0.00000000000E+00  0.12730528445E+04  0.12730528445E+04  0.50400001928E-02 0.  1.
       -1   -1    0    0    0  501  0.00000000000E+00  0.00000000000E+00 -0.31579841657E+04  0.31579841657E+04  0.50400001928E-02 0. -1.
    10030    2    1    2    0    0  0.00000000000E+00  0.00000000000E+00 -0.18849313211E+04  0.44310370102E+04  0.40101275416E+04 0.  0.
        1    1    3    3  502    0 -0.16678463487E+04  0.95861175967E+03 -0.31776373364E+03  0.19497747919E+04  0.50400001928E-02 0.  1.
       -1    1    3    3    0  502  0.16678463487E+04 -0.95861175967E+03 -0.15671675875E+04  0.24812622183E+04  0.50400001928E-02 0. -1.
</event>
<event>
 5   0  0.1351000E-07  0.2850337E+04  0.7818609E-02  0.8287809E-01
        1   -1    0    0  501    0  0.00000000000E+00  0.00000000000E+00  0.93191272333E+03  0.93191272335E+03  0.50400001928E-02 0.  1.
       -1   -1    0    0    0  501  0.00000000000E+00  0.00000000000E+00 -0.21795019911E+04  0.21795019911E+04  0.50400001928E-02 0. -1.
    10030    2    1    2    0    0  0.00000000000E+00  0.00000000000E+00 -0.12475892678E+04  0.31114147145E+04  0.28503372685E+04 0.  0.
        4    1    3    3  502    0 -0.30695654542E+02 -0.12820339473E+04  0.54885152593E+02  0.12835759651E+04  0.12699999809E+01 0. -1.
       -4    1    3    3    0  502  0.30695654542E+02  0.12820339473E+04 -0.13024744204E+04  0.18278387494E+04  0.12699999809E+01 0.  1.
</event>
<event>
 5   0  0.1351000E-07  0.2512613E+04  0.7818609E-02  0.8398506E-01
        1   -1    0    0  501    0  0.00000000000E+00  0.00000000000E+00  0.97560088382E+03  0.97560088383E+03  0.50400001928E-02 0. -1.
       -1   -1    0    0    0  501  0.00000000000E+00  0.00000000000E+00 -0.16177782243E+04  0.16177782243E+04  0.50400001928E-02 0.  1.
    10030    2    1    2    0    0  0.00000000000E+00  0.00000000000E+00 -0.64217734049E+03  0.25933791082E+04  0.25126128755E+04 0.  0.
        4    1    3    3  502    0 -0.92559162390E+03 -0.96111745954E+01  0.55562180179E+03  0.10795968824E+04  0.12699999809E+01 0. -1.
       -4    1    3    3    0  502  0.92559162390E+03  0.96111745954E+01 -0.11977991423E+04  0.15137822258E+04  0.12699999809E+01 0.  1.
</event>
<event>
 5   0  0.1351000E-07  0.2683450E+04  0.7818609E-02  0.8340395E-01
        1   -1    0    0  501    0  0.00000000000E+00  0.00000000000E+00  0.17015277657E+04  0.17015277657E+04  0.50400001928E-02 0.  1.
       -1   -1    0    0    0  501  0.00000000000E+00  0.00000000000E+00 -0.10580056740E+04  0.10580056740E+04  0.50400001928E-02 0. -1.
    10030    2    1    2    0    0  0.00000000000E+00  0.00000000000E+00  0.64352209176E+03  0.27595334397E+04  0.26834500409E+04 0.  0.
        3    1    3    3  502    0  0.54389307584E+03  0.11203109147E+04  0.83522719718E+03  0.14995068205E+04  0.10100000352E+00 0. -1.
       -3    1    3    3    0  502 -0.54389307584E+03 -0.11203109147E+04 -0.19170510542E+03  0.12600266192E+04  0.10100000352E+00 0.  1.
</event>
<event>
 5   0  0.4149487E-07  0.3838453E+04  0.7818609E-02  0.8037953E-01
       -2   -1    0    0    0  501  0.00000000000E+00  0.00000000000E+00  0.18774180668E+04  0.18774180668E+04  0.25500000920E-02 0.  1.
        2   -1    0    0  501    0  0.00000000000E+00  0.00000000000E+00 -0.19619657408E+04  0.19619657408E+04  0.25500000920E-02 0. -1.
    10030    2    1    2    0    0  0.00000000000E+00  0.00000000000E+00 -0.84547674006E+02  0.38393838076E+04  0.38384527759E+04 0.  0.
        2    1    3    3  502    0 -0.75370562735E+03 -0.17330909746E+04  0.29210267002E+03  0.19123285462E+04  0.25500000920E-02 0.  1.
       -2    1    3    3    0  502  0.75370562735E+03  0.17330909746E+04 -0.37665034403E+03  0.19270552614E+04  0.25500000920E-02 0. -1.
</event>
<event>
 5   0  0.1368865E-07  0.2691073E+04  0.7818609E-02  0.8337907E-01
        1   -1    0    0  501    0  0.00000000000E+00  0.00000000000E+00  0.14677329161E+04  0.14677329161E+04  0.50400001928E-02 0.  1.
       -1   -1    0    0    0  501  0.00000000000E+00  0.00000000000E+00 -0.12335131759E+04  0.12335131759E+04  0.50400001928E-02 0. -1.
    10030    2    1    2    0    0  0.00000000000E+00  0.00000000000E+00  0.23421974022E+03  0.27012460920E+04  0.26910725674E+04 0.  0.
        5    1    3    3  502    0 -0.17960435949E+03  0.65485606523E+02 -0.12198035225E+04  0.12347019130E+04  0.46999998093E+01 0. -1.
       -5    1    3    3    0  502  0.17960435949E+03 -0.65485606523E+02  0.14540232627E+04  0.14665441790E+04  0.46999998093E+01 0.  1.
</event>
<event>
 5   0  0.4301754E-07  0.3919569E+04  0.7818609E-02  0.8020972E-01
        2   -1    0    0  501    0  0.00000000000E+00  0.00000000000E+00  0.21334987659E+04  0.21334987659E+04  0.25500000920E-02 0.  1.
       -2   -1    0    0    0  501  0.00000000000E+00  0.00000000000E+00 -0.18002143463E+04  0.18002143463E+04  0.25500000920E-02 0. -1.
    10030    2    1    2    0    0  0.00000000000E+00  0.00000000000E+00  0.33328441964E+03  0.39337131122E+04  0.39195688978E+04 0.  0.
        1    1    3    3  502    0  0.97074979866E+03 -0.98573608463E+03 -0.12264317249E+04  0.18488281629E+04  0.50400001928E-02 0. -1.
       -1    1    3    3    0  502 -0.97074979866E+03  0.98573608463E+03  0.15597161445E+04  0.20848849493E+04  0.50400001928E-02 0.  1.
</event>
<event>
 5   0  0.1351000E-07  0.4141295E+04  0.7818609E-02  0.7976634E-01
       -1   -1    0    0    0  501  0.00000000000E+00  0.00000000000E+00  0.17577131462E+04  0.17577131462E+04  0.50400001928E-02 0.  1.
        1   -1    0    0  501    0  0.00000000000E+00  0.00000000000E+00 -0.24392955128E+04  0.24392955128E+04  0.50400001928E-02 0. -1.
    10030    2    1    2    0    0  0.00000000000E+00  0.00000000000E+00 -0.68158236655E+03  0.41970086590E+04  0.41412953482E+04 0.  0.
        3    1    3    3  502    0 -0.96009742573E+03  0.11791412114E+04  0.10836137289E+04  0.18671849900E+04  0.10100000352E+00 0.  1.
       -3    1    3    3    0  502  0.96009742573E+03 -0.11791412114E+04 -0.17651960954E+04  0.23298236690E+04  0.10100000352E+00 0. -1.
</event>
<event>
 5   0  0.4301754E-07  0.3097573E+04  0.7818609E-02  0.8216404E-01
       -2   -1    0    0    0  501  0.00000000000E+00  0.00000000000E+00  0.90052541414E+03  0.90052541415E+03  0.25500000920E-02 0.  1.
        2   -1    0    0  501    0  0.00000000000E+00  0.00000000000E+00 -0.26637111549E+04  0.26637111549E+04  0.25500000920E-02 0. -1.
    10030    2    1    2    0    0  0.00000000000E+00  0.00000000000E+00 -0.17631857408E+04  0.35642365691E+04  0.30975729796E+04 0.  0.
        1    1    3    3  502    0  0.67842319146E+03  0.97909170263E+03  0.25741627501E+03  0.12186639108E+04  0.50400001928E-02 0.  1.
       -1    1    3    3    0  502 -0.67842319146E+03 -0.97909170263E+03 -0.20206020158E+04  0.23455726582E+04  0.50400001928E-02 0. -1.
</event>
<event>
 5   0  0.1372952E-07  0.3973003E+04  0.7818609E-02  0.8010015E-01
       -1   -1    0    0    0  501  0.00000000000E+00  0.00000000000E+00  0.21250593046E+04  0.21250593046E+04  0.50400001928E-02 0. -1.
        1   -1    0    0  501    0  0.00000000000E+00  0.00000000000E+00 -0.18569776528E+04  0.18569776528E+04  0.50400001928E-02 0.  1.
    10030    2    1    2    0    0  0.00000000000E+00  0.00000000000E+00  0.26808165172E+03  0.39820369574E+04  0.39730027131E+04 0.  0.
        1    1    3    3  502    0  0.81094489994E+03  0.29883675023E+03  0.19267535085E+04  0.21117088144E+04  0.50400001928E-02 0. -1.
       -1    1    3    3    0  502 -0.81094489994E+03 -0.29883675023E+03 -0.16586718568E+04  0.18703281430E+04  0.50400001928E-02 0.  1.
</event>
<event>
 5   0  0.4047916E-07  0.3904907E+04  0.7818609E-02  0.8024009E-01
       -2   -1    0    0    0  501  0.00000000000E+00  0.00000000000E+00  0.28183368089E+04  0.28183368089E+04  0.25500000920E-02 0. -1.
        2   -1    0    0  501    0  0.00000000000E+00  0.00000000000E+00 -0.13525976129E+04  0.13525976129E+04  0.25500000920E-02 0.  1.
    10030    2    1    2    0    0  0.00000000000E+00  0.00000000000E+00  0.14657391960E+04  0.41709344219E+04  0.39049074971E+04 0.  0.
        5    1    3    3  502    0  0.61817307817E+03 -0.91105556264E+03  0.24551361944E+04  0.26907017701E+04  0.46999998093E+01 0. -1.
       -5    1    3    3    0  502 -0.61817307817E+03  0.91105556264E+03 -0.98939699838E+03  0.14802326517E+04  0.46999998093E+01 0.  1.
</event>
<event>
 5   0  0.1547658E-07  0.2443615E+04  0.7818609E-02  0.8423353E-01
       -1   -1    0    0    0  501  0.00000000000E+00  0.00000000000E+00  0.13636458989E+04  0.13636458989E+04  0.50400001928E-02 0.  1.
        1   -1    0    0  501    0  0.00000000000E+00  0.00000000000E+00 -0.10947219980E+04  0.10947219980E+04  0.50400001928E-02 0. -1.
    10030    2    1    2    0    0  0.00000000000E+00  0.00000000000E+00  0.26892390087E+03  0.24583678969E+04  0.24436146693E+04 0.  0.
        2    1    3    3  502    0 -0.56483414981E+03 -0.56591110374E+03  0.10639012812E+04  0.13308564649E+04  0.25500000920E-02 0.  1.
       -2    1    3    3    0  502  0.56483414981E+03  0.56591110374E+03 -0.79497738029E+03  0.11275114320E+04  0.25500000920E-02 0. -1.
</event>
<event>
 5   0  0.4077370E-07  0.4150351E+04  0.7818609E-02  0.7974884E-01
        2   -1    0    0  501    0  0.00000000000E+00  0.00000000000E+00  0.24493973559E+04  0.24493973559E+04  0.25500000920E-02 0. -1.
       -2   -1    0    0    0  501  0.00000000000E+00  0.00000000000E+00 -0.17581276839E+04  0.17581276839E+04  0.25500000920E-02 0.  1.
    10030    2    1    2    0    0  0.00000000000E+00  0.00000000000E+00  0.69126967203E+03  0.42075250399E+04  0.41503509733E+04 0.  0.
        3    1    3    3  502    0  0.11181376475E+04 -0.17312361718E+04  0.99508946435E+02  0.20633255977E+04  0.10100000352E+00 0.  1.
       -3    1    3    3    0  502 -0.11181376475E+04  0.17312361718E+04  0.59176072559E+03  0.21441994422E+04  0.10100000352E+00 0. -1.
</event>
<event>
 5   0  0.4149487E-07  0.4152843E+04  0.7818609E-02  0.7974404E-01
        2   -1    0    0  501    0  0.00000000000E+00  0.00000000000E+00  0.27632681785E+04  0.27632681785E+04  0.25500000920E-02 0.  1.
       -2   -1    0    0    0  501  0.00000000000E+00  0.00000000000E+00 -0.15602994791E+04  0.15602994791E+04  0.25500000920E-02 0. -1.
    10030    2    1    2    0    0  0.00000000000E+00  0.00000000000E+00  0.12029686994E+04  0.43235676575E+04  0.41528428333E+04 0.  0.
        2    1    3    3  502    0 -0.89461495242E+03  0.14831971407E+04 -0.59071939625E+03  0.18300707845E+04  0.25500000920E-02 0. -1.
       -2    1    3    3    0  502  0.89461495242E+03 -0.14831971407E+04  0.17936880956E+04  0.24934968730E+04  0.25500000920E-02 0.  1.
</event>
<event>
 5   0  0.4047916E-07  0.3843837E+04  0.7818609E-02  0.8036812E-01
        2   -1    0    0  501    0  0.00000000000E+00  0.00000000000E+00  0.24757991058E+04  0.24757991058E+04  0.25500000920E-02 0. -1.
       -2   -1    0    0    0  501  0.00000000000E+00  0.00000000000E+00 -0.14919508673E+04  0.14919508673E+04  0.25500000920E-02 0.  1.
    10030    2    1    2    0    0  0.00000000000E+00  0.00000000000E+00  0.98384823850E+03  0.39677499731E+04  0.38438369492E+04 0.  0.
        5    1    3    3  502    0  0.14806667552E+02 -0.73120993330E+03  0.23265377708E+04  0.24387880788E+04  0.46999998093E+01 0. -1.
       -5    1    3    3    0  502 -0.14806667552E+02  0.73120993330E+03 -0.13426895323E+04  0.15289618943E+04  0.46999998093E+01 0.  1.
</event>
<event>
 5   0  0.4047916E-07  0.3568927E+04  0.7818609E-02  0.8097647E-01
        2   -1    0    0  501    0  0.00000000000E+00  0.00000000000E+00  0.23320448844E+04  0.23320448844E+04  0.25500000920E-02 0.  1.
       -2   -1    0    0    0  501  0.00000000000E+00  0.00000000000E+00 -0.13654581832E+04  0.13654581832E+04  0.25500000920E-02 0. -1.
    10030    2    1    2    0    0  0.00000000000E+00  0.00000000000E+00  0.96658670117E+03  0.36975030676E+04  0.35689268813E+04 0.  0.
        5    1    3    3  502    0  0.21243262781E+03 -0.17011336243E+04 -0.29832161235E+02  0.17146122818E+04  0.46999998093E+01 0. -1.
       -5    1    3    3    0  502 -0.21243262781E+03  0.17011336243E+04  0.99641886241E+03  0.19828907858E+04  0.46999998093E+01 0.  1.
</event>
<event>
 5   0  0.4047916E-07  0.3768239E+04  0.7818609E-02  0.8053005E-01
        2   -1    0    0  501    0  0.00000000000E+00  0.00000000000E+00  0.29065873970E+04  0.29065873970E+04  0.25500000920E-02 0.  1.
       -2   -1    0    0    0  501  0.00000000000E+00  0.00000000000E+00 -0.12213314579E+04  0.12213314579E+04  0.25500000920E-02 0. -1.
    10030    2    1    2    0    0  0.00000000000E+00  0.00000000000E+00  0.16852559391E+04  0.41279188549E+04  0.37682391767E+04 0.  0.
        5    1    3    3  502    0 -0.43391267641E+03  0.12405598095E+04  0.23215328508E+04  0.26677341920E+04  0.46999998093E+01 0.  1.
       -5    1    3    3    0  502  0.43391267641E+03 -0.12405598095E+04 -0.63627691165E+03  0.14601846630E+04  0.46999998093E+01 0. -1.
</event>
<event>
 5   0  0.4077370E-07  0.3794937E+04  0.7818609E-02  0.8047242E-01
       -2   -1    0    0    0  501  0.00000000000E+00  0.00000000000E+00  0.25190062141E+04  0.25190062141E+04  0.25500000920E-02 0.  1.
        2   -1    0    0  501    0  0.00000000000E+00  0.00000000000E+00 -0.14292888872E+04  0.14292888872E+04  0.25500000920E-02 0. -1.
    10030    2    1    2    0    0  0.00000000000E+00  0.00000000000E+00  0.10897173269E+04  0.39482951013E+04  0.37949374638E+04 0.  0.
        3    1    3    3  502    0 -0.22953618012E+03 -0.15051268033E+04 -0.63328646257E+03  0.16489831127E+04  0.10100000352E+00 0. -1.
       -3    1    3    3    0  502  0.22953618012E+03  0.15051268033E+04  0.17230037895E+04  0.22993119886E+04  0.10100000352E+00 0.  1.
</event>
<event>
 5   0  0.4301754E-07  0.3983366E+04  0.7818609E-02  0.8007910E-01
        2   -1    0    0  501    0  0.00000000000E+00  0.00000000000E+00  0.12131222803E+04  0.12131222803E+04  0.25500000920E-02 0.  1.
       -2   -1    0    0    0  501  0.00000000000E+00  0.00000000000E+00 -0.32699112271E+04  0.32699112271E+04  0.25500000920E-02 0. -1.
    10030    2    1    2    0    0  0.00000000000E+00  0.00000000000E+00 -0.20567889468E+04  0.44830335074E+04  0.39833664980E+04 0.  0.
        1    1    3    3  502    0 -0.28392545710E+03  0.10551236457E+04  0.84568940759E+03  0.13816982836E+04  0.50400001928E-02 0.  1.
       -1    1    3    3    0  502  0.28392545710E+03 -0.10551236457E+04 -0.29024783544E+04  0.31013352238E+04  0.50400001928E-02 0. -1.
</event>
<event>
 5   0  0.1368865E-07  0.3551783E+04  0.7818609E-02  0.8101627E-01
        1   -1    0    0  501    0  0.00000000000E+00  0.00000000000E+00  0.30371040729E+04  0.30371040729E+04  0.50400001928E-02 0. -1.
       -1   -1    0    0    0  501  0.00000000000E+00  0.00000000000E+00 -0.10384201027E+04  0.10384201027E+04  0.50400001928E-02 0.  1.
    10030    2    1    2    0    0  0.00000000000E+00  0.00000000000E+00  0.19986839702E+04  0.40755241757E+04  0.35517826079E+04 0.  0.
        5    1    3    3  502    0 -0.31397720183E+03  0.44660180341E+03 -0.93973876905E+03  0.10868145647E+04  0.46999998093E+01 0.  1.
       -5    1    3    3    0  502  0.31397720183E+03 -0.44660180341E+03  0.29384227393E+04  0.29887096110E+04  0.46999998093E+01 0. -1.
</event>
<event>
 5   0  0.1372952E-07  0.3751765E+04  0.7818609E-02  0.8056586E-01
       -1   -1    0    0    0  501  0.00000000000E+00  0.00000000000E+00  0.29406308560E+04  0.29406308560E+04  0.50400001928E-02 0.  1.
        1   -1    0    0  501    0  0.00000000000E+00  0.00000000000E+00 -0.11966602260E+04  0.11966602261E+04  0.50400001928E-02 0. -1.
    10030    2    1    2    0    0  0.00000000000E+00  0.00000000000E+00  0.17439706300E+04  0.41372910821E+04  0.37517654430E+04 0.  0.
        1    1    3    3  502    0  0.11835421184E+02 -0.55721253859E+03 -0.11032487510E+04  0.12360354756E+04  0.50400001928E-02 0. -1.
       -1    1    3    3    0  502 -0.11835421184E+02  0.55721253859E+03  0.28472193810E+04  0.29012556064E+04  0.50400001928E-02 0.  1.
</event>
<event>
 5   0  0.4149487E-07  0.3981564E+04  0.7818609E-02  0.8008276E-01
       -2   -1    0    0    0  501  0.00000000000E+00  0.00000000000E+00  0.20117796269E+04  0.20117796269E+04  0.25500000920E-02 0. -1.
        2   -1    0    0  501    0  0.00000000000E+00  0.00000000000E+00 -0.19700039827E+04  0.19700039827E+04  0.25500000920E-02 0.  1.
    10030    2    1    2    0    0  0.00000000000E+00  0.00000000000E+00  0.41775644127E+02  0.39817836096E+04  0.39815644550E+04 0.  0.
        2    1    3    3  502    0 -0.63972336341E+03  0.85443345032E+03  0.17014300716E+04  0.20085235351E+04  0.25500000920E-02 0. -1.
       -2    1    3    3    0  502  0.63972336341E+03 -0.85443345032E+03 -0.16596544275E+04  0.19732600744E+04  0.25500000920E-02 0.  1.
</event>
<event>
 5   0  0.1421304E-07  0.2833088E+04  0.7818609E-02  0.8293069E-01
       -1   -1    0    0    0  501  0.00000000000E+00  0.00000000000E+00  0.12114344031E+04  0.12114344031E+04  0.50400001928E-02 0. -1.
        1   -1    0    0  501    0  0.00000000000E+00  0.00000000000E+00 -0.16563810234E+04  0.16563810234E+04  0.50400001928E-02 0.  1.
    10030    2    1    2    0    0  0.00000000000E+00  0.00000000000E+00 -0.44494662026E+03  0.28678154266E+04  0.28330880371E+04 0.  0.
        2    1    3    3  502    0 -0.19546428096E+03  0.85631376156E+03  0.90250784781E+03  0.12593649029E+04  0.25500000920E-02 0. -1.
       -2    1    3    3    0  502  0.19546428096E+03 -0.85631376156E+03 -0.13474544681E+04  0.16084505236E+04  0.25500000920E-02 0.  1.
</event>
<event>
 5   0  0.4301754E-07  0.3958718E+04  0.7818609E-02  0.8012927E-01
       -2   -1    0    0    0  501  0.00000000000E+00  0.00000000000E+00  0.16419569952E+04  0.16419569952E+04  0.25500000920E-02 0.  1.
        2   -1    0    0  501    0  0.00000000000E+00  0.00000000000E+00 -0.23860934766E+04  0.23860934766E+04  0.25500000920E-02 0. -1.
    10030    2    1    2    0    0  0.00000000000E+00  0.00000000000E+00 -0.74413648137E+03  0.40280504718E+04  0.39587184164E+04 0.  0.
        1    1    3    3  502    0 -0.70077587014E+03  0.12474510541E+04  0.10195997031E+04  0.17569304219E+04  0.50400001928E-02 0.  1.
       -1    1    3    3    0  502  0.70077587014E+03 -0.12474510541E+04 -0.17637361845E+04  0.22711200499E+04  0.50400001928E-02 0. -1.
</event>
<event>
 5   0  0.4047916E-07  0.3995891E+04  0.7818609E-02  0.8005376E-01
       -2   -1    0    0    0  501  0.00000000000E+00  0.00000000000E+00  0.21076564226E+04  0.21076564226E+04  0.25500000920E-02 0.  1.
        2   -1    0    0  501    0  0.00000000000E+00  0.00000000000E+00 -0.18939453174E+04  0.18939453174E+04  0.25500000920E-02 0. -1.
    10030    2    1    2    0    0  0.00000000000E+00  0.00000000000E+00  0.21371110521E+03  0.40016017401E+04  0.39958908956E+04 0.  0.
        5    1    3    3  502    0 -0.86038768131E+03  0.16887812010E+04 -0.52611979350E+03  0.19669959415E+04  0.46999998093E+01 0.  1.
       -5    1    3    3    0  502  0.86038768131E+03 -0.16887812010E+04  0.73983089870E+03  0.20346057986E+04  0.46999998093E+01 0. -1.
</event>
<event>
 5   0  0.1351000E-07  0.3950498E+04  0.7818609E-02  0.8014608E-01
       -1   -1    0    0    0  501  0.00000000000E+00  0.00000000000E+00  0.28912977111E+04  0.28912977111E+04  0.50400001928E-02 0. -1.
        1   -1    0    0  501    0  0.00000000000E+00  0.00000000000E+00 -0.13494313924E+04  0.13494313924E+04  0.50400001928E-02 0.  1.
    10030    2    1    2    0    0  0.00000000000E+00  0.00000000000E+00  0.15418663187E+04  0.42407291035E+04  0.39504976376E+04 0.  0.
        3    1    3    3  502    0 -0.18933305199E+04 -0.51722419373E+03  0.10094906840E+04  0.22071005359E+04  0.10100000352E+00 0. -1.
       -3    1    3    3    0  502  0.18933305199E+04  0.51722419373E+03  0.53237563469E+03  0.20336285676E+04  0.10100000352E+00 0.  1.
</event>
<event>
 5   0  0.1368865E-07  0.2697841E+04  0.7818609E-02  0.8335706E-01
       -1   -1    0    0    0  501  0.00000000000E+00  0.00000000000E+00  0.81964569806E+03  0.81964569807E+03  0.50400001928E-02 0. -1.
        1   -1    0    0  501    0  0.00000000000E+00  0.00000000000E+00 -0.22199670908E+04  0.22199670908E+04  0.50400001928E-02 0.  1.
    10030    2    1    2    0    0  0.00000000000E+00  0.00000000000E+00 -0.14003213927E+04  0.30396127889E+04  0.26978409707E+04 0.  0.
        5    1    3    3  502    0  0.19926346084E+03 -0.77162328903E+03 -0.19263608773E+04  0.20847054340E+04  0.46999998093E+01 0.  1.
       -5    1    3    3    0  502 -0.19926346084E+03  0.77162328903E+03  0.52603948459E+03  0.95490735485E+03  0.46999998093E+01 0. -1.
</event>
<event>
 5   0  0.4301754E-07  0.3599939E+04  0.7818609E-02  0.8090506E-01
        2   -1    0    0  501    0  0.00000000000E+00  0.00000000000E+00  0.20843006709E+04  0.20843006709E+04  0.25500000920E-02 0. -1.
       -2   -1    0    0    0  501  0.00000000000E+00  0.00000000000E+00 -0.15544258271E+04  0.15544258271E+04  0.25500000920E-02 0.  1.
    10030    2    1    2    0    0  0.00000000000E+00  0.00000000000E+00  0.52987484378E+03  0.36387264980E+04  0.35999393297E+04 0.  0.
        1    1    3    3  502    0 -0.46701634722E+03  0.12599352893E+04 -0.94560981008E+03  0.16430821997E+04  0.50400001928E-02 0.  1.
       -1    1    3    3    0  502  0.46701634722E+03 -0.12599352893E+04  0.14754846539E+04  0.19956442984E+04  0.50400001928E-02 0. -1.
</event>
<event>
 5   0  0.4079777E-07  0.4007409E+04  0.7818609E-02  0.8003054E-01
        2   -1    0    0  501    0  0.00000000000E+00  0.00000000000E+00  0.22220519416E+04  0.22220519416E+04  0.25500000920E-02 0.  1.
       -2   -1    0    0    0  501  0.00000000000E+00  0.00000000000E+00 -0.18068123912E+04  0.18068123912E+04  0.25500000920E-02 0. -1.
    10030    2    1    2    0    0  0.00000000000E+00  0.00000000000E+00  0.41523955041E+03  0.40288643328E+04  0.40074086300E+04 0.  0.
        4    1    3    3  502    0 -0.96047002389E+03  0.99556251041E+03  0.16649260975E+04  0.21646311237E+04  0.12699999809E+01 0.  1.
       -4    1    3    3    0  502  0.96047002389E+03 -0.99556251041E+03 -0.12496865471E+04  0.18642332090E+04  0.12699999809E+01 0. -1.
</event>
<event>
 5   0  0.4047916E-07  0.2603326E+04  0.7818609E-02  0.8367072E-01
       -2   -1    0    0    0  501  0.00000000000E+00  0.00000000000E+00  0.13484156399E+04  0.13484156399E+04  0.25500000920E-02 0. -1.
        2   -1    0    0  501    0  0.00000000000E+00  0.00000000000E+00 -0.12565317487E+04  0.12565317487E+04  0.25500000920E-02 0.  1.
    10030    2    1    2    0    0  0.00000000000E+00  0.00000000000E+00  0.91883891245E+02  0.26049473886E+04  0.26033263813E+04 0.  0.
        5    1    3    3  502    0  0.60609983431E+03 -0.77959636857E+02  0.11959487701E+04  0.13430377005E+04  0.46999998093E+01 0. -1.
       -5    1    3    3    0  502 -0.60609983431E+03  0.77959636857E+02 -0.11040648789E+04  0.12619096881E+04  0.46999998093E+01 0.  1.
</event>
<event>
 5   0  0.1351000E-07  0.3837616E+04  0.7818609E-02  0.8038130E-01
       -1   -1    0    0    0  501  0.00000000000E+00  0.00000000000E+00  0.27803567000E+04  0.27803567000E+04  0.50400001928E-02 0. -1.
        1   -1    0    0  501    0  0.00000000000E+00  0.00000000000E+00 -0.13242271380E+04  0.13242271380E+04  0.50400001928E-02 0.  1.
    10030    2    1    2    0    0  0.00000000000E+00  0.00000000000E+00  0.14561295620E+04  0.41045838380E+04  0.38376158200E+04 0.  0.
        4    1    3    3  502    0  0.53420766449E+02  0.13726302679E+04 -0.70485627805E+03  0.15439532429E+04  0.12699999809E+01 0.  1.
       -4    1    3    3    0  502 -0.53420766449E+02 -0.13726302679E+04  0.21609858400E+04  0.25606305951E+04  0.12699999809E+01 0. -1.
</event>
<event>
 5   0  0.4077370E-07  0.2513585E+04  0.7818609E-02  0.8398162E-01
       -2   -1    0    0    0  501  0.00000000000E+00  0.00000000000E+00  0.25338361845E+04  0.25338361845E+04  0.25500000920E-02 0.  1.
        2   -1    0    0  501    0  0.00000000000E+00  0.00000000000E+00 -0.62337396354E+03  0.62337396355E+03  0.25500000920E-02 0. -1.
    10030    2    1    2    0    0  0.00000000000E+00  0.00000000000E+00  0.19104622210E+04  0.31572101481E+04  0.25135850933E+04 0.  0.
        3    1    3    3  502    0  0.47625332239E+03  0.10949384497E+04  0.46260618154E+03  0.12805123682E+04  0.10100000352E+00 0.  1.
       -3    1    3    3    0  502 -0.47625332239E+03 -0.10949384497E+04  0.14478560394E+04  0.18766977799E+04  0.10100000352E+00 0. -1.
</event>
<event>
 5   0  0.1372952E-07  0.3992679E+04  0.7818609E-02  0.8006025E-01
       -1   -1    0    0    0  501  0.00000000000E+00  0.00000000000E+00  0.25824974755E+04  0.25824974755E+04  0.50400001928E-02 0.  1.
        1   -1    0    0  501    0  0.00000000000E+00  0.00000000000E+00 -0.15432235032E+04  0.15432235032E+04  0.50400001928E-02 0. -1.
    10030    2    1    2    0    0  0.00000000000E+00  0.00000000000E+00  0.10392739724E+04  0.41257209787E+04  0.39926787004E+04 0.  0.
        1    1    3    3  502    0  0.15743848290E+03  0.62366444654E+03 -0.14332113400E+04  0.15709356966E+04  0.50400001928E-02 0. -1.
       -1    1    3    3    0  502 -0.15743848290E+03 -0.62366444654E+03  0.24724853123E+04  0.25547852821E+04  0.50400001928E-02 0.  1.
</event>
<event>
 5   0  0.4077370E-07  0.3972614E+04  0.7818609E-02  0.8010094E-01
        2   -1    0    0  501    0  0.00000000000E+00  0.00000000000E+00  0.27145044335E+04  0.27145044335E+04  0.25500000920E-02 0. -1.
       -2   -1    0    0    0  501  0.00000000000E+00  0.00000000000E+00 -0.14534571706E+04  0.14534571706E+04  0.25500000920E-02 0.  1.
    10030    2    1    2    0    0  0.00000000000E+00  0.00000000000E+00  0.12610472630E+04  0.41679616041E+04  0.39726142191E+04 0.  0.
        3    1    3    3  502    0 -0.12551633738E+01  0.17397575161E+04  0.16361213489E+04  0.23882317452E+04  0.10100000352E+00 0. -1.
       -3    1    3    3    0  502  0.12551633738E+01 -0.17397575161E+04 -0.37507408597E+03  0.17797298589E+04  0.10100000352E+00 0.  1.
</event>
<event>
 5   0  0.1421304E-07  0.3790799E+04  0.7818609E-02  0.8048132E-01
        1   -1    0    0  501    0  0.00000000000E+00  0.00000000000E+00  0.21629799883E+04  0.21629799883E+04  0.50400001928E-02 0. -1.
       -1   -1    0    0    0  501  0.00000000000E+00  0.00000000000E+00 -0.16609209499E+04  0.16609209499E+04  0.50400001928E-02 0.  1.
    10030    2    1    2    0    0  0.00000000000E+00  0.00000000000E+00  0.50205903838E+03  0.38239009382E+04  0.37907987426E+04 0.  0.
        2    1    3    3  502    0 -0.14044255198E+04  0.90620012779E+03  0.11526629693E+04  0.20303304246E+04  0.25500000920E-02 0. -1.
       -2    1    3    3    0  502  0.14044255198E+04 -0.90620012779E+03 -0.65060393090E+03  0.17935705136E+04  0.25500000920E-02 0.  1.
</event>
<event>
 5   0  0.4301754E-07  0.2950868E+04  0.7818609E-02  0.8257902E-01
       -2   -1    0    0    0  501  0.00000000000E+00  0.00000000000E+00  0.11560792301E+04  0.11560792301E+04  0.25500000920E-02 0.  1.
        2   -1    0    0  501    0  0.00000000000E+00  0.00000000000E+00 -0.18830074676E+04  0.18830074676E+04  0.25500000920E-02 0. -1.
    10030    2    1    2    0    0  0.00000000000E+00  0.00000000000E+00 -0.72692823755E+03  0.30390866977E+04  0.29508682271E+04 0.  0.
        1    1    3    3  502    0  0.75987140782E+03  0.12545329827E+04 -0.19852554002E+03  0.14800911969E+04  0.50400001928E-02 0.  1.
       -1    1    3    3    0  502 -0.75987140782E+03 -0.12545329827E+04 -0.52840269753E+03  0.15589955009E+04  0.50400001928E-02 0. -1.
</event>
<event>
 5   0  0.4149487E-07  0.3718615E+04  0.7818609E-02  0.8063849E-01
       -2   -1    0    0    0  501  0.00000000000E+00  0.00000000000E+00  0.20372419120E+04  0.20372419120E+04  0.25500000920E-02 0. -1.
        2   -1    0    0  501    0  0.00000000000E+00  0.00000000000E+00 -0.16969138358E+04  0.16969138358E+04  0.25500000920E-02 0.  1.
    10030    2    1    2    0    0  0.00000000000E+00  0.00000000000E+00  0.34032807628E+03  0.37341557478E+04  0.37186147891E+04 0.  0.
        2    1    3    3  502    0 -0.91782832083E+03  0.15962108842E+04  0.42955730380E+03  0.18907187762E+04  0.25500000920E-02 0. -1.
       -2    1    3    3    0  502  0.91782832083E+03 -0.15962108842E+04 -0.89229227520E+02  0.18434369716E+04  0.25500000920E-02 0.  1.
</event>
<event>
 5   0  0.1351000E-07  0.4009473E+04  0.7818609E-02  0.8002638E-01
       -3   -1    0    0    0  501  0.00000000000E+00  0.00000000000E+00  0.19063062322E+04  0.19063062349E+04  0.10100000352E+00 0.  1.
        3   -1    0    0  501    0  0.00000000000E+00  0.00000000000E+00 -0.21082492448E+04  0.21082492473E+04  0.10100000352E+00 0. -1.
    10030    2    1    2    0    0  0.00000000000E+00  0.00000000000E+00 -0.20194301264E+03  0.40145554821E+04  0.40094731249E+04 0.  0.
        3    1    3    3  502    0  0.75016301225E+03 -0.45703910458E+03  0.17033502989E+04  0.19165154680E+04  0.10100000352E+00 0.  1.
       -3    1    3    3    0  502 -0.75016301225E+03  0.45703910458E+03 -0.19052933115E+04  0.20980400142E+04  0.10100000352E+00 0. -1.
</event>
<event>
 5   0  0.1351000E-07  0.4195448E+04  0.7818609E-02  0.7966239E-01
        1   -1    0    0  501    0  0.00000000000E+00  0.00000000000E+00  0.18251802972E+04  0.18251802972E+04  0.50400001928E-02 0.  1.
       -1   -1    0    0    0  501  0.00000000000E+00  0.00000000000E+00 -0.24109651792E+04  0.24109651792E+04  0.50400001928E-02 0. -1.
    10030    2    1    2    0    0  0.00000000000E+00  0.00000000000E+00 -0.58578488200E+03  0.42361454764E+04  0.41954480773E+04 0.  0.
        4    1    3    3  502    0 -0.11838886096E+04 -0.42773056786E+03  0.14014494197E+04  0.18837748718E+04  0.12699999809E+01 0.  1.
       -4    1    3    3    0  502  0.11838886096E+04  0.42773056786E+03 -0.19872343017E+04  0.23523706046E+04  0.12699999809E+01 0. -1.
</event>
<event>
 5   0  0.4079777E-07  0.3942024E+04  0.7818609E-02  0.8016345E-01
        2   -1    0    0  501    0  0.00000000000E+00  0.00000000000E+00  0.12310894781E+04  0.12310894781E+04  0.25500000920E-02 0. -1.
       -2   -1    0    0    0  501  0.00000000000E+00  0.00000000000E+00 -0.31556513576E+04  0.31556513576E+04  0.25500000920E-02 0.  1.
    10030    2    1    2    0    0  0.00000000000E+00  0.00000000000E+00 -0.19245618795E+04  0.43867408358E+04  0.39420244459E+04 0.  0.
        4    1    3    3  502    0 -0.75512549767E+03 -0.15779208290E+04  0.48384079315E+02  0.17499689402E+04  0.12699999809E+01 0. -1.
       -4    1    3    3    0  502  0.75512549767E+03  0.15779208290E+04 -0.19729459588E+04  0.26367718955E+04  0.12699999809E+01 0.  1.
</event>
<event>
 5   0  0.4047916E-07  0.3990529E+04  0.7818609E-02  0.8006460E-01
       -2   -1    0    0    0  501  0.00000000000E+00  0.00000000000E+00  0.15624906202E+04  0.15624906202E+04  0.25500000920E-02 0. -1.
        2   -1    0    0  501    0  0.00000000000E+00  0.00000000000E+00 -0.25479063294E+04  0.25479063294E+04  0.25500000920E-02 0.  1.
    10030    2    1    2    0    0  0.00000000000E+00  0.00000000000E+00 -0.98541570918E+03  0.41103969496E+04  0.39905286571E+04 0.  0.
        5    1    3    3  502    0  0.32174252280E+03 -0.19231116880E+04 -0.56695185162E+02  0.19506699489E+04  0.46999998093E+01 0.  1.
       -5    1    3    3    0  502 -0.32174252280E+03  0.19231116880E+04 -0.92872052402E+03  0.21597270006E+04  0.46999998093E+01 0. -1.
</event>
<event>
 5   0  0.1372952E-07  0.3987516E+04  0.7818609E-02  0.8007070E-01
       -1   -1    0    0    0  501  0.00000000000E+00  0.00000000000E+00  0.30150808088E+04  0.30150808088E+04  0.50400001928E-02 0.  1.
        1   -1    0    0  501    0  0.00000000000E+00  0.00000000000E+00 -0.13183961767E+04  0.13183961767E+04  0.50400001928E-02 0. -1.
    10030    2    1    2    0    0  0.00000000000E+00  0.00000000000E+00  0.16966846321E+04  0.43334769855E+04  0.39875160241E+04 0.  0.
        1    1    3    3  502    0 -0.13770502505E+04 -0.90065115031E+03 -0.37523241633E+03  0.16876727329E+04  0.50400001928E-02 0. -1.
       -1    1    3    3    0  502  0.13770502505E+04  0.90065115031E+03  0.20719170485E+04  0.26458042526E+04  0.50400001928E-02 0.  1.
</event>
<event>
 5   0  0.4079777E-07  0.4033423E+04  0.7818609E-02  0.7997838E-01
       -2   -1    0    0    0  501  0.00000000000E+00  0.00000000000E+00  0.17953301569E+04  0.17953301569E+04  0.25500000920E-02 0. -1.
        2   -1    0    0  501    0  0.00000000000E+00  0.00000000000E+00 -0.22653907755E+04  0.22653907755E+04  0.25500000920E-02 0.  1.
    10030    2    1    2    0    0  0.00000000000E+00  0.00000000000E+00 -0.47006061856E+03  0.40607209324E+04  0.40334225548E+04 0.  0.
        4    1    3    3  502    0  0.16892636110E+04  0.10565600877E+04  0.78835981208E+02  0.19940279565E+04  0.12699999809E+01 0.  1.
       -4    1    3    3    0  502 -0.16892636110E+04 -0.10565600877E+04 -0.54889659977E+03  0.20666929759E+04  0.12699999809E+01 0. -1.
</event>
<event>
 5   0  0.1351000E-07  0.2511844E+04  0.7818609E-02  0.8398778E-01
        1   -1    0    0  501    0  0.00000000000E+00  0.00000000000E+00  0.21216388538E+04  0.21216388538E+04  0.50400001928E-02 0.  1.
       -1   -1    0    0    0  501  0.00000000000E+00  0.00000000000E+00 -0.74345365199E+03  0.74345365201E+03  0.50400001928E-02 0. -1.
    10030    2    1    2    0    0  0.00000000000E+00  0.00000000000E+00  0.13781852018E+04  0.28650925058E+04  0.25118440669E+04 0.  0.
        3    1    3    3  502    0 -0.14041170693E+03 -0.22657608440E+03 -0.71081695426E+03  0.75915276600E+03  0.10100000352E+00 0. -1.
       -3    1    3    3    0  502  0.14041170693E+03  0.22657608440E+03  0.20890021561E+04  0.21059397398E+04  0.10100000352E+00 0.  1.
</event>
<event>
 5   0  0.1421304E-07  0.4034364E+04  0.7818609E-02  0.7997650E-01
        1   -1    0    0  501    0  0.00000000000E+00  0.00000000000E+00  0.23993279166E+04  0.23993279166E+04  0.50400001928E-02 0.  1.
       -1   -1    0    0    0  501  0.00000000000E+00  0.00000000000E+00 -0.16959013337E+04  0.16959013337E+04  0.50400001928E-02 0. -1.
    10030    2    1    2    0    0  0.00000000000E+00  0.00000000000E+00  0.70342658290E+03  0.40952292502E+04  0.40343640954E+04 0.  0.
        2    1    3    3  502    0 -0.54296355369E+03  0.92893888436E+03  0.20837041872E+04  0.23451140722E+04  0.25500000920E-02 0.  1.
       -2    1    3    3    0  502  0.54296355369E+03 -0.92893888436E+03 -0.13802776043E+04  0.17501151781E+04  0.25500000920E-02 0. -1.
</event>
<event>
 5   0  0.1421304E-07  0.3614226E+04  0.7818609E-02  0.8087241E-01
        1   -1    0    0  501    0  0.00000000000E+00  0.00000000000E+00  0.11584482577E+04  0.11584482577E+04  0.50400001928E-02 0. -1.
       -1   -1    0    0    0  501  0.00000000000E+00  0.00000000000E+00 -0.28189927891E+04  0.28189927891E+04  0.50400001928E-02 0.  1.
    10030    2    1    2    0    0  0.00000000000E+00  0.00000000000E+00 -0.16605445314E+04  0.39774410468E+04  0.36142259393E+04 0.  0.
        2    1    3    3  502    0 -0.14985420417E+04  0.76218776683E+03 -0.10103374938E+03  0.16842702459E+04  0.25500000920E-02 0. -1.
       -2    1    3    3    0  502  0.14985420417E+04 -0.76218776683E+03 -0.15595107820E+04  0.22931708009E+04  0.25500000920E-02 0.  1.
</event>
<event>
 5   0  0.1372952E-07  0.3434668E+04  0.7818609E-02  0.8129450E-01
        1   -1    0    0  501    0  0.00000000000E+00  0.00000000000E+00  0.25726363779E+04  0.25726363779E+04  0.50400001928E-02 0. -1.
       -1   -1    0    0    0  501  0.00000000000E+00  0.00000000000E+00 -0.11463868915E+04  0.11463868915E+04  0.50400001928E-02 0.  1.
    10030    2    1    2    0    0  0.00000000000E+00  0.00000000000E+00  0.14262494863E+04  0.37190232694E+04  0.34346683218E+04 0.  0.
        1    1    3    3  502    0 -0.44952260826E+03  0.12041417245E+04 -0.52011929936E+03  0.13865611972E+04  0.50400001928E-02 0.  1.
       -1    1    3    3    0  502  0.44952260826E+03 -0.12041417245E+04  0.19463687857E+04  0.23324620722E+04  0.50400001928E-02 0. -1.
</event>
<event>
 5   0  0.1368865E-07  0.3068775E+04  0.7818609E-02  0.8224360E-01
        1   -1    0    0  501    0  0.00000000000E+00  0.00000000000E+00  0.16611713612E+04  0.16611713612E+04  0.50400001928E-02 0. -1.
       -1   -1    0    0    0  501  0.00000000000E+00  0.00000000000E+00 -0.14172801822E+04  0.14172801822E+04  0.50400001928E-02 0.  1.
    10030    2    1    2    0    0  0.00000000000E+00  0.00000000000E+00  0.24389117899E+03  0.30784515434E+04  0.30687751624E+04 0.  0.
        5    1    3    3  502    0 -0.78497929805E+03  0.11855255258E+04 -0.45663981045E+03  0.14933871826E+04  0.46999998093E+01 0. -1.
       -5    1    3    3    0  502  0.78497929805E+03 -0.11855255258E+04  0.70053098943E+03  0.15850643608E+04  0.46999998093E+01 0.  1.
</event>
<event>
 5   0  0.1421304E-07  0.2849144E+04  0.7818609E-02  0.8288172E-01
        1   -1    0    0  501    0  0.00000000000E+00  0.00000000000E+00  0.10847823492E+04  0.10847823492E+04  0.50400001928E-02 0.  1.
       -1   -1    0    0    0  501  0.00000000000E+00  0.00000000000E+00 -0.18707945272E+04  0.18707945272E+04  0.50400001928E-02 0. -1.
    10030    2    1    2    0    0  0.00000000000E+00  0.00000000000E+00 -0.78601217795E+03  0.29555768764E+04  0.28491436483E+04 0.  0.
        2    1    3    3  502    0 -0.82333697186E+03  0.31289714185E+03  0.76846997023E+03  0.11689031122E+04  0.25500000920E-02 0.  1.
       -2    1    3    3    0  502  0.82333697186E+03 -0.31289714185E+03 -0.15544821482E+04  0.17866737642E+04  0.25500000920E-02 0. -1.
</event>
<event>
 5   0  0.4079777E-07  0.3683275E+04  0.7818609E-02  0.8071678E-01
       -2   -1    0    0    0  501  0.00000000000E+00  0.00000000000E+00  0.21163069090E+04  0.21163069090E+04  0.25500000920E-02 0.  1.
        2   -1    0    0  501    0  0.00000000000E+00  0.00000000000E+00 -0.16026167885E+04  0.16026167885E+04  0.25500000920E-02 0. -1.
    10030    2    1    2    0    0  0.00000000000E+00  0.00000000000E+00  0.51369012059E+03  0.37189236975E+04  0.36832751632E+04 0.  0.
        4    1    3    3  502    0  0.56058541812E+03  0.18083590428E+03 -0.15049411175E+04  0.16161086026E+04  0.12699999809E+01 0. -1.
       -4    1    3    3    0  502 -0.56058541812E+03 -0.18083590428E+03  0.20186312381E+04  0.21028150949E+04  0.12699999809E+01 0.  1.
</event>
<event>
 5   0  0.4079777E-07  0.4135340E+04  0.7818609E-02  0.7977787E-01
        2   -1    0    0  501    0  0.00000000000E+00  0.00000000000E+00  0.19690109307E+04  0.19690109307E+04  0.25500000920E-02 0. -1.
       -2   -1    0    0    0  501  0.00000000000E+00  0.00000000000E+00 -0.21712729053E+04  0.21712729053E+04  0.25500000920E-02 0.  1.
    10030    2    1    2    0    0  0.00000000000E+00  0.00000000000E+00 -0.20226197459E+03  0.41402838361E+04  0.41353404137E+04 0.  0.
        4    1    3    3  502    0 -0.14913080680E+03  0.19029826986E+04 -0.89686112102E+03  0.21090150858E+04  0.12699999809E+01 0. -1.
       -4    1    3    3    0  502  0.14913080680E+03 -0.19029826986E+04  0.69459914642E+03  0.20312687503E+04  0.12699999809E+01 0.  1.
</event>
<event>
 5   0  0.4079777E-07  0.3941532E+04  0.7818609E-02  0.8016446E-01
        2   -1    0    0  501    0  0.00000000000E+00  0.00000000000E+00  0.18595178859E+04  0.18595178859E+04  0.25500000920E-02 0. -1.
       -2   -1    0    0    0  501  0.00000000000E+00  0.00000000000E+00 -0.20886692332E+04  0.20886692332E+04  0.25500000920E-02 0.  1.
    10030    2    1    2    0    0  0.00000000000E+00  0.00000000000E+00 -0.22915134735E+03  0.39481871191E+04  0.39415315789E+04 0.  0.
        4    1    3    3  502    0 -0.19338999294E+04 -0.31057582621E+03 -0.33286543140E+03  0.19867630178E+04  0.12699999809E+01 0.  1.
       -4    1    3    3    0  502  0.19338999294E+04  0.31057582621E+03  0.10371408405E+03  0.19614241012E+04  0.12699999809E+01 0. -1.
</event>
<event>
 5   0  0.1351000E-07  0.4058108E+04  0.7818609E-02  0.7992926E-01
        1   -1    0    0  501    0  0.00000000000E+00  0.00000000000E+00  0.14229000412E+04  0.14229000412E+04  0.50400001928E-02 0.  1.
       -1   -1    0    0    0  501  0.00000000000E+00  0.00000000000E+00 -0.28934285972E+04  0.28934285972E+04  0.50400001928E-02 0. -1.
    10030    2    1    2    0    0  0.00000000000E+00  0.00000000000E+00 -0.14705285560E+04  0.43163286383E+04  0.40581077709E+04 0.  0.
        4    1    3    3  502    0  0.10222236784E+04  0.62932287177E+03  0.10046971630E+04  0.15653774395E+04  0.12699999809E+01 0.  1.
       -4    1    3    3    0  502 -0.10222236784E+04 -0.62932287177E+03 -0.24752257190E+04  0.27509511989E+04  0.12699999809E+01 0. -1.
</event>
<event>
 5   0  0.1351000E-07  0.3991297E+04  0.7818609E-02  0.8006304E-01
       -1   -1    0    0    0  501  0.00000000000E+00  0.00000000000E+00  0.29720127669E+04  0.29720127669E+04  0.50400001928E-02 0.  1.
        1   -1    0    0  501    0  0.00000000000E+00  0.00000000000E+00 -0.13400392187E+04  0.13400392187E+04  0.50400001928E-02 0. -1.
    10030    2    1    2    0    0  0.00000000000E+00  0.00000000000E+00  0.16319735482E+04  0.43120519857E+04  0.39912973661E+04 0.  0.
        4    1    3    3  502    0  0.82174312770E+03 -0.13624804187E+04 -0.48539050102E+03  0.16634963813E+04  0.12699999809E+01 0. -1.
       -4    1    3    3    0  502 -0.82174312770E+03  0.13624804187E+04  0.21173640492E+04  0.26485556043E+04  0.12699999809E+01 0.  1.
</event>
<event>
 5   0  0.4047916E-07  0.4025359E+04  0.7818609E-02  0.7999450E-01
        2   -1    0    0  501    0  0.00000000000E+00  0.00000000000E+00  0.14657567631E+04  0.14657567631E+04  0.25500000920E-02 0.  1.
       -2   -1    0    0    0  501  0.00000000000E+00  0.00000000000E+00 -0.27636779759E+04  0.27636779759E+04  0.25500000920E-02 0. -1.
    10030    2    1    2    0    0  0.00000000000E+00  0.00000000000E+00 -0.12979212128E+04  0.42294347389E+04  0.40253594543E+04 0.  0.
        5    1    3    3  502    0 -0.99506176112E+03  0.14748180163E+04 -0.16377453047E+04  0.24181538129E+04  0.46999998093E+01 0. -1.
       -5    1    3    3    0  502  0.99506176112E+03 -0.14748180163E+04  0.33982409194E+03  0.18112809261E+04  0.46999998093E+01 0.  1.
</event>
<event>
 5   0  0.1368865E-07  0.3980416E+04  0.7818609E-02  0.8008509E-01
        1   -1    0    0  501    0  0.00000000000E+00  0.00000000000E+00  0.23989824845E+04  0.23989824845E+04  0.50400001928E-02 0. -1.
       -1   -1    0    0    0  501  0.00000000000E+00  0.00000000000E+00 -0.16510866503E+04  0.16510866503E+04  0.50400001928E-02 0.  1.
    10030    2    1    2    0    0  0.00000000000E+00  0.00000000000E+00  0.74789583426E+03  0.40500691348E+04  0.39804160358E+04 0.  0.
        5    1    3    3  502    0  0.10408079393E+04 -0.16176093970E+04 -0.14583824831E+03  0.19290495620E+04  0.46999998093E+01 0. -1.
       -5    1    3    3    0  502 -0.10408079393E+04  0.16176093970E+04  0.89373408256E+03  0.21210195728E+04  0.46999998093E+01 0.  1.
</event>
<event>
 5   0  0.1368865E-07  0.3996206E+04  0.7818609E-02  0.8005312E-01
        1   -1    0    0  501    0  0.00000000000E+00  0.00000000000E+00  0.26492025512E+04  0.26492025512E+04  0.50400001928E-02 0.  1.
       -1   -1    0    0    0  501  0.00000000000E+00  0.00000000000E+00 -0.15070256236E+04  0.15070256237E+04  0.50400001928E-02 0. -1.
    10030    2    1    2    0    0  0.00000000000E+00  0.00000000000E+00  0.11421769276E+04  0.41562281749E+04  0.39962062644E+04 0.  0.
        5    1    3    3  502    0 -0.15544488047E+03 -0.82073389184E+03  0.24588824557E+04  0.25969005089E+04  0.46999998093E+01 0.  1.
       -5    1    3    3    0  502  0.15544488047E+03  0.82073389184E+03 -0.13167055281E+04  0.15593276660E+04  0.46999998093E+01 0. -1.
</event>
<event>
 5   0  0.4149487E-07  0.3936620E+04  0.7818609E-02  0.8017456E-01
       -2   -1    0    0    0  501  0.00000000000E+00  0.00000000000E+00  0.12491215773E+04  0.12491215773E+04  0.25500000920E-02 0. -1.
        2   -1    0    0  501    0  0.00000000000E+00  0.00000000000E+00 -0.31015744251E+04  0.31015744251E+04  0.25500000920E-02 0.  1.
    10030    2    1    2    0    0  0.00000000000E+00  0.00000000000E+00 -0.18524528478E+04  0.43506960024E+04  0.39366196352E+04 0.  0.
        2    1    3    3  502    0 -0.13263445566E+04 -0.66043687939E+03 -0.23582319575E+04  0.27850717620E+04  0.25500000920E-02 0.  1.
       -2    1    3    3    0  502  0.13263445566E+04  0.66043687939E+03  0.50577910969E+03  0.15656242404E+04  0.25500000920E-02 0. -1.
</event>
<event>
 5   0  0.1351000E-07  0.4032402E+04  0.7818609E-02  0.7998042E-01
        1   -1    0    0  501    0  0.00000000000E+00  0.00000000000E+00  0.14621771161E+04  0.14621771161E+04  0.50400001928E-02 0.  1.
       -1   -1    0    0    0  501  0.00000000000E+00  0.00000000000E+00 -0.27801467047E+04  0.27801467047E+04  0.50400001928E-02 0. -1.
    10030    2    1    2    0    0  0.00000000000E+00  0.00000000000E+00 -0.13179695886E+04  0.42423238208E+04  0.40324022077E+04 0.  0.
        3    1    3    3  502    0  0.12120912350E+03 -0.17829503519E+04 -0.16411047056E+04  0.24262786884E+04  0.10100000352E+00 0. -1.
       -3    1    3    3    0  502 -0.12120912350E+03  0.17829503519E+04  0.32313511707E+03  0.18160451324E+04  0.10100000352E+00 0.  1.
</event>
<event>
 5   0  0.4077370E-07  0.4022357E+04  0.7818609E-02  0.8000052E-01
       -2   -1    0    0    0  501  0.00000000000E+00  0.00000000000E+00  0.26836598678E+04  0.26836598678E+04  0.25500000920E-02 0.  1.
        2   -1    0    0  501    0  0.00000000000E+00  0.00000000000E+00 -0.15072101577E+04  0.15072101577E+04  0.25500000920E-02 0. -1.
    10030    2    1    2    0    0  0.00000000000E+00  0.00000000000E+00  0.11764497101E+04  0.41908700255E+04  0.40223572255E+04 0.  0.
        3    1    3    3  502    0  0.12592916027E+04 -0.15209906905E+04  0.19064788965E+03  0.19838282812E+04  0.10100000352E+00 0. -1.
       -3    1    3    3    0  502 -0.12592916027E+04  0.15209906905E+04  0.98580182049E+03  0.22070417442E+04  0.10100000352E+00 0.  1.
</event>
<event>
 5   0  0.4079777E-07  0.4011265E+04  0.7818609E-02  0.8002278E-01
       -2   -1    0    0    0  501  0.00000000000E+00  0.00000000000E+00  0.28197640291E+04  0.28197640291E+04  0.25500000920E-02 0. -1.
        2   -1    0    0  501    0  0.00000000000E+00  0.00000000000E+00 -0.14265600271E+04  0.14265600271E+04  0.25500000920E-02 0.  1.
    10030    2    1    2    0    0  0.00000000000E+00  0.00000000000E+00  0.13932040019E+04  0.42463240562E+04  0.40112654611E+04 0.  0.
        4    1    3    3  502    0 -0.61052874012E+03  0.17513118372E+04  0.15046974107E+04  0.23882952925E+04  0.12699999809E+01 0. -1.
       -4    1    3    3    0  502  0.61052874012E+03 -0.17513118372E+04 -0.11149340875E+03  0.18580287637E+04  0.12699999809E+01 0.  1.
</event>
<event>
 5   0  0.4079777E-07  0.3930144E+04  0.7818609E-02  0.8018789E-01
       -2   -1    0    0    0  501  0.00000000000E+00  0.00000000000E+00  0.22938979318E+04  0.22938979318E+04  0.25500000920E-02 0. -1.
        2   -1    0    0  501    0  0.00000000000E+00  0.00000000000E+00 -0.16833826353E+04  0.16833826353E+04  0.25500000920E-02 0.  1.
    10030    2    1    2    0    0  0.00000000000E+00  0.00000000000E+00  0.61051529649E+03  0.39772805671E+04  0.39301439901E+04 0.  0.
        4    1    3    3  502    0 -0.18881527759E+03 -0.34644618825E+03  0.22533992566E+04  0.22876813574E+04  0.12699999809E+01 0. -1.
       -4    1    3    3    0  502  0.18881527759E+03  0.34644618825E+03 -0.16428839601E+04  0.16895992098E+04  0.12699999809E+01 0.  1.
</event>
<event>
 5   0  0.1421304E-07  0.3992680E+04  0.7818609E-02  0.8006025E-01
       -1   -1    0    0    0  501  0.00000000000E+00  0.00000000000E+00  0.14678939122E+04  0.14678939122E+04  0.50400001928E-02 0.  1.
        1   -1    0    0  501    0  0.00000000000E+00  0.00000000000E+00 -0.27150277324E+04  0.27150277324E+04  0.50400001928E-02 0. -1.
    10030    2    1    2    0    0  0.00000000000E+00  0.00000000000E+00 -0.12471338202E+04  0.41829216446E+04  0.39926796415E+04 0.  0.
        2    1    3    3  502    0  0.10751232829E+04 -0.10835552727E+04  0.72435739211E+03  0.16895785670E+04  0.25500000920E-02 0.  1.
       -2    1    3    3    0  502 -0.10751232829E+04  0.10835552727E+04 -0.19714912123E+04  0.24933430776E+04  0.25500000920E-02 0. -1.
</event>
<event>
 5   0  0.4301754E-07  0.3005693E+04  0.7818609E-02  0.8242107E-01
        2   -1    0    0  501    0  0.00000000000E+00  0.00000000000E+00  0.16820435562E+04  0.16820435562E+04  0.25500000920E-02 0. -1.
       -2   -1    0    0    0  501  0.00000000000E+00  0.00000000000E+00 -0.13427405380E+04  0.13427405380E+04  0.25500000920E-02 0.  1.
    10030    2    1    2    0    0  0.00000000000E+00  0.00000000000E+00  0.33930301820E+03  0.30247840943E+04  0.30056933109E+04 0.  0.
        1    1    3    3  502    0 -0.66930977174E+03  0.13418647901E+04  0.69160445314E+02  0.15011195331E+04  0.50400001928E-02 0.  1.
       -1    1    3    3    0  502  0.66930977174E+03 -0.13418647901E+04  0.27014257289E+03  0.15236645612E+04  0.50400001928E-02 0. -1.
</event>
<event>
 5   0  0.1372952E-07  0.4077897E+04  0.7818609E-02  0.7989014E-01
        1   -1    0    0  501    0  0.00000000000E+00  0.00000000000E+00  0.15504387073E+04  0.15504387073E+04  0.50400001928E-02 0. -1.
       -1   -1    0    0    0  501  0.00000000000E+00  0.00000000000E+00 -0.26813770006E+04  0.26813770006E+04  0.50400001928E-02 0.  1.
    10030    2    1    2    0    0  0.00000000000E+00  0.00000000000E+00 -0.11309382934E+04  0.42318157079E+04  0.40778968553E+04 0.  0.
        1    1    3    3  502    0 -0.99176593103E+03  0.15624159945E+04  0.32273801520E+03  0.18785375238E+04  0.50400001928E-02 0. -1.
       -1    1    3    3    0  502  0.99176593103E+03 -0.15624159945E+04 -0.14536763086E+04  0.23532781841E+04  0.50400001928E-02 0.  1.
</event>
<event>
 5   0  0.1368865E-07  0.3965315E+04  0.7818609E-02  0.8011580E-01
       -1   -1    0    0    0  501  0.00000000000E+00  0.00000000000E+00  0.19136944892E+04  0.19136944892E+04  0.50400001928E-02 0.  1.
        1   -1    0    0  501    0  0.00000000000E+00  0.00000000000E+00 -0.20541055718E+04  0.20541055718E+04  0.50400001928E-02 0. -1.
    10030    2    1    2    0    0  0.00000000000E+00  0.00000000000E+00 -0.14041108268E+03  0.39678000610E+04  0.39653148743E+04 0.  0.
        5    1    3    3  502    0 -0.73509319253E+02 -0.19585075324E+04 -0.36998143390E+03  0.19945083921E+04  0.46999998093E+01 0. -1.
       -5    1    3    3    0  502  0.73509319253E+02  0.19585075324E+04  0.22957035123E+03  0.19732916689E+04  0.46999998093E+01 0.  1.
</event>
<event>
 5   0  0.4301754E-07  0.3743967E+04  0.7818609E-02  0.8058288E-01
        2   -1    0    0  501    0  0.00000000000E+00  0.00000000000E+00  0.10522696215E+04  0.10522696215E+04  0.25500000920E-02 0.  1.
       -2   -1    0    0    0  501  0.00000000000E+00  0.00000000000E+00 -0.33302508781E+04  0.33302508781E+04  0.25500000920E-02 0. -1.
    10030    2    1    2    0    0  0.00000000000E+00  0.00000000000E+00 -0.22779812566E+04  0.43825204996E+04  0.37439667900E+04 0.  0.
        1    1    3    3  502    0  0.65225351162E+00 -0.12853588274E+04 -0.27320533343E+04  0.30193150154E+04  0.50400001928E-02 0. -1.
       -1    1    3    3    0  502 -0.65225351162E+00  0.12853588274E+04  0.45407207772E+03  0.13632054843E+04  0.50400001928E-02 0.  1.
</event>
<event>
 5   0  0.1368865E-07  0.3585204E+04  0.7818609E-02  0.8093889E-01
        1   -1    0    0  501    0  0.00000000000E+00  0.00000000000E+00  0.25663698695E+04  0.25663698695E+04  0.50400001928E-02 0.  1.
       -1   -1    0    0    0  501  0.00000000000E+00  0.00000000000E+00 -0.12521273744E+04  0.12521273744E+04  0.50400001928E-02 0. -1.
    10030    2    1    2    0    0  0.00000000000E+00  0.00000000000E+00  0.13142424951E+04  0.38184972439E+04  0.35852040201E+04 0.  0.
        5    1    3    3  502    0  0.12704196436E+04  0.10778307916E+04  0.13617723217E+04  0.21517739733E+04  0.46999998093E+01 0.  1.
       -5    1    3    3    0  502 -0.12704196436E+04 -0.10778307916E+04 -0.47529826657E+02  0.16667232705E+04  0.46999998093E+01 0. -1.
</event>
<event>
 5   0  0.1351000E-07  0.3419749E+04  0.7818609E-02  0.8133076E-01
       -1   -1    0    0    0  501  0.00000000000E+00  0.00000000000E+00  0.16712158357E+04  0.16712158357E+04  0.50400001928E-02 0. -1.
        1   -1    0    0  501    0  0.00000000000E+00  0.00000000000E+00 -0.17494272444E+04  0.17494272444E+04  0.50400001928E-02 0.  1.
    10030    2    1    2    0    0  0.00000000000E+00  0.00000000000E+00 -0.78211408657E+02  0.34206430801E+04  0.34197488295E+04 0.  0.
        3    1    3    3  502    0 -0.16312785170E+04 -0.40119487152E+03 -0.35800497504E+03  0.17176130232E+04  0.10100000352E+00 0. -1.
       -3    1    3    3    0  502  0.16312785170E+04  0.40119487152E+03  0.27979356639E+03  0.17030300570E+04  0.10100000352E+00 0.  1.
</event>
<event>
 5   0  0.1351000E-07  0.3971062E+04  0.7818609E-02  0.8010410E-01
       -1   -1    0    0    0  501  0.00000000000E+00  0.00000000000E+00  0.14108439077E+04  0.14108439077E+04  0.50400001928E-02 0. -1.
        1   -1    0    0  501    0  0.00000000000E+00  0.00000000000E+00 -0.27943085923E+04  0.27943085923E+04  0.50400001928E-02 0.  1.
    10030    2    1    2    0    0  0.00000000000E+00  0.00000000000E+00 -0.13834646846E+04  0.42051525000E+04  0.39710619505E+04 0.  0.
        4    1    3    3  502    0 -0.23331233684E+03 -0.17339491862E+04 -0.16858578431E+04  0.24296363322E+04  0.12699999809E+01 0. -1.
       -4    1    3    3    0  502  0.23331233684E+03  0.17339491862E+04  0.30239315852E+03  0.17755161678E+04  0.12699999809E+01 0.  1.
</event>
<event>
 5   0  0.4047916E-07  0.3835004E+04  0.7818609E-02  0.8038685E-01
        2   -1    0    0  501    0  0.00000000000E+00  0.00000000000E+00  0.15693806771E+04  0.15693806771E+04  0.25500000920E-02 0. -1.
       -2   -1    0    0    0  501  0.00000000000E+00  0.00000000000E+00 -0.23428434156E+04  0.23428434156E+04  0.25500000920E-02 0.  1.
    10030    2    1    2    0    0  0.00000000000E+00  0.00000000000E+00 -0.77346273850E+03  0.39122240927E+04  0.38350036171E+04 0.  0.
        5    1    3    3  502    0  0.96235133518E+02 -0.19150792186E+04 -0.38548972013E+03  0.19558665672E+04  0.46999998093E+01 0.  1.
       -5    1    3    3    0  502 -0.96235133518E+02  0.19150792186E+04 -0.38797301836E+03  0.19563575255E+04  0.46999998093E+01 0. -1.
</event>
<event>
 5   0  0.4301754E-07  0.3926651E+04  0.7818609E-02  0.8019509E-01
       -2   -1    0    0    0  501  0.00000000000E+00  0.00000000000E+00  0.17197687370E+04  0.17197687370E+04  0.25500000920E-02 0.  1.
        2   -1    0    0  501    0  0.00000000000E+00  0.00000000000E+00 -0.22413755659E+04  0.22413755659E+04  0.25500000920E-02 0. -1.
    10030    2    1    2    0    0  0.00000000000E+00  0.00000000000E+00 -0.52160682893E+03  0.39611443029E+04  0.39266513092E+04 0.  0.
        1    1    3    3  502    0 -0.71279196323E+03 -0.15537667674E+04  0.71327910666E+03  0.18523041420E+04  0.50400001928E-02 0. -1.
       -1    1    3    3    0  502  0.71279196323E+03  0.15537667674E+04 -0.12348859356E+04  0.21088401609E+04  0.50400001928E-02 0.  1.
</event>
<event>
 5   0  0.1421304E-07  0.3209291E+04  0.7818609E-02  0.8186368E-01
        1   -1    0    0  501    0  0.00000000000E+00  0.00000000000E+00  0.12753930204E+04  0.12753930205E+04  0.50400001928E-02 0. -1.
       -1   -1    0    0    0  501  0.00000000000E+00  0.00000000000E+00 -0.20188973485E+04  0.20188973485E+04  0.50400001928E-02 0.  1.
    10030    2    1    2    0    0  0.00000000000E+00  0.00000000000E+00 -0.74350432809E+03  0.32942903690E+04  0.32092912534E+04 0.  0.
        2    1    3    3  502    0  0.51569069724E+03  0.10757891499E+04  0.72980978733E+03  0.13985283394E+04  0.25500000920E-02 0. -1.
       -2    1    3    3    0  502 -0.51569069724E+03 -0.10757891499E+04 -0.14733141154E+04  0.18957620296E+04  0.25500000920E-02 0.  1.
</event>
<event>
 5   0  0.1368865E-07  0.2759591E+04  0.7818609E-02  0.8315925E-01
        1   -1    0    0  501    0  0.00000000000E+00  0.00000000000E+00  0.94274127576E+03  0.94274127577E+03  0.50400001928E-02 0. -1.
       -1   -1    0    0    0  501  0.00000000000E+00  0.00000000000E+00 -0.20194682538E+04  0.20194682538E+04  0.50400001928E-02 0.  1.
    10030    2    1    2    0    0  0.00000000000E+00  0.00000000000E+00 -0.10767269780E+04  0.29622095295E+04  0.27595913306E+04 0.  0.
        5    1    3    3  502    0  0.82422625670E+03  0.60844947280E+03  0.45375739329E+03  0.11204809437E+04  0.46999998093E+01 0. -1.
       -5    1    3    3    0  502 -0.82422625670E+03 -0.60844947280E+03 -0.15304843713E+04  0.18417285859E+04  0.46999998093E+01 0.  1.
</event>
<event>
 5   0  0.4077370E-07  0.3761039E+04  0.7818609E-02  0.8054568E-01
       -2   -1    0    0    0  501  0.00000000000E+00  0.00000000000E+00  0.20338520659E+04  0.20338520659E+04  0.25500000920E-02 0.  1.
        2   -1    0    0  501    0  0.00000000000E+00  0.00000000000E+00 -0.17387465419E+04  0.17387465419E+04  0.25500000920E-02 0. -1.
    10030    2    1    2    0    0  0.00000000000E+00  0.00000000000E+00  0.29510552400E+03  0.37725986077E+04  0.37610388172E+04 0.  0.
        3    1    3    3  502    0  0.92000879221E+03 -0.12873501356E+04  0.11668782128E+04  0.19660344155E+04  0.10100000352E+00 0.  1.
       -3    1    3    3    0  502 -0.92000879221E+03  0.12873501356E+04 -0.87177268883E+03  0.18065641922E+04  0.10100000352E+00 0. -1.
</event>
<event>
 5   0  0.4301754E-07  0.3262952E+04  0.7818609E-02  0.8172387E-01
       -2   -1    0    0    0  501  0.00000000000E+00  0.00000000000E+00  0.11464028746E+04  0.11464028746E+04  0.25500000920E-02 0.  1.
        2   -1    0    0  501    0  0.00000000000E+00  0.00000000000E+00 -0.23217958440E+04  0.23217958440E+04  0.25500000920E-02 0. -1.
    10030    2    1    2    0    0  0.00000000000E+00  0.00000000000E+00 -0.11753929695E+04  0.34681987186E+04  0.32629516881E+04 0.  0.
        1    1    3    3  502    0 -0.34258940051E+03 -0.11362505437E+04  0.60222277603E+03  0.13308287146E+04  0.50400001928E-02 0.  1.
       -1    1    3    3    0  502  0.34258940051E+03  0.11362505437E+04 -0.17776157455E+04  0.21373700040E+04  0.50400001928E-02 0. -1.
</event>
<event>
 5   0  0.1351000E-07  0.4090842E+04  0.7818609E-02  0.7986467E-01
        3   -1    0    0  501    0  0.00000000000E+00  0.00000000000E+00  0.18273423742E+04  0.18273423770E+04  0.10100000352E+00 0. -1.
       -3   -1    0    0    0  501  0.00000000000E+00  0.00000000000E+00 -0.22895259283E+04  0.22895259306E+04  0.10100000352E+00 0.  1.
    10030    2    1    2    0    0  0.00000000000E+00  0.00000000000E+00 -0.46218355411E+03  0.41168683076E+04  0.40908423368E+04 0.  0.
        4    1    3    3  502    0  0.11654112558E+04 -0.14910976202E+04 -0.10120381848E+04  0.21461077346E+04  0.12699999809E+01 0.  1.
       -4    1    3    3    0  502 -0.11654112558E+04  0.14910976202E+04  0.54985463074E+03  0.19707605730E+04  0.12699999809E+01 0. -1.
</event>
<event>
 5   0  0.1421304E-07  0.4049336E+04  0.7818609E-02  0.7994667E-01
       -1   -1    0    0    0  501  0.00000000000E+00  0.00000000000E+00  0.18170150928E+04  0.18170150928E+04  0.50400001928E-02 0. -1.
        1   -1    0    0  501    0  0.00000000000E+00  0.00000000000E+00 -0.22560524522E+04  0.22560524522E+04  0.50400001928E-02 0.  1.
    10030    2    1    2    0    0  0.00000000000E+00  0.00000000000E+00 -0.43903735939E+03  0.40730675450E+04  0.40493364176E+04 0.  0.
        2    1    3    3  502    0 -0.10061012086E+04 -0.82386239634E+03 -0.17804808078E+04  0.22047904202E+04  0.25500000920E-02 0.  1.
       -2    1    3    3    0  502  0.10061012086E+04  0.82386239634E+03  0.13414434484E+04  0.18682771248E+04  0.25500000920E-02 0. -1.
</event>
<event>
 5   0  0.1368865E-07  0.3950494E+04  0.7818609E-02  0.8014609E-01
       -1   -1    0    0    0  501  0.00000000000E+00  0.00000000000E+00  0.14544371479E+04  0.14544371479E+04  0.50400001928E-02 0. -1.
        1   -1    0    0  501    0  0.00000000000E+00  0.00000000000E+00 -0.26825505188E+04  0.26825505188E+04  0.50400001928E-02 0.  1.
    10030    2    1    2    0    0  0.00000000000E+00  0.00000000000E+00 -0.12281133709E+04  0.41369876668E+04  0.39504942100E+04 0.  0.
        5    1    3    3  502    0  0.26034786844E+02 -0.20511042512E+03  0.14430682690E+04  0.14578121332E+04  0.46999998093E+01 0. -1.
       -5    1    3    3    0  502 -0.26034786844E+02  0.20511042512E+03 -0.26711816399E+04  0.26791755336E+04  0.46999998093E+01 0.  1.
</event>
<event>
 5   0  0.1421304E-07  0.3608040E+04  0.7818609E-02  0.8088653E-01
       -1   -1    0    0    0  501  0.00000000000E+00  0.00000000000E+00  0.13249445151E+04  0.13249445152E+04  0.50400001928E-02 0.  1.
        1   -1    0    0  501    0  0.00000000000E+00  0.00000000000E+00 -0.24563196619E+04  0.24563196619E+04  0.50400001928E-02 0. -1.
    10030    2    1    2    0    0  0.00000000000E+00  0.00000000000E+00 -0.11313751468E+04  0.37812641771E+04  0.36080395028E+04 0.  0.
        2    1    3    3  502    0  0.39232463276E+03 -0.39824552498E+03  0.12318782133E+04  0.13527904672E+04  0.25500000920E-02 0.  1.
       -2    1    3    3    0  502 -0.39232463276E+03  0.39824552498E+03 -0.23632533601E+04  0.24284737099E+04  0.25500000920E-02 0. -1.
</event>
<event>
 5   0  0.1368865E-07  0.2568724E+04  0.7818609E-02  0.8378903E-01
       -1   -1    0    0    0  501  0.00000000000E+00  0.00000000000E+00  0.81565148988E+03  0.81565148989E+03  0.50400001928E-02 0. -1.
        1   -1    0    0  501    0  0.00000000000E+00  0.00000000000E+00 -0.20224151355E+04  0.20224151355E+04  0.50400001928E-02 0.  1.
    10030    2    1    2    0    0  0.00000000000E+00  0.00000000000E+00 -0.12067636457E+04  0.28380666254E+04  0.25687241335E+04 0.  0.
        5    1    3    3  502    0 -0.32878666485E+03  0.12292290503E+04 -0.41055668528E+03  0.13370428605E+04  0.46999998093E+01 0. -1.
       -5    1    3    3    0  502  0.32878666485E+03 -0.12292290503E+04 -0.79620696038E+03  0.15010237649E+04  0.46999998093E+01 0.  1.
</event>
<event>
 5   0  0.1351000E-07  0.3639597E+04  0.7818609E-02  0.8081481E-01
        4   -1    0    0  501    0  0.00000000000E+00  0.00000000000E+00  0.21496360679E+04  0.21496364430E+04  0.12699999809E+01 0. -1.
       -4   -1    0    0    0  501  0.00000000000E+00  0.00000000000E+00 -0.15405697006E+04  0.15405702240E+04  0.12699999809E+01 0.  1.
    10030    2    1    2    0    0  0.00000000000E+00  0.00000000000E+00  0.60906636728E+03  0.36902066671E+04  0.36395965993E+04 0.  0.
        4    1    3    3  502    0 -0.40269765115E+03  0.49563046411E+03 -0.14232310300E+04  0.15599369003E+04  0.12699999809E+01 0.  1.
       -4    1    3    3    0  502  0.40269765115E+03 -0.49563046411E+03  0.20322973973E+04  0.21302697668E+04  0.12699999809E+01 0. -1.
</event>
<event>
 5   0  0.4077370E-07  0.3944612E+04  0.7818609E-02  0.8015814E-01
        2   -1    0    0  501    0  0.00000000000E+00  0.00000000000E+00  0.24658584522E+04  0.24658584522E+04  0.25500000920E-02 0. -1.
       -2   -1    0    0    0  501  0.00000000000E+00  0.00000000000E+00 -0.15775402385E+04  0.15775402385E+04  0.25500000920E-02 0.  1.
    10030    2    1    2    0    0  0.00000000000E+00  0.00000000000E+00  0.88831821370E+03  0.40433986907E+04  0.39446119864E+04 0.  0.
        3    1    3    3  502    0 -0.79124575941E+03 -0.13714913588E+04  0.16495912585E+04  0.22865278764E+04  0.10100000352E+00 0. -1.
       -3    1    3    3    0  502  0.79124575941E+03  0.13714913588E+04 -0.76127304484E+03  0.17568708143E+04  0.10100000352E+00 0.  1.
</event>
<event>
 5   0  0.4149487E-07  0.3859472E+04  0.7818609E-02  0.8033511E-01
       -2   -1    0    0    0  501  0.00000000000E+00  0.00000000000E+00  0.17710481198E+04  0.17710481198E+04  0.25500000920E-02 0.  1.
        2   -1    0    0  501    0  0.00000000000E+00  0.00000000000E+00 -0.21026426279E+04  0.21026426279E+04  0.25500000920E-02 0. -1.
    10030    2    1    2    0    0  0.00000000000E+00  0.00000000000E+00 -0.33159450806E+03  0.38736907477E+04  0.38594721260E+04 0.  0.
        2    1    3    3  502    0  0.16367088878E+04  0.63726243288E+03  0.63649853461E+03  0.18681674915E+04  0.25500000920E-02 0.  1.
       -2    1    3    3    0  502 -0.16367088878E+04 -0.63726243288E+03 -0.96809304267E+03  0.20055232562E+04  0.25500000920E-02 0. -1.
</event>
<event>
 5   0  0.4301754E-07  0.4008592E+04  0.7818609E-02  0.8002815E-01
       -2   -1    0    0    0  501  0.00000000000E+00  0.00000000000E+00  0.25551061761E+04  0.25551061761E+04  0.25500000920E-02 0. -1.
        2   -1    0    0  501    0  0.00000000000E+00  0.00000000000E+00 -0.15722254596E+04  0.15722254596E+04  0.25500000920E-02 0.  1.
    10030    2    1    2    0    0  0.00000000000E+00  0.00000000000E+00  0.98288071651E+03  0.41273316357E+04  0.40085922627E+04 0.  0.
        1    1    3    3  502    0  0.45299760696E+03  0.14470877682E+03  0.24961780456E+04  0.25410730602E+04  0.50400001928E-02 0. -1.
       -1    1    3    3    0  502 -0.45299760696E+03 -0.14470877682E+03 -0.15132973291E+04  0.15862585755E+04  0.50400001928E-02 0.  1.
</event>
<event>
 5   0  0.1421304E-07  0.2547673E+04  0.7818609E-02  0.8386196E-01
        1   -1    0    0  501    0  0.00000000000E+00  0.00000000000E+00  0.13669858430E+04  0.13669858430E+04  0.50400001928E-02 0.  1.
       -1   -1    0    0    0  501  0.00000000000E+00  0.00000000000E+00 -0.11870344264E+04  0.11870344264E+04  0.50400001928E-02 0. -1.
    10030    2    1    2    0    0  0.00000000000E+00  0.00000000000E+00  0.17995141655E+03  0.25540202694E+04  0.25476728645E+04 0.  0.
        2    1    3    3  502    0 -0.52785688127E+03  0.17712778671E+03  0.12385405014E+04  0.13579358282E+04  0.25500000920E-02 0.  1.
       -2    1    3    3    0  502  0.52785688127E+03 -0.17712778671E+03 -0.10585890849E+04  0.11960844412E+04  0.25500000920E-02 0. -1.
</event>
<event>
 5   0  0.4079777E-07  0.4044475E+04  0.7818609E-02  0.7995634E-01
       -2   -1    0    0    0  501  0.00000000000E+00  0.00000000000E+00  0.17126159814E+04  0.17126159814E+04  0.25500000920E-02 0.  1.
        2   -1    0    0  501    0  0.00000000000E+00  0.00000000000E+00 -0.23878349018E+04  0.23878349018E+04  0.25500000920E-02 0. -1.
    10030    2    1    2    0    0  0.00000000000E+00  0.00000000000E+00 -0.67521892039E+03  0.41004508832E+04  0.40444748553E+04 0.  0.
        4    1    3    3  502    0  0.16995947677E+04 -0.95060639893E+03 -0.89028504120E+03  0.21412342159E+04  0.12699999809E+01 0. -1.
       -4    1    3    3    0  502 -0.16995947677E+04  0.95060639893E+03  0.21506612081E+03  0.19592166672E+04  0.12699999809E+01 0.  1.
</event>
<event>
 5   0  0.1372952E-07  0.3883674E+04  0.7818609E-02  0.8028433E-01
        1   -1    0    0  501    0  0.00000000000E+00  0.00000000000E+00  0.15308123893E+04  0.15308123893E+04  0.50400001928E-02 0. -1.
       -1   -1    0    0    0  501  0.00000000000E+00  0.00000000000E+00 -0.24632224977E+04  0.24632224977E+04  0.50400001928E-02 0.  1.
    10030    2    1    2    0    0  0.00000000000E+00  0.00000000000E+00 -0.93241010838E+03  0.39940348870E+04  0.38836743000E+04 0.  0.
        1    1    3    3  502    0 -0.15339443143E+04  0.57937646413E+03 -0.15359902528E+04  0.22467595117E+04  0.50400001928E-02 0.  1.
       -1    1    3    3    0  502  0.15339443143E+04 -0.57937646413E+03  0.60358014446E+03  0.17472753753E+04  0.50400001928E-02 0. -1.
</event>
<event>
 5   0  0.1351000E-07  0.3003210E+04  0.7818609E-02  0.8242815E-01
       -1   -1    0    0    0  501  0.00000000000E+00  0.00000000000E+00  0.16391259396E+04  0.16391259396E+04  0.50400001928E-02 0.  1.
        1   -1    0    0  501    0  0.00000000000E+00  0.00000000000E+00 -0.13756222323E+04  0.13756222323E+04  0.50400001928E-02 0. -1.
    10030    2    1    2    0    0  0.00000000000E+00  0.00000000000E+00  0.26350370736E+03  0.30147481719E+04  0.30032103383E+04 0.  0.
        4    1    3    3  502    0 -0.70931985363E+02 -0.12602012536E+03 -0.13686153009E+04  0.13762346723E+04  0.12699999809E+01 0. -1.
       -4    1    3    3    0  502  0.70931985363E+02  0.12602012536E+03  0.16321190082E+04  0.16385134996E+04  0.12699999809E+01 0.  1.
</event>
<event>
 5   0  0.4077370E-07  0.3926892E+04  0.7818609E-02  0.8019459E-01
       -2   -1    0    0    0  501  0.00000000000E+00  0.00000000000E+00  0.22371803215E+04  0.22371803215E+04  0.25500000920E-02 0. -1.
        2   -1    0    0  501    0  0.00000000000E+00  0.00000000000E+00 -0.17232050296E+04  0.17232050296E+04  0.25500000920E-02 0.  1.
    10030    2    1    2    0    0  0.00000000000E+00  0.00000000000E+00  0.51397529190E+03  0.39603853511E+04  0.39268920953E+04 0.  0.
        3    1    3    3  502    0  0.78559764022E+03 -0.17994275796E+04  0.25281649288E+03  0.19796513470E+04  0.10100000352E+00 0.  1.
       -3    1    3    3    0  502 -0.78559764022E+03  0.17994275796E+04  0.26115879903E+03  0.19807340041E+04  0.10100000352E+00 0. -1.
</event>
<event>
 5   0  0.1368865E-07  0.2982076E+04  0.7818609E-02  0.8248868E-01
       -1   -1    0    0    0  501  0.00000000000E+00  0.00000000000E+00  0.12575944416E+04  0.12575944416E+04  0.50400001928E-02 0.  1.
        1   -1    0    0  501    0  0.00000000000E+00  0.00000000000E+00 -0.17678148026E+04  0.17678148026E+04  0.50400001928E-02 0. -1.
    10030    2    1    2    0    0  0.00000000000E+00  0.00000000000E+00 -0.51022036102E+03  0.30254092442E+04  0.29820758337E+04 0.  0.
        5    1    3    3  502    0 -0.19835849567E+03 -0.11239440032E+04  0.71829850012E+03  0.13485440447E+04  0.46999998093E+01 0.  1.
       -5    1    3    3    0  502  0.19835849567E+03  0.11239440032E+04 -0.12285188611E+04  0.16768651995E+04  0.46999998093E+01 0. -1.
</event>
<event>
 5   0  0.4077370E-07  0.3937861E+04  0.7818609E-02  0.8017201E-01
        2   -1    0    0  501    0  0.00000000000E+00  0.00000000000E+00  0.25245835191E+04  0.25245835191E+04  0.25500000920E-02 0.  1.
       -2   -1    0    0    0  501  0.00000000000E+00  0.00000000000E+00 -0.15355750612E+04  0.15355750612E+04  0.25500000920E-02 0. -1.
    10030    2    1    2    0    0  0.00000000000E+00  0.00000000000E+00  0.98900845785E+03  0.40601585803E+04  0.39378610904E+04 0.  0.
        3    1    3    3  502    0  0.12641025327E+04 -0.14893294716E+04  0.24062547118E+03  0.19682373119E+04  0.10100000352E+00 0. -1.
       -3    1    3    3    0  502 -0.12641025327E+04  0.14893294716E+04  0.74838298667E+03  0.20919212684E+04  0.10100000352E+00 0.  1.
</event>
<event>
 5   0  0.1351000E-07  0.4107227E+04  0.7818609E-02  0.7983258E-01
        1   -1    0    0  501    0  0.00000000000E+00  0.00000000000E+00  0.11994166904E+04  0.11994166904E+04  0.50400001928E-02 0.  1.
       -1   -1    0    0    0  501  0.00000000000E+00  0.00000000000E+00 -0.35161488865E+04  0.35161488865E+04  0.50400001928E-02 0. -1.
    10030    2    1    2    0    0  0.00000000000E+00  0.00000000000E+00 -0.23167321961E+04  0.47155655768E+04  0.41072266362E+04 0.  0.
        4    1    3    3  502    0 -0.11577804786E+04 -0.11783292131E+04 -0.25590705505E+04  0.30459414089E+04  0.12699999809E+01 0. -1.
       -4    1    3    3    0  502  0.11577804786E+04  0.11783292131E+04  0.24233835445E+03  0.16696241679E+04  0.12699999809E+01 0.  1.
</event>
<event>
 5   0  0.1368865E-07  0.3904389E+04  0.7818609E-02  0.8024117E-01
        1   -1    0    0  501    0  0.00000000000E+00  0.00000000000E+00  0.20898665514E+04  0.20898665514E+04  0.50400001928E-02 0.  1.
       -1   -1    0    0    0  501  0.00000000000E+00  0.00000000000E+00 -0.18235915287E+04  0.18235915287E+04  0.50400001928E-02 0. -1.
    10030    2    1    2    0    0  0.00000000000E+00  0.00000000000E+00  0.26627502274E+03  0.39134580801E+04  0.39043887815E+04 0.  0.
        5    1    3    3  502    0 -0.18628811095E+04  0.50480093454E+03 -0.16061463517E+03  0.19367418937E+04  0.46999998093E+01 0. -1.
       -5    1    3    3    0  502  0.18628811095E+04 -0.50480093454E+03  0.42688965791E+03  0.19767161864E+04  0.46999998093E+01 0.  1.
</event>
<event>
 5   0  0.4077370E-07  0.2693299E+04  0.7818609E-02  0.8337183E-01
       -2   -1    0    0    0  501  0.00000000000E+00  0.00000000000E+00  0.11100871288E+04  0.11100871288E+04  0.25500000920E-02 0.  1.
        2   -1    0    0  501    0  0.00000000000E+00  0.00000000000E+00 -0.16336237582E+04  0.16336237582E+04  0.25500000920E-02 0. -1.
    10030    2    1    2    0    0  0.00000000000E+00  0.00000000000E+00 -0.52353662943E+03  0.27437108870E+04  0.26932988748E+04 0.  0.
        3    1    3    3  502    0  0.83677773077E+03  0.53513740935E+03 -0.11881269586E+04  0.15486170274E+04  0.10100000352E+00 0. -1.
       -3    1    3    3    0  502 -0.83677773077E+03 -0.53513740935E+03  0.66459032914E+03  0.11950938597E+04  0.10100000352E+00 0.  1.
</event>
<event>
 5   0  0.1372952E-07  0.3490183E+04  0.7818609E-02  0.8116120E-01
       -1   -1    0    0    0  501  0.00000000000E+00  0.00000000000E+00  0.18351239135E+04  0.18351239135E+04  0.50400001928E-02 0. -1.
        1   -1    0    0  501    0  0.00000000000E+00  0.00000000000E+00 -0.16594758004E+04  0.16594758004E+04  0.50400001928E-02 0.  1.
    10030    2    1    2    0    0  0.00000000000E+00  0.00000000000E+00  0.17564811313E+03  0.34945997139E+04  0.34901826457E+04 0.  0.
        1    1    3    3  502    0  0.77701865816E+03  0.10903047807E+04  0.12085355654E+04  0.18036298741E+04  0.50400001928E-02 0. -1.
       -1    1    3    3    0  502 -0.77701865816E+03 -0.10903047807E+04 -0.10328874523E+04  0.16909698398E+04  0.50400001928E-02 0.  1.
</event>
<event>
 5   0  0.4047916E-07  0.3332996E+04  0.7818609E-02  0.8154550E-01
       -2   -1    0    0    0  501  0.00000000000E+00  0.00000000000E+00  0.10637147806E+04  0.10637147806E+04  0.25500000920E-02 0. -1.
        2   -1    0    0  501    0  0.00000000000E+00  0.00000000000E+00 -0.26108647313E+04  0.26108647313E+04  0.25500000920E-02 0.  1.
    10030    2    1    2    0    0  0.00000000000E+00  0.00000000000E+00 -0.15471499507E+04  0.36745795119E+04  0.33329958925E+04 0.  0.
        5    1    3    3  502    0  0.50158813853E+03 -0.12505798727E+04 -0.18547150957E+04  0.22924944613E+04  0.46999998093E+01 0. -1.
       -5    1    3    3    0  502 -0.50158813853E+03  0.12505798727E+04  0.30756514493E+03  0.13820850506E+04  0.46999998093E+01 0.  1.
</event>
<event>
 5   0  0.1421304E-07  0.2876592E+04  0.7818609E-02  0.8279876E-01
        1   -1    0    0  501    0  0.00000000000E+00  0.00000000000E+00  0.14384665589E+04  0.14384665589E+04  0.50400001928E-02 0.  1.
       -1   -1    0    0    0  501  0.00000000000E+00  0.00000000000E+00 -0.14381253098E+04  0.14381253098E+04  0.50400001928E-02 0. -1.
    10030    2    1    2    0    0  0.00000000000E+00  0.00000000000E+00  0.34124911596E+00  0.28765918687E+04  0.28765918485E+04 0.  0.
        2    1    3    3  502    0 -0.91060669015E+03  0.97342029967E+03 -0.54014737979E+03  0.14382318366E+04  0.25500000920E-02 0. -1.
       -2    1    3    3    0  502  0.91060669015E+03 -0.97342029967E+03  0.54048862890E+03  0.14383600321E+04  0.25500000920E-02 0.  1.
</event>
<event>
 5   0  0.1351000E-07  0.2738114E+04  0.7818609E-02  0.8322743E-01
        1   -1    0    0  501    0  0.00000000000E+00  0.00000000000E+00  0.16999566745E+04  0.16999566745E+04  0.50400001928E-02 0. -1.
       -1   -1    0    0    0  501  0.00000000000E+00  0.00000000000E+00 -0.11025671551E+04  0.11025671551E+04  0.50400001928E-02 0.  1.
    10030    2    1    2    0    0  0.00000000000E+00  0.00000000000E+00  0.59738951946E+03  0.28025238296E+04  0.27381135071E+04 0.  0.
        3    1    3    3  502    0 -0.10948347700E+04  0.80061853897E+03  0.48925486254E+03  0.14418819470E+04  0.10100000352E+00 0. -1.
       -3    1    3    3    0  502  0.10948347700E+04 -0.80061853897E+03  0.10813465692E+03  0.13606418826E+04  0.10100000352E+00 0.  1.
</event>
<event>
 5   0  0.1368865E-07  0.3814400E+04  0.7818609E-02  0.8043072E-01
       -1   -1    0    0    0  501  0.00000000000E+00  0.00000000000E+00  0.15664125185E+04  0.15664125185E+04  0.50400001928E-02 0.  1.
        1   -1    0    0  501    0  0.00000000000E+00  0.00000000000E+00 -0.23221289419E+04  0.23221289419E+04  0.50400001928E-02 0. -1.
    10030    2    1    2    0    0  0.00000000000E+00  0.00000000000E+00 -0.75571642343E+03  0.38885414604E+04  0.38144000022E+04 0.  0.
        5    1    3    3  502    0  0.15000155971E+04  0.17753931544E+03 -0.15648889330E+04  0.21749635543E+04  0.46999998093E+01 0. -1.
       -5    1    3    3    0  502 -0.15000155971E+04 -0.17753931544E+03  0.80917250957E+03  0.17135779061E+04  0.46999998093E+01 0.  1.
</event>
<event>
 5   0  0.4149487E-07  0.4020496E+04  0.7818609E-02  0.8000425E-01
        2   -1    0    0  501    0  0.00000000000E+00  0.00000000000E+00  0.25412603297E+04  0.25412603297E+04  0.25500000920E-02 0.  1.
       -2   -1    0    0    0  501  0.00000000000E+00  0.00000000000E+00 -0.15901940745E+04  0.15901940745E+04  0.25500000920E-02 0. -1.
    10030    2    1    2    0    0  0.00000000000E+00  0.00000000000E+00  0.95106625519E+03  0.41314544042E+04  0.40204960480E+04 0.  0.
        2    1    3    3  502    0 -0.11654049411E+04  0.13903048667E+04 -0.41438161758E+03  0.18608676535E+04  0.25500000920E-02 0. -1.
       -2    1    3    3    0  502  0.11654049411E+04 -0.13903048667E+04  0.13654478728E+04  0.22705867507E+04  0.25500000920E-02 0.  1.
</event>
<event>
 5   0  0.4301754E-07  0.3922682E+04  0.7818609E-02  0.8020328E-01
       -2   -1    0    0    0  501  0.00000000000E+00  0.00000000000E+00  0.19027950384E+04  0.19027950384E+04  0.25500000920E-02 0. -1.
        2   -1    0    0  501    0  0.00000000000E+00  0.00000000000E+00 -0.20216880276E+04  0.20216880276E+04  0.25500000920E-02 0.  1.
    10030    2    1    2    0    0  0.00000000000E+00  0.00000000000E+00 -0.11889298916E+03  0.39244830661E+04  0.39226817094E+04 0.  0.
        1    1    3    3  502    0  0.95607759230E+03 -0.15138393017E+04  0.74158600340E+03  0.19379740954E+04  0.50400001928E-02 0. -1.
       -1    1    3    3    0  502 -0.95607759230E+03  0.15138393017E+04 -0.86047899256E+03  0.19865089707E+04  0.50400001928E-02 0.  1.
</event>
<event>
 5   0  0.1372952E-07  0.3973307E+04  0.7818609E-02  0.8009953E-01
        1   -1    0    0  501    0  0.00000000000E+00  0.00000000000E+00  0.22675016958E+04  0.22675016958E+04  0.50400001928E-02 0. -1.
       -1   -1    0    0    0  501  0.00000000000E+00  0.00000000000E+00 -0.17405906506E+04  0.17405906506E+04  0.50400001928E-02 0.  1.
    10030    2    1    2    0    0  0.00000000000E+00  0.00000000000E+00  0.52691104524E+03  0.40080923464E+04  0.39733070619E+04 0.  0.
        1    1    3    3  502    0  0.10175006217E+04  0.12087498021E+04  0.14783282450E+04  0.21637555314E+04  0.50400001928E-02 0. -1.
       -1    1    3    3    0  502 -0.10175006217E+04 -0.12087498021E+04 -0.95141719979E+03  0.18443368151E+04  0.50400001928E-02 0.  1.
</event>
<event>
 5   0  0.1351000E-07  0.2529922E+04  0.7818609E-02  0.8392402E-01
        1   -1    0    0  501    0  0.00000000000E+00  0.00000000000E+00  0.17734611390E+04  0.17734611390E+04  0.50400001928E-02 0. -1.
       -1   -1    0    0    0  501  0.00000000000E+00  0.00000000000E+00 -0.90226200167E+03  0.90226200168E+03  0.50400001928E-02 0.  1.
    10030    2    1    2    0    0  0.00000000000E+00  0.00000000000E+00  0.87119913732E+03  0.26757231407E+04  0.25299222100E+04 0.  0.
        3    1    3    3  502    0  0.35939922567E+03  0.87290010225E+03  0.13261497765E+04  0.16278192872E+04  0.10100000352E+00 0. -1.
       -3    1    3    3    0  502 -0.35939922567E+03 -0.87290010225E+03 -0.45495063913E+03  0.10479038535E+04  0.10100000352E+00 0.  1.
</event>
<event>
 5   0  0.1351000E-07  0.2578838E+04  0.7818609E-02  0.8375425E-01
        1   -1    0    0  501    0  0.00000000000E+00  0.00000000000E+00  0.19589826309E+04  0.19589826309E+04  0.50400001928E-02 0.  1.
       -1   -1    0    0    0  501  0.00000000000E+00  0.00000000000E+00 -0.84870683327E+03  0.84870683328E+03  0.50400001928E-02 0. -1.
    10030    2    1    2    0    0  0.00000000000E+00  0.00000000000E+00  0.11102757976E+04  0.28076894642E+04  0.25788384557E+04 0.  0.
        3    1    3    3  502    0 -0.17419471606E+03  0.69659441641E+03  0.17211669238E+04  0.18649405271E+04  0.10100000352E+00 0.  1.
       -3    1    3    3    0  502  0.17419471606E+03 -0.69659441641E+03 -0.61089112615E+03  0.94274893704E+03  0.10100000352E+00 0. -1.
</event>
<event>
 5   0  0.1421304E-07  0.4029961E+04  0.7818609E-02  0.7998530E-01
        1   -1    0    0  501    0  0.00000000000E+00  0.00000000000E+00  0.15288019005E+04  0.15288019005E+04  0.50400001928E-02 0.  1.
       -1   -1    0    0    0  501  0.00000000000E+00  0.00000000000E+00 -0.26557702093E+04  0.26557702093E+04  0.50400001928E-02 0. -1.
    10030    2    1    2    0    0  0.00000000000E+00  0.00000000000E+00 -0.11269683088E+04  0.41845721098E+04  0.40299610635E+04 0.  0.
        2    1    3    3  502    0 -0.36085245588E+03  0.15767695030E+03 -0.26154239730E+04  0.26449043601E+04  0.25500000920E-02 0. -1.
       -2    1    3    3    0  502  0.36085245588E+03 -0.15767695030E+03  0.14884556641E+04  0.15396677498E+04  0.25500000920E-02 0.  1.
</event>
<event>
 5   0  0.4301754E-07  0.3966882E+04  0.7818609E-02  0.8011261E-01
        2   -1    0    0  501    0  0.00000000000E+00  0.00000000000E+00  0.29003691230E+04  0.29003691230E+04  0.25500000920E-02 0. -1.
       -2   -1    0    0    0  501  0.00000000000E+00  0.00000000000E+00 -0.13563920036E+04  0.13563920036E+04  0.25500000920E-02 0.  1.
    10030    2    1    2    0    0  0.00000000000E+00  0.00000000000E+00  0.15439771194E+04  0.42567611266E+04  0.39668816397E+04 0.  0.
        1    1    3    3  502    0 -0.39761895820E+03 -0.92545927757E+03  0.26054907538E+04  0.27934132846E+04  0.50400001928E-02 0. -1.
       -1    1    3    3    0  502  0.39761895820E+03  0.92545927757E+03 -0.10615136345E+04  0.14633478420E+04  0.50400001928E-02 0.  1.
</event>
<event>
 5   0  0.4077370E-07  0.4062275E+04  0.7818609E-02  0.7992100E-01
        2   -1    0    0  501    0  0.00000000000E+00  0.00000000000E+00  0.23937716758E+04  0.23937716758E+04  0.25500000920E-02 0.  1.
       -2   -1    0    0    0  501  0.00000000000E+00  0.00000000000E+00 -0.17234393350E+04  0.17234393350E+04  0.25500000920E-02 0. -1.
    10030    2    1    2    0    0  0.00000000000E+00  0.00000000000E+00  0.67033234074E+03  0.41172110108E+04  0.40622753551E+04 0.  0.
        3    1    3    3  502    0  0.10750184178E+03  0.16770642415E+04  0.14913911881E+04  0.22468530886E+04  0.10100000352E+00 0.  1.
       -3    1    3    3    0  502 -0.10750184178E+03 -0.16770642415E+04 -0.82105884732E+03  0.18703579221E+04  0.10100000352E+00 0. -1.
</event>
<event>
 5   0  0.1351000E-07  0.3980687E+04  0.7818609E-02  0.8008454E-01
        1   -1    0    0  501    0  0.00000000000E+00  0.00000000000E+00  0.21815018385E+04  0.21815018386E+04  0.50400001928E-02 0.  1.
       -1   -1    0    0    0  501  0.00000000000E+00  0.00000000000E+00 -0.18159358704E+04  0.18159358704E+04  0.50400001928E-02 0. -1.
    10030    2    1    2    0    0  0.00000000000E+00  0.00000000000E+00  0.36556596811E+03  0.39974377090E+04  0.39806870965E+04 0.  0.
        3    1    3    3  502    0 -0.15561732214E+04  0.22655708574E+02  0.14286805683E+04  0.21126562788E+04  0.10100000352E+00 0. -1.
       -3    1    3    3    0  502  0.15561732214E+04 -0.22655708574E+02 -0.10631146001E+04  0.18847814302E+04  0.10100000352E+00 0.  1.
</event>
<event>
 5   0  0.4079777E-07  0.4002502E+04  0.7818609E-02  0.8004042E-01
        2   -1    0    0  501    0  0.00000000000E+00  0.00000000000E+00  0.20487138099E+04  0.20487138099E+04  0.25500000920E-02 0. -1.
       -2   -1    0    0    0  501  0.00000000000E+00  0.00000000000E+00 -0.19548876611E+04  0.19548876611E+04  0.25500000920E-02 0.  1.
    10030    2    1    2    0    0  0.00000000000E+00  0.00000000000E+00  0.93826148858E+02  0.40036014710E+04  0.40025018916E+04 0.  0.
        4    1    3    3  502    0 -0.97381578497E+03 -0.17266139004E+04  0.32174479576E+03  0.20082415369E+04  0.12699999809E+01 0. -1.
       -4    1    3    3    0  502  0.97381578497E+03  0.17266139004E+04 -0.22791864690E+03  0.19953599341E+04  0.12699999809E+01 0.  1.
</event>
<event>
 5   0  0.1351000E-07  0.2732091E+04  0.7818609E-02  0.8324667E-01
       -1   -1    0    0    0  501  0.00000000000E+00  0.00000000000E+00  0.14784768754E+04  0.14784768754E+04  0.50400001928E-02 0.  1.
        1   -1    0    0  501    0  0.00000000000E+00  0.00000000000E+00 -0.12621637871E+04  0.12621637871E+04  0.50400001928E-02 0. -1.
    10030    2    1    2    0    0  0.00000000000E+00  0.00000000000E+00  0.21631308832E+03  0.27406406626E+04  0.27320907542E+04 0.  0.
        3    1    3    3  502    0  0.30746347233E+03 -0.44992845769E+03  0.13647180402E+04  0.14694981263E+04  0.10100000352E+00 0.  1.
       -3    1    3    3    0  502 -0.30746347233E+03  0.44992845769E+03 -0.11484049518E+04  0.12711425363E+04  0.10100000352E+00 0. -1.
</event>
<event>
 5   0  0.1351000E-07  0.3959115E+04  0.7818609E-02  0.8012846E-01
       -1   -1    0    0    0  501  0.00000000000E+00  0.00000000000E+00  0.18058881785E+04  0.18058881785E+04  0.50400001928E-02 0. -1.
        1   -1    0    0  501    0  0.00000000000E+00  0.00000000000E+00 -0.21699278465E+04  0.21699278465E+04  0.50400001928E-02 0.  1.
    10030    2    1    2    0    0  0.00000000000E+00  0.00000000000E+00 -0.36403966797E+03  0.39758160250E+04  0.39591145708E+04 0.  0.
        3    1    3    3  502    0 -0.75173858278E+03  0.18239422647E+04 -0.17711908083E+02  0.19728634022E+04  0.10100000352E+00 0.  1.
       -3    1    3    3    0  502  0.75173858278E+03 -0.18239422647E+04 -0.34632775988E+03  0.20029526228E+04  0.10100000352E+00 0. -1.
</event>
<event>
 5   0  0.4077370E-07  0.3927738E+04  0.7818609E-02  0.8019285E-01
        2   -1    0    0  501    0  0.00000000000E+00  0.00000000000E+00  0.24482582890E+04  0.24482582891E+04  0.25500000920E-02 0.  1.
       -2   -1    0    0    0  501  0.00000000000E+00  0.00000000000E+00 -0.15753161238E+04  0.15753161238E+04  0.25500000920E-02 0. -1.
    10030    2    1    2    0    0  0.00000000000E+00  0.00000000000E+00  0.87294216530E+03  0.40235744128E+04  0.39277376480E+04 0.  0.
        3    1    3    3  502    0 -0.26062156739E+03  0.19351494594E+04  0.22146000263E+03  0.19651390726E+04  0.10100000352E+00 0.  1.
       -3    1    3    3    0  502  0.26062156739E+03 -0.19351494594E+04  0.65148216267E+03  0.20584353402E+04  0.10100000352E+00 0. -1.
</event>
<event>
 5   0  0.1351000E-07  0.4015215E+04  0.7818609E-02  0.8001484E-01
       -1   -1    0    0    0  501  0.00000000000E+00  0.00000000000E+00  0.13644611406E+04  0.13644611406E+04  0.50400001928E-02 0.  1.
        1   -1    0    0  501    0  0.00000000000E+00  0.00000000000E+00 -0.29539037883E+04  0.29539037883E+04  0.50400001928E-02 0. -1.
    10030    2    1    2    0    0  0.00000000000E+00  0.00000000000E+00 -0.15894426477E+04  0.43183649288E+04  0.40152145308E+04 0.  0.
        4    1    3    3  502    0 -0.10466714235E+04  0.17064145343E+04 -0.63121098993E+03  0.20989998948E+04  0.12699999809E+01 0. -1.
       -4    1    3    3    0  502  0.10466714235E+04 -0.17064145343E+04 -0.95823165779E+03  0.22193650341E+04  0.12699999809E+01 0.  1.
</event>
<event>
 5   0  0.1351000E-07  0.4111996E+04  0.7818609E-02  0.7982327E-01
       -1   -1    0    0    0  501  0.00000000000E+00  0.00000000000E+00  0.16130452442E+04  0.16130452442E+04  0.50400001928E-02 0.  1.
        1   -1    0    0  501    0  0.00000000000E+00  0.00000000000E+00 -0.26205879667E+04  0.26205879667E+04  0.50400001928E-02 0. -1.
    10030    2    1    2    0    0  0.00000000000E+00  0.00000000000E+00 -0.10075427225E+04  0.42336332109E+04  0.41119956015E+04 0.  0.
        3    1    3    3  502    0  0.17550415763E+04 -0.46580270777E+03  0.48911213324E+03  0.18805248699E+04  0.10100000352E+00 0.  1.
       -3    1    3    3    0  502 -0.17550415763E+04  0.46580270777E+03 -0.14966548558E+04  0.23531083410E+04  0.10100000352E+00 0. -1.
</event>
<event>
 5   0  0.4149487E-07  0.4105861E+04  0.7818609E-02  0.7983525E-01
       -2   -1    0    0    0  501  0.00000000000E+00  0.00000000000E+00  0.20499925345E+04  0.20499925345E+04  0.25500000920E-02 0. -1.
        2   -1    0    0  501    0  0.00000000000E+00  0.00000000000E+00 -0.20558727617E+04  0.20558727617E+04  0.25500000920E-02 0.  1.
    10030    2    1    2    0    0  0.00000000000E+00  0.00000000000E+00 -0.58802271780E+01  0.41058652962E+04  0.41058610855E+04 0.  0.
        2    1    3    3  502    0 -0.16242206668E+04 -0.91498611181E+03 -0.86272669784E+03  0.20541639940E+04  0.25500000920E-02 0.  1.
       -2    1    3    3    0  502  0.16242206668E+04  0.91498611181E+03  0.85684647066E+03  0.20517013022E+04  0.25500000920E-02 0. -1.
</event>
<event>
 5   0  0.1351000E-07  0.4022340E+04  0.7818609E-02  0.8000055E-01
        1   -1    0    0  501    0  0.00000000000E+00  0.00000000000E+00  0.12414819542E+04  0.12414819542E+04  0.50400001928E-02 0. -1.
       -1   -1    0    0    0  501  0.00000000000E+00  0.00000000000E+00 -0.32580456840E+04  0.32580456840E+04  0.50400001928E-02 0.  1.
    10030    2    1    2    0    0  0.00000000000E+00  0.00000000000E+00 -0.20165637298E+04  0.44995276382E+04  0.40223400764E+04 0.  0.
        4    1    3    3  502    0 -0.17925205197E+04  0.89893308902E+03 -0.83646022512E+03  0.21727581166E+04  0.12699999809E+01 0.  1.
       -4    1    3    3    0  502  0.17925205197E+04 -0.89893308902E+03 -0.11801035047E+04  0.23267695216E+04  0.12699999809E+01 0. -1.
</event>
<event>
 5   0  0.4301754E-07  0.3990777E+04  0.7818609E-02  0.8006410E-01
        2   -1    0    0  501    0  0.00000000000E+00  0.00000000000E+00  0.20450534468E+04  0.20450534468E+04  0.25500000920E-02 0. -1.
       -2   -1    0    0    0  501  0.00000000000E+00  0.00000000000E+00 -0.19469300388E+04  0.19469300388E+04  0.25500000920E-02 0.  1.
    10030    2    1    2    0    0  0.00000000000E+00  0.00000000000E+00  0.98123407989E+02  0.39919834857E+04  0.39907773612E+04 0.  0.
        1    1    3    3  502    0 -0.54835381504E+03 -0.10788711996E+04 -0.15378984759E+04  0.19569840812E+04  0.50400001928E-02 0.  1.
       -1    1    3    3    0  502  0.54835381504E+03  0.10788711996E+04  0.16360218839E+04  0.20349994045E+04  0.50400001928E-02 0. -1.
</event>
<event>
 5   0  0.1421304E-07  0.4008086E+04  0.7818609E-02  0.8002917E-01
       -1   -1    0    0    0  501  0.00000000000E+00  0.00000000000E+00  0.21888635130E+04  0.21888635130E+04  0.50400001928E-02 0.  1.
        1   -1    0    0  501    0  0.00000000000E+00  0.00000000000E+00 -0.18348277037E+04  0.18348277037E+04  0.50400001928E-02 0. -1.
    10030    2    1    2    0    0  0.00000000000E+00  0.00000000000E+00  0.35403580928E+03  0.40236912166E+04  0.40080855346E+04 0.  0.
        2    1    3    3  502    0 -0.63949166068E+03 -0.39541885253E+03  0.20419056860E+04  0.21759330145E+04  0.25500000920E-02 0.  1.
       -2    1    3    3    0  502  0.63949166068E+03  0.39541885253E+03 -0.16878698767E+04  0.18477582022E+04  0.25500000920E-02 0. -1.
</event>
<event>
 5   0  0.1351000E-07  0.3579883E+04  0.7818609E-02  0.8095115E-01
       -1   -1    0    0    0  501  0.00000000000E+00  0.00000000000E+00  0.15036000308E+04  0.15036000308E+04  0.50400001928E-02 0.  1.
        1   -1    0    0  501    0  0.00000000000E+00  0.00000000000E+00 -0.21308132913E+04  0.21308132913E+04  0.50400001928E-02 0. -1.
    10030    2    1    2    0    0  0.00000000000E+00  0.00000000000E+00 -0.62721326047E+03  0.36344133221E+04  0.35798831994E+04 0.  0.
        4    1    3    3  502    0  0.10533302595E+03 -0.17863239262E+04 -0.35716828592E+03  0.18247243663E+04  0.12699999809E+01 0. -1.
       -4    1    3    3    0  502 -0.10533302595E+03  0.17863239262E+04 -0.27004497455E+03  0.18096889558E+04  0.12699999809E+01 0.  1.
</event>
<event>
 5   0  0.4077370E-07  0.4011660E+04  0.7818609E-02  0.8002198E-01
        2   -1    0    0  501    0  0.00000000000E+00  0.00000000000E+00  0.16755596967E+04  0.16755596967E+04  0.25500000920E-02 0.  1.
       -2   -1    0    0    0  501  0.00000000000E+00  0.00000000000E+00 -0.24012005184E+04  0.24012005184E+04  0.25500000920E-02 0. -1.
    10030    2    1    2    0    0  0.00000000000E+00  0.00000000000E+00 -0.72564082170E+03  0.40767602151E+04  0.40116604105E+04 0.  0.
        3    1    3    3  502    0  0.13774594070E+04  0.54614933835E+03 -0.17366764837E+04  0.22829189072E+04  0.10100000352E+00 0. -1.
       -3    1    3    3    0  502 -0.13774594070E+04 -0.54614933835E+03  0.10110356620E+04  0.17938413079E+04  0.10100000352E+00 0.  1.
</event>
<event>
 5   0  0.1351000E-07  0.3967211E+04  0.7818609E-02  0.8011194E-01
       -1   -1    0    0    0  501  0.00000000000E+00  0.00000000000E+00  0.13020965208E+04  0.13020965209E+04  0.50400001928E-02 0. -1.
        1   -1    0    0  501    0  0.00000000000E+00  0.00000000000E+00 -0.30218122209E+04  0.30218122209E+04  0.50400001928E-02 0.  1.
    10030    2    1    2    0    0  0.00000000000E+00  0.00000000000E+00 -0.17197157000E+04  0.43239087417E+04  0.39672112016E+04 0.  0.
        3    1    3    3  502    0  0.18902621633E+04 -0.48612392051E+03 -0.12456366953E+04  0.23153872892E+04  0.10100000352E+00 0.  1.
       -3    1    3    3    0  502 -0.18902621633E+04  0.48612392051E+03 -0.47407900477E+03  0.20085214525E+04  0.10100000352E+00 0. -1.
</event>
<event>
 5   0  0.4149487E-07  0.3835759E+04  0.7818609E-02  0.8038524E-01
        2   -1    0    0  501    0  0.00000000000E+00  0.00000000000E+00  0.22040024217E+04  0.22040024217E+04  0.25500000920E-02 0. -1.
       -2   -1    0    0    0  501  0.00000000000E+00  0.00000000000E+00 -0.16689009001E+04  0.16689009001E+04  0.25500000920E-02 0.  1.
    10030    2    1    2    0    0  0.00000000000E+00  0.00000000000E+00  0.53510152152E+03  0.38729033218E+04  0.38357589212E+04 0.  0.
        2    1    3    3  502    0  0.16690972667E+04  0.82378828142E+02 -0.68261991438E+03  0.18051708796E+04  0.25500000920E-02 0.  1.
       -2    1    3    3    0  502 -0.16690972667E+04 -0.82378828142E+02  0.12177214359E+04  0.20677324422E+04  0.25500000920E-02 0. -1.
</event>
<event>
 5   0  0.4077370E-07  0.3971191E+04  0.7818609E-02  0.8010384E-01
        2   -1    0    0  501    0  0.00000000000E+00  0.00000000000E+00  0.21538187567E+04  0.21538187567E+04  0.25500000920E-02 0.  1.
       -2   -1    0    0    0  501  0.00000000000E+00  0.00000000000E+00 -0.18305113398E+04  0.18305113398E+04  0.25500000920E-02 0. -1.
    10030    2    1    2    0    0  0.00000000000E+00  0.00000000000E+00  0.32330741691E+03  0.39843300965E+04  0.39711910848E+04 0.  0.
        3    1    3    3  502    0 -0.13919196189E+04  0.59511553373E+03  0.14508122899E+04  0.20967734820E+04  0.10100000352E+00 0.  1.
       -3    1    3    3    0  502  0.13919196189E+04 -0.59511553373E+03 -0.11275048730E+04  0.18875566145E+04  0.10100000352E+00 0. -1.
</event>
<event>
 5   0  0.4149487E-07  0.4027683E+04  0.7818609E-02  0.7998985E-01
       -2   -1    0    0    0  501  0.00000000000E+00  0.00000000000E+00  0.19066243120E+04  0.19066243120E+04  0.25500000920E-02 0. -1.
        2   -1    0    0  501    0  0.00000000000E+00  0.00000000000E+00 -0.21270875185E+04  0.21270875185E+04  0.25500000920E-02 0.  1.
    10030    2    1    2    0    0  0.00000000000E+00  0.00000000000E+00 -0.22046320649E+03  0.40337118304E+04  0.40276825974E+04 0.  0.
        2    1    3    3  502    0 -0.64346907873E+03 -0.30089613939E+03 -0.19974531103E+04  0.21200023278E+04  0.25500000920E-02 0.  1.
       -2    1    3    3    0  502  0.64346907873E+03  0.30089613939E+03  0.17769899039E+04  0.19137095026E+04  0.25500000920E-02 0. -1.
</event>
<event>
 5   0  0.4149487E-07  0.3818822E+04  0.7818609E-02  0.8042128E-01
        2   -1    0    0  501    0  0.00000000000E+00  0.00000000000E+00  0.27573032248E+04  0.27573032248E+04  0.25500000920E-02 0. -1.
       -2   -1    0    0    0  501  0.00000000000E+00  0.00000000000E+00 -0.13222522419E+04  0.13222522419E+04  0.25500000920E-02 0.  1.
    10030    2    1    2    0    0  0.00000000000E+00  0.00000000000E+00  0.14350509830E+04  0.40795554667E+04  0.38188220019E+04 0.  0.
        2    1    3    3  502    0 -0.27039751333E+02 -0.67930003053E+03 -0.11885824724E+04  0.13692727900E+04  0.25500000920E-02 0. -1.
       -2    1    3    3    0  502  0.27039751333E+02  0.67930003053E+03  0.26236334554E+04  0.27102826767E+04  0.25500000920E-02 0.  1.
</event>
<event>
 5   0  0.1368865E-07  0.3805552E+04  0.7818609E-02  0.8044964E-01
       -1   -1    0    0    0  501  0.00000000000E+00  0.00000000000E+00  0.27465513581E+04  0.27465513581E+04  0.50400001928E-02 0.  1.
        1   -1    0    0  501    0  0.00000000000E+00  0.00000000000E+00 -0.13182191735E+04  0.13182191735E+04  0.50400001928E-02 0. -1.
    10030    2    1    2    0    0  0.00000000000E+00  0.00000000000E+00  0.14283321846E+04  0.40647705316E+04  0.38055520815E+04 0.  0.
        5    1    3    3  502    0 -0.16528817081E+04 -0.36497166074E+03  0.16424517638E+04  0.23585784152E+04  0.46999998093E+01 0.  1.
       -5    1    3    3    0  502  0.16528817081E+04  0.36497166074E+03 -0.21411957914E+03  0.17061921165E+04  0.46999998093E+01 0. -1.
</event>
<event>
 5   0  0.1351000E-07  0.4296912E+04  0.7818609E-02  0.7947189E-01
       -1   -1    0    0    0  501  0.00000000000E+00  0.00000000000E+00  0.27781990775E+04  0.27781990775E+04  0.50400001928E-02 0.  1.
        1   -1    0    0  501    0  0.00000000000E+00  0.00000000000E+00 -0.16614589487E+04  0.16614589487E+04  0.50400001928E-02 0. -1.
    10030    2    1    2    0    0  0.00000000000E+00  0.00000000000E+00  0.11167401289E+04  0.44396580262E+04  0.42969122488E+04 0.  0.
        4    1    3    3  502    0 -0.12495282651E+04  0.13667153556E+04 -0.56714357313E+03  0.19367202157E+04  0.12699999809E+01 0.  1.
       -4    1    3    3    0  502  0.12495282651E+04 -0.13667153556E+04  0.16838837020E+04  0.25029378105E+04  0.12699999809E+01 0. -1.
</event>
<event>
 5   0  0.4149487E-07  0.4021486E+04  0.7818609E-02  0.8000226E-01
        2   -1    0    0  501    0  0.00000000000E+00  0.00000000000E+00  0.23022224519E+04  0.23022224519E+04  0.25500000920E-02 0. -1.
       -2   -1    0    0    0  501  0.00000000000E+00  0.00000000000E+00 -0.17561669336E+04  0.17561669336E+04  0.25500000920E-02 0.  1.
    10030    2    1    2    0    0  0.00000000000E+00  0.00000000000E+00  0.54605551827E+03  0.40583893855E+04  0.40214857671E+04 0.  0.
        2    1    3    3  502    0  0.18523135849E+04  0.76337403502E+02  0.10587570952E+04  0.21349144251E+04  0.25500000920E-02 0. -1.
       -2    1    3    3    0  502 -0.18523135849E+04 -0.76337403502E+02 -0.51270157694E+03  0.19234749603E+04  0.25500000920E-02 0.  1.
</event>
<event>
 5   0  0.4149487E-07  0.4053080E+04  0.7818609E-02  0.7993923E-01
       -2   -1    0    0    0  501  0.00000000000E+00  0.00000000000E+00  0.32138983616E+04  0.32138983616E+04  0.25500000920E-02 0.  1.
        2   -1    0    0  501    0  0.00000000000E+00  0.00000000000E+00 -0.12778449595E+04  0.12778449595E+04  0.25500000920E-02 0. -1.
    10030    2    1    2    0    0  0.00000000000E+00  0.00000000000E+00  0.19360534020E+04  0.44917433211E+04  0.40530797286E+04 0.  0.
        2    1    3    3  502    0  0.18560985920E+04 -0.55982055760E+03  0.31392442749E+03  0.19639372664E+04  0.25500000920E-02 0. -1.
       -2    1    3    3    0  502 -0.18560985920E+04  0.55982055760E+03  0.16221289746E+04  0.25278060547E+04  0.25500000920E-02 0.  1.
</event>
<event>
 5   0  0.4077370E-07  0.3516897E+04  0.7818609E-02  0.8109797E-01
        2   -1    0    0  501    0  0.00000000000E+00  0.00000000000E+00  0.24061571240E+04  0.24061571240E+04  0.25500000920E-02 0.  1.
       -2   -1    0    0    0  501  0.00000000000E+00  0.00000000000E+00 -0.12850955105E+04  0.12850955105E+04  0.25500000920E-02 0. -1.
    10030    2    1    2    0    0  0.00000000000E+00  0.00000000000E+00  0.11210616135E+04  0.36912526344E+04  0.35168973357E+04 0.  0.
        3    1    3    3  502    0  0.69832670807E+03  0.79566341460E+03  0.20342053881E+04  0.22931925414E+04  0.10100000352E+00 0.  1.
       -3    1    3    3    0  502 -0.69832670807E+03 -0.79566341460E+03 -0.91314377461E+03  0.13980600931E+04  0.10100000352E+00 0. -1.
</event>
<event>
 5   0  0.4047916E-07  0.3932533E+04  0.7818609E-02  0.8018297E-01
        2   -1    0    0  501    0  0.00000000000E+00  0.00000000000E+00  0.21252769205E+04  0.21252769205E+04  0.25500000920E-02 0.  1.
       -2   -1    0    0    0  501  0.00000000000E+00  0.00000000000E+00 -0.18191525845E+04  0.18191525845E+04  0.25500000920E-02 0. -1.
    10030    2    1    2    0    0  0.00000000000E+00  0.00000000000E+00  0.30612433600E+03  0.39444295050E+04  0.39325325187E+04 0.  0.
        5    1    3    3  502    0  0.16757107469E+04 -0.12921054120E+03  0.11766783515E+04  0.20516568680E+04  0.46999998093E+01 0. -1.
       -5    1    3    3    0  502 -0.16757107469E+04  0.12921054120E+03 -0.87055401546E+03  0.18927726369E+04  0.46999998093E+01 0.  1.
</event>
<event>
 5   0  0.1372952E-07  0.4062254E+04  0.7818609E-02  0.7992104E-01
        1   -1    0    0  501    0  0.00000000000E+00  0.00000000000E+00  0.19948588504E+04  0.19948588504E+04  0.50400001928E-02 0.  1.
       -1   -1    0    0    0  501  0.00000000000E+00  0.00000000000E+00 -0.20680550104E+04  0.20680550104E+04  0.50400001928E-02 0. -1.
    10030    2    1    2    0    0  0.00000000000E+00  0.00000000000E+00 -0.73196159981E+02  0.40629138608E+04  0.40622544680E+04 0.  0.
        1    1    3    3  502    0  0.77011649159E+03  0.17375953193E+04  0.67987072222E+03  0.20185492570E+04  0.50400001928E-02 0.  1.
       -1    1    3    3    0  502 -0.77011649159E+03 -0.17375953193E+04 -0.75306688220E+03  0.20443646038E+04  0.50400001928E-02 0. -1.
</event>
<event>
 5   0  0.4149487E-07  0.3963987E+04  0.7818609E-02  0.8011851E-01
       -2   -1    0    0    0  501  0.00000000000E+00  0.00000000000E+00  0.17361618993E+04  0.17361618993E+04  0.25500000920E-02 0. -1.
        2   -1    0    0  501    0  0.00000000000E+00  0.00000000000E+00 -0.22626331042E+04  0.22626331042E+04  0.25500000920E-02 0.  1.
    10030    2    1    2    0    0  0.00000000000E+00  0.00000000000E+00 -0.52647120489E+03  0.39987950035E+04  0.39639865729E+04 0.  0.
        2    1    3    3  502    0 -0.12468027156E+04 -0.90869256996E+03 -0.15183710832E+04  0.21646454548E+04  0.25500000920E-02 0.  1.
       -2    1    3    3    0  502  0.12468027156E+04  0.90869256996E+03  0.99189987833E+03  0.18341495487E+04  0.25500000920E-02 0. -1.
</event>
<event>
 5   0  0.4077370E-07  0.3973979E+04  0.7818609E-02  0.8009816E-01
       -2   -1    0    0    0  501  0.00000000000E+00  0.00000000000E+00  0.19560274796E+04  0.19560274796E+04  0.25500000920E-02 0.  1.
        2   -1    0    0  501    0  0.00000000000E+00  0.00000000000E+00 -0.20184416775E+04  0.20184416775E+04  0.25500000920E-02 0. -1.
    10030    2    1    2    0    0  0.00000000000E+00  0.00000000000E+00 -0.62414197886E+02  0.39744691572E+04  0.39739790574E+04 0.  0.
        3    1    3    3  502    0  0.80928066303E+03 -0.89926403878E+03 -0.16076363643E+04  0.20119904804E+04  0.10100000352E+00 0. -1.
       -3    1    3    3    0  502 -0.80928066303E+03  0.89926403878E+03  0.15452221664E+04  0.19624786768E+04  0.10100000352E+00 0.  1.
</event>
<event>
 5   0  0.4047916E-07  0.3617859E+04  0.7818609E-02  0.8086413E-01
        2   -1    0    0  501    0  0.00000000000E+00  0.00000000000E+00  0.15063810458E+04  0.15063810458E+04  0.25500000920E-02 0.  1.
       -2   -1    0    0    0  501  0.00000000000E+00  0.00000000000E+00 -0.21722434255E+04  0.21722434255E+04  0.25500000920E-02 0. -1.
    10030    2    1    2    0    0  0.00000000000E+00  0.00000000000E+00 -0.66586237975E+03  0.36786244713E+04  0.36178592140E+04 0.  0.
        5    1    3    3  502    0 -0.14502085613E+04 -0.10173060127E+04 -0.70540039421E+03  0.19067323359E+04  0.46999998093E+01 0. -1.
       -5    1    3    3    0  502  0.14502085613E+04  0.10173060127E+04  0.39538014462E+02  0.17718921354E+04  0.46999998093E+01 0.  1.
</event>
<event>
 5   0  0.1368865E-07  0.3936802E+04  0.7818609E-02  0.8017418E-01
        1   -1    0    0  501    0  0.00000000000E+00  0.00000000000E+00  0.17771680294E+04  0.17771680294E+04  0.50400001928E-02 0. -1.
       -1   -1    0    0    0  501  0.00000000000E+00  0.00000000000E+00 -0.21802111506E+04  0.21802111506E+04  0.50400001928E-02 0.  1.
    10030    2    1    2    0    0  0.00000000000E+00  0.00000000000E+00 -0.40304312122E+03  0.39573791800E+04  0.39368015211E+04 0.  0.
        5    1    3    3  502    0  0.13941794209E+04 -0.30676272478E+03 -0.15638692752E+04  0.21174392145E+04  0.46999998093E+01 0.  1.
       -5    1    3    3    0  502 -0.13941794209E+04  0.30676272478E+03  0.11608261540E+04  0.18399399655E+04  0.46999998093E+01 0. -1.
</event>
<event>
 5   0  0.4079777E-07  0.4011768E+04  0.7818609E-02  0.8002177E-01
        2   -1    0    0  501    0  0.00000000000E+00  0.00000000000E+00  0.16314889156E+04  0.16314889156E+04  0.25500000920E-02 0. -1.
       -2   -1    0    0    0  501  0.00000000000E+00  0.00000000000E+00 -0.24661957836E+04  0.24661957836E+04  0.25500000920E-02 0.  1.
    10030    2    1    2    0    0  0.00000000000E+00  0.00000000000E+00 -0.83470686803E+03  0.40976846992E+04  0.40117682309E+04 0.  0.
        4    1    3    3  502    0 -0.19977323085E+03  0.10983428267E+03  0.16182129306E+04  0.16341932613E+04  0.12699999809E+01 0. -1.
       -4    1    3    3    0  502  0.19977323085E+03 -0.10983428267E+03 -0.24529197986E+04  0.24634914380E+04  0.12699999809E+01 0.  1.
</event>
<event>
 5   0  0.1351000E-07  0.3994704E+04  0.7818609E-02  0.8005616E-01
        1   -1    0    0  501    0  0.00000000000E+00  0.00000000000E+00  0.17424896503E+04  0.17424896503E+04  0.50400001928E-02 0.  1.
       -1   -1    0    0    0  501  0.00000000000E+00  0.00000000000E+00 -0.22894919398E+04  0.22894919398E+04  0.50400001928E-02 0. -1.
    10030    2    1    2    0    0  0.00000000000E+00  0.00000000000E+00 -0.54700228950E+03  0.40319815900E+04  0.39947044994E+04 0.  0.
        3    1    3    3  502    0  0.85181830513E+03  0.92918124819E+03 -0.18372955369E+04  0.22281443214E+04  0.10100000352E+00 0. -1.
       -3    1    3    3    0  502 -0.85181830513E+03 -0.92918124819E+03  0.12902932474E+04  0.18038372686E+04  0.10100000352E+00 0.  1.
</event>
<event>
 5   0  0.1421304E-07  0.2658462E+04  0.7818609E-02  0.8348610E-01
        1   -1    0    0  501    0  0.00000000000E+00  0.00000000000E+00  0.17654710170E+04  0.17654710170E+04  0.50400001928E-02 0. -1.
       -1   -1    0    0    0  501  0.00000000000E+00  0.00000000000E+00 -0.10007841857E+04  0.10007841857E+04  0.50400001928E-02 0.  1.
    10030    2    1    2    0    0  0.00000000000E+00  0.00000000000E+00  0.76468683128E+03  0.27662552027E+04  0.26584623180E+04 0.  0.
        2    1    3    3  502    0  0.65713828814E+03 -0.67058028138E+03  0.13614240337E+04  0.16537787165E+04  0.25500000920E-02 0. -1.
       -2    1    3    3    0  502 -0.65713828814E+03  0.67058028138E+03 -0.59673720243E+03  0.11124764862E+04  0.25500000920E-02 0.  1.
</event>
<event>
 5   0  0.4149487E-07  0.3970167E+04  0.7818609E-02  0.8010592E-01
       -2   -1    0    0    0  501  0.00000000000E+00  0.00000000000E+00  0.14333713767E+04  0.14333713767E+04  0.25500000920E-02 0. -1.
        2   -1    0    0  501    0  0.00000000000E+00  0.00000000000E+00 -0.27491531657E+04  0.27491531657E+04  0.25500000920E-02 0.  1.
    10030    2    1    2    0    0  0.00000000000E+00  0.00000000000E+00 -0.13157817891E+04  0.41825245424E+04  0.39701674816E+04 0.  0.
        2    1    3    3  502    0 -0.64881775066E+02 -0.24832513214E+03  0.14158176996E+04  0.14388935938E+04  0.25500000920E-02 0. -1.
       -2    1    3    3    0  502  0.64881775066E+02  0.24832513214E+03 -0.27315994886E+04  0.27436309486E+04  0.25500000920E-02 0.  1.
</event>
<event>
 5   0  0.4077370E-07  0.2744556E+04  0.7818609E-02  0.8320691E-01
        2   -1    0    0  501    0  0.00000000000E+00  0.00000000000E+00  0.14339129880E+04  0.14339129880E+04  0.25500000920E-02 0.  1.
       -2   -1    0    0    0  501  0.00000000000E+00  0.00000000000E+00 -0.13132920750E+04  0.13132920750E+04  0.25500000920E-02 0. -1.
    10030    2    1    2    0    0  0.00000000000E+00  0.00000000000E+00  0.12062091304E+03  0.27472050630E+04  0.27445557480E+04 0.  0.
        3    1    3    3  502    0 -0.89168323824E+03  0.18731865617E+03 -0.96681811270E+03  0.13285046291E+04  0.10100000352E+00 0. -1.
       -3    1    3    3    0  502  0.89168323824E+03 -0.18731865617E+03  0.10874390257E+04  0.14187004339E+04  0.10100000352E+00 0.  1.
</event>
<event>
 5   0  0.1351000E-07  0.3976925E+04  0.7818609E-02  0.8009218E-01
        1   -1    0    0  501    0  0.00000000000E+00  0.00000000000E+00  0.22768177979E+04  0.22768177979E+04  0.50400001928E-02 0. -1.
       -1   -1    0    0    0  501  0.00000000000E+00  0.00000000000E+00 -0.17366272790E+04  0.17366272791E+04  0.50400001928E-02 0.  1.
    10030    2    1    2    0    0  0.00000000000E+00  0.00000000000E+00  0.54019051886E+03  0.40134450770E+04  0.39769253940E+04 0.  0.
        4    1    3    3  502    0  0.15904964418E+03  0.15265580780E+04 -0.10057553801E+04  0.18349991423E+04  0.12699999809E+01 0.  1.
       -4    1    3    3    0  502 -0.15904964418E+03 -0.15265580780E+04  0.15459458990E+04  0.21784459347E+04  0.12699999809E+01 0. -1.
</event>
<event>
 5   0  0.4077370E-07  0.4127933E+04  0.7818609E-02  0.7979224E-01
        2   -1    0    0  501    0  0.00000000000E+00  0.00000000000E+00  0.16845795541E+04  0.16845795541E+04  0.25500000920E-02 0.  1.
       -2   -1    0    0    0  501  0.00000000000E+00  0.00000000000E+00 -0.25287957066E+04  0.25287957066E+04  0.25500000920E-02 0. -1.
    10030    2    1    2    0    0  0.00000000000E+00  0.00000000000E+00 -0.84421615250E+03  0.42133752606E+04  0.41279329179E+04 0.  0.
        3    1    3    3  502    0  0.18189278759E+04 -0.15553576622E+03  0.56077088437E+03  0.19097523366E+04  0.10100000352E+00 0.  1.
       -3    1    3    3    0  502 -0.18189278759E+04  0.15553576622E+03 -0.14049870369E+04  0.23036229240E+04  0.10100000352E+00 0. -1.
</event>
<event>
 5   0  0.1351000E-07  0.2676940E+04  0.7818609E-02  0.8342526E-01
        1   -1    0    0  501    0  0.00000000000E+00  0.00000000000E+00  0.16034078137E+04  0.16034078137E+04  0.50400001928E-02 0. -1.
       -1   -1    0    0    0  501  0.00000000000E+00  0.00000000000E+00 -0.11173087559E+04  0.11173087559E+04  0.50400001928E-02 0.  1.
    10030    2    1    2    0    0  0.00000000000E+00  0.00000000000E+00  0.48609905779E+03  0.27207165696E+04  0.26769397375E+04 0.  0.
        3    1    3    3  502    0  0.52124607041E+03  0.11836907242E+03  0.14902243260E+04  0.15831857930E+04  0.10100000352E+00 0. -1.
       -3    1    3    3    0  502 -0.52124607041E+03 -0.11836907242E+03 -0.10041252682E+04  0.11375307766E+04  0.10100000352E+00 0.  1.
</event>
<event>
 5   0  0.4149487E-07  0.4023914E+04  0.7818609E-02  0.7999740E-01
       -2   -1    0    0    0  501  0.00000000000E+00  0.00000000000E+00  0.24692898247E+04  0.24692898247E+04  0.25500000920E-02 0. -1.
        2   -1    0    0  501    0  0.00000000000E+00  0.00000000000E+00 -0.16393261906E+04  0.16393261906E+04  0.25500000920E-02 0.  1.
    10030    2    1    2    0    0  0.00000000000E+00  0.00000000000E+00  0.82996363417E+03  0.41086160153E+04  0.40239142545E+04 0.  0.
        2    1    3    3  502    0  0.14339331167E+04 -0.13730134829E+04  0.74841552364E+03  0.21216634991E+04  0.25500000920E-02 0.  1.
       -2    1    3    3    0  502 -0.14339331167E+04  0.13730134829E+04  0.81548110526E+02  0.19869525162E+04  0.25500000920E-02 0. -1.
</event>
<event>
 5   0  0.4077370E-07  0.2623404E+04  0.7818609E-02  0.8360295E-01
       -2   -1    0    0    0  501  0.00000000000E+00  0.00000000000E+00  0.11006804362E+04  0.11006804362E+04  0.25500000920E-02 0. -1.
        2   -1    0    0  501    0  0.00000000000E+00  0.00000000000E+00 -0.15631801092E+04  0.15631801092E+04  0.25500000920E-02 0.  1.
    10030    2    1    2    0    0  0.00000000000E+00  0.00000000000E+00 -0.46249967295E+03  0.26638605454E+04  0.26234037161E+04 0.  0.
        3    1    3    3  502    0  0.82414106102E+03  0.23257973321E+03  0.77768266433E+03  0.11567593342E+04  0.10100000352E+00 0. -1.
       -3    1    3    3    0  502 -0.82414106102E+03 -0.23257973321E+03 -0.12401823373E+04  0.15071012112E+04  0.10100000352E+00 0.  1.
</event>
<event>
 5   0  0.4301754E-07  0.3841856E+04  0.7818609E-02  0.8037232E-01
        2   -1    0    0  501    0  0.00000000000E+00  0.00000000000E+00  0.15865112604E+04  0.15865112604E+04  0.25500000920E-02 0. -1.
       -2   -1    0    0    0  501  0.00000000000E+00  0.00000000000E+00 -0.23258354753E+04  0.23258354753E+04  0.25500000920E-02 0.  1.
    10030    2    1    2    0    0  0.00000000000E+00  0.00000000000E+00 -0.73932421487E+03  0.39123467357E+04  0.38418558908E+04 0.  0.
        1    1    3    3  502    0  0.13790380517E+04 -0.11024641970E+04  0.40105381060E+03  0.18105295946E+04  0.50400001928E-02 0. -1.
       -1    1    3    3    0  502 -0.13790380517E+04  0.11024641970E+04 -0.11403780255E+04  0.21018171411E+04  0.50400001928E-02 0.  1.
</event>
<event>
 5   0  0.1372952E-07  0.3915219E+04  0.7818609E-02  0.8021871E-01
        1   -1    0    0  501    0  0.00000000000E+00  0.00000000000E+00  0.21300291261E+04  0.21300291261E+04  0.50400001928E-02 0. -1.
       -1   -1    0    0    0  501  0.00000000000E+00  0.00000000000E+00 -0.17991469185E+04  0.17991469185E+04  0.50400001928E-02 0.  1.
    10030    2    1    2    0    0  0.00000000000E+00  0.00000000000E+00  0.33088220757E+03  0.39291760446E+04  0.39152191962E+04 0.  0.
        1    1    3    3  502    0  0.12237630093E+03  0.15943623203E+04  0.12987444379E+04  0.20600253111E+04  0.50400001928E-02 0. -1.
       -1    1    3    3    0  502 -0.12237630093E+03 -0.15943623203E+04 -0.96786223035E+03  0.18691507335E+04  0.50400001928E-02 0.  1.
</event>
<event>
 5   0  0.4077370E-07  0.3467530E+04  0.7818609E-02  0.8121528E-01
        2   -1    0    0  501    0  0.00000000000E+00  0.00000000000E+00  0.18362843246E+04  0.18362843246E+04  0.25500000920E-02 0. -1.
       -2   -1    0    0    0  501  0.00000000000E+00  0.00000000000E+00 -0.16369688913E+04  0.16369688913E+04  0.25500000920E-02 0.  1.
    10030    2    1    2    0    0  0.00000000000E+00  0.00000000000E+00  0.19931543322E+03  0.34732532159E+04  0.34675295615E+04 0.  0.
        3    1    3    3  502    0 -0.33321812395E+03  0.93718859580E+03 -0.13227509227E+04  0.16550005425E+04  0.10100000352E+00 0.  1.
       -3    1    3    3    0  502  0.33321812395E+03 -0.93718859580E+03  0.15220663559E+04  0.18182526733E+04  0.10100000352E+00 0. -1.
</event>
<event>
 5   0  0.1351000E-07  0.4076933E+04  0.7818609E-02  0.7989204E-01
       -1   -1    0    0    0  501  0.00000000000E+00  0.00000000000E+00  0.17801405035E+04  0.17801405035E+04  0.50400001928E-02 0. -1.
        1   -1    0    0  501    0  0.00000000000E+00  0.00000000000E+00 -0.23342794763E+04  0.23342794763E+04  0.50400001928E-02 0.  1.
    10030    2    1    2    0    0  0.00000000000E+00  0.00000000000E+00 -0.55413897281E+03  0.41144199798E+04  0.40769328875E+04 0.  0.
        4    1    3    3  502    0 -0.92583647356E+03  0.79593629467E+03  0.13703175300E+04  0.18353363471E+04  0.12699999809E+01 0. -1.
       -4    1    3    3    0  502  0.92583647356E+03 -0.79593629467E+03 -0.19244565028E+04  0.22790836327E+04  0.12699999809E+01 0.  1.
</event>
<event>
 5   0  0.4047916E-07  0.3758586E+04  0.7818609E-02  0.8055101E-01
       -2   -1    0    0    0  501  0.00000000000E+00  0.00000000000E+00  0.15419109912E+04  0.15419109912E+04  0.25500000920E-02 0. -1.
        2   -1    0    0  501    0  0.00000000000E+00  0.00000000000E+00 -0.22904969003E+04  0.22904969003E+04  0.25500000920E-02 0.  1.
    10030    2    1    2    0    0  0.00000000000E+00  0.00000000000E+00 -0.74858590907E+03  0.38324078915E+04  0.37585860884E+04 0.  0.
        5    1    3    3  502    0 -0.78976823088E+03  0.37315691426E+03  0.13223417101E+04  0.15847995549E+04  0.46999998093E+01 0. -1.
       -5    1    3    3    0  502  0.78976823088E+03 -0.37315691426E+03 -0.20709276191E+04  0.22476083366E+04  0.46999998093E+01 0.  1.
</event>
<event>
 5   0  0.1351000E-07  0.3828076E+04  0.7818609E-02  0.8040157E-01
        1   -1    0    0  501    0  0.00000000000E+00  0.00000000000E+00  0.12697849793E+04  0.12697849793E+04  0.50400001928E-02 0. -1.
       -1   -1    0    0    0  501  0.00000000000E+00  0.00000000000E+00 -0.28851668703E+04  0.28851668703E+04  0.50400001928E-02 0.  1.
    10030    2    1    2    0    0  0.00000000000E+00  0.00000000000E+00 -0.16153818910E+04  0.41549518495E+04  0.38280760465E+04 0.  0.
        4    1    3    3  502    0  0.12331399962E+04 -0.45427397786E+03 -0.23181145681E+04  0.26647055862E+04  0.12699999809E+01 0.  1.
       -4    1    3    3    0  502 -0.12331399962E+04  0.45427397786E+03  0.70273267712E+03  0.14902462634E+04  0.12699999809E+01 0. -1.
</event>
<event>
 5   0  0.1351000E-07  0.2631873E+04  0.7818609E-02  0.8357455E-01
       -1   -1    0    0    0  501  0.00000000000E+00  0.00000000000E+00  0.75956712650E+03  0.75956712652E+03  0.50400001928E-02 0. -1.
        1   -1    0    0  501    0  0.00000000000E+00  0.00000000000E+00 -0.22798365602E+04  0.22798365602E+04  0.50400001928E-02 0.  1.
    10030    2    1    2    0    0  0.00000000000E+00  0.00000000000E+00 -0.15202694337E+04  0.30394036868E+04  0.26318730250E+04 0.  0.
        3    1    3    3  502    0 -0.71721402943E+03 -0.53117086114E+03  0.35663645844E+03  0.96110770542E+03  0.10100000352E+00 0. -1.
       -3    1    3    3    0  502  0.71721402943E+03  0.53117086114E+03 -0.18769058922E+04  0.20782959813E+04  0.10100000352E+00 0.  1.
</event>
<event>
 5   0  0.4301754E-07  0.4010566E+04  0.7818609E-02  0.8002418E-01
       -2   -1    0    0    0  501  0.00000000000E+00  0.00000000000E+00  0.14513561634E+04  0.14513561634E+04  0.25500000920E-02 0.  1.
        2   -1    0    0  501    0  0.00000000000E+00  0.00000000000E+00 -0.27706222159E+04  0.27706222159E+04  0.25500000920E-02 0. -1.
    10030    2    1    2    0    0  0.00000000000E+00  0.00000000000E+00 -0.13192660525E+04  0.42219783794E+04  0.40105658602E+04 0.  0.
        1    1    3    3  502    0  0.11863571845E+04  0.22909250298E+03  0.10251147317E+04  0.15845462939E+04  0.50400001928E-02 0.  1.
       -1    1    3    3    0  502 -0.11863571845E+04 -0.22909250298E+03 -0.23443807842E+04  0.26374320855E+04  0.50400001928E-02 0. -1.
</event>
<event>
 5   0  0.4079777E-07  0.3830025E+04  0.7818609E-02  0.8039742E-01
       -2   -1    0    0    0  501  0.00000000000E+00  0.00000000000E+00  0.15922574872E+04  0.15922574872E+04  0.25500000920E-02 0.  1.
        2   -1    0    0  501    0  0.00000000000E+00  0.00000000000E+00 -0.23031907799E+04  0.23031907799E+04  0.25500000920E-02 0. -1.
    10030    2    1    2    0    0  0.00000000000E+00  0.00000000000E+00 -0.71093329272E+03  0.38954482671E+04  0.38300249419E+04 0.  0.
        4    1    3    3  502    0 -0.11022773820E+04  0.73442373272E+03  0.10512266536E+04  0.16909975565E+04  0.12699999809E+01 0.  1.
       -4    1    3    3    0  502  0.11022773820E+04 -0.73442373272E+03 -0.17621599464E+04  0.22044507106E+04  0.12699999809E+01 0. -1.
</event>
<event>
 5   0  0.4077370E-07  0.3364122E+04  0.7818609E-02  0.8146768E-01
       -2   -1    0    0    0  501  0.00000000000E+00  0.00000000000E+00  0.14099699978E+04  0.14099699978E+04  0.25500000920E-02 0. -1.
        2   -1    0    0  501    0  0.00000000000E+00  0.00000000000E+00 -0.20066595149E+04  0.20066595149E+04  0.25500000920E-02 0.  1.
    10030    2    1    2    0    0  0.00000000000E+00  0.00000000000E+00 -0.59668951707E+03  0.34166295126E+04  0.33641222996E+04 0.  0.
        3    1    3    3  502    0  0.12405507216E+04 -0.10173239340E+04  0.21492992088E+03  0.16186750633E+04  0.10100000352E+00 0.  1.
       -3    1    3    3    0  502 -0.12405507216E+04  0.10173239340E+04 -0.81161943795E+03  0.17979544493E+04  0.10100000352E+00 0. -1.
</event>
<event>
 5   0  0.1421304E-07  0.4036272E+04  0.7818609E-02  0.7997269E-01
        1   -1    0    0  501    0  0.00000000000E+00  0.00000000000E+00  0.26106125996E+04  0.26106125996E+04  0.50400001928E-02 0. -1.
       -1   -1    0    0    0  501  0.00000000000E+00  0.00000000000E+00 -0.15601211543E+04  0.15601211543E+04  0.50400001928E-02 0.  1.
    10030    2    1    2    0    0  0.00000000000E+00  0.00000000000E+00  0.10504914453E+04  0.41707337539E+04  0.40362715183E+04 0.  0.
        2    1    3    3  502    0  0.19974755304E+04  0.24697061285E+03  0.37208871047E+03  0.20467908996E+04  0.25500000920E-02 0.  1.
       -2    1    3    3    0  502 -0.19974755304E+04 -0.24697061285E+03  0.67840273480E+03  0.21239428544E+04  0.25500000920E-02 0. -1.
</event>
<event>
 5   0  0.1421304E-07  0.2797616E+04  0.7818609E-02  0.8304009E-01
        1   -1    0    0  501    0  0.00000000000E+00  0.00000000000E+00  0.24637552084E+04  0.24637552084E+04  0.50400001928E-02 0. -1.
       -1   -1    0    0    0  501  0.00000000000E+00  0.00000000000E+00 -0.79417921374E+03  0.79417921376E+03  0.50400001928E-02 0.  1.
    10030    2    1    2    0    0  0.00000000000E+00  0.00000000000E+00  0.16695759946E+04  0.32579344221E+04  0.27976155377E+04 0.  0.
        2    1    3    3  502    0 -0.90121994585E+03 -0.23790713824E+03  0.20494124056E+04  0.22514191980E+04  0.25500000920E-02 0. -1.
       -2    1    3    3    0  502  0.90121994585E+03  0.23790713824E+03 -0.37983641094E+03  0.10065152241E+04  0.25500000920E-02 0.  1.
</event>
<event>
 5   0  0.4047916E-07  0.3969773E+04  0.7818609E-02  0.8010672E-01
       -2   -1    0    0    0  501  0.00000000000E+00  0.00000000000E+00  0.23870390062E+04  0.23870390062E+04  0.25500000920E-02 0.  1.
        2   -1    0    0  501    0  0.00000000000E+00  0.00000000000E+00 -0.16504863025E+04  0.16504863025E+04  0.25500000920E-02 0. -1.
    10030    2    1    2    0    0  0.00000000000E+00  0.00000000000E+00  0.73655270372E+03  0.40375253086E+04  0.39697733855E+04 0.  0.
        5    1    3    3  502    0  0.60025367618E+03  0.12821350613E+04 -0.10467186779E+04  0.17606296805E+04  0.46999998093E+01 0. -1.
       -5    1    3    3    0  502 -0.60025367618E+03 -0.12821350613E+04  0.17832713816E+04  0.22768956282E+04  0.46999998093E+01 0.  1.
</event>
<event>
 5   0  0.1372952E-07  0.4001982E+04  0.7818609E-02  0.8004147E-01
        1   -1    0    0  501    0  0.00000000000E+00  0.00000000000E+00  0.21391914534E+04  0.21391914534E+04  0.50400001928E-02 0. -1.
       -1   -1    0    0    0  501  0.00000000000E+00  0.00000000000E+00 -0.18717187239E+04  0.18717187239E+04  0.50400001928E-02 0.  1.
    10030    2    1    2    0    0  0.00000000000E+00  0.00000000000E+00  0.26747272943E+03  0.40109101773E+04  0.40019818577E+04 0.  0.
        1    1    3    3  502    0 -0.12611888281E+04  0.25339705095E+03 -0.14023791533E+04  0.19030172398E+04  0.50400001928E-02 0.  1.
       -1    1    3    3    0  502  0.12611888281E+04 -0.25339705095E+03  0.16698518827E+04  0.21078929375E+04  0.50400001928E-02 0. -1.
</event>
<event>
 5   0  0.4077370E-07  0.3933407E+04  0.7818609E-02  0.8018117E-01
       -2   -1    0    0    0  501  0.00000000000E+00  0.00000000000E+00  0.14639714194E+04  0.14639714194E+04  0.25500000920E-02 0.  1.
        2   -1    0    0  501    0  0.00000000000E+00  0.00000000000E+00 -0.26420749689E+04  0.26420749689E+04  0.25500000920E-02 0. -1.
    10030    2    1    2    0    0  0.00000000000E+00  0.00000000000E+00 -0.11781035496E+04  0.41060463883E+04  0.39334067892E+04 0.  0.
        3    1    3    3  502    0 -0.42869784763E+03 -0.19172927499E+04 -0.68316937465E+03  0.20800273407E+04  0.10100000352E+00 0. -1.
       -3    1    3    3    0  502  0.42869784763E+03  0.19172927499E+04 -0.49493417492E+03  0.20260190476E+04  0.10100000352E+00 0.  1.
</event>
<event>
 5   0  0.1421304E-07  0.3924200E+04  0.7818609E-02  0.8020015E-01
        1   -1    0    0  501    0  0.00000000000E+00  0.00000000000E+00  0.16931269445E+04  0.16931269445E+04  0.50400001928E-02 0. -1.
       -1   -1    0    0    0  501  0.00000000000E+00  0.00000000000E+00 -0.22738023204E+04  0.22738023204E+04  0.50400001928E-02 0.  1.
    10030    2    1    2    0    0  0.00000000000E+00  0.00000000000E+00 -0.58067537589E+03  0.39669292649E+04  0.39241997784E+04 0.  0.
        2    1    3    3  502    0  0.12953397352E+04 -0.55175375607E+03  0.10911070172E+04  0.17812500554E+04  0.25500000920E-02 0. -1.
       -2    1    3    3    0  502 -0.12953397352E+04  0.55175375607E+03 -0.16717823931E+04  0.21856792095E+04  0.25500000920E-02 0.  1.
</event>
<event>
 5   0  0.1351000E-07  0.3974344E+04  0.7818609E-02  0.8009742E-01
       -1   -1    0    0    0  501  0.00000000000E+00  0.00000000000E+00  0.23576131123E+04  0.23576131123E+04  0.50400001928E-02 0.  1.
        1   -1    0    0  501    0  0.00000000000E+00  0.00000000000E+00 -0.16749367161E+04  0.16749367161E+04  0.50400001928E-02 0. -1.
    10030    2    1    2    0    0  0.00000000000E+00  0.00000000000E+00  0.68267639616E+03  0.40325498284E+04  0.39743441039E+04 0.  0.
        4    1    3    3  502    0  0.15271687631E+04  0.12454836440E+04  0.60077254750E+03  0.20601949435E+04  0.12699999809E+01 0. -1.
       -4    1    3    3    0  502 -0.15271687631E+04 -0.12454836440E+04  0.81903848653E+02  0.19723548849E+04  0.12699999809E+01 0.  1.
</event>
<event>
 5   0  0.1351000E-07  0.3992273E+04  0.7818609E-02  0.8006107E-01
       -3   -1    0    0    0  501  0.00000000000E+00  0.00000000000E+00  0.18069944248E+04  0.18069944277E+04  0.10100000352E+00 0.  1.
        3   -1    0    0  501    0  0.00000000000E+00  0.00000000000E+00 -0.22050770011E+04  0.22050770034E+04  0.10100000352E+00 0. -1.
    10030    2    1    2    0    0  0.00000000000E+00  0.00000000000E+00 -0.39808257626E+03  0.40120714311E+04  0.39922734664E+04 0.  0.
        1    1    3    3  502    0 -0.35058034686E+03  0.19364179137E+04  0.13719365980E+03  0.19726740776E+04  0.50400001928E-02 0.  1.
       -1    1    3    3    0  502  0.35058034686E+03 -0.19364179137E+04 -0.53527623605E+03  0.20393973534E+04  0.50400001928E-02 0. -1.
</event>
<event>
 5   0  0.4079777E-07  0.4049852E+04  0.7818609E-02  0.7994565E-01
        2   -1    0    0  501    0  0.00000000000E+00  0.00000000000E+00  0.20897826817E+04  0.20897826817E+04  0.25500000920E-02 0. -1.
       -2   -1    0    0    0  501  0.00000000000E+00  0.00000000000E+00 -0.19620822289E+04  0.19620822289E+04  0.25500000920E-02 0.  1.
    10030    2    1    2    0    0  0.00000000000E+00  0.00000000000E+00  0.12770045284E+03  0.40518649106E+04  0.40498520773E+04 0.  0.
        4    1    3    3  502    0 -0.17781281544E+04 -0.17705473007E+03  0.10168128595E+04  0.20559664674E+04  0.12699999809E+01 0. -1.
       -4    1    3    3    0  502  0.17781281544E+04  0.17705473007E+03 -0.88911240664E+03  0.19958984432E+04  0.12699999809E+01 0.  1.
</event>
<event>
 5   0  0.1368865E-07  0.2865381E+04  0.7818609E-02  0.8283253E-01
        1   -1    0    0  501    0  0.00000000000E+00  0.00000000000E+00  0.15717252225E+04  0.15717252225E+04  0.50400001928E-02 0.  1.
       -1   -1    0    0    0  501  0.00000000000E+00  0.00000000000E+00 -0.13059552207E+04  0.13059552207E+04  0.50400001928E-02 0. -1.
    10030    2    1    2    0    0  0.00000000000E+00  0.00000000000E+00  0.26577000182E+03  0.28776804432E+04  0.28653814824E+04 0.  0.
        5    1    3    3  502    0  0.37923563437E+03  0.13734674825E+04 -0.17249396701E+02  0.14249744641E+04  0.46999998093E+01 0. -1.
       -5    1    3    3    0  502 -0.37923563437E+03 -0.13734674825E+04  0.28301939852E+03  0.14527059791E+04  0.46999998093E+01 0.  1.
</event>
<event>
 5   0  0.4149487E-07  0.3939975E+04  0.7818609E-02  0.8016766E-01
       -2   -1    0    0    0  501  0.00000000000E+00  0.00000000000E+00  0.24034687205E+04  0.24034687205E+04  0.25500000920E-02 0. -1.
        2   -1    0    0  501    0  0.00000000000E+00  0.00000000000E+00 -0.16146873503E+04  0.16146873503E+04  0.25500000920E-02 0.  1.
    10030    2    1    2    0    0  0.00000000000E+00  0.00000000000E+00  0.78878137023E+03  0.40181560708E+04  0.39399748932E+04 0.  0.
        2    1    3    3  502    0 -0.59223271151E+03  0.15376968850E+04  0.14954430542E+04  0.22252193652E+04  0.25500000920E-02 0.  1.
       -2    1    3    3    0  502  0.59223271151E+03 -0.15376968850E+04 -0.70666168394E+03  0.17929367056E+04  0.25500000920E-02 0. -1.
</event>
<event>
 5   0  0.1421304E-07  0.3941341E+04  0.7818609E-02  0.8016486E-01
       -1   -1    0    0    0  501  0.00000000000E+00  0.00000000000E+00  0.29427420143E+04  0.29427420143E+04  0.50400001928E-02 0.  1.
        1   -1    0    0  501    0  0.00000000000E+00  0.00000000000E+00 -0.13197019263E+04  0.13197019263E+04  0.50400001928E-02 0. -1.
    10030    2    1    2    0    0  0.00000000000E+00  0.00000000000E+00  0.16230400880E+04  0.42624439407E+04  0.39413410433E+04 0.  0.
        2    1    3    3  502    0 -0.12170973990E+04  0.15397296414E+04  0.61973395567E+03  0.20581942627E+04  0.25500000920E-02 0. -1.
       -2    1    3    3    0  502  0.12170973990E+04 -0.15397296414E+04  0.10033061324E+04  0.22042496779E+04  0.25500000920E-02 0.  1.
</event>
<event>
 5   0  0.1372952E-07  0.4055419E+04  0.7818609E-02  0.7993459E-01
       -1   -1    0    0    0  501  0.00000000000E+00  0.00000000000E+00  0.32689825804E+04  0.32689825804E+04  0.50400001928E-02 0. -1.
        1   -1    0    0  501    0  0.00000000000E+00  0.00000000000E+00 -0.12577631325E+04  0.12577631325E+04  0.50400001928E-02 0.  1.
    10030    2    1    2    0    0  0.00000000000E+00  0.00000000000E+00  0.20112194479E+04  0.45267457130E+04  0.40554189774E+04 0.  0.
        1    1    3    3  502    0  0.18384995447E+04  0.43615496897E+03  0.18268438567E+04  0.26282447013E+04  0.50400001928E-02 0. -1.
       -1    1    3    3    0  502 -0.18384995447E+04 -0.43615496897E+03  0.18437559116E+03  0.18985010117E+04  0.50400001928E-02 0.  1.
</event>
<event>
 5   0  0.4149487E-07  0.3164944E+04  0.7818609E-02  0.8198137E-01
        2   -1    0    0  501    0  0.00000000000E+00  0.00000000000E+00  0.24479211619E+04  0.24479211619E+04  0.25500000920E-02 0. -1.
       -2   -1    0    0    0  501  0.00000000000E+00  0.00000000000E+00 -0.10229975972E+04  0.10229975972E+04  0.25500000920E-02 0.  1.
    10030    2    1    2    0    0  0.00000000000E+00  0.00000000000E+00  0.14249235647E+04  0.34709187591E+04  0.31649438963E+04 0.  0.
        2    1    3    3  502    0  0.15693990166E+04 -0.19407166139E+03  0.64720831362E+03  0.17086707360E+04  0.25500000920E-02 0.  1.
       -2    1    3    3    0  502 -0.15693990166E+04  0.19407166139E+03  0.77771525109E+03  0.17622480230E+04  0.25500000920E-02 0. -1.
</event>
<event>
 5   0  0.4079777E-07  0.3300625E+04  0.7818609E-02  0.8162736E-01
        2   -1    0    0  501    0  0.00000000000E+00  0.00000000000E+00  0.19808125100E+04  0.19808125100E+04  0.25500000920E-02 0.  1.
       -2   -1    0    0    0  501  0.00000000000E+00  0.00000000000E+00 -0.13749564387E+04  0.13749564387E+04  0.25500000920E-02 0. -1.
    10030    2    1    2    0    0  0.00000000000E+00  0.00000000000E+00  0.60585607136E+03  0.33557689487E+04  0.33006247375E+04 0.  0.
        4    1    3    3  502    0 -0.93182404098E+03 -0.10935937203E+04 -0.52260192306E+03  0.15288419314E+04  0.12699999809E+01 0.  1.
       -4    1    3    3    0  502  0.93182404098E+03  0.10935937203E+04  0.11284579944E+04  0.18269270173E+04  0.12699999809E+01 0. -1.
</event>
<event>
 5   0  0.1421304E-07  0.3210933E+04  0.7818609E-02  0.8185936E-01
       -1   -1    0    0    0  501  0.00000000000E+00  0.00000000000E+00  0.12616998679E+04  0.12616998679E+04  0.50400001928E-02 0. -1.
        1   -1    0    0  501    0  0.00000000000E+00  0.00000000000E+00 -0.20428972552E+04  0.20428972552E+04  0.50400001928E-02 0.  1.
    10030    2    1    2    0    0  0.00000000000E+00  0.00000000000E+00 -0.78119738729E+03  0.33045971232E+04  0.32109333205E+04 0.  0.
        2    1    3    3  502    0  0.67433386782E+03  0.14517267647E+04 -0.51784357023E+03  0.16823788895E+04  0.25500000920E-02 0. -1.
       -2    1    3    3    0  502 -0.67433386782E+03 -0.14517267647E+04 -0.26335381706E+03  0.16222182336E+04  0.25500000920E-02 0.  1.
</event>
<event>
 5   0  0.1372952E-07  0.3602695E+04  0.7818609E-02  0.8089875E-01
        1   -1    0    0  501    0  0.00000000000E+00  0.00000000000E+00  0.13099811103E+04  0.13099811104E+04  0.50400001928E-02 0. -1.
       -1   -1    0    0    0  501  0.00000000000E+00  0.00000000000E+00 -0.24770226413E+04  0.24770226413E+04  0.50400001928E-02 0.  1.
    10030    2    1    2    0    0  0.00000000000E+00  0.00000000000E+00 -0.11670415310E+04  0.37870037517E+04  0.36026950301E+04 0.  0.
        1    1    3    3  502    0 -0.61583120794E+03 -0.12023737107E+04  0.66903612116E+03  0.15075012266E+04  0.50400001928E-02 0. -1.
       -1    1    3    3    0  502  0.61583120794E+03  0.12023737107E+04 -0.18360776521E+04  0.22795025250E+04  0.50400001928E-02 0.  1.
</event>
<event>
 5   0  0.1351000E-07  0.4121858E+04  0.7818609E-02  0.7980405E-01
       -1   -1    0    0    0  501  0.00000000000E+00  0.00000000000E+00  0.18218772599E+04  0.18218772599E+04  0.50400001928E-02 0. -1.
        1   -1    0    0  501    0  0.00000000000E+00  0.00000000000E+00 -0.23313467311E+04  0.23313467311E+04  0.50400001928E-02 0.  1.
    10030    2    1    2    0    0  0.00000000000E+00  0.00000000000E+00 -0.50946947120E+03  0.41532239909E+04  0.41218576367E+04 0.  0.
        4    1    3    3  502    0 -0.96037816279E+03  0.94390186288E+03  0.13173137958E+04  0.18837712684E+04  0.12699999809E+01 0. -1.
       -4    1    3    3    0  502  0.96037816279E+03 -0.94390186288E+03 -0.18267832670E+04  0.22694527225E+04  0.12699999809E+01 0.  1.
</event>
<event>
 5   0  0.4079777E-07  0.3959373E+04  0.7818609E-02  0.8012793E-01
        2   -1    0    0  501    0  0.00000000000E+00  0.00000000000E+00  0.22907203722E+04  0.22907203722E+04  0.25500000920E-02 0. -1.
       -2   -1    0    0    0  501  0.00000000000E+00  0.00000000000E+00 -0.17108847402E+04  0.17108847402E+04  0.25500000920E-02 0.  1.
    10030    2    1    2    0    0  0.00000000000E+00  0.00000000000E+00  0.57983563202E+03  0.40016051124E+04  0.39593729447E+04 0.  0.
        4    1    3    3  502    0 -0.64667555839E+02  0.16203893882E+04 -0.85767294097E+03  0.18345157805E+04  0.12699999809E+01 0.  1.
       -4    1    3    3    0  502  0.64667555839E+02 -0.16203893882E+04  0.14375085730E+04  0.21670893319E+04  0.12699999809E+01 0. -1.
</event>
<event>
 5   0  0.1351000E-07  0.3278478E+04  0.7818609E-02  0.8168393E-01
       -1   -1    0    0    0  501  0.00000000000E+00  0.00000000000E+00  0.11652081548E+04  0.11652081548E+04  0.50400001928E-02 0.  1.
        1   -1    0    0  501    0  0.00000000000E+00  0.00000000000E+00 -0.23061153532E+04  0.23061153532E+04  0.50400001928E-02 0. -1.
    10030    2    1    2    0    0  0.00000000000E+00  0.00000000000E+00 -0.11409071984E+04  0.34713235080E+04  0.32784779490E+04 0.  0.
        3    1    3    3  502    0  0.74026552705E+03  0.30888286010E+03 -0.20841252784E+04  0.22331546874E+04  0.10100000352E+00 0. -1.
       -3    1    3    3    0  502 -0.74026552705E+03 -0.30888286010E+03  0.94321807999E+03  0.12381688206E+04  0.10100000352E+00 0.  1.
</event>
<event>
 5   0  0.1372952E-07  0.4074839E+04  0.7818609E-02  0.7989617E-01
       -1   -1    0    0    0  501  0.00000000000E+00  0.00000000000E+00  0.29124138731E+04  0.29124138731E+04  0.50400001928E-02 0.  1.
        1   -1    0    0  501    0  0.00000000000E+00  0.00000000000E+00 -0.14253051599E+04  0.14253051599E+04  0.50400001928E-02 0. -1.
    10030    2    1    2    0    0  0.00000000000E+00  0.00000000000E+00  0.14871087132E+04  0.43377190331E+04  0.40748391484E+04 0.  0.
        1    1    3    3  502    0 -0.12244935221E+04 -0.14892700611E+04  0.42454119596E+02  0.19284999489E+04  0.50400001928E-02 0. -1.
       -1    1    3    3    0  502  0.12244935221E+04  0.14892700611E+04  0.14446545936E+04  0.24092190842E+04  0.50400001928E-02 0.  1.
</event>
<event>
 5   0  0.1372952E-07  0.2444149E+04  0.7818609E-02  0.8423157E-01
        1   -1    0    0  501    0  0.00000000000E+00  0.00000000000E+00  0.18941249453E+04  0.18941249453E+04  0.50400001928E-02 0. -1.
       -1   -1    0    0    0  501  0.00000000000E+00  0.00000000000E+00 -0.78847268225E+03  0.78847268226E+03  0.50400001928E-02 0.  1.
    10030    2    1    2    0    0  0.00000000000E+00  0.00000000000E+00  0.11056522631E+04  0.26825976276E+04  0.24441487485E+04 0.  0.
        1    1    3    3  502    0  0.61122262714E+03  0.10340624503E+04  0.79968550363E+03  0.14430437123E+04  0.50400001928E-02 0. -1.
       -1    1    3    3    0  502 -0.61122262714E+03 -0.10340624503E+04  0.30596675945E+03  0.12395539153E+04  0.50400001928E-02 0.  1.
</event>
<event>
 5   0  0.4079777E-07  0.2584125E+04  0.7818609E-02  0.8373614E-01
        2   -1    0    0  501    0  0.00000000000E+00  0.00000000000E+00  0.15850430925E+04  0.15850430925E+04  0.25500000920E-02 0. -1.
       -2   -1    0    0    0  501  0.00000000000E+00  0.00000000000E+00 -0.10532365353E+04  0.10532365353E+04  0.25500000920E-02 0.  1.
    10030    2    1    2    0    0  0.00000000000E+00  0.00000000000E+00  0.53180655724E+03  0.26382796277E+04  0.25841248383E+04 0.  0.
        4    1    3    3  502    0  0.84803274856E+03  0.85395666327E+02 -0.72551441990E+03  0.11192965420E+04  0.12699999809E+01 0.  1.
       -4    1    3    3    0  502 -0.84803274856E+03 -0.85395666327E+02  0.12573209771E+04  0.15189830858E+04  0.12699999809E+01 0. -1.
</event>
<event>
 5   0  0.4077370E-07  0.2588521E+04  0.7818609E-02  0.8372111E-01
        2   -1    0    0  501    0  0.00000000000E+00  0.00000000000E+00  0.11864670504E+04  0.11864670504E+04  0.25500000920E-02 0. -1.
       -2   -1    0    0    0  501  0.00000000000E+00  0.00000000000E+00 -0.14118477557E+04  0.14118477557E+04  0.25500000920E-02 0.  1.
    10030    2    1    2    0    0  0.00000000000E+00  0.00000000000E+00 -0.22538070532E+03  0.25983148061E+04  0.25885214640E+04 0.  0.
        3    1    3    3  502    0  0.10199298705E+04 -0.13982815185E+03  0.67468923844E+03  0.12308592249E+04  0.10100000352E+00 0. -1.
       -3    1    3    3    0  502 -0.10199298705E+04  0.13982815185E+03 -0.90006994376E+03  0.13674555812E+04  0.10100000352E+00 0.  1.
</event>
<event>
 5   0  0.4047916E-07  0.3096171E+04  0.7818609E-02  0.8216789E-01
       -2   -1    0    0    0  501  0.00000000000E+00  0.00000000000E+00  0.17475857677E+04  0.17475857677E+04  0.25500000920E-02 0. -1.
        2   -1    0    0  501    0  0.00000000000E+00  0.00000000000E+00 -0.13713598280E+04  0.13713598280E+04  0.25500000920E-02 0.  1.
    10030    2    1    2    0    0  0.00000000000E+00  0.00000000000E+00  0.37622593969E+03  0.31189455958E+04  0.30961711309E+04 0.  0.
        5    1    3    3  502    0  0.13898338858E+04  0.56834718089E+03  0.56756672837E+03  0.16052447880E+04  0.46999998093E+01 0. -1.
       -5    1    3    3    0  502 -0.13898338858E+04 -0.56834718089E+03 -0.19134078868E+03  0.15137008078E+04  0.46999998093E+01 0.  1.
</event>
<event>
 5   0  0.4077370E-07  0.4266703E+04  0.7818609E-02  0.7952804E-01
       -2   -1    0    0    0  501  0.00000000000E+00  0.00000000000E+00  0.17801494212E+04  0.17801494212E+04  0.25500000920E-02 0.  1.
        2   -1    0    0  501    0  0.00000000000E+00  0.00000000000E+00 -0.25566329927E+04  0.25566329927E+04  0.25500000920E-02 0. -1.
    10030    2    1    2    0    0  0.00000000000E+00  0.00000000000E+00 -0.77648357148E+03  0.43367824139E+04  0.42667030561E+04 0.  0.
        3    1    3    3  502    0 -0.15756591591E+03  0.51718132093E+03  0.17093606606E+04  0.17928238661E+04  0.10100000352E+00 0.  1.
       -3    1    3    3    0  502  0.15756591591E+03 -0.51718132093E+03 -0.24858442321E+04  0.25439585478E+04  0.10100000352E+00 0. -1.
</event>
<event>
 5   0  0.1368865E-07  0.3804147E+04  0.7818609E-02  0.8045266E-01
       -1   -1    0    0    0  501  0.00000000000E+00  0.00000000000E+00  0.15051460647E+04  0.15051460647E+04  0.50400001928E-02 0.  1.
        1   -1    0    0  501    0  0.00000000000E+00  0.00000000000E+00 -0.24036760945E+04  0.24036760945E+04  0.50400001928E-02 0. -1.
    10030    2    1    2    0    0  0.00000000000E+00  0.00000000000E+00 -0.89853002977E+03  0.39088221592E+04  0.38041470080E+04 0.  0.
        5    1    3    3  502    0  0.45462711189E+03 -0.10678792273E+04  0.10991200997E+04  0.15984801965E+04  0.46999998093E+01 0.  1.
       -5    1    3    3    0  502 -0.45462711189E+03  0.10678792273E+04 -0.19976501295E+04  0.23103419628E+04  0.46999998093E+01 0. -1.
</event>
<event>
 5   0  0.4047916E-07  0.4161882E+04  0.7818609E-02  0.7972663E-01
       -2   -1    0    0    0  501  0.00000000000E+00  0.00000000000E+00  0.22157429007E+04  0.22157429007E+04  0.25500000920E-02 0. -1.
        2   -1    0    0  501    0  0.00000000000E+00  0.00000000000E+00 -0.19543403415E+04  0.19543403415E+04  0.25500000920E-02 0.  1.
    10030    2    1    2    0    0  0.00000000000E+00  0.00000000000E+00  0.26140255916E+03  0.41700832423E+04  0.41618821403E+04 0.  0.
        5    1    3    3  502    0 -0.27435697032E+03  0.17037248884E+02 -0.19360634100E+04  0.19554860349E+04  0.46999998093E+01 0.  1.
       -5    1    3    3    0  502  0.27435697032E+03 -0.17037248884E+02  0.21974659692E+04  0.22145972074E+04  0.46999998093E+01 0. -1.
</event>
<event>
 5   0  0.4149487E-07  0.4018303E+04  0.7818609E-02  0.8000864E-01
        2   -1    0    0  501    0  0.00000000000E+00  0.00000000000E+00  0.21948543677E+04  0.21948543677E+04  0.25500000920E-02 0.  1.
       -2   -1    0    0    0  501  0.00000000000E+00  0.00000000000E+00 -0.18391604027E+04  0.18391604027E+04  0.25500000920E-02 0. -1.
    10030    2    1    2    0    0  0.00000000000E+00  0.00000000000E+00  0.35569396498E+03  0.40340147703E+04  0.40183027475E+04 0.  0.
        2    1    3    3  502    0 -0.10542921539E+04  0.11084965357E+04 -0.11297021913E+04  0.19017159506E+04  0.25500000920E-02 0. -1.
       -2    1    3    3    0  502  0.10542921539E+04 -0.11084965357E+04  0.14853961563E+04  0.21322988198E+04  0.25500000920E-02 0.  1.
</event>
<event>
 5   0  0.4047916E-07  0.3825800E+04  0.7818609E-02  0.8040641E-01
        2   -1    0    0  501    0  0.00000000000E+00  0.00000000000E+00  0.25120298020E+04  0.25120298020E+04  0.25500000920E-02 0.  1.
       -2   -1    0    0    0  501  0.00000000000E+00  0.00000000000E+00 -0.14566650884E+04  0.14566650884E+04  0.25500000920E-02 0. -1.
    10030    2    1    2    0    0  0.00000000000E+00  0.00000000000E+00  0.10553647136E+04  0.39686948904E+04  0.38257998450E+04 0.  0.
        5    1    3    3  502    0  0.45292491805E+03 -0.40620007536E+03 -0.13536218377E+04  0.14840665929E+04  0.46999998093E+01 0. -1.
       -5    1    3    3    0  502 -0.45292491805E+03  0.40620007536E+03  0.24089865513E+04  0.24846282975E+04  0.46999998093E+01 0.  1.
</event>
<event>
 5   0  0.1372952E-07  0.3765373E+04  0.7818609E-02  0.8053627E-01
        1   -1    0    0  501    0  0.00000000000E+00  0.00000000000E+00  0.20351623282E+04  0.20351623282E+04  0.50400001928E-02 0. -1.
       -1   -1    0    0    0  501  0.00000000000E+00  0.00000000000E+00 -0.17416338835E+04  0.17416338835E+04  0.50400001928E-02 0.  1.
    10030    2    1    2    0    0  0.00000000000E+00  0.00000000000E+00  0.29352844473E+03  0.37767962117E+04  0.37653725814E+04 0.  0.
        1    1    3    3  502    0 -0.10100216480E+04 -0.15002381645E+04 -0.37793792039E+03  0.18476188328E+04  0.50400001928E-02 0.  1.
       -1    1    3    3    0  502  0.10100216480E+04  0.15002381645E+04  0.67146636513E+03  0.19291773789E+04  0.50400001928E-02 0. -1.
</event>
<event>
 5   0  0.4149487E-07  0.4026425E+04  0.7818609E-02  0.7999237E-01
       -2   -1    0    0    0  501  0.00000000000E+00  0.00000000000E+00  0.17233646054E+04  0.17233646054E+04  0.25500000920E-02 0. -1.
        2   -1    0    0  501    0  0.00000000000E+00  0.00000000000E+00 -0.23518093921E+04  0.23518093921E+04  0.25500000920E-02 0.  1.
    10030    2    1    2    0    0  0.00000000000E+00  0.00000000000E+00 -0.62844478676E+03  0.40751739975E+04  0.40264252458E+04 0.  0.
        2    1    3    3  502    0  0.19019875981E+04  0.64534800992E+03 -0.17473438319E+03  0.20160761349E+04  0.25500000920E-02 0. -1.
       -2    1    3    3    0  502 -0.19019875981E+04 -0.64534800992E+03 -0.45371040358E+03  0.20590978625E+04  0.25500000920E-02 0.  1.
</event>
<event>
 5   0  0.1368865E-07  0.4090675E+04  0.7818609E-02  0.7986500E-01
        1   -1    0    0  501    0  0.00000000000E+00  0.00000000000E+00  0.14726395581E+04  0.14726395581E+04  0.50400001928E-02 0. -1.
       -1   -1    0    0    0  501  0.00000000000E+00  0.00000000000E+00 -0.28407537882E+04  0.28407537882E+04  0.50400001928E-02 0.  1.
    10030    2    1    2    0    0  0.00000000000E+00  0.00000000000E+00 -0.13681142301E+04  0.43133933463E+04  0.40906754471E+04 0.  0.
        5    1    3    3  502    0  0.18641354901E+04  0.61712290003E+03 -0.80584066456E+02  0.19652881929E+04  0.46999998093E+01 0. -1.
       -5    1    3    3    0  502 -0.18641354901E+04 -0.61712290003E+03 -0.12875301637E+04  0.23481051535E+04  0.46999998093E+01 0.  1.
</event>
<event>
 5   0  0.1351000E-07  0.3895736E+04  0.7818609E-02  0.8025917E-01
       -1   -1    0    0    0  501  0.00000000000E+00  0.00000000000E+00  0.26599318878E+04  0.26599318878E+04  0.50400001928E-02 0. -1.
        1   -1    0    0  501    0  0.00000000000E+00  0.00000000000E+00 -0.14264239850E+04  0.14264239850E+04  0.50400001928E-02 0.  1.
    10030    2    1    2    0    0  0.00000000000E+00  0.00000000000E+00  0.12335079028E+04  0.40863558728E+04  0.38957364609E+04 0.  0.
        3    1    3    3  502    0 -0.91432762849E+03 -0.40854656928E+03 -0.11357085412E+04  0.15141793858E+04  0.10100000352E+00 0.  1.
       -3    1    3    3    0  502  0.91432762849E+03  0.40854656928E+03  0.23692164441E+04  0.25721764870E+04  0.10100000352E+00 0. -1.
</event>
<event>
 5   0  0.4079777E-07  0.2575482E+04  0.7818609E-02  0.8376577E-01
       -2   -1    0    0    0  501  0.00000000000E+00  0.00000000000E+00  0.81036731127E+03  0.81036731127E+03  0.25500000920E-02 0. -1.
        2   -1    0    0  501    0  0.00000000000E+00  0.00000000000E+00 -0.20463280459E+04  0.20463280459E+04  0.25500000920E-02 0.  1.
    10030    2    1    2    0    0  0.00000000000E+00  0.00000000000E+00 -0.12359607346E+04  0.28566953572E+04  0.25754823677E+04 0.  0.
        4    1    3    3  502    0 -0.12737010436E+04 -0.16494383068E+03 -0.72176466076E+03  0.14732503705E+04  0.12699999809E+01 0. -1.
       -4    1    3    3    0  502  0.12737010436E+04  0.16494383068E+03 -0.51419607386E+03  0.13834449866E+04  0.12699999809E+01 0.  1.
</event>
<event>
 5   0  0.1368865E-07  0.4071307E+04  0.7818609E-02  0.7990314E-01
        1   -1    0    0  501    0  0.00000000000E+00  0.00000000000E+00  0.26965756088E+04  0.26965756088E+04  0.50400001928E-02 0. -1.
       -1   -1    0    0    0  501  0.00000000000E+00  0.00000000000E+00 -0.15367214230E+04  0.15367214230E+04  0.50400001928E-02 0.  1.
    10030    2    1    2    0    0  0.00000000000E+00  0.00000000000E+00  0.11598541858E+04  0.42332970319E+04  0.40713071645E+04 0.  0.
        5    1    3    3  502    0  0.62779820734E+03  0.81949178827E+03  0.24042045589E+04  0.26164707205E+04  0.46999998093E+01 0. -1.
       -5    1    3    3    0  502 -0.62779820734E+03 -0.81949178827E+03 -0.12443503731E+04  0.16168263114E+04  0.46999998093E+01 0.  1.
</event>
<event>
 5   0  0.1351000E-07  0.4052152E+04  0.7818609E-02  0.7994108E-01
        1   -1    0    0  501    0  0.00000000000E+00  0.00000000000E+00  0.23588256444E+04  0.23588256444E+04  0.50400001928E-02 0.  1.
       -1   -1    0    0    0  501  0.00000000000E+00  0.00000000000E+00 -0.17402657666E+04  0.17402657666E+04  0.50400001928E-02 0. -1.
    10030    2    1    2    0    0  0.00000000000E+00  0.00000000000E+00  0.61855987775E+03  0.40990914110E+04  0.40521517831E+04 0.  0.
        4    1    3    3  502    0 -0.10560288352E+04 -0.10772889633E+04  0.16774386225E+04  0.22560031819E+04  0.12699999809E+01 0.  1.
       -4    1    3    3    0  502  0.10560288352E+04  0.10772889633E+04 -0.10588787448E+04  0.18430882291E+04  0.12699999809E+01 0. -1.
</event>
<event>
 5   0  0.1351000E-07  0.3228982E+04  0.7818609E-02  0.8181205E-01
        1   -1    0    0  501    0  0.00000000000E+00  0.00000000000E+00  0.13346272745E+04  0.13346272746E+04  0.50400001928E-02 0. -1.
       -1   -1    0    0    0  501  0.00000000000E+00  0.00000000000E+00 -0.19530403105E+04  0.19530403105E+04  0.50400001928E-02 0.  1.
    10030    2    1    2    0    0  0.00000000000E+00  0.00000000000E+00 -0.61841303597E+03  0.32876675851E+04  0.32289818003E+04 0.  0.
        3    1    3    3  502    0  0.80464198648E+03 -0.16245995751E+03  0.11062902939E+04  0.13775776525E+04  0.10100000352E+00 0. -1.
       -3    1    3    3    0  502 -0.80464198648E+03  0.16245995751E+03 -0.17247033299E+04  0.19100899325E+04  0.10100000352E+00 0.  1.
</event>
<event>
 5   0  0.4077370E-07  0.4047880E+04  0.7818609E-02  0.7994957E-01
        2   -1    0    0  501    0  0.00000000000E+00  0.00000000000E+00  0.28050774595E+04  0.28050774595E+04  0.25500000920E-02 0. -1.
       -2   -1    0    0    0  501  0.00000000000E+00  0.00000000000E+00 -0.14603281228E+04  0.14603281228E+04  0.25500000920E-02 0.  1.
    10030    2    1    2    0    0  0.00000000000E+00  0.00000000000E+00  0.13447493367E+04  0.42654055822E+04  0.40478801863E+04 0.  0.
        3    1    3    3  502    0 -0.11306650693E+04 -0.54756090038E+03 -0.99975432908E+03  0.16055326740E+04  0.10100000352E+00 0.  1.
       -3    1    3    3    0  502  0.11306650693E+04  0.54756090038E+03  0.23445036658E+04  0.26598729082E+04  0.10100000352E+00 0. -1.
</event>
<event>
 5   0  0.1351000E-07  0.4073749E+04  0.7818609E-02  0.7989832E-01
       -1   -1    0    0    0  501  0.00000000000E+00  0.00000000000E+00  0.18666928880E+04  0.18666928880E+04  0.50400001928E-02 0. -1.
        1   -1    0    0  501    0  0.00000000000E+00  0.00000000000E+00 -0.22225709550E+04  0.22225709550E+04  0.50400001928E-02 0.  1.
    10030    2    1    2    0    0  0.00000000000E+00  0.00000000000E+00 -0.35587806703E+03  0.40892638429E+04  0.40737488360E+04 0.  0.
        4    1    3    3  502    0 -0.76272473736E+03 -0.12147388910E+04  0.12737764130E+04  0.19182928769E+04  0.12699999809E+01 0. -1.
       -4    1    3    3    0  502  0.76272473736E+03  0.12147388910E+04 -0.16296544801E+04  0.21709709661E+04  0.12699999809E+01 0.  1.
</event>
<event>
 5   0  0.1351000E-07  0.2775211E+04  0.7818609E-02  0.8311006E-01
        3   -1    0    0  501    0  0.00000000000E+00  0.00000000000E+00  0.90075583402E+03  0.90075583969E+03  0.10100000352E+00 0.  1.
       -3   -1    0    0    0  501  0.00000000000E+00  0.00000000000E+00 -0.21375923096E+04  0.21375923120E+04  0.10100000352E+00 0. -1.
    10030    2    1    2    0    0  0.00000000000E+00  0.00000000000E+00 -0.12368364756E+04  0.30383481517E+04  0.27752108070E+04 0.  0.
        2    1    3    3  502    0  0.79501449873E+03 -0.95680170263E+03 -0.12914691763E+04  0.17931564864E+04  0.25500000920E-02 0. -1.
       -2    1    3    3    0  502 -0.79501449873E+03  0.95680170263E+03  0.54632700699E+02  0.12451916653E+04  0.25500000920E-02 0.  1.
</event>
<event>
 5   0  0.4047916E-07  0.4162599E+04  0.7818609E-02  0.7972525E-01
       -2   -1    0    0    0  501  0.00000000000E+00  0.00000000000E+00  0.20847404159E+04  0.20847404159E+04  0.25500000920E-02 0.  1.
        2   -1    0    0  501    0  0.00000000000E+00  0.00000000000E+00 -0.20778644710E+04  0.20778644710E+04  0.25500000920E-02 0. -1.
    10030    2    1    2    0    0  0.00000000000E+00  0.00000000000E+00  0.68759449887E+01  0.41626048869E+04  0.41625992079E+04 0.  0.
        5    1    3    3  502    0 -0.48542169215E+03  0.76799157767E+03 -0.18690871238E+04  0.20782093371E+04  0.46999998093E+01 0. -1.
       -5    1    3    3    0  502  0.48542169215E+03 -0.76799157767E+03  0.18759630688E+04  0.20843955498E+04  0.46999998093E+01 0.  1.
</event>
<event>
 5   0  0.1368865E-07  0.3809916E+04  0.7818609E-02  0.8044030E-01
       -1   -1    0    0    0  501  0.00000000000E+00  0.00000000000E+00  0.17183260361E+04  0.17183260361E+04  0.50400001928E-02 0.  1.
        1   -1    0    0  501    0  0.00000000000E+00  0.00000000000E+00 -0.21118605533E+04  0.21118605533E+04  0.50400001928E-02 0. -1.
    10030    2    1    2    0    0  0.00000000000E+00  0.00000000000E+00 -0.39353451725E+03  0.38301865894E+04  0.38099159956E+04 0.  0.
        5    1    3    3  502    0  0.28225178497E+03 -0.95575269965E+03 -0.18288930934E+04  0.20827869142E+04  0.46999998093E+01 0. -1.
       -5    1    3    3    0  502 -0.28225178497E+03  0.95575269965E+03  0.14353585761E+04  0.17473996752E+04  0.46999998093E+01 0.  1.
</event>
<event>
 5   0  0.4079777E-07  0.4031538E+04  0.7818609E-02  0.7998214E-01
       -2   -1    0    0    0  501  0.00000000000E+00  0.00000000000E+00  0.22672160412E+04  0.22672160412E+04  0.25500000920E-02 0. -1.
        2   -1    0    0  501    0  0.00000000000E+00  0.00000000000E+00 -0.17922085661E+04  0.17922085661E+04  0.25500000920E-02 0.  1.
    10030    2    1    2    0    0  0.00000000000E+00  0.00000000000E+00  0.47500747512E+03  0.40594246074E+04  0.40315376770E+04 0.  0.
        4    1    3    3  502    0 -0.16138511880E+04 -0.26458376894E+03 -0.94912250945E+03  0.18908610151E+04  0.12699999809E+01 0.  1.
       -4    1    3    3    0  502  0.16138511880E+04  0.26458376894E+03  0.14241299846E+04  0.21685635922E+04  0.12699999809E+01 0. -1.
</event>
<event>
 5   0  0.1351000E-07  0.4017095E+04  0.7818609E-02  0.8001107E-01
        1   -1    0    0  501    0  0.00000000000E+00  0.00000000000E+00  0.15414047569E+04  0.15414047570E+04  0.50400001928E-02 0. -1.
       -1   -1    0    0    0  501  0.00000000000E+00  0.00000000000E+00 -0.26172644976E+04  0.26172644976E+04  0.50400001928E-02 0.  1.
    10030    2    1    2    0    0  0.00000000000E+00  0.00000000000E+00 -0.10758597407E+04  0.41586692546E+04  0.40170954417E+04 0.  0.
        4    1    3    3  502    0 -0.18157753998E+04  0.82292759332E+03 -0.79153733548E+03  0.21449436106E+04  0.12699999809E+01 0.  1.
       -4    1    3    3    0  502  0.18157753998E+04 -0.82292759332E+03 -0.28432240522E+03  0.20137256440E+04  0.12699999809E+01 0. -1.
</event>
<event>
 5   0  0.1421304E-07  0.3995747E+04  0.7818609E-02  0.8005405E-01
        1   -1    0    0  501    0  0.00000000000E+00  0.00000000000E+00  0.25602041781E+04  0.25602041781E+04  0.50400001928E-02 0. -1.
       -1   -1    0    0    0  501  0.00000000000E+00  0.00000000000E+00 -0.15590546544E+04  0.15590546544E+04  0.50400001928E-02 0.  1.
    10030    2    1    2    0    0  0.00000000000E+00  0.00000000000E+00  0.10011495237E+04  0.41192588325E+04  0.39957468589E+04 0.  0.
        2    1    3    3  502    0  0.21068371752E+03 -0.27737282949E+03  0.25286609727E+04  0.25525378803E+04  0.25500000920E-02 0. -1.
       -2    1    3    3    0  502 -0.21068371752E+03  0.27737282949E+03 -0.15275114490E+04  0.15667209523E+04  0.25500000920E-02 0.  1.
</event>
<event>
 5   0  0.1351000E-07  0.4000350E+04  0.7818609E-02  0.8004476E-01
       -1   -1    0    0    0  501  0.00000000000E+00  0.00000000000E+00  0.14152435034E+04  0.14152435034E+04  0.50400001928E-02 0.  1.
        1   -1    0    0  501    0  0.00000000000E+00  0.00000000000E+00 -0.28268629635E+04  0.28268629635E+04  0.50400001928E-02 0. -1.
    10030    2    1    2    0    0  0.00000000000E+00  0.00000000000E+00 -0.14116194601E+04  0.42421064669E+04  0.40003497068E+04 0.  0.
        3    1    3    3  502    0  0.81064923769E+03  0.15283468699E+04  0.35870065146E+03  0.17668227157E+04  0.10100000352E+00 0.  1.
       -3    1    3    3    0  502 -0.81064923769E+03 -0.15283468699E+04 -0.17703201115E+04  0.24752837512E+04  0.10100000352E+00 0. -1.
</event>
<event>
 5   0  0.4077370E-07  0.4021733E+04  0.7818609E-02  0.8000177E-01
        2   -1    0    0  501    0  0.00000000000E+00  0.00000000000E+00  0.27790488938E+04  0.27790488938E+04  0.25500000920E-02 0. -1.
       -2   -1    0    0    0  501  0.00000000000E+00  0.00000000000E+00 -0.14550244412E+04  0.14550244412E+04  0.25500000920E-02 0.  1.
    10030    2    1    2    0    0  0.00000000000E+00  0.00000000000E+00  0.13240244526E+04  0.42340733351E+04  0.40217329916E+04 0.  0.
        3    1    3    3  502    0  0.18413138915E+04  0.15262019287E+03  0.14975482626E+04  0.23783146511E+04  0.10100000352E+00 0. -1.
       -3    1    3    3    0  502 -0.18413138915E+04 -0.15262019287E+03 -0.17352381003E+03  0.18557586840E+04  0.10100000352E+00 0.  1.
</event>
<event>
 5   0  0.1421304E-07  0.2577031E+04  0.7818609E-02  0.8376045E-01
       -1   -1    0    0    0  501  0.00000000000E+00  0.00000000000E+00  0.11554577533E+04  0.11554577533E+04  0.50400001928E-02 0. -1.
        1   -1    0    0  501    0  0.00000000000E+00  0.00000000000E+00 -0.14368956186E+04  0.14368956186E+04  0.50400001928E-02 0.  1.
    10030    2    1    2    0    0  0.00000000000E+00  0.00000000000E+00 -0.28143786526E+03  0.25923533719E+04  0.25770309918E+04 0.  0.
        2    1    3    3  502    0  0.86950441948E+03 -0.89722807911E+02 -0.10930175826E+04  0.13995626294E+04  0.25500000920E-02 0.  1.
       -2    1    3    3    0  502 -0.86950441948E+03  0.89722807911E+02  0.81157971733E+03  0.11927907425E+04  0.25500000920E-02 0. -1.
</event>
<event>
 5   0  0.1421304E-07  0.4048829E+04  0.7818609E-02  0.7994768E-01
       -1   -1    0    0    0  501  0.00000000000E+00  0.00000000000E+00  0.17922724471E+04  0.17922724471E+04  0.50400001928E-02 0. -1.
        1   -1    0    0  501    0  0.00000000000E+00  0.00000000000E+00 -0.22866250214E+04  0.22866250214E+04  0.50400001928E-02 0.  1.
    10030    2    1    2    0    0  0.00000000000E+00  0.00000000000E+00 -0.49435257427E+03  0.40788974686E+04  0.40488294718E+04 0.  0.
        2    1    3    3  502    0  0.15696154879E+04 -0.11909446332E+04 -0.71561667138E+03  0.20962225835E+04  0.25500000920E-02 0. -1.
       -2    1    3    3    0  502 -0.15696154879E+04  0.11909446332E+04  0.22126409711E+03  0.19826748851E+04  0.25500000920E-02 0.  1.
</event>
<event>
 5   0  0.4047916E-07  0.4087344E+04  0.7818609E-02  0.7987155E-01
        2   -1    0    0  501    0  0.00000000000E+00  0.00000000000E+00  0.20055856497E+04  0.20055856497E+04  0.25500000920E-02 0. -1.
       -2   -1    0    0    0  501  0.00000000000E+00  0.00000000000E+00 -0.20824814499E+04  0.20824814499E+04  0.25500000920E-02 0.  1.
    10030    2    1    2    0    0  0.00000000000E+00  0.00000000000E+00 -0.76895800154E+02  0.40880670996E+04  0.40873438376E+04 0.  0.
        5    1    3    3  502    0  0.31993451257E+02 -0.77270304840E+03  0.18535737137E+04  0.20084449666E+04  0.46999998093E+01 0. -1.
       -5    1    3    3    0  502 -0.31993451257E+02  0.77270304840E+03 -0.19304695139E+04  0.20796221329E+04  0.46999998093E+01 0.  1.
</event>
<event>
 5   0  0.4079777E-07  0.3900002E+04  0.7818609E-02  0.8025029E-01
        2   -1    0    0  501    0  0.00000000000E+00  0.00000000000E+00  0.12068082464E+04  0.12068082464E+04  0.25500000920E-02 0. -1.
       -2   -1    0    0    0  501  0.00000000000E+00  0.00000000000E+00 -0.31508773526E+04  0.31508773526E+04  0.25500000920E-02 0.  1.
    10030    2    1    2    0    0  0.00000000000E+00  0.00000000000E+00 -0.19440691061E+04  0.43576855990E+04  0.39000024475E+04 0.  0.
        4    1    3    3  502    0  0.19258265061E+04  0.19950220619E+03 -0.12314300439E+04  0.22945654115E+04  0.12699999809E+01 0.  1.
       -4    1    3    3    0  502 -0.19258265061E+04 -0.19950220619E+03 -0.71263906224E+03  0.20631201875E+04  0.12699999809E+01 0. -1.
</event>
<event>
 5   0  0.1421304E-07  0.4176160E+04  0.7818609E-02  0.7969923E-01
       -1   -1    0    0    0  501  0.00000000000E+00  0.00000000000E+00  0.27386714007E+04  0.27386714007E+04  0.50400001928E-02 0. -1.
        1   -1    0    0  501    0  0.00000000000E+00  0.00000000000E+00 -0.15920415511E+04  0.15920415511E+04  0.50400001928E-02 0.  1.
    10030    2    1    2    0    0  0.00000000000E+00  0.00000000000E+00  0.11466298496E+04  0.43307129518E+04  0.41761602769E+04 0.  0.
        2    1    3    3  502    0  0.80129289421E+03  0.97890613088E+03 -0.11494150174E+04  0.17092344478E+04  0.25500000920E-02 0.  1.
       -2    1    3    3    0  502 -0.80129289421E+03 -0.97890613088E+03  0.22960448670E+04  0.26214785039E+04  0.25500000920E-02 0. -1.
</event>
<event>
 5   0  0.1351000E-07  0.4038533E+04  0.7818609E-02  0.7996818E-01
       -1   -1    0    0    0  501  0.00000000000E+00  0.00000000000E+00  0.18388002939E+04  0.18388002939E+04  0.50400001928E-02 0. -1.
        1   -1    0    0  501    0  0.00000000000E+00  0.00000000000E+00 -0.22174441502E+04  0.22174441502E+04  0.50400001928E-02 0.  1.
    10030    2    1    2    0    0  0.00000000000E+00  0.00000000000E+00 -0.37864385629E+03  0.40562444441E+04  0.40385328797E+04 0.  0.
        3    1    3    3  502    0  0.11297056792E+04 -0.61904537950E+03  0.13724847776E+04  0.18823300929E+04  0.10100000352E+00 0. -1.
       -3    1    3    3    0  502 -0.11297056792E+04  0.61904537950E+03 -0.17511286339E+04  0.21739143512E+04  0.10100000352E+00 0.  1.
</event>
<event>
 5   0  0.1351000E-07  0.4008974E+04  0.7818609E-02  0.8002739E-01
       -1   -1    0    0    0  501  0.00000000000E+00  0.00000000000E+00  0.20598760459E+04  0.20598760459E+04  0.50400001928E-02 0.  1.
        1   -1    0    0  501    0  0.00000000000E+00  0.00000000000E+00 -0.19505874717E+04  0.19505874718E+04  0.50400001928E-02 0. -1.
    10030    2    1    2    0    0  0.00000000000E+00  0.00000000000E+00  0.10928857413E+03  0.40104635176E+04  0.40089741373E+04 0.  0.
        3    1    3    3  502    0 -0.44462847376E+03  0.65514068433E+03 -0.17875241932E+04  0.19550310861E+04  0.10100000352E+00 0. -1.
       -3    1    3    3    0  502  0.44462847376E+03 -0.65514068433E+03  0.18968127674E+04  0.20554324315E+04  0.10100000352E+00 0.  1.
</event>
<event>
 5   0  0.4149487E-07  0.2580150E+04  0.7818609E-02  0.8374975E-01
        2   -1    0    0  501    0  0.00000000000E+00  0.00000000000E+00  0.14561184107E+04  0.14561184107E+04  0.25500000920E-02 0.  1.
       -2   -1    0    0    0  501  0.00000000000E+00  0.00000000000E+00 -0.11429658429E+04  0.11429658429E+04  0.25500000920E-02 0. -1.
    10030    2    1    2    0    0  0.00000000000E+00  0.00000000000E+00  0.31315256780E+03  0.25990842537E+04  0.25801500784E+04 0.  0.
        2    1    3    3  502    0  0.27420698966E+03 -0.17460174429E+03 -0.11010316962E+04  0.11480183093E+04  0.25500000920E-02 0. -1.
       -2    1    3    3    0  502 -0.27420698966E+03  0.17460174429E+03  0.14141842640E+04  0.14510659444E+04  0.25500000920E-02 0.  1.
</event>
<event>
 5   0  0.1372952E-07  0.4000311E+04  0.7818609E-02  0.8004484E-01
        1   -1    0    0  501    0  0.00000000000E+00  0.00000000000E+00  0.26003708372E+04  0.26003708372E+04  0.50400001928E-02 0.  1.
       -1   -1    0    0    0  501  0.00000000000E+00  0.00000000000E+00 -0.15384816171E+04  0.15384816171E+04  0.50400001928E-02 0. -1.
    10030    2    1    2    0    0  0.00000000000E+00  0.00000000000E+00  0.10618892201E+04  0.41388524544E+04  0.40003113533E+04 0.  0.
        1    1    3    3  502    0  0.12994244748E+04 -0.15900902983E+03 -0.10336562149E+04  0.16680027002E+04  0.50400001928E-02 0. -1.
       -1    1    3    3    0  502 -0.12994244748E+04  0.15900902983E+03  0.20955454350E+04  0.24708497541E+04  0.50400001928E-02 0.  1.
</event>
<event>
 5   0  0.4047916E-07  0.3997245E+04  0.7818609E-02  0.8005103E-01
       -2   -1    0    0    0  501  0.00000000000E+00  0.00000000000E+00  0.17732349285E+04  0.17732349285E+04  0.25500000920E-02 0. -1.
        2   -1    0    0  501    0  0.00000000000E+00  0.00000000000E+00 -0.22526576673E+04  0.22526576673E+04  0.25500000920E-02 0.  1.
    10030    2    1    2    0    0  0.00000000000E+00  0.00000000000E+00 -0.47942273874E+03  0.40258925958E+04  0.39972446798E+04 0.  0.
        5    1    3    3  502    0 -0.75207024916E+03  0.16337254278E+03 -0.20974276523E+04  0.22341721272E+04  0.46999998093E+01 0.  1.
       -5    1    3    3    0  502  0.75207024916E+03 -0.16337254278E+03  0.16180049135E+04  0.17917204686E+04  0.46999998093E+01 0. -1.
</event>
<event>
 5   0  0.1351000E-07  0.3970860E+04  0.7818609E-02  0.8010451E-01
        1   -1    0    0  501    0  0.00000000000E+00  0.00000000000E+00  0.28546263584E+04  0.28546263584E+04  0.50400001928E-02 0. -1.
       -1   -1    0    0    0  501  0.00000000000E+00  0.00000000000E+00 -0.13808922261E+04  0.13808922262E+04  0.50400001928E-02 0.  1.
    10030    2    1    2    0    0  0.00000000000E+00  0.00000000000E+00  0.14737341322E+04  0.42355185845E+04  0.39708595275E+04 0.  0.
        3    1    3    3  502    0  0.89367434146E+03 -0.27869288232E+03 -0.11307178733E+04  0.14679395323E+04  0.10100000352E+00 0.  1.
       -3    1    3    3    0  502 -0.89367434146E+03  0.27869288232E+03  0.26044520055E+04  0.27675790522E+04  0.10100000352E+00 0. -1.
</event>
<event>
 5   0  0.4149487E-07  0.4011224E+04  0.7818609E-02  0.8002286E-01
       -2   -1    0    0    0  501  0.00000000000E+00  0.00000000000E+00  0.15532579979E+04  0.15532579979E+04  0.25500000920E-02 0.  1.
        2   -1    0    0  501    0  0.00000000000E+00  0.00000000000E+00 -0.25897043400E+04  0.25897043400E+04  0.25500000920E-02 0. -1.
    10030    2    1    2    0    0  0.00000000000E+00  0.00000000000E+00 -0.10364463421E+04  0.41429623379E+04  0.40112237426E+04 0.  0.
        2    1    3    3  502    0 -0.13541364475E+04  0.93266471161E+03  0.66794146155E+03  0.17747379465E+04  0.25500000920E-02 0.  1.
       -2    1    3    3    0  502  0.13541364475E+04 -0.93266471161E+03 -0.17043878037E+04  0.23682243914E+04  0.25500000920E-02 0. -1.
</event>
<event>
 5   0  0.4077370E-07  0.2751484E+04  0.7818609E-02  0.8318491E-01
        2   -1    0    0  501    0  0.00000000000E+00  0.00000000000E+00  0.15650750754E+04  0.15650750754E+04  0.25500000920E-02 0.  1.
       -2   -1    0    0    0  501  0.00000000000E+00  0.00000000000E+00 -0.12093128814E+04  0.12093128814E+04  0.25500000920E-02 0. -1.
    10030    2    1    2    0    0  0.00000000000E+00  0.00000000000E+00  0.35576219397E+03  0.27743879567E+04  0.27514835627E+04 0.  0.
        3    1    3    3  502    0  0.53205215448E+03  0.95519263073E+03  0.10198126217E+04  0.14951555941E+04  0.10100000352E+00 0.  1.
       -3    1    3    3    0  502 -0.53205215448E+03 -0.95519263073E+03 -0.66405042775E+03  0.12792323627E+04  0.10100000352E+00 0. -1.
</event>
<event>
 5   0  0.1372952E-07  0.2731584E+04  0.7818609E-02  0.8324829E-01
       -1   -1    0    0    0  501  0.00000000000E+00  0.00000000000E+00  0.12183991895E+04  0.12183991895E+04  0.50400001928E-02 0. -1.
        1   -1    0    0  501    0  0.00000000000E+00  0.00000000000E+00 -0.15310148871E+04  0.15310148871E+04  0.50400001928E-02 0.  1.
    10030    2    1    2    0    0  0.00000000000E+00  0.00000000000E+00 -0.31261569764E+03  0.27494140766E+04  0.27315836415E+04 0.  0.
        1    1    3    3  502    0 -0.89005412124E+02 -0.43002429054E+03  0.11454028732E+04  0.12266990649E+04  0.50400001928E-02 0. -1.
       -1    1    3    3    0  502  0.89005412124E+02  0.43002429054E+03 -0.14580185709E+04  0.15227150117E+04  0.50400001928E-02 0.  1.
</event>
<event>
 5   0  0.1421304E-07  0.3328227E+04  0.7818609E-02  0.8155750E-01
       -1   -1    0    0    0  501  0.00000000000E+00  0.00000000000E+00  0.12288976233E+04  0.12288976234E+04  0.50400001928E-02 0.  1.
        1   -1    0    0  501    0  0.00000000000E+00  0.00000000000E+00 -0.22534621495E+04  0.22534621495E+04  0.50400001928E-02 0. -1.
    10030    2    1    2    0    0  0.00000000000E+00  0.00000000000E+00 -0.10245645262E+04  0.34823597729E+04  0.33282273239E+04 0.  0.
        2    1    3    3  502    0 -0.94510936343E+03 -0.13454174970E+04 -0.78086907096E+03  0.18202023119E+04  0.25500000920E-02 0. -1.
       -2    1    3    3    0  502  0.94510936343E+03  0.13454174970E+04 -0.24369545521E+03  0.16621574610E+04  0.25500000920E-02 0.  1.
</event>
<event>
 5   0  0.4077370E-07  0.4080086E+04  0.7818609E-02  0.7988583E-01
        2   -1    0    0  501    0  0.00000000000E+00  0.00000000000E+00  0.24409973674E+04  0.24409973674E+04  0.25500000920E-02 0. -1.
       -2   -1    0    0    0  501  0.00000000000E+00  0.00000000000E+00 -0.17049490509E+04  0.17049490509E+04  0.25500000920E-02 0.  1.
    10030    2    1    2    0    0  0.00000000000E+00  0.00000000000E+00  0.73604831648E+03  0.41459464183E+04  0.40800863446E+04 0.  0.
        3    1    3    3  502    0 -0.77942555706E+03 -0.91275125272E+03 -0.13081963034E+04  0.17753863317E+04  0.10100000352E+00 0.  1.
       -3    1    3    3    0  502  0.77942555706E+03  0.91275125272E+03  0.20442446199E+04  0.23705600866E+04  0.10100000352E+00 0. -1.
</event>
<event>
 5   0  0.1368865E-07  0.3996264E+04  0.7818609E-02  0.8005301E-01
       -1   -1    0    0    0  501  0.00000000000E+00  0.00000000000E+00  0.20367516585E+04  0.20367516585E+04  0.50400001928E-02 0.  1.
        1   -1    0    0  501    0  0.00000000000E+00  0.00000000000E+00 -0.19602448986E+04  0.19602448986E+04  0.50400001928E-02 0. -1.
    10030    2    1    2    0    0  0.00000000000E+00  0.00000000000E+00  0.76506759927E+02  0.39969965571E+04  0.39962642797E+04 0.  0.
        5    1    3    3  502    0  0.13319561077E+03  0.93789659066E+02 -0.19535864665E+04  0.19603723481E+04  0.46999998093E+01 0. -1.
       -5    1    3    3    0  502 -0.13319561077E+03 -0.93789659066E+02  0.20300932264E+04  0.20366242091E+04  0.46999998093E+01 0.  1.
</event>
<event>
 5   0  0.4301754E-07  0.3992511E+04  0.7818609E-02  0.8006059E-01
       -2   -1    0    0    0  501  0.00000000000E+00  0.00000000000E+00  0.13786382433E+04  0.13786382433E+04  0.25500000920E-02 0. -1.
        2   -1    0    0  501    0  0.00000000000E+00  0.00000000000E+00 -0.28905602537E+04  0.28905602537E+04  0.25500000920E-02 0.  1.
    10030    2    1    2    0    0  0.00000000000E+00  0.00000000000E+00 -0.15119220104E+04  0.42691984970E+04  0.39925114453E+04 0.  0.
        1    1    3    3  502    0  0.88328858545E+03  0.11447984518E+04  0.71574701397E+03  0.16133988994E+04  0.50400001928E-02 0. -1.
       -1    1    3    3    0  502 -0.88328858545E+03 -0.11447984518E+04 -0.22276690244E+04  0.26557995976E+04  0.50400001928E-02 0.  1.
</event>
<event>
 5   0  0.1372952E-07  0.3979304E+04  0.7818609E-02  0.8008735E-01
       -1   -1    0    0    0  501  0.00000000000E+00  0.00000000000E+00  0.19405983804E+04  0.19405983804E+04  0.50400001928E-02 0. -1.
        1   -1    0    0  501    0  0.00000000000E+00  0.00000000000E+00 -0.20399453810E+04  0.20399453810E+04  0.50400001928E-02 0.  1.
    10030    2    1    2    0    0  0.00000000000E+00  0.00000000000E+00 -0.99347000593E+02  0.39805437614E+04  0.39793038097E+04 0.  0.
        1    1    3    3  502    0  0.24478129803E+02 -0.15401986705E+04 -0.13093925438E+04  0.20217121351E+04  0.50400001928E-02 0.  1.
       -1    1    3    3    0  502 -0.24478129803E+02  0.15401986705E+04  0.12100455432E+04  0.19588316263E+04  0.50400001928E-02 0. -1.
</event>
<event>
 5   0  0.4149487E-07  0.2927717E+04  0.7818609E-02  0.8264678E-01
        2   -1    0    0  501    0  0.00000000000E+00  0.00000000000E+00  0.10990620177E+04  0.10990620177E+04  0.25500000920E-02 0. -1.
       -2   -1    0    0    0  501  0.00000000000E+00  0.00000000000E+00 -0.19497369036E+04  0.19497369036E+04  0.25500000920E-02 0.  1.
    10030    2    1    2    0    0  0.00000000000E+00  0.00000000000E+00 -0.85067488595E+03  0.30487989213E+04  0.29277170460E+04 0.  0.
        2    1    3    3  502    0  0.14414368469E+04 -0.14654102324E+03 -0.20772789275E+03  0.14636821146E+04  0.25500000920E-02 0. -1.
       -2    1    3    3    0  502 -0.14414368469E+04  0.14654102324E+03 -0.64294699320E+03  0.15851168068E+04  0.25500000920E-02 0.  1.
</event>
<event>
 5   0  0.1351000E-07  0.2512578E+04  0.7818609E-02  0.8398518E-01
        1   -1    0    0  501    0  0.00000000000E+00  0.00000000000E+00  0.15029147570E+04  0.15029147570E+04  0.50400001928E-02 0.  1.
       -1   -1    0    0    0  501  0.00000000000E+00  0.00000000000E+00 -0.10501338422E+04  0.10501338422E+04  0.50400001928E-02 0. -1.
    10030    2    1    2    0    0  0.00000000000E+00  0.00000000000E+00  0.45278091480E+03  0.25530485993E+04  0.25125776791E+04 0.  0.
        3    1    3    3  502    0 -0.12608116947E+03  0.12474857682E+04  0.14674141449E+03  0.12623986122E+04  0.10100000352E+00 0.  1.
       -3    1    3    3    0  502  0.12608116947E+03 -0.12474857682E+04  0.30603950031E+03  0.12906499871E+04  0.10100000352E+00 0. -1.
</event>
<event>
 5   0  0.4079777E-07  0.4063792E+04  0.7818609E-02  0.7991800E-01
        2   -1    0    0  501    0  0.00000000000E+00  0.00000000000E+00  0.21733519754E+04  0.21733519754E+04  0.25500000920E-02 0.  1.
       -2   -1    0    0    0  501  0.00000000000E+00  0.00000000000E+00 -0.18996471014E+04  0.18996471014E+04  0.25500000920E-02 0. -1.
    10030    2    1    2    0    0  0.00000000000E+00  0.00000000000E+00  0.27370487404E+03  0.40729990768E+04  0.40637922094E+04 0.  0.
        4    1    3    3  502    0 -0.13695984330E+04  0.14114076763E+04 -0.37492037916E+03  0.20021084886E+04  0.12699999809E+01 0. -1.
       -4    1    3    3    0  502  0.13695984330E+04 -0.14114076763E+04  0.64862525320E+03  0.20708905882E+04  0.12699999809E+01 0.  1.
</event>
<event>
 5   0  0.4301754E-07  0.4071804E+04  0.7818609E-02  0.7990216E-01
        2   -1    0    0  501    0  0.00000000000E+00  0.00000000000E+00  0.13845112273E+04  0.13845112273E+04  0.25500000920E-02 0. -1.
       -2   -1    0    0    0  501  0.00000000000E+00  0.00000000000E+00 -0.29937621354E+04  0.29937621354E+04  0.25500000920E-02 0.  1.
    10030    2    1    2    0    0  0.00000000000E+00  0.00000000000E+00 -0.16092509081E+04  0.43782733626E+04  0.40718041643E+04 0.  0.
        1    1    3    3  502    0 -0.84728468440E+03 -0.53542898111E+03  0.11008487146E+04  0.14887724550E+04  0.50400001928E-02 0. -1.
       -1    1    3    3    0  502  0.84728468440E+03  0.53542898111E+03 -0.27100996227E+04  0.28895009076E+04  0.50400001928E-02 0.  1.
</event>
<event>
 5   0  0.1351000E-07  0.3949805E+04  0.7818609E-02  0.8014750E-01
        1   -1    0    0  501    0  0.00000000000E+00  0.00000000000E+00  0.15270144468E+04  0.15270144468E+04  0.50400001928E-02 0. -1.
       -1   -1    0    0    0  501  0.00000000000E+00  0.00000000000E+00 -0.25541603128E+04  0.25541603128E+04  0.50400001928E-02 0.  1.
    10030    2    1    2    0    0  0.00000000000E+00  0.00000000000E+00 -0.10271458660E+04  0.40811747596E+04  0.39498049051E+04 0.  0.
        3    1    3    3  502    0  0.87899430019E+03 -0.10878261385E+02  0.13137173208E+04  0.15806968481E+04  0.10100000352E+00 0. -1.
       -3    1    3    3    0  502 -0.87899430019E+03  0.10878261385E+02 -0.23408631868E+04  0.25004779115E+04  0.10100000352E+00 0.  1.
</event>
<event>
 5   0  0.1368865E-07  0.2985095E+04  0.7818609E-02  0.8248000E-01
       -1   -1    0    0    0  501  0.00000000000E+00  0.00000000000E+00  0.11256805033E+04  0.11256805033E+04  0.50400001928E-02 0.  1.
        1   -1    0    0  501    0  0.00000000000E+00  0.00000000000E+00 -0.19789792663E+04  0.19789792663E+04  0.50400001928E-02 0. -1.
    10030    2    1    2    0    0  0.00000000000E+00  0.00000000000E+00 -0.85329876294E+03  0.31046597696E+04  0.29850952256E+04 0.  0.
        5    1    3    3  502    0 -0.99264720132E+03  0.11121388549E+04 -0.50360625201E+03  0.15734810599E+04  0.46999998093E+01 0. -1.
       -5    1    3    3    0  502  0.99264720132E+03 -0.11121388549E+04 -0.34969251092E+03  0.15311787097E+04  0.46999998093E+01 0.  1.
</event>
<event>
 5   0  0.1351000E-07  0.3876153E+04  0.7818609E-02  0.8030007E-01
       -1   -1    0    0    0  501  0.00000000000E+00  0.00000000000E+00  0.15273072812E+04  0.15273072812E+04  0.50400001928E-02 0.  1.
        1   -1    0    0  501    0  0.00000000000E+00  0.00000000000E+00 -0.24593225519E+04  0.24593225519E+04  0.50400001928E-02 0. -1.
    10030    2    1    2    0    0  0.00000000000E+00  0.00000000000E+00 -0.93201527071E+03  0.39866298331E+04  0.38761533718E+04 0.  0.
        3    1    3    3  502    0  0.12619745149E+04  0.54681278251E+03 -0.18704141348E+04  0.23216444477E+04  0.10100000352E+00 0. -1.
       -3    1    3    3    0  502 -0.12619745149E+04 -0.54681278251E+03  0.93839886411E+03  0.16649853855E+04  0.10100000352E+00 0.  1.
</event>
<event>
 5   0  0.1368865E-07  0.2853711E+04  0.7818609E-02  0.8286784E-01
       -1   -1    0    0    0  501  0.00000000000E+00  0.00000000000E+00  0.13022162201E+04  0.13022162201E+04  0.50400001928E-02 0. -1.
        1   -1    0    0  501    0  0.00000000000E+00  0.00000000000E+00 -0.15634246416E+04  0.15634246416E+04  0.50400001928E-02 0.  1.
    10030    2    1    2    0    0  0.00000000000E+00  0.00000000000E+00 -0.26120842152E+03  0.28656408617E+04  0.28537112168E+04 0.  0.
        5    1    3    3  502    0 -0.65118705396E+03  0.12313054280E+04 -0.44131197196E+03  0.14611420133E+04  0.46999998093E+01 0. -1.
       -5    1    3    3    0  502  0.65118705396E+03 -0.12313054280E+04  0.18010355045E+03  0.14044988484E+04  0.46999998093E+01 0.  1.
</event>
<event>
 5   0  0.4149487E-07  0.4005209E+04  0.7818609E-02  0.8003497E-01
        2   -1    0    0  501    0  0.00000000000E+00  0.00000000000E+00  0.22517062083E+04  0.22517062083E+04  0.25500000920E-02 0. -1.
       -2   -1    0    0    0  501  0.00000000000E+00  0.00000000000E+00 -0.17810604411E+04  0.17810604411E+04  0.25500000920E-02 0.  1.
    10030    2    1    2    0    0  0.00000000000E+00  0.00000000000E+00  0.47064576722E+03  0.40327666493E+04  0.40052090345E+04 0.  0.
        2    1    3    3  502    0 -0.11747812955E+04 -0.70379223119E+03 -0.12358911345E+04  0.18446846596E+04  0.25500000920E-02 0.  1.
       -2    1    3    3    0  502  0.11747812955E+04  0.70379223119E+03  0.17065369017E+04  0.21880819898E+04  0.25500000920E-02 0. -1.
</event>
<event>
 5   0  0.1351000E-07  0.3091789E+04  0.7818609E-02  0.8217995E-01
        1   -1    0    0  501    0  0.00000000000E+00  0.00000000000E+00  0.32730863934E+04  0.32730863934E+04  0.50400001928E-02 0.  1.
       -1   -1    0    0    0  501  0.00000000000E+00  0.00000000000E+00 -0.73013321790E+03  0.73013321792E+03  0.50400001928E-02 0. -1.
    10030    2    1    2    0    0  0.00000000000E+00  0.00000000000E+00  0.25429531755E+04  0.40032196113E+04  0.30917885445E+04 0.  0.
        3    1    3    3  502    0  0.32594207772E+03 -0.10608749548E+04 -0.12191042871E+03  0.11164927543E+04  0.10100000352E+00 0. -1.
       -3    1    3    3    0  502 -0.32594207772E+03  0.10608749548E+04  0.26648636042E+04  0.28867268570E+04  0.10100000352E+00 0.  1.
</event>
<event>
 5   0  0.4301754E-07  0.3968110E+04  0.7818609E-02  0.8011011E-01
        2   -1    0    0  501    0  0.00000000000E+00  0.00000000000E+00  0.24617255979E+04  0.24617255979E+04  0.25500000920E-02 0.  1.
       -2   -1    0    0    0  501  0.00000000000E+00  0.00000000000E+00 -0.15990711333E+04  0.15990711333E+04  0.25500000920E-02 0. -1.
    10030    2    1    2    0    0  0.00000000000E+00  0.00000000000E+00  0.86265446464E+03  0.40607967312E+04  0.39681100498E+04 0.  0.
        1    1    3    3  502    0 -0.17446892284E+04  0.55876908323E+02  0.13964419523E+04  0.22354222999E+04  0.50400001928E-02 0.  1.
       -1    1    3    3    0  502  0.17446892284E+04 -0.55876908323E+02 -0.53378748763E+03  0.18253744314E+04  0.50400001928E-02 0. -1.
</event>
<event>
 5   0  0.4079777E-07  0.4001061E+04  0.7818609E-02  0.8004332E-01
        2   -1    0    0  501    0  0.00000000000E+00  0.00000000000E+00  0.19435080273E+04  0.19435080273E+04  0.25500000920E-02 0.  1.
       -2   -1    0    0    0  501  0.00000000000E+00  0.00000000000E+00 -0.20592263003E+04  0.20592263003E+04  0.25500000920E-02 0. -1.
    10030    2    1    2    0    0  0.00000000000E+00  0.00000000000E+00 -0.11571827301E+03  0.40027343276E+04  0.40010612815E+04 0.  0.
        4    1    3    3  502    0  0.19303243065E+04  0.38676057877E+03  0.29779698464E+03  0.19910852143E+04  0.12699999809E+01 0. -1.
       -4    1    3    3    0  502 -0.19303243065E+04 -0.38676057877E+03 -0.41351525765E+03  0.20116491133E+04  0.12699999809E+01 0.  1.
</event>
<event>
 5   0  0.1351000E-07  0.3612637E+04  0.7818609E-02  0.8087603E-01
        1   -1    0    0  501    0  0.00000000000E+00  0.00000000000E+00  0.27090982325E+04  0.27090982325E+04  0.50400001928E-02 0. -1.
       -1   -1    0    0    0  501  0.00000000000E+00  0.00000000000E+00 -0.12043808214E+04  0.12043808214E+04  0.50400001928E-02 0.  1.
    10030    2    1    2    0    0  0.00000000000E+00  0.00000000000E+00  0.15047174111E+04  0.39134790539E+04  0.36126366850E+04 0.  0.
        3    1    3    3  502    0 -0.44727686272E+03 -0.92148987957E+03 -0.85935129825E+03  0.13370433254E+04  0.10100000352E+00 0.  1.
       -3    1    3    3    0  502  0.44727686272E+03  0.92148987957E+03  0.23640687093E+04  0.25764357284E+04  0.10100000352E+00 0. -1.
</event>
<event>
 5   0  0.4077370E-07  0.4005510E+04  0.7818609E-02  0.8003436E-01
        2   -1    0    0  501    0  0.00000000000E+00  0.00000000000E+00  0.11931984110E+04  0.11931984110E+04  0.25500000920E-02 0.  1.
       -2   -1    0    0    0  501  0.00000000000E+00  0.00000000000E+00 -0.33615758446E+04  0.33615758446E+04  0.25500000920E-02 0. -1.
    10030    2    1    2    0    0  0.00000000000E+00  0.00000000000E+00 -0.21683774335E+04  0.45547742556E+04  0.40055096836E+04 0.  0.
        3    1    3    3  502    0  0.19785788046E+04 -0.77722970905E+02 -0.14257284438E+04  0.24399828999E+04  0.10100000352E+00 0. -1.
       -3    1    3    3    0  502 -0.19785788046E+04  0.77722970905E+02 -0.74264898973E+03  0.21147913557E+04  0.10100000352E+00 0.  1.
</event>
<event>
 5   0  0.4301754E-07  0.3997815E+04  0.7818609E-02  0.8004987E-01
       -2   -1    0    0    0  501  0.00000000000E+00  0.00000000000E+00  0.28247278208E+04  0.28247278208E+04  0.25500000920E-02 0. -1.
        2   -1    0    0  501    0  0.00000000000E+00  0.00000000000E+00 -0.14145191940E+04  0.14145191940E+04  0.25500000920E-02 0.  1.
    10030    2    1    2    0    0  0.00000000000E+00  0.00000000000E+00  0.14102086268E+04  0.42392470148E+04  0.39978152636E+04 0.  0.
        1    1    3    3  502    0 -0.24182892779E+03 -0.68813973736E+02  0.28078932349E+04  0.28191277040E+04  0.50400001928E-02 0. -1.
       -1    1    3    3    0  502  0.24182892779E+03  0.68813973736E+02 -0.13976846080E+04  0.14201193108E+04  0.50400001928E-02 0.  1.
</event>
<event>
 5   0  0.1421304E-07  0.3945461E+04  0.7818609E-02  0.8015640E-01
        1   -1    0    0  501    0  0.00000000000E+00  0.00000000000E+00  0.26232700097E+04  0.26232700097E+04  0.50400001928E-02 0.  1.
       -1   -1    0    0    0  501  0.00000000000E+00  0.00000000000E+00 -0.14835171302E+04  0.14835171302E+04  0.50400001928E-02 0. -1.
    10030    2    1    2    0    0  0.00000000000E+00  0.00000000000E+00  0.11397528795E+04  0.41067871399E+04  0.39454611880E+04 0.  0.
        2    1    3    3  502    0 -0.19711208651E+04 -0.79274946305E+02  0.57820448949E+03  0.20557048460E+04  0.25500000920E-02 0.  1.
       -2    1    3    3    0  502  0.19711208651E+04  0.79274946305E+02  0.56154838998E+03  0.20510822939E+04  0.25500000920E-02 0. -1.
</event>
<event>
 5   0  0.1368865E-07  0.3335350E+04  0.7818609E-02  0.8153958E-01
        1   -1    0    0  501    0  0.00000000000E+00  0.00000000000E+00  0.19753004486E+04  0.19753004486E+04  0.50400001928E-02 0.  1.
       -1   -1    0    0    0  501  0.00000000000E+00  0.00000000000E+00 -0.14079580211E+04  0.14079580211E+04  0.50400001928E-02 0. -1.
    10030    2    1    2    0    0  0.00000000000E+00  0.00000000000E+00  0.56734242758E+03  0.33832584697E+04  0.33353501230E+04 0.  0.
        5    1    3    3  502    0 -0.86392048392E+02  0.31528658867E+03 -0.13751311771E+04  0.14134627916E+04  0.46999998093E+01 0. -1.
       -5    1    3    3    0  502  0.86392048392E+02 -0.31528658867E+03  0.19424736046E+04  0.19697956782E+04  0.46999998093E+01 0.  1.
</event>
<event>
 5   0  0.1372952E-07  0.2548823E+04  0.7818609E-02  0.8385796E-01
        1   -1    0    0  501    0  0.00000000000E+00  0.00000000000E+00  0.93102528938E+03  0.93102528939E+03  0.50400001928E-02 0.  1.
       -1   -1    0    0    0  501  0.00000000000E+00  0.00000000000E+00 -0.17444472854E+04  0.17444472854E+04  0.50400001928E-02 0. -1.
    10030    2    1    2    0    0  0.00000000000E+00  0.00000000000E+00 -0.81342199598E+03  0.26754725748E+04  0.25488228959E+04 0.  0.
        1    1    3    3  502    0 -0.28380039917E+03  0.68378373923E+03 -0.14955692647E+04  0.16687810804E+04  0.50400001928E-02 0. -1.
       -1    1    3    3    0  502  0.28380039917E+03 -0.68378373923E+03  0.68214726874E+03  0.10066914944E+04  0.50400001928E-02 0.  1.
</event>
<event>
 5   0  0.4047916E-07  0.4049553E+04  0.7818609E-02  0.7994624E-01
       -2   -1    0    0    0  501  0.00000000000E+00  0.00000000000E+00  0.28995251230E+04  0.28995251230E+04  0.25500000920E-02 0.  1.
        2   -1    0    0  501    0  0.00000000000E+00  0.00000000000E+00 -0.14139278507E+04  0.14139278507E+04  0.25500000920E-02 0. -1.
    10030    2    1    2    0    0  0.00000000000E+00  0.00000000000E+00  0.14855972723E+04  0.43134529738E+04  0.40495527286E+04 0.  0.
        5    1    3    3  502    0 -0.84086140213E+03  0.72056325307E+03  0.25483877181E+04  0.27785898134E+04  0.46999998093E+01 0.  1.
       -5    1    3    3    0  502  0.84086140213E+03 -0.72056325307E+03 -0.10627904458E+04  0.15348631604E+04  0.46999998093E+01 0. -1.
</event>
<event>
 5   0  0.4077370E-07  0.4012660E+04  0.7818609E-02  0.8001998E-01
       -2   -1    0    0    0  501  0.00000000000E+00  0.00000000000E+00  0.21952438426E+04  0.21952438426E+04  0.25500000920E-02 0. -1.
        2   -1    0    0  501    0  0.00000000000E+00  0.00000000000E+00 -0.18336732264E+04  0.18336732264E+04  0.25500000920E-02 0.  1.
    10030    2    1    2    0    0  0.00000000000E+00  0.00000000000E+00  0.36157061621E+03  0.40289170690E+04  0.40126598957E+04 0.  0.
        3    1    3    3  502    0  0.53206346284E+03  0.18833332324E+04  0.62453091494E+03  0.20542819833E+04  0.10100000352E+00 0. -1.
       -3    1    3    3    0  502 -0.53206346284E+03 -0.18833332324E+04 -0.26296029872E+03  0.19746350857E+04  0.10100000352E+00 0.  1.
</event>
<event>
 5   0  0.4079777E-07  0.3160888E+04  0.7818609E-02  0.8199224E-01
       -2   -1    0    0    0  501  0.00000000000E+00  0.00000000000E+00  0.10546352115E+04  0.10546352115E+04  0.25500000920E-02 0. -1.
        2   -1    0    0  501    0  0.00000000000E+00  0.00000000000E+00 -0.23684047579E+04  0.23684047579E+04  0.25500000920E-02 0.  1.
    10030    2    1    2    0    0  0.00000000000E+00  0.00000000000E+00 -0.13137695464E+04  0.34230399694E+04  0.31608878833E+04 0.  0.
        4    1    3    3  502    0  0.89360845564E+03  0.13027841845E+04 -0.60822806783E+03  0.16928454444E+04  0.12699999809E+01 0. -1.
       -4    1    3    3    0  502 -0.89360845564E+03 -0.13027841845E+04 -0.70554147854E+03  0.17301945249E+04  0.12699999809E+01 0.  1.
</event>
<event>
 5   0  0.4077370E-07  0.3913921E+04  0.7818609E-02  0.8022140E-01
       -2   -1    0    0    0  501  0.00000000000E+00  0.00000000000E+00  0.26799640667E+04  0.26799640668E+04  0.25500000920E-02 0. -1.
        2   -1    0    0  501    0  0.00000000000E+00  0.00000000000E+00 -0.14290096551E+04  0.14290096551E+04  0.25500000920E-02 0.  1.
    10030    2    1    2    0    0  0.00000000000E+00  0.00000000000E+00  0.12509544116E+04  0.41089737219E+04  0.39139210655E+04 0.  0.
        3    1    3    3  502    0  0.12661098812E+03  0.78552522967E+03 -0.12515320718E+04  0.14830417276E+04  0.10100000352E+00 0.  1.
       -3    1    3    3    0  502 -0.12661098812E+03 -0.78552522967E+03  0.25024864834E+04  0.26259319943E+04  0.10100000352E+00 0. -1.
</event>
<event>
 5   0  0.1368865E-07  0.3964839E+04  0.7818609E-02  0.8011677E-01
       -1   -1    0    0    0  501  0.00000000000E+00  0.00000000000E+00  0.18755468922E+04  0.18755468922E+04  0.50400001928E-02 0. -1.
        1   -1    0    0  501    0  0.00000000000E+00  0.00000000000E+00 -0.20953817675E+04  0.20953817675E+04  0.50400001928E-02 0.  1.
    10030    2    1    2    0    0  0.00000000000E+00  0.00000000000E+00 -0.21983487523E+03  0.39709286597E+04  0.39648388426E+04 0.  0.
        5    1    3    3  502    0  0.31399492778E+03 -0.15073558060E+04  0.11406999655E+04  0.19162288073E+04  0.46999998093E+01 0. -1.
       -5    1    3    3    0  502 -0.31399492778E+03  0.15073558060E+04 -0.13605348408E+04  0.20546998524E+04  0.46999998093E+01 0.  1.
</event>
<event>
 5   0  0.1351000E-07  0.2545802E+04  0.7818609E-02  0.8386848E-01
        1   -1    0    0  501    0  0.00000000000E+00  0.00000000000E+00  0.15852650257E+04  0.15852650257E+04  0.50400001928E-02 0. -1.
       -1   -1    0    0    0  501  0.00000000000E+00  0.00000000000E+00 -0.10220860286E+04  0.10220860286E+04  0.50400001928E-02 0.  1.
    10030    2    1    2    0    0  0.00000000000E+00  0.00000000000E+00  0.56317899712E+03  0.26073510543E+04  0.25458022188E+04 0.  0.
        4    1    3    3  502    0  0.58468439517E+03 -0.11159002951E+04  0.46816487951E+03  0.13439751775E+04  0.12699999809E+01 0. -1.
       -4    1    3    3    0  502 -0.58468439517E+03  0.11159002951E+04  0.95014117606E+02  0.12633758767E+04  0.12699999809E+01 0.  1.
</event>
<event>
 5   0  0.1368865E-07  0.3772944E+04  0.7818609E-02  0.8051986E-01
       -1   -1    0    0    0  501  0.00000000000E+00  0.00000000000E+00  0.18367068167E+04  0.18367068168E+04  0.50400001928E-02 0. -1.
        1   -1    0    0  501    0  0.00000000000E+00  0.00000000000E+00 -0.19375853708E+04  0.19375853708E+04  0.50400001928E-02 0.  1.
    10030    2    1    2    0    0  0.00000000000E+00  0.00000000000E+00 -0.10087855402E+03  0.37742921875E+04  0.37729438154E+04 0.  0.
        5    1    3    3  502    0 -0.12530554935E+04 -0.84048216702E+03 -0.11831848133E+04  0.19174218981E+04  0.46999998093E+01 0.  1.
       -5    1    3    3    0  502  0.12530554935E+04  0.84048216702E+03  0.10823062593E+04  0.18568702894E+04  0.46999998093E+01 0. -1.
</event>
<event>
 5   0  0.1351000E-07  0.4015664E+04  0.7818609E-02  0.8001394E-01
        1   -1    0    0  501    0  0.00000000000E+00  0.00000000000E+00  0.20747094968E+04  0.20747094968E+04  0.50400001928E-02 0.  1.
       -1   -1    0    0    0  501  0.00000000000E+00  0.00000000000E+00 -0.19431105370E+04  0.19431105370E+04  0.50400001928E-02 0. -1.
    10030    2    1    2    0    0  0.00000000000E+00  0.00000000000E+00  0.13159895984E+03  0.40178200338E+04  0.40156642710E+04 0.  0.
        4    1    3    3  502    0 -0.16343596452E+04  0.41229600968E+02  0.12319967120E+04  0.20471074328E+04  0.12699999809E+01 0.  1.
       -4    1    3    3    0  502  0.16343596452E+04 -0.41229600968E+02 -0.11003977522E+04  0.19707126010E+04  0.12699999809E+01 0. -1.
</event>
<event>
 5   0  0.4077370E-07  0.4262274E+04  0.7818609E-02  0.7953631E-01
       -2   -1    0    0    0  501  0.00000000000E+00  0.00000000000E+00  0.25364501401E+04  0.25364501401E+04  0.25500000920E-02 0. -1.
        2   -1    0    0  501    0  0.00000000000E+00  0.00000000000E+00 -0.17905914023E+04  0.17905914023E+04  0.25500000920E-02 0.  1.
    10030    2    1    2    0    0  0.00000000000E+00  0.00000000000E+00  0.74585873773E+03  0.43270415424E+04  0.42622744225E+04 0.  0.
        3    1    3    3  502    0  0.20852620281E+04 -0.18032676661E+03 -0.34302376548E+02  0.20933256153E+04  0.10100000352E+00 0.  1.
       -3    1    3    3    0  502 -0.20852620281E+04  0.18032676661E+03  0.78016111428E+03  0.22337159271E+04  0.10100000352E+00 0. -1.
</event>
<event>
 5   0  0.1351000E-07  0.4012629E+04  0.7818609E-02  0.8002004E-01
        1   -1    0    0  501    0  0.00000000000E+00  0.00000000000E+00  0.23853814436E+04  0.23853814436E+04  0.50400001928E-02 0. -1.
       -1   -1    0    0    0  501  0.00000000000E+00  0.00000000000E+00 -0.16874861628E+04  0.16874861628E+04  0.50400001928E-02 0.  1.
    10030    2    1    2    0    0  0.00000000000E+00  0.00000000000E+00  0.69789528082E+03  0.40728676064E+04  0.40126291526E+04 0.  0.
        3    1    3    3  502    0  0.19839806187E+04  0.24535411386E+03  0.52156070371E+03  0.20660114507E+04  0.10100000352E+00 0. -1.
       -3    1    3    3    0  502 -0.19839806187E+04 -0.24535411386E+03  0.17633457712E+03  0.20068561557E+04  0.10100000352E+00 0.  1.
</event>
<event>
 5   0  0.4047916E-07  0.2667603E+04  0.7818609E-02  0.8345594E-01
       -2   -1    0    0    0  501  0.00000000000E+00  0.00000000000E+00  0.14160856633E+04  0.14160856633E+04  0.25500000920E-02 0. -1.
        2   -1    0    0  501    0  0.00000000000E+00  0.00000000000E+00 -0.12562985747E+04  0.12562985747E+04  0.25500000920E-02 0.  1.
    10030    2    1    2    0    0  0.00000000000E+00  0.00000000000E+00  0.15978708853E+03  0.26723842380E+04  0.26676029693E+04 0.  0.
        5    1    3    3  502    0  0.17412595586E+03  0.13221805577E+04  0.10280449081E+03  0.13375620094E+04  0.46999998093E+01 0. -1.
       -5    1    3    3    0  502 -0.17412595586E+03 -0.13221805577E+04  0.56982597721E+02  0.13348222286E+04  0.46999998093E+01 0.  1.
</event>
<event>
 5   0  0.4077370E-07  0.4032584E+04  0.7818609E-02  0.7998005E-01
        2   -1    0    0  501    0  0.00000000000E+00  0.00000000000E+00  0.28161362027E+04  0.28161362027E+04  0.25500000920E-02 0.  1.
       -2   -1    0    0    0  501  0.00000000000E+00  0.00000000000E+00 -0.14436210748E+04  0.14436210748E+04  0.25500000920E-02 0. -1.
    10030    2    1    2    0    0  0.00000000000E+00  0.00000000000E+00  0.13725151279E+04  0.42597572775E+04  0.40325840707E+04 0.  0.
        3    1    3    3  502    0  0.10679547003E+04 -0.17031849116E+04  0.52238105557E+03  0.20770768071E+04  0.10100000352E+00 0. -1.
       -3    1    3    3    0  502 -0.10679547003E+04  0.17031849116E+04  0.85013407237E+03  0.21826804705E+04  0.10100000352E+00 0.  1.
</event>
<event>
 5   0  0.1351000E-07  0.3427651E+04  0.7818609E-02  0.8131153E-01
       -1   -1    0    0    0  501  0.00000000000E+00  0.00000000000E+00  0.17142563667E+04  0.17142563667E+04  0.50400001928E-02 0. -1.
        1   -1    0    0  501    0  0.00000000000E+00  0.00000000000E+00 -0.17133945560E+04  0.17133945560E+04  0.50400001928E-02 0.  1.
    10030    2    1    2    0    0  0.00000000000E+00  0.00000000000E+00  0.86181068762E+00  0.34276509227E+04  0.34276508143E+04 0.  0.
        3    1    3    3  502    0 -0.47110014185E+03  0.15267862731E+04  0.62025819807E+03  0.17139813039E+04  0.10100000352E+00 0.  1.
       -3    1    3    3    0  502  0.47110014185E+03 -0.15267862731E+04 -0.61939638739E+03  0.17136696188E+04  0.10100000352E+00 0. -1.
</event>
<event>
 5   0  0.4079777E-07  0.4007685E+04  0.7818609E-02  0.8002998E-01
        2   -1    0    0  501    0  0.00000000000E+00  0.00000000000E+00  0.24376644168E+04  0.24376644169E+04  0.25500000920E-02 0. -1.
       -2   -1    0    0    0  501  0.00000000000E+00  0.00000000000E+00 -0.16472263190E+04  0.16472263190E+04  0.25500000920E-02 0.  1.
    10030    2    1    2    0    0  0.00000000000E+00  0.00000000000E+00  0.79043809787E+03  0.40848907358E+04  0.40076851095E+04 0.  0.
        4    1    3    3  502    0  0.92458261127E+03  0.17770015468E+04  0.34132444769E+03  0.20320166077E+04  0.12699999809E+01 0.  1.
       -4    1    3    3    0  502 -0.92458261127E+03 -0.17770015468E+04  0.44911365018E+03  0.20528741282E+04  0.12699999809E+01 0. -1.
</event>
<event>
 5   0  0.4047916E-07  0.4018633E+04  0.7818609E-02  0.8000798E-01
        2   -1    0    0  501    0  0.00000000000E+00  0.00000000000E+00  0.19715326409E+04  0.19715326409E+04  0.25500000920E-02 0. -1.
       -2   -1    0    0    0  501  0.00000000000E+00  0.00000000000E+00 -0.20478248248E+04  0.20478248248E+04  0.25500000920E-02 0.  1.
    10030    2    1    2    0    0  0.00000000000E+00  0.00000000000E+00 -0.76292183863E+02  0.40193574657E+04  0.40186333423E+04 0.  0.
        5    1    3    3  502    0  0.32531438834E+02  0.42650615001E+02 -0.20471030613E+04  0.20478111248E+04  0.46999998093E+01 0.  1.
       -5    1    3    3    0  502 -0.32531438834E+02 -0.42650615001E+02  0.19708108774E+04  0.19715463408E+04  0.46999998093E+01 0. -1.
</event>
<event>
 5   0  0.1421304E-07  0.4017371E+04  0.7818609E-02  0.8001051E-01
       -1   -1    0    0    0  501  0.00000000000E+00  0.00000000000E+00  0.17123540424E+04  0.17123540424E+04  0.50400001928E-02 0. -1.
        1   -1    0    0  501    0  0.00000000000E+00  0.00000000000E+00 -0.23562987577E+04  0.23562987577E+04  0.50400001928E-02 0.  1.
    10030    2    1    2    0    0  0.00000000000E+00  0.00000000000E+00 -0.64394471528E+03  0.40686528001E+04  0.40173711319E+04 0.  0.
        2    1    3    3  502    0 -0.28706153299E+03  0.93152045787E+03  0.14567736872E+04  0.17528046847E+04  0.25500000920E-02 0. -1.
       -2    1    3    3    0  502  0.28706153299E+03 -0.93152045787E+03 -0.21007184024E+04  0.23158481154E+04  0.25500000920E-02 0.  1.
</event>
<event>
 5   0  0.1351000E-07  0.3949807E+04  0.7818609E-02  0.8014749E-01
       -1   -1    0    0    0  501  0.00000000000E+00  0.00000000000E+00  0.31103848671E+04  0.31103848671E+04  0.50400001928E-02 0.  1.
        1   -1    0    0  501    0  0.00000000000E+00  0.00000000000E+00 -0.12539423062E+04  0.12539423062E+04  0.50400001928E-02 0. -1.
    10030    2    1    2    0    0  0.00000000000E+00  0.00000000000E+00  0.18564425609E+04  0.43643271733E+04  0.39498066654E+04 0.  0.
        4    1    3    3  502    0  0.37743558599E+03  0.10563484290E+04  0.27241977001E+04  0.29461134308E+04  0.12699999809E+01 0.  1.
       -4    1    3    3    0  502 -0.37743558599E+03 -0.10563484290E+04 -0.86775513917E+03  0.14182137426E+04  0.12699999809E+01 0. -1.
</event>
<event>
 5   0  0.1351000E-07  0.3220249E+04  0.7818609E-02  0.8183490E-01
       -1   -1    0    0    0  501  0.00000000000E+00  0.00000000000E+00  0.13594980646E+04  0.13594980646E+04  0.50400001928E-02 0.  1.
        1   -1    0    0  501    0  0.00000000000E+00  0.00000000000E+00 -0.19069549335E+04  0.19069549335E+04  0.50400001928E-02 0. -1.
    10030    2    1    2    0    0  0.00000000000E+00  0.00000000000E+00 -0.54745686886E+03  0.32664529981E+04  0.32202493950E+04 0.  0.
        3    1    3    3  502    0  0.15447181286E+04 -0.17846291272E+03 -0.69745204053E+03  0.17042424907E+04  0.10100000352E+00 0. -1.
       -3    1    3    3    0  502 -0.15447181286E+04  0.17846291272E+03  0.14999517167E+03  0.15622105075E+04  0.10100000352E+00 0.  1.
</event>
<event>
 5   0  0.1368865E-07  0.3977355E+04  0.7818609E-02  0.8009130E-01
       -1   -1    0    0    0  501  0.00000000000E+00  0.00000000000E+00  0.20246759722E+04  0.20246759722E+04  0.50400001928E-02 0. -1.
        1   -1    0    0  501    0  0.00000000000E+00  0.00000000000E+00 -0.19533189529E+04  0.19533189529E+04  0.50400001928E-02 0.  1.
    10030    2    1    2    0    0  0.00000000000E+00  0.00000000000E+00  0.71357019306E+02  0.39779949251E+04  0.39773548748E+04 0.  0.
        5    1    3    3  502    0 -0.13212085150E+03 -0.90478520865E+03  0.18019535449E+04  0.20206807915E+04  0.46999998093E+01 0. -1.
       -5    1    3    3    0  502  0.13212085150E+03  0.90478520865E+03 -0.17305965256E+04  0.19573141336E+04  0.46999998093E+01 0.  1.
</event>
<event>
 5   0  0.4301754E-07  0.3978414E+04  0.7818609E-02  0.8008915E-01
       -2   -1    0    0    0  501  0.00000000000E+00  0.00000000000E+00  0.16094412720E+04  0.16094412720E+04  0.25500000920E-02 0. -1.
        2   -1    0    0  501    0  0.00000000000E+00  0.00000000000E+00 -0.24585825519E+04  0.24585825519E+04  0.25500000920E-02 0.  1.
    10030    2    1    2    0    0  0.00000000000E+00  0.00000000000E+00 -0.84914127990E+03  0.40680238238E+04  0.39784138696E+04 0.  0.
        1    1    3    3  502    0  0.91373414784E+03 -0.49917468011E+02  0.13814344609E+04  0.16570344041E+04  0.50400001928E-02 0. -1.
       -1    1    3    3    0  502 -0.91373414784E+03  0.49917468011E+02 -0.22305757408E+04  0.24109894197E+04  0.50400001928E-02 0.  1.
</event>
<event>
 5   0  0.1372952E-07  0.3006520E+04  0.7818609E-02  0.8241871E-01
        1   -1    0    0  501    0  0.00000000000E+00  0.00000000000E+00  0.70914270784E+03  0.70914270786E+03  0.50400001928E-02 0. -1.
       -1   -1    0    0    0  501  0.00000000000E+00  0.00000000000E+00 -0.31866516261E+04  0.31866516261E+04  0.50400001928E-02 0.  1.
    10030    2    1    2    0    0  0.00000000000E+00  0.00000000000E+00 -0.24775089183E+04  0.38957943340E+04  0.30065200902E+04 0.  0.
        1    1    3    3  502    0  0.95077450367E+03  0.52321992648E+03 -0.25866538763E+04  0.28050863666E+04  0.50400001928E-02 0.  1.
       -1    1    3    3    0  502 -0.95077450367E+03 -0.52321992648E+03  0.10914495800E+03  0.10907079674E+04  0.50400001928E-02 0. -1.
</event>
<event>
 5   0  0.4301754E-07  0.3671498E+04  0.7818609E-02  0.8074308E-01
       -2   -1    0    0    0  501  0.00000000000E+00  0.00000000000E+00  0.32521131848E+04  0.32521131848E+04  0.25500000920E-02 0.  1.
        2   -1    0    0  501    0  0.00000000000E+00  0.00000000000E+00 -0.10362416426E+04  0.10362416426E+04  0.25500000920E-02 0. -1.
    10030    2    1    2    0    0  0.00000000000E+00  0.00000000000E+00  0.22158715422E+04  0.42883548274E+04  0.36714983908E+04 0.  0.
        1    1    3    3  502    0  0.67681433187E+03  0.50654971739E+03 -0.79535247221E+03  0.11607134923E+04  0.50400001928E-02 0. -1.
       -1    1    3    3    0  502 -0.67681433187E+03 -0.50654971739E+03  0.30112240144E+04  0.31276413351E+04  0.50400001928E-02 0.  1.
</event>
<event>
 5   0  0.1351000E-07  0.3978521E+04  0.7818609E-02  0.8008894E-01
        1   -1    0    0  501    0  0.00000000000E+00  0.00000000000E+00  0.14830556756E+04  0.14830556756E+04  0.50400001928E-02 0. -1.
       -1   -1    0    0    0  501  0.00000000000E+00  0.00000000000E+00 -0.26682456980E+04  0.26682456980E+04  0.50400001928E-02 0.  1.
    10030    2    1    2    0    0  0.00000000000E+00  0.00000000000E+00 -0.11851900224E+04  0.41513013736E+04  0.39785207936E+04 0.  0.
        3    1    3    3  502    0 -0.60573068507E+03  0.18882588929E+04 -0.75666762926E+03  0.21224931616E+04  0.10100000352E+00 0. -1.
       -3    1    3    3    0  502  0.60573068507E+03 -0.18882588929E+04 -0.42852239314E+03  0.20288082120E+04  0.10100000352E+00 0.  1.
</event>
<event>
 5   0  0.1421304E-07  0.2921346E+04  0.7818609E-02  0.8266555E-01
        1   -1    0    0  501    0  0.00000000000E+00  0.00000000000E+00  0.17006524106E+04  0.17006524106E+04  0.50400001928E-02 0. -1.
       -1   -1    0    0    0  501  0.00000000000E+00  0.00000000000E+00 -0.12545569886E+04  0.12545569886E+04  0.50400001928E-02 0.  1.
    10030    2    1    2    0    0  0.00000000000E+00  0.00000000000E+00  0.44609542199E+03  0.29552093992E+04  0.29213458316E+04 0.  0.
        2    1    3    3  502    0  0.43417926688E+03 -0.57966699954E+03 -0.10601355750E+04  0.12839053328E+04  0.25500000920E-02 0.  1.
       -2    1    3    3    0  502 -0.43417926688E+03  0.57966699954E+03  0.15062309970E+04  0.16713040664E+04  0.25500000920E-02 0. -1.
</event>
<event>
 5   0  0.1368865E-07  0.3930378E+04  0.7818609E-02  0.8018741E-01
       -1   -1    0    0    0  501  0.00000000000E+00  0.00000000000E+00  0.19243834664E+04  0.19243834664E+04  0.50400001928E-02 0.  1.
        1   -1    0    0  501    0  0.00000000000E+00  0.00000000000E+00 -0.20068596160E+04  0.20068596160E+04  0.50400001928E-02 0. -1.
    10030    2    1    2    0    0  0.00000000000E+00  0.00000000000E+00 -0.82476149638E+02  0.39312430824E+04  0.39303778264E+04 0.  0.
        5    1    3    3  502    0  0.18635021039E+04 -0.56866580763E+03 -0.29805223243E+03  0.19710094153E+04  0.46999998093E+01 0. -1.
       -5    1    3    3    0  502 -0.18635021039E+04  0.56866580763E+03  0.21557608279E+03  0.19602336671E+04  0.46999998093E+01 0.  1.
</event>
<event>
 5   0  0.4047916E-07  0.4066378E+04  0.7818609E-02  0.7991288E-01
       -2   -1    0    0    0  501  0.00000000000E+00  0.00000000000E+00  0.16161231802E+04  0.16161231802E+04  0.25500000920E-02 0.  1.
        2   -1    0    0  501    0  0.00000000000E+00  0.00000000000E+00 -0.25578853106E+04  0.25578853106E+04  0.25500000920E-02 0. -1.
    10030    2    1    2    0    0  0.00000000000E+00  0.00000000000E+00 -0.94176213037E+03  0.41740084908E+04  0.40663781146E+04 0.  0.
        5    1    3    3  502    0  0.76334446070E+02  0.20261504899E+04 -0.31615003317E+03  0.20520930020E+04  0.46999998093E+01 0.  1.
       -5    1    3    3    0  502 -0.76334446070E+02 -0.20261504899E+04 -0.62561209720E+03  0.21219154888E+04  0.46999998093E+01 0. -1.
</event>
<event>
 5   0  0.4047916E-07  0.3729649E+04  0.7818609E-02  0.8061423E-01
       -2   -1    0    0    0  501  0.00000000000E+00  0.00000000000E+00  0.30537049045E+04  0.30537049045E+04  0.25500000920E-02 0.  1.
        2   -1    0    0  501    0  0.00000000000E+00  0.00000000000E+00 -0.11388039384E+04  0.11388039384E+04  0.25500000920E-02 0. -1.
    10030    2    1    2    0    0  0.00000000000E+00  0.00000000000E+00  0.19149009661E+04  0.41925088429E+04  0.37296494055E+04 0.  0.
        5    1    3    3  502    0 -0.64320034616E+03  0.36508783041E+03 -0.96688500206E+03  0.12173267870E+04  0.46999998093E+01 0. -1.
       -5    1    3    3    0  502  0.64320034616E+03 -0.36508783041E+03  0.28817859682E+04  0.29751820559E+04  0.46999998093E+01 0.  1.
</event>
<event>
 5   0  0.4047916E-07  0.4044552E+04  0.7818609E-02  0.7995619E-01
        2   -1    0    0  501    0  0.00000000000E+00  0.00000000000E+00  0.25920731364E+04  0.25920731364E+04  0.25500000920E-02 0.  1.
       -2   -1    0    0    0  501  0.00000000000E+00  0.00000000000E+00 -0.15777336810E+04  0.15777336810E+04  0.25500000920E-02 0. -1.
    10030    2    1    2    0    0  0.00000000000E+00  0.00000000000E+00  0.10143394554E+04  0.41698068174E+04  0.40445524306E+04 0.  0.
        5    1    3    3  502    0 -0.11992176852E+04 -0.57444045845E+03  0.20779932180E+04  0.24670190111E+04  0.46999998093E+01 0.  1.
       -5    1    3    3    0  502  0.11992176852E+04  0.57444045845E+03 -0.10636537626E+04  0.17027878064E+04  0.46999998093E+01 0. -1.
</event>
<event>
 5   0  0.1351000E-07  0.4027683E+04  0.7818609E-02  0.7998985E-01
       -1   -1    0    0    0  501  0.00000000000E+00  0.00000000000E+00  0.24606076134E+04  0.24606076134E+04  0.50400001928E-02 0.  1.
        1   -1    0    0  501    0  0.00000000000E+00  0.00000000000E+00 -0.16481938889E+04  0.16481938889E+04  0.50400001928E-02 0. -1.
    10030    2    1    2    0    0  0.00000000000E+00  0.00000000000E+00  0.81241372457E+03  0.41088015023E+04  0.40276834192E+04 0.  0.
        4    1    3    3  502    0  0.57494980251E+03 -0.73649640245E+03 -0.14136964297E+04  0.16945599531E+04  0.12699999809E+01 0. -1.
       -4    1    3    3    0  502 -0.57494980251E+03  0.73649640245E+03  0.22261101543E+04  0.24142415493E+04  0.12699999809E+01 0.  1.
</event>
<event>
 5   0  0.4149487E-07  0.3019788E+04  0.7818609E-02  0.8238103E-01
       -2   -1    0    0    0  501  0.00000000000E+00  0.00000000000E+00  0.93855272965E+03  0.93855272965E+03  0.25500000920E-02 0.  1.
        2   -1    0    0  501    0  0.00000000000E+00  0.00000000000E+00 -0.24290375102E+04  0.24290375102E+04  0.25500000920E-02 0. -1.
    10030    2    1    2    0    0  0.00000000000E+00  0.00000000000E+00 -0.14904847805E+04  0.33675902398E+04  0.30197879300E+04 0.  0.
        2    1    3    3  502    0 -0.62207559416E+03  0.77958215148E+03  0.51892151591E+03  0.11242801766E+04  0.25500000920E-02 0.  1.
       -2    1    3    3    0  502  0.62207559416E+03 -0.77958215148E+03 -0.20094062964E+04  0.22433100632E+04  0.25500000920E-02 0. -1.
</event>
<event>
 5   0  0.4077370E-07  0.2703198E+04  0.7818609E-02  0.8333968E-01
       -2   -1    0    0    0  501  0.00000000000E+00  0.00000000000E+00  0.87031137158E+03  0.87031137158E+03  0.25500000920E-02 0. -1.
        2   -1    0    0  501    0  0.00000000000E+00  0.00000000000E+00 -0.20990411980E+04  0.20990411980E+04  0.25500000920E-02 0.  1.
    10030    2    1    2    0    0  0.00000000000E+00  0.00000000000E+00 -0.12287298265E+04  0.29693525696E+04  0.27031976798E+04 0.  0.
        3    1    3    3  502    0  0.67824690102E+03  0.38865356803E+03 -0.18255371702E+04  0.19858641506E+04  0.10100000352E+00 0.  1.
       -3    1    3    3    0  502 -0.67824690102E+03 -0.38865356803E+03  0.59680734371E+03  0.98348841904E+03  0.10100000352E+00 0. -1.
</event>
<event>
 5   0  0.1372952E-07  0.4006926E+04  0.7818609E-02  0.8003151E-01
       -1   -1    0    0    0  501  0.00000000000E+00  0.00000000000E+00  0.20722076646E+04  0.20722076646E+04  0.50400001928E-02 0.  1.
        1   -1    0    0  501    0  0.00000000000E+00  0.00000000000E+00 -0.19369985032E+04  0.19369985032E+04  0.50400001928E-02 0. -1.
    10030    2    1    2    0    0  0.00000000000E+00  0.00000000000E+00  0.13520916137E+03  0.40092061678E+04  0.40069255768E+04 0.  0.
        1    1    3    3  502    0  0.25356098996E+02  0.39753008577E+03 -0.18969767361E+04  0.19383482241E+04  0.50400001928E-02 0. -1.
       -1    1    3    3    0  502 -0.25356098996E+02 -0.39753008577E+03  0.20321858974E+04  0.20708579436E+04  0.50400001928E-02 0.  1.
</event>
<event>
 5   0  0.4077370E-07  0.2449242E+04  0.7818609E-02  0.8421295E-01
        2   -1    0    0  501    0  0.00000000000E+00  0.00000000000E+00  0.12523171141E+04  0.12523171141E+04  0.25500000920E-02 0. -1.
       -2   -1    0    0    0  501  0.00000000000E+00  0.00000000000E+00 -0.11975370591E+04  0.11975370591E+04  0.25500000920E-02 0.  1.
    10030    2    1    2    0    0  0.00000000000E+00  0.00000000000E+00  0.54780054998E+02  0.24498541732E+04  0.24492416409E+04 0.  0.
        3    1    3    3  502    0  0.51536228409E+03 -0.72584193193E+03 -0.81380266607E+03  0.12061175662E+04  0.10100000352E+00 0.  1.
       -3    1    3    3    0  502 -0.51536228409E+03  0.72584193193E+03  0.86858272107E+03  0.12437366070E+04  0.10100000352E+00 0. -1.
</event>
<event>
 5   0  0.1351000E-07  0.3702091E+04  0.7818609E-02  0.8067498E-01
       -1   -1    0    0    0  501  0.00000000000E+00  0.00000000000E+00  0.26534933492E+04  0.26534933492E+04  0.50400001928E-02 0.  1.
        1   -1    0    0  501    0  0.00000000000E+00  0.00000000000E+00 -0.12912677382E+04  0.12912677382E+04  0.50400001928E-02 0. -1.
    10030    2    1    2    0    0  0.00000000000E+00  0.00000000000E+00  0.13622256110E+04  0.39447610874E+04  0.37020914929E+04 0.  0.
        4    1    3    3  502    0 -0.12700943847E+02  0.75859677481E+02 -0.12895637721E+04  0.12918561607E+04  0.12699999809E+01 0. -1.
       -4    1    3    3    0  502  0.12700943847E+02 -0.75859677481E+02  0.26517893832E+04  0.26529049267E+04  0.12699999809E+01 0.  1.
</event>
<event>
 5   0  0.4047916E-07  0.3492319E+04  0.7818609E-02  0.8115613E-01
        2   -1    0    0  501    0  0.00000000000E+00  0.00000000000E+00  0.21558417638E+04  0.21558417638E+04  0.25500000920E-02 0.  1.
       -2   -1    0    0    0  501  0.00000000000E+00  0.00000000000E+00 -0.14143304551E+04  0.14143304551E+04  0.25500000920E-02 0. -1.
    10030    2    1    2    0    0  0.00000000000E+00  0.00000000000E+00  0.74151130868E+03  0.35701722189E+04  0.34923188072E+04 0.  0.
        5    1    3    3  502    0 -0.16210523129E+04  0.59222933849E+03  0.64220158729E+03  0.18414644062E+04  0.46999998093E+01 0. -1.
       -5    1    3    3    0  502  0.16210523129E+04 -0.59222933849E+03  0.99309721387E+02  0.17287078126E+04  0.46999998093E+01 0.  1.
</event>
<event>
 5   0  0.1351000E-07  0.4021890E+04  0.7818609E-02  0.8000145E-01
       -1   -1    0    0    0  501  0.00000000000E+00  0.00000000000E+00  0.18154653452E+04  0.18154653452E+04  0.50400001928E-02 0.  1.
        1   -1    0    0  501    0  0.00000000000E+00  0.00000000000E+00 -0.22274725371E+04  0.22274725371E+04  0.50400001928E-02 0. -1.
    10030    2    1    2    0    0  0.00000000000E+00  0.00000000000E+00 -0.41200719185E+03  0.40429378823E+04  0.40218897044E+04 0.  0.
        3    1    3    3  502    0 -0.81843408147E+02 -0.11925978955E+04 -0.18315350479E+04  0.21871233906E+04  0.10100000352E+00 0. -1.
       -3    1    3    3    0  502  0.81843408147E+02  0.11925978955E+04  0.14195278560E+04  0.18558144918E+04  0.10100000352E+00 0.  1.
</event>
<event>
 5   0  0.4149487E-07  0.2838607E+04  0.7818609E-02  0.8291382E-01
       -2   -1    0    0    0  501  0.00000000000E+00  0.00000000000E+00  0.13968177909E+04  0.13968177909E+04  0.25500000920E-02 0.  1.
        2   -1    0    0  501    0  0.00000000000E+00  0.00000000000E+00 -0.14421515185E+04  0.14421515186E+04  0.25500000920E-02 0. -1.
    10030    2    1    2    0    0  0.00000000000E+00  0.00000000000E+00 -0.45333727688E+02  0.28389693094E+04  0.28386073333E+04 0.  0.
        2    1    3    3  502    0 -0.96732370653E+03  0.79957616240E+03  0.64027941801E+03  0.14088984796E+04  0.25500000920E-02 0.  1.
       -2    1    3    3    0  502  0.96732370653E+03 -0.79957616240E+03 -0.68561314570E+03  0.14300708298E+04  0.25500000920E-02 0. -1.
</event>
<event>
 5   0  0.1368865E-07  0.4037119E+04  0.7818609E-02  0.7997100E-01
        1   -1    0    0  501    0  0.00000000000E+00  0.00000000000E+00  0.16376773984E+04  0.16376773984E+04  0.50400001928E-02 0.  1.
       -1   -1    0    0    0  501  0.00000000000E+00  0.00000000000E+00 -0.24880251494E+04  0.24880251494E+04  0.50400001928E-02 0. -1.
    10030    2    1    2    0    0  0.00000000000E+00  0.00000000000E+00 -0.85034775100E+03  0.41257025478E+04  0.40371190490E+04 0.  0.
        5    1    3    3  502    0 -0.12041213705E+04  0.88860161608E+03  0.95918614470E+03  0.17775210990E+04  0.46999998093E+01 0.  1.
       -5    1    3    3    0  502  0.12041213705E+04 -0.88860161608E+03 -0.18095338957E+04  0.23481814489E+04  0.46999998093E+01 0. -1.
</event>
<event>
 5   0  0.1421304E-07  0.4075176E+04  0.7818609E-02  0.7989551E-01
        1   -1    0    0  501    0  0.00000000000E+00  0.00000000000E+00  0.20735207347E+04  0.20735207347E+04  0.50400001928E-02 0.  1.
       -1   -1    0    0    0  501  0.00000000000E+00  0.00000000000E+00 -0.20022778593E+04  0.20022778593E+04  0.50400001928E-02 0. -1.
    10030    2    1    2    0    0  0.00000000000E+00  0.00000000000E+00  0.71242875399E+02  0.40757985939E+04  0.40751759019E+04 0.  0.
        2    1    3    3  502    0  0.88709084824E+02 -0.13957266679E+04 -0.14464425052E+04  0.20119935771E+04  0.25500000920E-02 0. -1.
       -2    1    3    3    0  502 -0.88709084824E+02  0.13957266679E+04  0.15176853806E+04  0.20638050169E+04  0.25500000920E-02 0.  1.
</event>
<event>
 5   0  0.1368865E-07  0.3208632E+04  0.7818609E-02  0.8186541E-01
        1   -1    0    0  501    0  0.00000000000E+00  0.00000000000E+00  0.90239904821E+03  0.90239904822E+03  0.50400001928E-02 0. -1.
       -1   -1    0    0    0  501  0.00000000000E+00  0.00000000000E+00 -0.28522079921E+04  0.28522079921E+04  0.50400001928E-02 0.  1.
    10030    2    1    2    0    0  0.00000000000E+00  0.00000000000E+00 -0.19498089439E+04  0.37546070403E+04  0.32086319686E+04 0.  0.
        5    1    3    3  502    0  0.68423223505E+03  0.13739100671E+04 -0.15212631862E+04  0.21610336406E+04  0.46999998093E+01 0.  1.
       -5    1    3    3    0  502 -0.68423223505E+03 -0.13739100671E+04 -0.42854575769E+03  0.15935733998E+04  0.46999998093E+01 0. -1.
</event>
<event>
 5   0  0.4077370E-07  0.4048790E+04  0.7818609E-02  0.7994776E-01
        2   -1    0    0  501    0  0.00000000000E+00  0.00000000000E+00  0.21216591316E+04  0.21216591316E+04  0.25500000920E-02 0.  1.
       -2   -1    0    0    0  501  0.00000000000E+00  0.00000000000E+00 -0.19315899592E+04  0.19315899592E+04  0.25500000920E-02 0. -1.
    10030    2    1    2    0    0  0.00000000000E+00  0.00000000000E+00  0.19006917237E+03  0.40532490908E+04  0.40487901776E+04 0.  0.
        3    1    3    3  502    0  0.17010107517E+04 -0.10043246847E+04  0.53831995138E+03  0.20474115438E+04  0.10100000352E+00 0.  1.
       -3    1    3    3    0  502 -0.17010107517E+04  0.10043246847E+04 -0.34825077901E+03  0.20058375470E+04  0.10100000352E+00 0. -1.
</event>
<event>
 5   0  0.1368865E-07  0.4042176E+04  0.7818609E-02  0.7996092E-01
        1   -1    0    0  501    0  0.00000000000E+00  0.00000000000E+00  0.30970140199E+04  0.30970140200E+04  0.50400001928E-02 0. -1.
       -1   -1    0    0    0  501  0.00000000000E+00  0.00000000000E+00 -0.13189466321E+04  0.13189466321E+04  0.50400001928E-02 0.  1.
    10030    2    1    2    0    0  0.00000000000E+00  0.00000000000E+00  0.17780673878E+04  0.44159606521E+04  0.40421757563E+04 0.  0.
        5    1    3    3  502    0 -0.19750201672E+04  0.39472378607E+03  0.70537309161E+03  0.21340301818E+04  0.46999998093E+01 0.  1.
       -5    1    3    3    0  502  0.19750201672E+04 -0.39472378607E+03  0.10726942962E+04  0.22819304703E+04  0.46999998093E+01 0. -1.
</event>
<event>
 5   0  0.4301754E-07  0.3442936E+04  0.7818609E-02  0.8127448E-01
       -2   -1    0    0    0  501  0.00000000000E+00  0.00000000000E+00  0.16125600251E+04  0.16125600251E+04  0.25500000920E-02 0.  1.
        2   -1    0    0  501    0  0.00000000000E+00  0.00000000000E+00 -0.18377312466E+04  0.18377312466E+04  0.25500000920E-02 0. -1.
    10030    2    1    2    0    0  0.00000000000E+00  0.00000000000E+00 -0.22517122148E+03  0.34502912718E+04  0.34429359246E+04 0.  0.
        1    1    3    3  502    0  0.14213645118E+04  0.84007264892E+03 -0.60091794327E+03  0.17570149417E+04  0.50400001928E-02 0. -1.
       -1    1    3    3    0  502 -0.14213645118E+04 -0.84007264892E+03  0.37574672179E+03  0.16932763300E+04  0.50400001928E-02 0.  1.
</event>
<event>
 5   0  0.4047916E-07  0.4153495E+04  0.7818609E-02  0.7974278E-01
       -2   -1    0    0    0  501  0.00000000000E+00  0.00000000000E+00  0.20555270036E+04  0.20555270036E+04  0.25500000920E-02 0.  1.
        2   -1    0    0  501    0  0.00000000000E+00  0.00000000000E+00 -0.20981867662E+04  0.20981867662E+04  0.25500000920E-02 0. -1.
    10030    2    1    2    0    0  0.00000000000E+00  0.00000000000E+00 -0.42659762575E+02  0.41537137697E+04  0.41534947003E+04 0.  0.
        5    1    3    3  502    0  0.23387765743E+02 -0.18624083450E+04  0.89727484417E+03  0.20674225662E+04  0.46999998093E+01 0.  1.
       -5    1    3    3    0  502 -0.23387765743E+02  0.18624083450E+04 -0.93993460674E+03  0.20862912036E+04  0.46999998093E+01 0. -1.
</event>
<event>
 5   0  0.4047916E-07  0.4010737E+04  0.7818609E-02  0.8002384E-01
        2   -1    0    0  501    0  0.00000000000E+00  0.00000000000E+00  0.24688679535E+04  0.24688679535E+04  0.25500000920E-02 0. -1.
       -2   -1    0    0    0  501  0.00000000000E+00  0.00000000000E+00 -0.16288850530E+04  0.16288850530E+04  0.25500000920E-02 0.  1.
    10030    2    1    2    0    0  0.00000000000E+00  0.00000000000E+00  0.83998290053E+03  0.40977530065E+04  0.40107366441E+04 0.  0.
        5    1    3    3  502    0  0.16518541109E+04 -0.10729822562E+04  0.80440862829E+03  0.21276767276E+04  0.46999998093E+01 0.  1.
       -5    1    3    3    0  502 -0.16518541109E+04  0.10729822562E+04  0.35574272240E+02  0.19700762789E+04  0.46999998093E+01 0. -1.
</event>
<event>
 5   0  0.1368865E-07  0.4015079E+04  0.7818609E-02  0.8001512E-01
       -1   -1    0    0    0  501  0.00000000000E+00  0.00000000000E+00  0.16975144068E+04  0.16975144068E+04  0.50400001928E-02 0. -1.
        1   -1    0    0  501    0  0.00000000000E+00  0.00000000000E+00 -0.23741856402E+04  0.23741856402E+04  0.50400001928E-02 0.  1.
    10030    2    1    2    0    0  0.00000000000E+00  0.00000000000E+00 -0.67667123338E+03  0.40717000470E+04  0.40150787432E+04 0.  0.
        5    1    3    3  502    0 -0.16319978094E+04 -0.90774436999E+03 -0.10854581706E+04  0.21600134771E+04  0.46999998093E+01 0.  1.
       -5    1    3    3    0  502  0.16319978094E+04  0.90774436999E+03  0.40878693720E+03  0.19116865698E+04  0.46999998093E+01 0. -1.
</event>
<event>
 5   0  0.1368865E-07  0.2915484E+04  0.7818609E-02  0.8268285E-01
       -1   -1    0    0    0  501  0.00000000000E+00  0.00000000000E+00  0.16756895019E+04  0.16756895019E+04  0.50400001928E-02 0.  1.
        1   -1    0    0  501    0  0.00000000000E+00  0.00000000000E+00 -0.12681419062E+04  0.12681419062E+04  0.50400001928E-02 0. -1.
    10030    2    1    2    0    0  0.00000000000E+00  0.00000000000E+00  0.40754759566E+03  0.29438314081E+04  0.29154842336E+04 0.  0.
        5    1    3    3  502    0 -0.10253768928E+04  0.84597328610E+03 -0.40030845906E+03  0.13882858227E+04  0.46999998093E+01 0. -1.
       -5    1    3    3    0  502  0.10253768928E+04 -0.84597328610E+03  0.80785605472E+03  0.15555455854E+04  0.46999998093E+01 0.  1.
</event>
<event>
 5   0  0.4047916E-07  0.2727609E+04  0.7818609E-02  0.8326102E-01
        2   -1    0    0  501    0  0.00000000000E+00  0.00000000000E+00  0.21885473322E+04  0.21885473322E+04  0.25500000920E-02 0.  1.
       -2   -1    0    0    0  501  0.00000000000E+00  0.00000000000E+00 -0.84986162998E+03  0.84986162998E+03  0.25500000920E-02 0. -1.
    10030    2    1    2    0    0  0.00000000000E+00  0.00000000000E+00  0.13386857022E+04  0.30384089622E+04  0.27276087718E+04 0.  0.
        5    1    3    3  502    0 -0.76456158690E+03 -0.79722871049E+03 -0.22168326667E+03  0.11266293080E+04  0.46999998093E+01 0. -1.
       -5    1    3    3    0  502  0.76456158690E+03  0.79722871049E+03  0.15603689689E+04  0.19117796542E+04  0.46999998093E+01 0.  1.
</event>
<event>
 5   0  0.1351000E-07  0.3957961E+04  0.7818609E-02  0.8013081E-01
        1   -1    0    0  501    0  0.00000000000E+00  0.00000000000E+00  0.19239098268E+04  0.19239098268E+04  0.50400001928E-02 0.  1.
       -1   -1    0    0    0  501  0.00000000000E+00  0.00000000000E+00 -0.20356273550E+04  0.20356273550E+04  0.50400001928E-02 0. -1.
    10030    2    1    2    0    0  0.00000000000E+00  0.00000000000E+00 -0.11171752826E+03  0.39595371818E+04  0.39579608245E+04 0.  0.
        4    1    3    3  502    0  0.88203923866E+03  0.10522241381E+04  0.13699081429E+04  0.19395408705E+04  0.12699999809E+01 0.  1.
       -4    1    3    3    0  502 -0.88203923866E+03 -0.10522241381E+04 -0.14816256712E+04  0.20199963113E+04  0.12699999809E+01 0. -1.
</event>
<event>
 5   0  0.4301754E-07  0.3235285E+04  0.7818609E-02  0.8179560E-01
        2   -1    0    0  501    0  0.00000000000E+00  0.00000000000E+00  0.19693582983E+04  0.19693582983E+04  0.25500000920E-02 0.  1.
       -2   -1    0    0    0  501  0.00000000000E+00  0.00000000000E+00 -0.13287414259E+04  0.13287414259E+04  0.25500000920E-02 0. -1.
    10030    2    1    2    0    0  0.00000000000E+00  0.00000000000E+00  0.64061687242E+03  0.32980997242E+04  0.32352854300E+04 0.  0.
        1    1    3    3  502    0  0.15520480873E+03 -0.22309213054E+03 -0.13053025222E+04  0.13332941558E+04  0.50400001928E-02 0. -1.
       -1    1    3    3    0  502 -0.15520480873E+03  0.22309213054E+03  0.19459193946E+04  0.19648055684E+04  0.50400001928E-02 0.  1.
</event>
<event>
 5   0  0.1368865E-07  0.3968510E+04  0.7818609E-02  0.8010929E-01
       -1   -1    0    0    0  501  0.00000000000E+00  0.00000000000E+00  0.13776257740E+04  0.13776257740E+04  0.50400001928E-02 0. -1.
        1   -1    0    0  501    0  0.00000000000E+00  0.00000000000E+00 -0.28580092762E+04  0.28580092762E+04  0.50400001928E-02 0.  1.
    10030    2    1    2    0    0  0.00000000000E+00  0.00000000000E+00 -0.14803835022E+04  0.42356350502E+04  0.39685096655E+04 0.  0.
        5    1    3    3  502    0  0.60705965071E+03 -0.95417751286E+03  0.99997375162E+03  0.15096177462E+04  0.46999998093E+01 0. -1.
       -5    1    3    3    0  502 -0.60705965071E+03  0.95417751286E+03 -0.24803572538E+04  0.27260173040E+04  0.46999998093E+01 0.  1.
</event>
<event>
 5   0  0.1372952E-07  0.3991584E+04  0.7818609E-02  0.8006246E-01
       -1   -1    0    0    0  501  0.00000000000E+00  0.00000000000E+00  0.22490819837E+04  0.22490819838E+04  0.50400001928E-02 0.  1.
        1   -1    0    0  501    0  0.00000000000E+00  0.00000000000E+00 -0.17710275760E+04  0.17710275760E+04  0.50400001928E-02 0. -1.
    10030    2    1    2    0    0  0.00000000000E+00  0.00000000000E+00  0.47805440778E+03  0.40201095597E+04  0.39915842538E+04 0.  0.
        1    1    3    3  502    0 -0.92983456935E+03 -0.31607608706E+03  0.19888812722E+04  0.22181400168E+04  0.50400001928E-02 0.  1.
       -1    1    3    3    0  502  0.92983456935E+03  0.31607608706E+03 -0.15108268645E+04  0.18019695429E+04  0.50400001928E-02 0. -1.
</event>
<event>
 5   0  0.1372952E-07  0.4005817E+04  0.7818609E-02  0.8003374E-01
        1   -1    0    0  501    0  0.00000000000E+00  0.00000000000E+00  0.13855271329E+04  0.13855271329E+04  0.50400001928E-02 0. -1.
       -1   -1    0    0    0  501  0.00000000000E+00  0.00000000000E+00 -0.28953905314E+04  0.28953905314E+04  0.50400001928E-02 0.  1.
    10030    2    1    2    0    0  0.00000000000E+00  0.00000000000E+00 -0.15098633985E+04  0.42809176643E+04  0.40058168413E+04 0.  0.
        1    1    3    3  502    0 -0.10404913204E+04 -0.17028646553E+04 -0.57209162542E+03  0.20759718327E+04  0.50400001928E-02 0. -1.
       -1    1    3    3    0  502  0.10404913204E+04  0.17028646553E+04 -0.93777177305E+03  0.22049458316E+04  0.50400001928E-02 0.  1.
</event>
<event>
 5   0  0.1351000E-07  0.3975804E+04  0.7818609E-02  0.8009445E-01
        1   -1    0    0  501    0  0.00000000000E+00  0.00000000000E+00  0.24529298241E+04  0.24529298241E+04  0.50400001928E-02 0. -1.
       -1   -1    0    0    0  501  0.00000000000E+00  0.00000000000E+00 -0.16110347571E+04  0.16110347571E+04  0.50400001928E-02 0.  1.
    10030    2    1    2    0    0  0.00000000000E+00  0.00000000000E+00  0.84189506701E+03  0.40639645813E+04  0.39758044235E+04 0.  0.
        4    1    3    3  502    0 -0.15740186683E+03  0.13337190936E+04  0.19191116448E+04  0.23423435031E+04  0.12699999809E+01 0. -1.
       -4    1    3    3    0  502  0.15740186683E+03 -0.13337190936E+04 -0.10772165778E+04  0.17216210782E+04  0.12699999809E+01 0.  1.
</event>
<event>
 5   0  0.4079777E-07  0.3729390E+04  0.7818609E-02  0.8061480E-01
       -2   -1    0    0    0  501  0.00000000000E+00  0.00000000000E+00  0.21185067024E+04  0.21185067024E+04  0.25500000920E-02 0. -1.
        2   -1    0    0  501    0  0.00000000000E+00  0.00000000000E+00 -0.16412914526E+04  0.16412914526E+04  0.25500000920E-02 0.  1.
    10030    2    1    2    0    0  0.00000000000E+00  0.00000000000E+00  0.47721524975E+03  0.37597981550E+04  0.37293897318E+04 0.  0.
        4    1    3    3  502    0 -0.13056822350E+04 -0.81342639375E+03 -0.82384326825E+03  0.17450466872E+04  0.12699999809E+01 0.  1.
       -4    1    3    3    0  502  0.13056822350E+04  0.81342639375E+03  0.13010585180E+04  0.20147514678E+04  0.12699999809E+01 0. -1.
</event>
<event>
 5   0  0.4301754E-07  0.3996261E+04  0.7818609E-02  0.8005301E-01
       -2   -1    0    0    0  501  0.00000000000E+00  0.00000000000E+00  0.25782454004E+04  0.25782454004E+04  0.25500000920E-02 0.  1.
        2   -1    0    0  501    0  0.00000000000E+00  0.00000000000E+00 -0.15485437101E+04  0.15485437101E+04  0.25500000920E-02 0. -1.
    10030    2    1    2    0    0  0.00000000000E+00  0.00000000000E+00  0.10297016902E+04  0.41267891105E+04  0.39962611015E+04 0.  0.
        1    1    3    3  502    0 -0.16056466780E+04  0.70669721756E+03 -0.47295091232E+03  0.18169217862E+04  0.50400001928E-02 0. -1.
       -1    1    3    3    0  502  0.16056466780E+04 -0.70669721756E+03  0.15026526026E+04  0.23098673243E+04  0.50400001928E-02 0.  1.
</event>
<event>
 5   0  0.1351000E-07  0.2590209E+04  0.7818609E-02  0.8371535E-01
       -1   -1    0    0    0  501  0.00000000000E+00  0.00000000000E+00  0.74801552231E+03  0.74801552232E+03  0.50400001928E-02 0.  1.
        1   -1    0    0  501    0  0.00000000000E+00  0.00000000000E+00 -0.22423270057E+04  0.22423270057E+04  0.50400001928E-02 0. -1.
    10030    2    1    2    0    0  0.00000000000E+00  0.00000000000E+00 -0.14943114834E+04  0.29903425280E+04  0.25902087996E+04 0.  0.
        4    1    3    3  502    0  0.31954246580E+03  0.76549779793E+03 -0.18953836885E+04  0.20689550999E+04  0.12699999809E+01 0. -1.
       -4    1    3    3    0  502 -0.31954246580E+03 -0.76549779793E+03  0.40107220508E+03  0.92138742810E+03  0.12699999809E+01 0.  1.
</event>
<event>
 5   0  0.4047916E-07  0.3960189E+04  0.7818609E-02  0.8012626E-01
        2   -1    0    0  501    0  0.00000000000E+00  0.00000000000E+00  0.19907668702E+04  0.19907668702E+04  0.25500000920E-02 0. -1.
       -2   -1    0    0    0  501  0.00000000000E+00  0.00000000000E+00 -0.19694798099E+04  0.19694798099E+04  0.25500000920E-02 0.  1.
    10030    2    1    2    0    0  0.00000000000E+00  0.00000000000E+00  0.21287060240E+02  0.39602466801E+04  0.39601894687E+04 0.  0.
        5    1    3    3  502    0 -0.61558983158E+03 -0.79548070717E+02 -0.18696693382E+04  0.19700163097E+04  0.46999998093E+01 0.  1.
       -5    1    3    3    0  502  0.61558983158E+03  0.79548070717E+02  0.18909563984E+04  0.19902303704E+04  0.46999998093E+01 0. -1.
</event>
<event>
 5   0  0.4077370E-07  0.4027851E+04  0.7818609E-02  0.7998952E-01
       -2   -1    0    0    0  501  0.00000000000E+00  0.00000000000E+00  0.15157387325E+04  0.15157387325E+04  0.25500000920E-02 0.  1.
        2   -1    0    0  501    0  0.00000000000E+00  0.00000000000E+00 -0.26758544558E+04  0.26758544558E+04  0.25500000920E-02 0. -1.
    10030    2    1    2    0    0  0.00000000000E+00  0.00000000000E+00 -0.11601157233E+04  0.41915931883E+04  0.40278511597E+04 0.  0.
        3    1    3    3  502    0 -0.10440590299E+04  0.25372398144E+03 -0.23526715121E+04  0.25864064589E+04  0.10100000352E+00 0. -1.
       -3    1    3    3    0  502  0.10440590299E+04 -0.25372398144E+03  0.11925557888E+04  0.16051867294E+04  0.10100000352E+00 0.  1.
</event>
<event>
 5   0  0.4079777E-07  0.3883816E+04  0.7818609E-02  0.8028404E-01
        2   -1    0    0  501    0  0.00000000000E+00  0.00000000000E+00  0.17584100263E+04  0.17584100263E+04  0.25500000920E-02 0. -1.
       -2   -1    0    0    0  501  0.00000000000E+00  0.00000000000E+00 -0.21445543826E+04  0.21445543826E+04  0.25500000920E-02 0.  1.
    10030    2    1    2    0    0  0.00000000000E+00  0.00000000000E+00 -0.38614435634E+03  0.39029644089E+04  0.38838156127E+04 0.  0.
        4    1    3    3  502    0 -0.37800338946E+02  0.19260919122E+04 -0.43870602413E+03  0.19757842768E+04  0.12699999809E+01 0.  1.
       -4    1    3    3    0  502  0.37800338946E+02 -0.19260919122E+04  0.52561667797E+02  0.19271801321E+04  0.12699999809E+01 0. -1.
</event>
<event>
 5   0  0.4149487E-07  0.3988646E+04  0.7818609E-02  0.8006841E-01
        2   -1    0    0  501    0  0.00000000000E+00  0.00000000000E+00  0.18590364443E+04  0.18590364443E+04  0.25500000920E-02 0.  1.
       -2   -1    0    0    0  501  0.00000000000E+00  0.00000000000E+00 -0.21394542929E+04  0.21394542930E+04  0.25500000920E-02 0. -1.
    10030    2    1    2    0    0  0.00000000000E+00  0.00000000000E+00 -0.28041784861E+03  0.39984907373E+04  0.39886456356E+04 0.  0.
        2    1    3    3  502    0 -0.90714156658E+03 -0.76656265872E+02 -0.19190016763E+04  0.21239937473E+04  0.25500000920E-02 0. -1.
       -2    1    3    3    0  502  0.90714156658E+03  0.76656265872E+02  0.16385838277E+04  0.18744969900E+04  0.25500000920E-02 0.  1.
</event>
<event>
 5   0  0.4149487E-07  0.4017158E+04  0.7818609E-02  0.8001094E-01
       -2   -1    0    0    0  501  0.00000000000E+00  0.00000000000E+00  0.19619464990E+04  0.19619464990E+04  0.25500000920E-02 0. -1.
        2   -1    0    0  501    0  0.00000000000E+00  0.00000000000E+00 -0.20563202327E+04  0.20563202327E+04  0.25500000920E-02 0.  1.
    10030    2    1    2    0    0  0.00000000000E+00  0.00000000000E+00 -0.94373733730E+02  0.40182667317E+04  0.40171583396E+04 0.  0.
        2    1    3    3  502    0  0.16830575416E+04  0.18147726462E+03  0.10342097521E+04  0.19837354907E+04  0.25500000920E-02 0.  1.
       -2    1    3    3    0  502 -0.16830575416E+04 -0.18147726462E+03 -0.11285834858E+04  0.20345312409E+04  0.25500000920E-02 0. -1.
</event>
<event>
 5   0  0.4149487E-07  0.2530438E+04  0.7818609E-02  0.8392221E-01
       -2   -1    0    0    0  501  0.00000000000E+00  0.00000000000E+00  0.11647122568E+04  0.11647122568E+04  0.25500000920E-02 0.  1.
        2   -1    0    0  501    0  0.00000000000E+00  0.00000000000E+00 -0.13743991729E+04  0.13743991729E+04  0.25500000920E-02 0. -1.
    10030    2    1    2    0    0  0.00000000000E+00  0.00000000000E+00 -0.20968691610E+03  0.25391114298E+04  0.25304383514E+04 0.  0.
        2    1    3    3  502    0 -0.97873851854E+03 -0.52148640571E+03 -0.71594843839E+03  0.13200224716E+04  0.25500000920E-02 0. -1.
       -2    1    3    3    0  502  0.97873851854E+03  0.52148640571E+03  0.50626152229E+03  0.12190889582E+04  0.25500000920E-02 0.  1.
</event>
<event>
 5   0  0.4077370E-07  0.2506497E+04  0.7818609E-02  0.8400675E-01
        2   -1    0    0  501    0  0.00000000000E+00  0.00000000000E+00  0.19609754482E+04  0.19609754482E+04  0.25500000920E-02 0.  1.
       -2   -1    0    0    0  501  0.00000000000E+00  0.00000000000E+00 -0.80094413568E+03  0.80094413568E+03  0.25500000920E-02 0. -1.
    10030    2    1    2    0    0  0.00000000000E+00  0.00000000000E+00  0.11600313125E+04  0.27619195839E+04  0.25064969862E+04 0.  0.
        3    1    3    3  502    0 -0.47128751066E+03 -0.29813379066E+03  0.18167214407E+04  0.19003874547E+04  0.10100000352E+00 0.  1.
       -3    1    3    3    0  502  0.47128751066E+03  0.29813379066E+03 -0.65669012820E+03  0.86153212912E+03  0.10100000352E+00 0. -1.
</event>
<event>
 5   0  0.4079777E-07  0.3985975E+04  0.7818609E-02  0.8007382E-01
       -2   -1    0    0    0  501  0.00000000000E+00  0.00000000000E+00  0.16173039473E+04  0.16173039473E+04  0.25500000920E-02 0. -1.
        2   -1    0    0  501    0  0.00000000000E+00  0.00000000000E+00 -0.24559380744E+04  0.24559380744E+04  0.25500000920E-02 0.  1.
    10030    2    1    2    0    0  0.00000000000E+00  0.00000000000E+00 -0.83863412704E+03  0.40732420217E+04  0.39859745820E+04 0.  0.
        4    1    3    3  502    0  0.16743312073E+04 -0.85667281157E+03  0.25445378239E+03  0.18978992698E+04  0.12699999809E+01 0.  1.
       -4    1    3    3    0  502 -0.16743312073E+04  0.85667281157E+03 -0.10930879094E+04  0.21753427520E+04  0.12699999809E+01 0. -1.
</event>
<event>
 5   0  0.4301754E-07  0.3930669E+04  0.7818609E-02  0.8018681E-01
       -2   -1    0    0    0  501  0.00000000000E+00  0.00000000000E+00  0.16851009182E+04  0.16851009182E+04  0.25500000920E-02 0. -1.
        2   -1    0    0  501    0  0.00000000000E+00  0.00000000000E+00 -0.22921715915E+04  0.22921715915E+04  0.25500000920E-02 0.  1.
    10030    2    1    2    0    0  0.00000000000E+00  0.00000000000E+00 -0.60707067334E+03  0.39772725097E+04  0.39306693850E+04 0.  0.
        1    1    3    3  502    0 -0.61086476828E+02 -0.17778332408E+04 -0.11489761469E+04  0.21176800457E+04  0.50400001928E-02 0.  1.
       -1    1    3    3    0  502  0.61086476828E+02  0.17778332408E+04  0.54190547354E+03  0.18595924640E+04  0.50400001928E-02 0. -1.
</event>
<event>
 5   0  0.1372952E-07  0.2659225E+04  0.7818609E-02  0.8348358E-01
       -1   -1    0    0    0  501  0.00000000000E+00  0.00000000000E+00  0.12931571688E+04  0.12931571688E+04  0.50400001928E-02 0.  1.
        1   -1    0    0  501    0  0.00000000000E+00  0.00000000000E+00 -0.13670951884E+04  0.13670951884E+04  0.50400001928E-02 0. -1.
    10030    2    1    2    0    0  0.00000000000E+00  0.00000000000E+00 -0.73938019685E+02  0.26602523572E+04  0.26592246564E+04 0.  0.
        1    1    3    3  502    0  0.46065522474E+03  0.11405103603E+04 -0.54204215821E+03  0.13441639853E+04  0.50400001928E-02 0. -1.
       -1    1    3    3    0  502 -0.46065522474E+03 -0.11405103603E+04  0.46810413853E+03  0.13160883719E+04  0.50400001928E-02 0.  1.
</event>
<event>
 5   0  0.1351000E-07  0.3948475E+04  0.7818609E-02  0.8015022E-01
        1   -1    0    0  501    0  0.00000000000E+00  0.00000000000E+00  0.15911864716E+04  0.15911864716E+04  0.50400001928E-02 0.  1.
       -1   -1    0    0    0  501  0.00000000000E+00  0.00000000000E+00 -0.24495015515E+04  0.24495015515E+04  0.50400001928E-02 0. -1.
    10030    2    1    2    0    0  0.00000000000E+00  0.00000000000E+00 -0.85831507989E+03  0.40406880231E+04  0.39484750124E+04 0.  0.
        3    1    3    3  502    0  0.15232298109E+04  0.21160467093E+03 -0.16960550673E+04  0.22894559168E+04  0.10100000352E+00 0. -1.
       -3    1    3    3    0  502 -0.15232298109E+04 -0.21160467093E+03  0.83773998737E+03  0.17512321063E+04  0.10100000352E+00 0.  1.
</event>
<event>
 5   0  0.1372952E-07  0.4043278E+04  0.7818609E-02  0.7995872E-01
       -1   -1    0    0    0  501  0.00000000000E+00  0.00000000000E+00  0.30843661358E+04  0.30843661358E+04  0.50400001928E-02 0.  1.
        1   -1    0    0  501    0  0.00000000000E+00  0.00000000000E+00 -0.13250775299E+04  0.13250775299E+04  0.50400001928E-02 0. -1.
    10030    2    1    2    0    0  0.00000000000E+00  0.00000000000E+00  0.17592886059E+04  0.44094436657E+04  0.40432780071E+04 0.  0.
        1    1    3    3  502    0 -0.11401951755E+04  0.15781320984E+04  0.14734531348E+04  0.24416408619E+04  0.50400001928E-02 0.  1.
       -1    1    3    3    0  502  0.11401951755E+04 -0.15781320984E+04  0.28583547113E+03  0.19678028038E+04  0.50400001928E-02 0. -1.
</event>
<event>
 5   0  0.4079777E-07  0.4547447E+04  0.7818609E-02  0.7902382E-01
       -2   -1    0    0    0  501  0.00000000000E+00  0.00000000000E+00  0.21905081353E+04  0.21905081353E+04  0.25500000920E-02 0.  1.
        2   -1    0    0  501    0  0.00000000000E+00  0.00000000000E+00 -0.23601004567E+04  0.23601004567E+04  0.25500000920E-02 0. -1.
    10030    2    1    2    0    0  0.00000000000E+00  0.00000000000E+00 -0.16959232140E+03  0.45506085920E+04  0.45474473061E+04 0.  0.
        4    1    3    3  502    0  0.20672286142E+03  0.69269665265E+03 -0.22420439974E+04  0.23557007223E+04  0.12699999809E+01 0. -1.
       -4    1    3    3    0  502 -0.20672286142E+03 -0.69269665265E+03  0.20724516760E+04  0.21949078697E+04  0.12699999809E+01 0.  1.
</event>
<event>
 5   0  0.4149487E-07  0.3849790E+04  0.7818609E-02  0.8035554E-01
        2   -1    0    0  501    0  0.00000000000E+00  0.00000000000E+00  0.25660517186E+04  0.25660517186E+04  0.25500000920E-02 0.  1.
       -2   -1    0    0    0  501  0.00000000000E+00  0.00000000000E+00 -0.14439387276E+04  0.14439387276E+04  0.25500000920E-02 0. -1.
    10030    2    1    2    0    0  0.00000000000E+00  0.00000000000E+00  0.11221129910E+04  0.40099904462E+04  0.38497903598E+04 0.  0.
        2    1    3    3  502    0  0.26482830576E+03  0.51632916759E+03 -0.13506622225E+04  0.14700402307E+04  0.25500000920E-02 0. -1.
       -2    1    3    3    0  502 -0.26482830576E+03 -0.51632916759E+03  0.24727752134E+04  0.25399502155E+04  0.25500000920E-02 0.  1.
</event>
<event>
 5   0  0.4149487E-07  0.4041904E+04  0.7818609E-02  0.7996146E-01
       -2   -1    0    0    0  501  0.00000000000E+00  0.00000000000E+00  0.18894555439E+04  0.18894555439E+04  0.25500000920E-02 0.  1.
        2   -1    0    0  501    0  0.00000000000E+00  0.00000000000E+00 -0.21616003776E+04  0.21616003776E+04  0.25500000920E-02 0. -1.
    10030    2    1    2    0    0  0.00000000000E+00  0.00000000000E+00 -0.27214483371E+03  0.40510559216E+04  0.40419044112E+04 0.  0.
        2    1    3    3  502    0 -0.52402745863E+03 -0.90882609740E+03  0.15951712107E+04  0.19092251947E+04  0.25500000920E-02 0.  1.
       -2    1    3    3    0  502  0.52402745863E+03  0.90882609740E+03 -0.18673160444E+04  0.21418307268E+04  0.25500000920E-02 0. -1.
</event>
<event>
 5   0  0.4301754E-07  0.4004849E+04  0.7818609E-02  0.8003569E-01
        2   -1    0    0  501    0  0.00000000000E+00  0.00000000000E+00  0.20587355750E+04  0.20587355750E+04  0.25500000920E-02 0. -1.
       -2   -1    0    0    0  501  0.00000000000E+00  0.00000000000E+00 -0.19476534971E+04  0.19476534971E+04  0.25500000920E-02 0.  1.
    10030    2    1    2    0    0  0.00000000000E+00  0.00000000000E+00  0.11108207790E+03  0.40063890722E+04  0.40048488323E+04 0.  0.
        1    1    3    3  502    0 -0.31937190073E+03 -0.27790417393E+03 -0.19023714517E+04  0.19489089977E+04  0.50400001928E-02 0.  1.
       -1    1    3    3    0  502  0.31937190073E+03  0.27790417393E+03  0.20134535296E+04  0.20574800745E+04  0.50400001928E-02 0. -1.
</event>
<event>
 5   0  0.4047916E-07  0.3348190E+04  0.7818609E-02  0.8150741E-01
        2   -1    0    0  501    0  0.00000000000E+00  0.00000000000E+00  0.18809266163E+04  0.18809266163E+04  0.25500000920E-02 0. -1.
       -2   -1    0    0    0  501  0.00000000000E+00  0.00000000000E+00 -0.14900069950E+04  0.14900069950E+04  0.25500000920E-02 0.  1.
    10030    2    1    2    0    0  0.00000000000E+00  0.00000000000E+00  0.39091962137E+03  0.33709336113E+04  0.33481898484E+04 0.  0.
        5    1    3    3  502    0  0.84527476003E+03  0.95308944892E+03  0.12889790556E+04  0.18122797834E+04  0.46999998093E+01 0. -1.
       -5    1    3    3    0  502 -0.84527476003E+03 -0.95308944892E+03 -0.89805943426E+03  0.15586538278E+04  0.46999998093E+01 0.  1.
</event>
<event>
 5   0  0.1421304E-07  0.2620926E+04  0.7818609E-02  0.8361128E-01
       -1   -1    0    0    0  501  0.00000000000E+00  0.00000000000E+00  0.31383354708E+04  0.31383354708E+04  0.50400001928E-02 0. -1.
        1   -1    0    0  501    0  0.00000000000E+00  0.00000000000E+00 -0.54720513910E+03  0.54720513913E+03  0.50400001928E-02 0.  1.
    10030    2    1    2    0    0  0.00000000000E+00  0.00000000000E+00  0.25911303317E+04  0.36855406099E+04  0.26209260180E+04 0.  0.
        2    1    3    3  502    0  0.67980075048E+03  0.38818470339E+03 -0.18227914576E+03  0.80376744850E+03  0.25500000920E-02 0.  1.
       -2    1    3    3    0  502 -0.67980075048E+03 -0.38818470339E+03  0.27734094775E+04  0.28817731614E+04  0.25500000920E-02 0. -1.
</event>
<event>
 5   0  0.1351000E-07  0.3841056E+04  0.7818609E-02  0.8037401E-01
        1   -1    0    0  501    0  0.00000000000E+00  0.00000000000E+00  0.29698784362E+04  0.29698784362E+04  0.50400001928E-02 0.  1.
       -1   -1    0    0    0  501  0.00000000000E+00  0.00000000000E+00 -0.12419458887E+04  0.12419458887E+04  0.50400001928E-02 0. -1.
    10030    2    1    2    0    0  0.00000000000E+00  0.00000000000E+00  0.17279325474E+04  0.42118243249E+04  0.38410562682E+04 0.  0.
        3    1    3    3  502    0  0.14534390328E+04  0.10097462153E+04  0.16818581856E+04  0.24414584592E+04  0.10100000352E+00 0. -1.
       -3    1    3    3    0  502 -0.14534390328E+04 -0.10097462153E+04  0.46074361827E+02  0.17703658657E+04  0.10100000352E+00 0.  1.
</event>
<event>
 5   0  0.1372952E-07  0.3953188E+04  0.7818609E-02  0.8014057E-01
        1   -1    0    0  501    0  0.00000000000E+00  0.00000000000E+00  0.11725833956E+04  0.11725833956E+04  0.50400001928E-02 0. -1.
       -1   -1    0    0    0  501  0.00000000000E+00  0.00000000000E+00 -0.33318947041E+04  0.33318947041E+04  0.50400001928E-02 0.  1.
    10030    2    1    2    0    0  0.00000000000E+00  0.00000000000E+00 -0.21593113085E+04  0.45044780997E+04  0.39531882859E+04 0.  0.
        1    1    3    3  502    0 -0.17753758614E+04  0.85612525630E+03 -0.91059154728E+03  0.21711948023E+04  0.50400001928E-02 0.  1.
       -1    1    3    3    0  502  0.17753758614E+04 -0.85612525630E+03 -0.12487197612E+04  0.23332832974E+04  0.50400001928E-02 0. -1.
</event>
<event>
 5   0  0.1421304E-07  0.4011483E+04  0.7818609E-02  0.8002234E-01
       -1   -1    0    0    0  501  0.00000000000E+00  0.00000000000E+00  0.19628943416E+04  0.19628943416E+04  0.50400001928E-02 0. -1.
        1   -1    0    0  501    0  0.00000000000E+00  0.00000000000E+00 -0.20495237633E+04  0.20495237633E+04  0.50400001928E-02 0.  1.
    10030    2    1    2    0    0  0.00000000000E+00  0.00000000000E+00 -0.86629421693E+02  0.40124181049E+04  0.40114828171E+04 0.  0.
        2    1    3    3  502    0  0.11822173384E+04  0.15575114942E+04 -0.49009402504E+03  0.20158551643E+04  0.25500000920E-02 0.  1.
       -2    1    3    3    0  502 -0.11822173384E+04 -0.15575114942E+04  0.40346460335E+03  0.19965629407E+04  0.25500000920E-02 0. -1.
</event>
<event>
 5   0  0.4077370E-07  0.3730039E+04  0.7818609E-02  0.8061337E-01
       -2   -1    0    0    0  501  0.00000000000E+00  0.00000000000E+00  0.16696113592E+04  0.16696113593E+04  0.25500000920E-02 0. -1.
        2   -1    0    0  501    0  0.00000000000E+00  0.00000000000E+00 -0.20832974847E+04  0.20832974847E+04  0.25500000920E-02 0.  1.
    10030    2    1    2    0    0  0.00000000000E+00  0.00000000000E+00 -0.41368612546E+03  0.37529088440E+04  0.37300386835E+04 0.  0.
        3    1    3    3  502    0  0.76325030434E+03  0.81066251043E+03  0.12985165238E+04  0.17105174380E+04  0.10100000352E+00 0. -1.
       -3    1    3    3    0  502 -0.76325030434E+03 -0.81066251043E+03 -0.17122026492E+04  0.20423914060E+04  0.10100000352E+00 0.  1.
</event>
<event>
 5   0  0.1421304E-07  0.4114466E+04  0.7818609E-02  0.7981845E-01
        1   -1    0    0  501    0  0.00000000000E+00  0.00000000000E+00  0.19963338196E+04  0.19963338196E+04  0.50400001928E-02 0.  1.
       -1   -1    0    0    0  501  0.00000000000E+00  0.00000000000E+00 -0.21199894990E+04  0.21199894990E+04  0.50400001928E-02 0. -1.
    10030    2    1    2    0    0  0.00000000000E+00  0.00000000000E+00 -0.12365567940E+03  0.41163233186E+04  0.41144655711E+04 0.  0.
        2    1    3    3  502    0 -0.94696046418E+01 -0.15382472102E+04  0.13047730312E+04  0.20171085286E+04  0.25500000920E-02 0.  1.
       -2    1    3    3    0  502  0.94696046418E+01  0.15382472102E+04 -0.14284287106E+04  0.20992147900E+04  0.25500000920E-02 0. -1.
</event>
<event>
 5   0  0.4077370E-07  0.3809006E+04  0.7818609E-02  0.8044225E-01
       -2   -1    0    0    0  501  0.00000000000E+00  0.00000000000E+00  0.18002625670E+04  0.18002625670E+04  0.25500000920E-02 0. -1.
        2   -1    0    0  501    0  0.00000000000E+00  0.00000000000E+00 -0.20147792045E+04  0.20147792045E+04  0.25500000920E-02 0.  1.
    10030    2    1    2    0    0  0.00000000000E+00  0.00000000000E+00 -0.21451663750E+03  0.38150417715E+04  0.38090059504E+04 0.  0.
        3    1    3    3  502    0  0.17599728308E+04  0.23525405399E+03 -0.79703150067E+03  0.19463062602E+04  0.10100000352E+00 0.  1.
       -3    1    3    3    0  502 -0.17599728308E+04 -0.23525405399E+03  0.58251486316E+03  0.18687355113E+04  0.10100000352E+00 0. -1.
</event>
<event>
 5   0  0.4079777E-07  0.3849709E+04  0.7818609E-02  0.8035571E-01
        2   -1    0    0  501    0  0.00000000000E+00  0.00000000000E+00  0.23885261942E+04  0.23885261942E+04  0.25500000920E-02 0. -1.
       -2   -1    0    0    0  501  0.00000000000E+00  0.00000000000E+00 -0.15511931454E+04  0.15511931454E+04  0.25500000920E-02 0.  1.
    10030    2    1    2    0    0  0.00000000000E+00  0.00000000000E+00  0.83733304878E+03  0.39397193397E+04  0.38497093190E+04 0.  0.
        4    1    3    3  502    0 -0.18982401872E+04 -0.28711687318E+03  0.56088312669E+03  0.20000858486E+04  0.12699999809E+01 0.  1.
       -4    1    3    3    0  502  0.18982401872E+04  0.28711687318E+03  0.27644992209E+03  0.19396334910E+04  0.12699999809E+01 0. -1.
</event>
<event>
 5   0  0.1368865E-07  0.3505468E+04  0.7818609E-02  0.8112495E-01
       -1   -1    0    0    0  501  0.00000000000E+00  0.00000000000E+00  0.10838957692E+04  0.10838957692E+04  0.50400001928E-02 0. -1.
        1   -1    0    0  501    0  0.00000000000E+00  0.00000000000E+00 -0.28342909957E+04  0.28342909957E+04  0.50400001928E-02 0.  1.
    10030    2    1    2    0    0  0.00000000000E+00  0.00000000000E+00 -0.17503952264E+04  0.39181867649E+04  0.35054677400E+04 0.  0.
        5    1    3    3  502    0  0.69429465402E+03 -0.15044942625E+04 -0.23651563821E+03  0.16737711282E+04  0.46999998093E+01 0. -1.
       -5    1    3    3    0  502 -0.69429465402E+03  0.15044942625E+04 -0.15138795882E+04  0.22444156367E+04  0.46999998093E+01 0.  1.
</event>
<event>
 5   0  0.1351000E-07  0.2670745E+04  0.7818609E-02  0.8344560E-01
        1   -1    0    0  501    0  0.00000000000E+00  0.00000000000E+00  0.13383065915E+04  0.13383065916E+04  0.50400001928E-02 0.  1.
       -1   -1    0    0    0  501  0.00000000000E+00  0.00000000000E+00 -0.13324451682E+04  0.13324451682E+04  0.50400001928E-02 0. -1.
    10030    2    1    2    0    0  0.00000000000E+00  0.00000000000E+00  0.58614233208E+01  0.26707517598E+04  0.26707453278E+04 0.  0.
        3    1    3    3  502    0  0.93343333945E+03  0.92800984688E+03  0.22814241320E+03  0.13358701456E+04  0.10100000352E+00 0.  1.
       -3    1    3    3    0  502 -0.93343333945E+03 -0.92800984688E+03 -0.22228098988E+03  0.13348816141E+04  0.10100000352E+00 0. -1.
</event>
<event>
 5   0  0.1351000E-07  0.4074435E+04  0.7818609E-02  0.7989697E-01
       -1   -1    0    0    0  501  0.00000000000E+00  0.00000000000E+00  0.25066182406E+04  0.25066182406E+04  0.50400001928E-02 0.  1.
        1   -1    0    0  501    0  0.00000000000E+00  0.00000000000E+00 -0.16557186406E+04  0.16557186406E+04  0.50400001928E-02 0. -1.
    10030    2    1    2    0    0  0.00000000000E+00  0.00000000000E+00  0.85089960000E+03  0.41623368812E+04  0.40744347072E+04 0.  0.
        4    1    3    3  502    0 -0.35240710554E+03  0.78413975739E+03 -0.14613361295E+04  0.16954559338E+04  0.12699999809E+01 0. -1.
       -4    1    3    3    0  502  0.35240710554E+03 -0.78413975739E+03  0.23122357295E+04  0.24668809474E+04  0.12699999809E+01 0.  1.
</event>
<event>
 5   0  0.1440921E-07  0.2447435E+04  0.7818609E-02  0.8421955E-01
       -1   -1    0    0    0  501  0.00000000000E+00  0.00000000000E+00  0.75354889826E+03  0.75354889827E+03  0.50400001928E-02 0. -1.
        1   -1    0    0  501    0  0.00000000000E+00  0.00000000000E+00 -0.19872427493E+04  0.19872427493E+04  0.50400001928E-02 0.  1.
    10030    2    1    2    0    0  0.00000000000E+00  0.00000000000E+00 -0.12336938510E+04  0.27407916476E+04  0.24474350527E+04 0.  0.
        5    1    3    3  502    0 -0.76747695627E+03 -0.89438142146E+03 -0.24793158058E+03  0.12043384757E+04  0.46999998093E+01 0. -1.
       -5    1    3    3    0  502  0.76747695627E+03  0.89438142146E+03 -0.98576227045E+03  0.15364531719E+04  0.46999998093E+01 0.  1.
</event>
<event>
 5   0  0.4149487E-07  0.3148257E+04  0.7818609E-02  0.8202618E-01
       -2   -1    0    0    0  501  0.00000000000E+00  0.00000000000E+00  0.13923858058E+04  0.13923858058E+04  0.25500000920E-02 0. -1.
        2   -1    0    0  501    0  0.00000000000E+00  0.00000000000E+00 -0.17795934112E+04  0.17795934112E+04  0.25500000920E-02 0.  1.
    10030    2    1    2    0    0  0.00000000000E+00  0.00000000000E+00 -0.38720760535E+03  0.31719792170E+04  0.31482570453E+04 0.  0.
        2    1    3    3  502    0  0.89625725227E+03  0.10926076376E+04  0.50502717831E+03  0.15007068211E+04  0.25500000920E-02 0.  1.
       -2    1    3    3    0  502 -0.89625725227E+03 -0.10926076376E+04 -0.89223478366E+03  0.16712723959E+04  0.25500000920E-02 0. -1.
</event>
<event>
 5   0  0.1421304E-07  0.3996244E+04  0.7818609E-02  0.8005305E-01
       -1   -1    0    0    0  501  0.00000000000E+00  0.00000000000E+00  0.19587113160E+04  0.19587113160E+04  0.50400001928E-02 0. -1.
        1   -1    0    0  501    0  0.00000000000E+00  0.00000000000E+00 -0.20383252519E+04  0.20383252519E+04  0.50400001928E-02 0.  1.
    10030    2    1    2    0    0  0.00000000000E+00  0.00000000000E+00 -0.79613935874E+02  0.39970365679E+04  0.39962436045E+04 0.  0.
        2    1    3    3  502    0  0.83032077753E+02 -0.12327000023E+04  0.15308699160E+04  0.19672331639E+04  0.25500000920E-02 0. -1.
       -2    1    3    3    0  502 -0.83032077753E+02  0.12327000023E+04 -0.16104838518E+04  0.20298034040E+04  0.25500000920E-02 0.  1.
</event>
<event>
 5   0  0.4077370E-07  0.3849278E+04  0.7818609E-02  0.8035662E-01
       -2   -1    0    0    0  501  0.00000000000E+00  0.00000000000E+00  0.16413258394E+04  0.16413258394E+04  0.25500000920E-02 0.  1.
        2   -1    0    0  501    0  0.00000000000E+00  0.00000000000E+00 -0.22568550182E+04  0.22568550182E+04  0.25500000920E-02 0. -1.
    10030    2    1    2    0    0  0.00000000000E+00  0.00000000000E+00 -0.61552917881E+03  0.38981808575E+04  0.38492775722E+04 0.  0.
        3    1    3    3  502    0  0.11309083983E+04  0.86935979435E+03  0.10007398823E+04  0.17424754172E+04  0.10100000352E+00 0.  1.
       -3    1    3    3    0  502 -0.11309083983E+04 -0.86935979435E+03 -0.16162690611E+04  0.21557054403E+04  0.10100000352E+00 0. -1.
</event>
<event>
 5   0  0.1372952E-07  0.3876295E+04  0.7818609E-02  0.8029978E-01
        1   -1    0    0  501    0  0.00000000000E+00  0.00000000000E+00  0.13443363279E+04  0.13443363279E+04  0.50400001928E-02 0.  1.
       -1   -1    0    0    0  501  0.00000000000E+00  0.00000000000E+00 -0.27942529069E+04  0.27942529069E+04  0.50400001928E-02 0. -1.
    10030    2    1    2    0    0  0.00000000000E+00  0.00000000000E+00 -0.14499165790E+04  0.41385892349E+04  0.38762949796E+04 0.  0.
        1    1    3    3  502    0 -0.18603714593E+04 -0.47612681928E+03 -0.10048762217E+04  0.21673612840E+04  0.50400001928E-02 0. -1.
       -1    1    3    3    0  502  0.18603714593E+04  0.47612681928E+03 -0.44504035730E+03  0.19712279508E+04  0.50400001928E-02 0.  1.
</event>
<event>
 5   0  0.4077370E-07  0.3435410E+04  0.7818609E-02  0.8129270E-01
       -2   -1    0    0    0  501  0.00000000000E+00  0.00000000000E+00  0.12391971609E+04  0.12391971609E+04  0.25500000920E-02 0. -1.
        2   -1    0    0  501    0  0.00000000000E+00  0.00000000000E+00 -0.23809861660E+04  0.23809861660E+04  0.25500000920E-02 0.  1.
    10030    2    1    2    0    0  0.00000000000E+00  0.00000000000E+00 -0.11417890051E+04  0.36201833269E+04  0.34354104832E+04 0.  0.
        3    1    3    3  502    0  0.56500369853E+03  0.15456351782E+04 -0.10896028776E+04  0.19736898755E+04  0.10100000352E+00 0.  1.
       -3    1    3    3    0  502 -0.56500369853E+03 -0.15456351782E+04 -0.52186127532E+02  0.16464934514E+04  0.10100000352E+00 0. -1.
</event>
<event>
 5   0  0.4047916E-07  0.3718652E+04  0.7818609E-02  0.8063841E-01
        2   -1    0    0  501    0  0.00000000000E+00  0.00000000000E+00  0.21923632332E+04  0.21923632332E+04  0.25500000920E-02 0. -1.
       -2   -1    0    0    0  501  0.00000000000E+00  0.00000000000E+00 -0.15768793895E+04  0.15768793895E+04  0.25500000920E-02 0.  1.
    10030    2    1    2    0    0  0.00000000000E+00  0.00000000000E+00  0.61548384368E+03  0.37692426227E+04  0.37186515818E+04 0.  0.
        5    1    3    3  502    0  0.10380846901E+04 -0.63634085354E+03  0.17320353191E+04  0.21171957732E+04  0.46999998093E+01 0. -1.
       -5    1    3    3    0  502 -0.10380846901E+04  0.63634085354E+03 -0.11165514754E+04  0.16520468495E+04  0.46999998093E+01 0.  1.
</event>
<event>
 5   0  0.4047916E-07  0.3955763E+04  0.7818609E-02  0.8013531E-01
        2   -1    0    0  501    0  0.00000000000E+00  0.00000000000E+00  0.23615716918E+04  0.23615716918E+04  0.25500000920E-02 0. -1.
       -2   -1    0    0    0  501  0.00000000000E+00  0.00000000000E+00 -0.16565299644E+04  0.16565299644E+04  0.25500000920E-02 0.  1.
    10030    2    1    2    0    0  0.00000000000E+00  0.00000000000E+00  0.70504172738E+03  0.40181016562E+04  0.39557625159E+04 0.  0.
        5    1    3    3  502    0 -0.47945298796E+03 -0.17512891040E+04 -0.44412407948E+03  0.18692664287E+04  0.46999998093E+01 0. -1.
       -5    1    3    3    0  502  0.47945298796E+03  0.17512891040E+04  0.11491658069E+04  0.21488352275E+04  0.46999998093E+01 0.  1.
</event>
<event>
 5   0  0.4077370E-07  0.4017768E+04  0.7818609E-02  0.8000972E-01
       -2   -1    0    0    0  501  0.00000000000E+00  0.00000000000E+00  0.22220360531E+04  0.22220360531E+04  0.25500000920E-02 0.  1.
        2   -1    0    0  501    0  0.00000000000E+00  0.00000000000E+00 -0.18161787229E+04  0.18161787229E+04  0.25500000920E-02 0. -1.
    10030    2    1    2    0    0  0.00000000000E+00  0.00000000000E+00  0.40585733016E+03  0.40382147760E+04  0.40177678386E+04 0.  0.
        3    1    3    3  502    0  0.11969346053E+04  0.11899634973E+03  0.18200924018E+04  0.21816390494E+04  0.10100000352E+00 0.  1.
       -3    1    3    3    0  502 -0.11969346053E+04 -0.11899634973E+03 -0.14142350716E+04  0.18565757266E+04  0.10100000352E+00 0. -1.
</event>
<event>
 5   0  0.1372952E-07  0.3184202E+04  0.7818609E-02  0.8193002E-01
        1   -1    0    0  501    0  0.00000000000E+00  0.00000000000E+00  0.15559251526E+04  0.15559251526E+04  0.50400001928E-02 0. -1.
       -1   -1    0    0    0  501  0.00000000000E+00  0.00000000000E+00 -0.16291180189E+04  0.16291180189E+04  0.50400001928E-02 0.  1.
    10030    2    1    2    0    0  0.00000000000E+00  0.00000000000E+00 -0.73192866367E+02  0.31850431715E+04  0.31842020678E+04 0.  0.
        1    1    3    3  502    0  0.57835528225E+03  0.33022735880E+03 -0.14830907143E+04  0.16257622851E+04  0.50400001928E-02 0.  1.
       -1    1    3    3    0  502 -0.57835528225E+03 -0.33022735880E+03  0.14098978479E+04  0.15592808864E+04  0.50400001928E-02 0. -1.
</event>
<event>
 5   0  0.1421304E-07  0.3946769E+04  0.7818609E-02  0.8015372E-01
        1   -1    0    0  501    0  0.00000000000E+00  0.00000000000E+00  0.17950660812E+04  0.17950660813E+04  0.50400001928E-02 0.  1.
       -1   -1    0    0    0  501  0.00000000000E+00  0.00000000000E+00 -0.21694162923E+04  0.21694162923E+04  0.50400001928E-02 0. -1.
    10030    2    1    2    0    0  0.00000000000E+00  0.00000000000E+00 -0.37435021100E+03  0.39644823735E+04  0.39467686035E+04 0.  0.
        2    1    3    3  502    0  0.18683209731E+04  0.47944120398E+03 -0.60588943663E+03  0.20217787060E+04  0.25500000920E-02 0.  1.
       -2    1    3    3    0  502 -0.18683209731E+04 -0.47944120398E+03  0.23153922562E+03  0.19427036675E+04  0.25500000920E-02 0. -1.
</event>
<event>
 5   0  0.1368865E-07  0.2810842E+04  0.7818609E-02  0.8299910E-01
        1   -1    0    0  501    0  0.00000000000E+00  0.00000000000E+00  0.15366704296E+04  0.15366704297E+04  0.50400001928E-02 0. -1.
       -1   -1    0    0    0  501  0.00000000000E+00  0.00000000000E+00 -0.12853820956E+04  0.12853820956E+04  0.50400001928E-02 0.  1.
    10030    2    1    2    0    0  0.00000000000E+00  0.00000000000E+00  0.25128833405E+03  0.28220525253E+04  0.28108423343E+04 0.  0.
        5    1    3    3  502    0 -0.12718955242E+04 -0.27810671932E+03 -0.40573501756E+03  0.13637098541E+04  0.46999998093E+01 0.  1.
       -5    1    3    3    0  502  0.12718955242E+04  0.27810671932E+03  0.65702335161E+03  0.14583426711E+04  0.46999998093E+01 0. -1.
</event>
<event>
 5   0  0.4149487E-07  0.4025473E+04  0.7818609E-02  0.7999427E-01
       -2   -1    0    0    0  501  0.00000000000E+00  0.00000000000E+00  0.25417490502E+04  0.25417490502E+04  0.25500000920E-02 0. -1.
        2   -1    0    0  501    0  0.00000000000E+00  0.00000000000E+00 -0.15938270209E+04  0.15938270209E+04  0.25500000920E-02 0.  1.
    10030    2    1    2    0    0  0.00000000000E+00  0.00000000000E+00  0.94792202928E+03  0.41355760711E+04  0.40254730487E+04 0.  0.
        2    1    3    3  502    0 -0.57350411666E+03  0.79786810175E+02 -0.15064134826E+04  0.16138632183E+04  0.25500000920E-02 0.  1.
       -2    1    3    3    0  502  0.57350411666E+03 -0.79786810175E+02  0.24543355119E+04  0.25217128527E+04  0.25500000920E-02 0. -1.
</event>
<event>
 5   0  0.1351000E-07  0.4095370E+04  0.7818609E-02  0.7985579E-01
        1   -1    0    0  501    0  0.00000000000E+00  0.00000000000E+00  0.16803283915E+04  0.16803283915E+04  0.50400001928E-02 0.  1.
       -1   -1    0    0    0  501  0.00000000000E+00  0.00000000000E+00 -0.24953540076E+04  0.24953540076E+04  0.50400001928E-02 0. -1.
    10030    2    1    2    0    0  0.00000000000E+00  0.00000000000E+00 -0.81502561607E+03  0.41756823991E+04  0.40953701595E+04 0.  0.
        3    1    3    3  502    0  0.17064504718E+04  0.10599785213E+04 -0.81214083315E+03  0.21668180407E+04  0.10100000352E+00 0. -1.
       -3    1    3    3    0  502 -0.17064504718E+04 -0.10599785213E+04 -0.28847829134E+01  0.20088643584E+04  0.10100000352E+00 0.  1.
</event>
<event>
 5   0  0.1351000E-07  0.4128999E+04  0.7818609E-02  0.7979017E-01
        1   -1    0    0  501    0  0.00000000000E+00  0.00000000000E+00  0.17782428206E+04  0.17782428206E+04  0.50400001928E-02 0.  1.
       -1   -1    0    0    0  501  0.00000000000E+00  0.00000000000E+00 -0.23968366054E+04  0.23968366054E+04  0.50400001928E-02 0. -1.
    10030    2    1    2    0    0  0.00000000000E+00  0.00000000000E+00 -0.61859378478E+03  0.41750794259E+04  0.41289986610E+04 0.  0.
        4    1    3    3  502    0 -0.40780004631E+03 -0.80701067542E+03  0.15673764722E+04  0.18094854867E+04  0.12699999809E+01 0.  1.
       -4    1    3    3    0  502  0.40780004631E+03  0.80701067542E+03 -0.21859702570E+04  0.23655939392E+04  0.12699999809E+01 0. -1.
</event>
<event>
 5   0  0.4079777E-07  0.3982227E+04  0.7818609E-02  0.8008142E-01
       -2   -1    0    0    0  501  0.00000000000E+00  0.00000000000E+00  0.18641901174E+04  0.18641901174E+04  0.25500000920E-02 0.  1.
        2   -1    0    0  501    0  0.00000000000E+00  0.00000000000E+00 -0.21266785620E+04  0.21266785620E+04  0.25500000920E-02 0. -1.
    10030    2    1    2    0    0  0.00000000000E+00  0.00000000000E+00 -0.26248844464E+03  0.39908686794E+04  0.39822270945E+04 0.  0.
        4    1    3    3  502    0 -0.18627102946E+04  0.33212777429E+02  0.57294609578E+03  0.19491181524E+04  0.12699999809E+01 0.  1.
       -4    1    3    3    0  502  0.18627102946E+04 -0.33212777429E+02 -0.83543454043E+03  0.20417505270E+04  0.12699999809E+01 0. -1.
</event>
<event>
 5   0  0.1351000E-07  0.3696509E+04  0.7818609E-02  0.8068736E-01
        1   -1    0    0  501    0  0.00000000000E+00  0.00000000000E+00  0.22310611305E+04  0.22310611305E+04  0.50400001928E-02 0.  1.
       -1   -1    0    0    0  501  0.00000000000E+00  0.00000000000E+00 -0.15311303949E+04  0.15311303950E+04  0.50400001928E-02 0. -1.
    10030    2    1    2    0    0  0.00000000000E+00  0.00000000000E+00  0.69993073553E+03  0.37621915254E+04  0.36965094399E+04 0.  0.
        4    1    3    3  502    0  0.83644561431E+03 -0.51574118724E+03 -0.12432290774E+04  0.15846925221E+04  0.12699999809E+01 0. -1.
       -4    1    3    3    0  502 -0.83644561431E+03  0.51574118724E+03  0.19431598129E+04  0.21774990033E+04  0.12699999809E+01 0.  1.
</event>
<event>
 5   0  0.1351000E-07  0.4010968E+04  0.7818609E-02  0.8002338E-01
       -1   -1    0    0    0  501  0.00000000000E+00  0.00000000000E+00  0.27194764914E+04  0.27194764914E+04  0.50400001928E-02 0. -1.
        1   -1    0    0  501    0  0.00000000000E+00  0.00000000000E+00 -0.14789484845E+04  0.14789484845E+04  0.50400001928E-02 0.  1.
    10030    2    1    2    0    0  0.00000000000E+00  0.00000000000E+00  0.12405280069E+04  0.41984249759E+04  0.40109677813E+04 0.  0.
        4    1    3    3  502    0 -0.14705261681E+04  0.84968729029E+03  0.17366699735E+04  0.24290821131E+04  0.12699999809E+01 0. -1.
       -4    1    3    3    0  502  0.14705261681E+04 -0.84968729029E+03 -0.49614196665E+03  0.17693428628E+04  0.12699999809E+01 0.  1.
</event>
<event>
 5   0  0.1372952E-07  0.3981676E+04  0.7818609E-02  0.8008253E-01
        1   -1    0    0  501    0  0.00000000000E+00  0.00000000000E+00  0.18532536938E+04  0.18532536938E+04  0.50400001928E-02 0. -1.
       -1   -1    0    0    0  501  0.00000000000E+00  0.00000000000E+00 -0.21386367273E+04  0.21386367273E+04  0.50400001928E-02 0.  1.
    10030    2    1    2    0    0  0.00000000000E+00  0.00000000000E+00 -0.28538303346E+03  0.39918904211E+04  0.39816762373E+04 0.  0.
        1    1    3    3  502    0 -0.61396363039E+03  0.10257398850E+04  0.14533542618E+04  0.18818427834E+04  0.50400001928E-02 0. -1.
       -1    1    3    3    0  502  0.61396363039E+03 -0.10257398850E+04 -0.17387372953E+04  0.21100476377E+04  0.50400001928E-02 0.  1.
</event>
<event>
 5   0  0.4301754E-07  0.3733036E+04  0.7818609E-02  0.8060680E-01
        2   -1    0    0  501    0  0.00000000000E+00  0.00000000000E+00  0.20030576710E+04  0.20030576710E+04  0.25500000920E-02 0.  1.
       -2   -1    0    0    0  501  0.00000000000E+00  0.00000000000E+00 -0.17392853086E+04  0.17392853086E+04  0.25500000920E-02 0. -1.
    10030    2    1    2    0    0  0.00000000000E+00  0.00000000000E+00  0.26377236238E+03  0.37423429796E+04  0.37330356437E+04 0.  0.
        1    1    3    3  502    0 -0.18158285501E+04  0.21493735189E+03 -0.24382467905E+03  0.18446901807E+04  0.50400001928E-02 0.  1.
       -1    1    3    3    0  502  0.18158285501E+04 -0.21493735189E+03  0.50759704143E+03  0.18976527989E+04  0.50400001928E-02 0. -1.
</event>
<event>
 5   0  0.1351000E-07  0.2904129E+04  0.7818609E-02  0.8271650E-01
        1   -1    0    0  501    0  0.00000000000E+00  0.00000000000E+00  0.18752205938E+04  0.18752205938E+04  0.50400001928E-02 0. -1.
       -1   -1    0    0    0  501  0.00000000000E+00  0.00000000000E+00 -0.11243960552E+04  0.11243960552E+04  0.50400001928E-02 0.  1.
    10030    2    1    2    0    0  0.00000000000E+00  0.00000000000E+00  0.75082453854E+03  0.29996166490E+04  0.29041285359E+04 0.  0.
        3    1    3    3  502    0 -0.34705087738E+03 -0.13067722212E+04  0.92234417092E+03  0.16367091157E+04  0.10100000352E+00 0. -1.
       -3    1    3    3    0  502  0.34705087738E+03  0.13067722212E+04 -0.17151963239E+03  0.13629075332E+04  0.10100000352E+00 0.  1.
</event>
<event>
 5   0  0.4149487E-07  0.4048126E+04  0.7818609E-02  0.7994908E-01
        2   -1    0    0  501    0  0.00000000000E+00  0.00000000000E+00  0.17060964859E+04  0.17060964859E+04  0.25500000920E-02 0.  1.
       -2   -1    0    0    0  501  0.00000000000E+00  0.00000000000E+00 -0.24012889342E+04  0.24012889342E+04  0.25500000920E-02 0. -1.
    10030    2    1    2    0    0  0.00000000000E+00  0.00000000000E+00 -0.69519244833E+03  0.41073854201E+04  0.40481257946E+04 0.  0.
        2    1    3    3  502    0  0.51413982279E+03 -0.64187325373E+03 -0.22241265768E+04  0.23713034519E+04  0.25500000920E-02 0. -1.
       -2    1    3    3    0  502 -0.51413982279E+03  0.64187325373E+03  0.15289341285E+04  0.17360819682E+04  0.25500000920E-02 0.  1.
</event>
<event>
 5   0  0.4077370E-07  0.3919357E+04  0.7818609E-02  0.8021015E-01
        2   -1    0    0  501    0  0.00000000000E+00  0.00000000000E+00  0.20889117445E+04  0.20889117445E+04  0.25500000920E-02 0.  1.
       -2   -1    0    0    0  501  0.00000000000E+00  0.00000000000E+00 -0.18384404721E+04  0.18384404721E+04  0.25500000920E-02 0. -1.
    10030    2    1    2    0    0  0.00000000000E+00  0.00000000000E+00  0.25047127240E+03  0.39273522165E+04  0.39193570358E+04 0.  0.
        3    1    3    3  502    0  0.39586211021E+03 -0.62631213325E+01 -0.17979486138E+04  0.18410228855E+04  0.10100000352E+00 0. -1.
       -3    1    3    3    0  502 -0.39586211021E+03  0.62631213325E+01  0.20484198862E+04  0.20863293310E+04  0.10100000352E+00 0.  1.
</event>
<event>
 5   0  0.1368865E-07  0.4066072E+04  0.7818609E-02  0.7991349E-01
        1   -1    0    0  501    0  0.00000000000E+00  0.00000000000E+00  0.27489205077E+04  0.27489205077E+04  0.50400001928E-02 0. -1.
       -1   -1    0    0    0  501  0.00000000000E+00  0.00000000000E+00 -0.15035850573E+04  0.15035850573E+04  0.50400001928E-02 0.  1.
    10030    2    1    2    0    0  0.00000000000E+00  0.00000000000E+00  0.12453354505E+04  0.42525055650E+04  0.40660722074E+04 0.  0.
        5    1    3    3  502    0 -0.60566868076E+03  0.13629949071E+04  0.20675418006E+04  0.25493804845E+04  0.46999998093E+01 0. -1.
       -5    1    3    3    0  502  0.60566868076E+03 -0.13629949071E+04 -0.82220635014E+03  0.17031250805E+04  0.46999998093E+01 0.  1.
</event>
<event>
 5   0  0.4079777E-07  0.3934239E+04  0.7818609E-02  0.8017946E-01
       -2   -1    0    0    0  501  0.00000000000E+00  0.00000000000E+00  0.15361756086E+04  0.15361756086E+04  0.25500000920E-02 0.  1.
        2   -1    0    0  501    0  0.00000000000E+00  0.00000000000E+00 -0.25189557068E+04  0.25189557068E+04  0.25500000920E-02 0. -1.
    10030    2    1    2    0    0  0.00000000000E+00  0.00000000000E+00 -0.98278009816E+03  0.40551313154E+04  0.39342385875E+04 0.  0.
        4    1    3    3  502    0 -0.61621611535E+03 -0.14540527741E+03 -0.24110622669E+04  0.24928072255E+04  0.12699999809E+01 0. -1.
       -4    1    3    3    0  502  0.61621611535E+03  0.14540527741E+03  0.14282821688E+04  0.15623240899E+04  0.12699999809E+01 0.  1.
</event>
<event>
 5   0  0.4079777E-07  0.3977730E+04  0.7818609E-02  0.8009054E-01
        2   -1    0    0  501    0  0.00000000000E+00  0.00000000000E+00  0.19570685576E+04  0.19570685576E+04  0.25500000920E-02 0.  1.
       -2   -1    0    0    0  501  0.00000000000E+00  0.00000000000E+00 -0.20211775753E+04  0.20211775753E+04  0.25500000920E-02 0. -1.
    10030    2    1    2    0    0  0.00000000000E+00  0.00000000000E+00 -0.64109017702E+02  0.39782461330E+04  0.39777295444E+04 0.  0.
        4    1    3    3  502    0 -0.11629719179E+04  0.38662475177E+03  0.15345457685E+04  0.19638774679E+04  0.12699999809E+01 0.  1.
       -4    1    3    3    0  502  0.11629719179E+04 -0.38662475177E+03 -0.15986547862E+04  0.20143686651E+04  0.12699999809E+01 0. -1.
</event>
<event>
 5   0  0.4149487E-07  0.2632538E+04  0.7818609E-02  0.8357232E-01
       -2   -1    0    0    0  501  0.00000000000E+00  0.00000000000E+00  0.10682340666E+04  0.10682340666E+04  0.25500000920E-02 0.  1.
        2   -1    0    0  501    0  0.00000000000E+00  0.00000000000E+00 -0.16218959891E+04  0.16218959891E+04  0.25500000920E-02 0. -1.
    10030    2    1    2    0    0  0.00000000000E+00  0.00000000000E+00 -0.55366192250E+03  0.26901300557E+04  0.26325383553E+04 0.  0.
        2    1    3    3  502    0 -0.92950148967E+03 -0.81694067912E+03 -0.73519651179E+03  0.14394023077E+04  0.25500000920E-02 0. -1.
       -2    1    3    3    0  502  0.92950148967E+03  0.81694067912E+03  0.18153458930E+03  0.12507277480E+04  0.25500000920E-02 0.  1.
</event>
<event>
 5   0  0.1368865E-07  0.3836950E+04  0.7818609E-02  0.8038272E-01
        1   -1    0    0  501    0  0.00000000000E+00  0.00000000000E+00  0.34305652173E+04  0.34305652173E+04  0.50400001928E-02 0.  1.
       -1   -1    0    0    0  501  0.00000000000E+00  0.00000000000E+00 -0.10728685087E+04  0.10728685087E+04  0.50400001928E-02 0. -1.
    10030    2    1    2    0    0  0.00000000000E+00  0.00000000000E+00  0.23576967086E+04  0.45034337259E+04  0.38369495115E+04 0.  0.
        5    1    3    3  502    0  0.16979718865E+04  0.81305955007E+03  0.16122430312E+04  0.24786133303E+04  0.46999998093E+01 0.  1.
       -5    1    3    3    0  502 -0.16979718865E+04 -0.81305955007E+03  0.74545367737E+03  0.20248203956E+04  0.46999998093E+01 0. -1.
</event>
<event>
 5   0  0.4077370E-07  0.3995553E+04  0.7818609E-02  0.8005444E-01
       -2   -1    0    0    0  501  0.00000000000E+00  0.00000000000E+00  0.16547546992E+04  0.16547546992E+04  0.25500000920E-02 0. -1.
        2   -1    0    0  501    0  0.00000000000E+00  0.00000000000E+00 -0.24119049819E+04  0.24119049819E+04  0.25500000920E-02 0.  1.
    10030    2    1    2    0    0  0.00000000000E+00  0.00000000000E+00 -0.75715028263E+03  0.40666596811E+04  0.39955530795E+04 0.  0.
        3    1    3    3  502    0  0.14665626992E+04  0.12074943470E+04  0.25070160651E+03  0.19161680653E+04  0.10100000352E+00 0. -1.
       -3    1    3    3    0  502 -0.14665626992E+04 -0.12074943470E+04 -0.10078518891E+04  0.21504916158E+04  0.10100000352E+00 0.  1.
</event>
<event>
 5   0  0.1351000E-07  0.2660868E+04  0.7818609E-02  0.8347815E-01
        3   -1    0    0  501    0  0.00000000000E+00  0.00000000000E+00  0.21580593411E+04  0.21580593435E+04  0.10100000352E+00 0. -1.
       -3   -1    0    0    0  501  0.00000000000E+00  0.00000000000E+00 -0.82020667009E+03  0.82020667631E+03  0.10100000352E+00 0.  1.
    10030    2    1    2    0    0  0.00000000000E+00  0.00000000000E+00  0.13378526710E+04  0.29782660198E+04  0.26608680379E+04 0.  0.
        1    1    3    3  502    0  0.10239294060E+04 -0.20899536626E+03 -0.25266232048E+03  0.10751505661E+04  0.50400001928E-02 0.  1.
       -1    1    3    3    0  502 -0.10239294060E+04  0.20899536626E+03  0.15905149915E+04  0.19031154536E+04  0.50400001928E-02 0. -1.
</event>
<event>
 5   0  0.1351000E-07  0.3167926E+04  0.7818609E-02  0.8197340E-01
        1   -1    0    0  501    0  0.00000000000E+00  0.00000000000E+00  0.21324146802E+04  0.21324146802E+04  0.50400001928E-02 0. -1.
       -1   -1    0    0    0  501  0.00000000000E+00  0.00000000000E+00 -0.11765718004E+04  0.11765718004E+04  0.50400001928E-02 0.  1.
    10030    2    1    2    0    0  0.00000000000E+00  0.00000000000E+00  0.95584287980E+03  0.33089864806E+04  0.31679261225E+04 0.  0.
        3    1    3    3  502    0  0.76623586790E+03  0.54497914307E+03  0.18093641431E+04  0.20390974190E+04  0.10100000352E+00 0. -1.
       -3    1    3    3    0  502 -0.76623586790E+03 -0.54497914307E+03 -0.85352126327E+03  0.12698890616E+04  0.10100000352E+00 0.  1.
</event>
<event>
 5   0  0.1351000E-07  0.4097288E+04  0.7818609E-02  0.7985203E-01
       -3   -1    0    0    0  501  0.00000000000E+00  0.00000000000E+00  0.15569994023E+04  0.15569994055E+04  0.10100000352E+00 0.  1.
        3   -1    0    0  501    0  0.00000000000E+00  0.00000000000E+00 -0.26955324180E+04  0.26955324199E+04  0.10100000352E+00 0. -1.
    10030    2    1    2    0    0  0.00000000000E+00  0.00000000000E+00 -0.11385330157E+04  0.42525318254E+04  0.40972880663E+04 0.  0.
        5    1    3    3  502    0  0.64442821063E+03 -0.86150143306E+03 -0.23787241522E+04  0.26107131439E+04  0.46999998093E+01 0. -1.
       -5    1    3    3    0  502 -0.64442821063E+03  0.86150143306E+03  0.12401911365E+04  0.16418186815E+04  0.46999998093E+01 0.  1.
</event>
<event>
 5   0  0.4079777E-07  0.4014223E+04  0.7818609E-02  0.8001683E-01
        2   -1    0    0  501    0  0.00000000000E+00  0.00000000000E+00  0.24112641783E+04  0.24112641783E+04  0.25500000920E-02 0. -1.
       -2   -1    0    0    0  501  0.00000000000E+00  0.00000000000E+00 -0.16706990244E+04  0.16706990244E+04  0.25500000920E-02 0.  1.
    10030    2    1    2    0    0  0.00000000000E+00  0.00000000000E+00  0.74056515386E+03  0.40819632027E+04  0.40142230682E+04 0.  0.
        4    1    3    3  502    0  0.38143455179E+03 -0.15534552247E+04 -0.86252046504E+03  0.18173218256E+04  0.12699999809E+01 0.  1.
       -4    1    3    3    0  502 -0.38143455179E+03  0.15534552247E+04  0.16030856189E+04  0.22646413771E+04  0.12699999809E+01 0. -1.
</event>
<event>
 5   0  0.1351000E-07  0.3974769E+04  0.7818609E-02  0.8009656E-01
       -1   -1    0    0    0  501  0.00000000000E+00  0.00000000000E+00  0.19314574874E+04  0.19314574874E+04  0.50400001928E-02 0.  1.
        1   -1    0    0  501    0  0.00000000000E+00  0.00000000000E+00 -0.20449306021E+04  0.20449306021E+04  0.50400001928E-02 0. -1.
    10030    2    1    2    0    0  0.00000000000E+00  0.00000000000E+00 -0.11347311471E+03  0.39763880895E+04  0.39747686839E+04 0.  0.
        4    1    3    3  502    0  0.10299686665E+04  0.61718719177E+03 -0.16410292760E+04  0.20334045789E+04  0.12699999809E+01 0. -1.
       -4    1    3    3    0  502 -0.10299686665E+04 -0.61718719177E+03  0.15275561613E+04  0.19429835106E+04  0.12699999809E+01 0.  1.
</event>
<event>
 5   0  0.1351000E-07  0.2665474E+04  0.7818609E-02  0.8346295E-01
        1   -1    0    0  501    0  0.00000000000E+00  0.00000000000E+00  0.16558503258E+04  0.16558503258E+04  0.50400001928E-02 0.  1.
       -1   -1    0    0    0  501  0.00000000000E+00  0.00000000000E+00 -0.10726738314E+04  0.10726738314E+04  0.50400001928E-02 0. -1.
    10030    2    1    2    0    0  0.00000000000E+00  0.00000000000E+00  0.58317649445E+03  0.27285241572E+04  0.26654735513E+04 0.  0.
        3    1    3    3  502    0  0.19367038153E+03  0.97845052216E+03 -0.61323996839E+03  0.11708701508E+04  0.10100000352E+00 0. -1.
       -3    1    3    3    0  502 -0.19367038153E+03 -0.97845052216E+03  0.11964164628E+04  0.15576540064E+04  0.10100000352E+00 0.  1.
</event>
<event>
 5   0  0.4149487E-07  0.3768292E+04  0.7818609E-02  0.8052994E-01
        2   -1    0    0  501    0  0.00000000000E+00  0.00000000000E+00  0.17538011039E+04  0.17538011039E+04  0.25500000920E-02 0. -1.
       -2   -1    0    0    0  501  0.00000000000E+00  0.00000000000E+00 -0.20241781308E+04  0.20241781308E+04  0.25500000920E-02 0.  1.
    10030    2    1    2    0    0  0.00000000000E+00  0.00000000000E+00 -0.27037702681E+03  0.37779792347E+04  0.37682918360E+04 0.  0.
        2    1    3    3  502    0  0.41530579130E+03 -0.12670758259E+04 -0.14697927749E+04  0.19845026707E+04  0.25500000920E-02 0. -1.
       -2    1    3    3    0  502 -0.41530579130E+03  0.12670758259E+04  0.11994157481E+04  0.17934765640E+04  0.25500000920E-02 0.  1.
</event>
<event>
 5   0  0.1351000E-07  0.4038254E+04  0.7818609E-02  0.7996874E-01
       -1   -1    0    0    0  501  0.00000000000E+00  0.00000000000E+00  0.18004647810E+04  0.18004647810E+04  0.50400001928E-02 0.  1.
        1   -1    0    0  501    0  0.00000000000E+00  0.00000000000E+00 -0.22643451373E+04  0.22643451373E+04  0.50400001928E-02 0. -1.
    10030    2    1    2    0    0  0.00000000000E+00  0.00000000000E+00 -0.46388035630E+03  0.40648099184E+04  0.40382539157E+04 0.  0.
        3    1    3    3  502    0  0.16015876618E+04 -0.30649265342E+03  0.96662650988E+03  0.18956232760E+04  0.10100000352E+00 0.  1.
       -3    1    3    3    0  502 -0.16015876618E+04  0.30649265342E+03 -0.14305068662E+04  0.21691866423E+04  0.10100000352E+00 0. -1.
</event>
<event>
 5   0  0.4079777E-07  0.3955938E+04  0.7818609E-02  0.8013495E-01
       -2   -1    0    0    0  501  0.00000000000E+00  0.00000000000E+00  0.25173188225E+04  0.25173188225E+04  0.25500000920E-02 0.  1.
        2   -1    0    0  501    0  0.00000000000E+00  0.00000000000E+00 -0.15541778422E+04  0.15541778422E+04  0.25500000920E-02 0. -1.
    10030    2    1    2    0    0  0.00000000000E+00  0.00000000000E+00  0.96314098025E+03  0.40714966647E+04  0.39559378841E+04 0.  0.
        4    1    3    3  502    0 -0.15636432686E+04  0.73805966129E+03  0.14701746893E+04  0.22696095622E+04  0.12699999809E+01 0. -1.
       -4    1    3    3    0  502  0.15636432686E+04 -0.73805966129E+03 -0.50703370909E+03  0.18018871025E+04  0.12699999809E+01 0.  1.
</event>
<event>
 5   0  0.4301754E-07  0.4019398E+04  0.7818609E-02  0.8000645E-01
       -2   -1    0    0    0  501  0.00000000000E+00  0.00000000000E+00  0.28810535559E+04  0.28810535560E+04  0.25500000920E-02 0.  1.
        2   -1    0    0  501    0  0.00000000000E+00  0.00000000000E+00 -0.14018797382E+04  0.14018797382E+04  0.25500000920E-02 0. -1.
    10030    2    1    2    0    0  0.00000000000E+00  0.00000000000E+00  0.14791738178E+04  0.42829332941E+04  0.40193982658E+04 0.  0.
        1    1    3    3  502    0  0.30000546594E+03  0.29003454758E+03 -0.13552100936E+04  0.14179977843E+04  0.50400001928E-02 0. -1.
       -1    1    3    3    0  502 -0.30000546594E+03 -0.29003454758E+03  0.28343839114E+04  0.28649355098E+04  0.50400001928E-02 0.  1.
</event>
<event>
 5   0  0.4301754E-07  0.4006224E+04  0.7818609E-02  0.8003292E-01
        2   -1    0    0  501    0  0.00000000000E+00  0.00000000000E+00  0.21650233289E+04  0.21650233289E+04  0.25500000920E-02 0. -1.
       -2   -1    0    0    0  501  0.00000000000E+00  0.00000000000E+00 -0.18533092985E+04  0.18533092985E+04  0.25500000920E-02 0.  1.
    10030    2    1    2    0    0  0.00000000000E+00  0.00000000000E+00  0.31171403047E+03  0.40183326274E+04  0.40062240910E+04 0.  0.
        1    1    3    3  502    0 -0.16611026829E+04 -0.18994151941E+03  0.12624221475E+04  0.20950058669E+04  0.50400001928E-02 0. -1.
       -1    1    3    3    0  502  0.16611026829E+04  0.18994151941E+03 -0.95070811703E+03  0.19233267605E+04  0.50400001928E-02 0.  1.
</event>
<event>
 5   0  0.4077370E-07  0.2597818E+04  0.7818609E-02  0.8368943E-01
        2   -1    0    0  501    0  0.00000000000E+00  0.00000000000E+00  0.17598572264E+04  0.17598572264E+04  0.25500000920E-02 0.  1.
       -2   -1    0    0    0  501  0.00000000000E+00  0.00000000000E+00 -0.95869407224E+03  0.95869407224E+03  0.25500000920E-02 0. -1.
    10030    2    1    2    0    0  0.00000000000E+00  0.00000000000E+00  0.80116315417E+03  0.27185512987E+04  0.25978180775E+04 0.  0.
        3    1    3    3  502    0  0.50057010934E+03  0.23968692838E+03  0.16295300425E+04  0.17214495135E+04  0.10100000352E+00 0.  1.
       -3    1    3    3    0  502 -0.50057010934E+03 -0.23968692838E+03 -0.82836688834E+03  0.99710178512E+03  0.10100000352E+00 0. -1.
</event>
<event>
 5   0  0.4047916E-07  0.2898600E+04  0.7818609E-02  0.8273294E-01
       -2   -1    0    0    0  501  0.00000000000E+00  0.00000000000E+00  0.20614514159E+04  0.20614514159E+04  0.25500000920E-02 0. -1.
        2   -1    0    0  501    0  0.00000000000E+00  0.00000000000E+00 -0.10189280271E+04  0.10189280271E+04  0.25500000920E-02 0.  1.
    10030    2    1    2    0    0  0.00000000000E+00  0.00000000000E+00  0.10425233888E+04  0.30803794430E+04  0.28986000926E+04 0.  0.
        5    1    3    3  502    0  0.56417998046E+03 -0.85796264614E+03 -0.56564446477E+03  0.11723372821E+04  0.46999998093E+01 0.  1.
       -5    1    3    3    0  502 -0.56417998046E+03  0.85796264614E+03  0.16081678536E+04  0.19080421609E+04  0.46999998093E+01 0. -1.
</event>
<event>
 5   0  0.1351000E-07  0.2811705E+04  0.7818609E-02  0.8299644E-01
       -1   -1    0    0    0  501  0.00000000000E+00  0.00000000000E+00  0.10459040121E+04  0.10459040121E+04  0.50400001928E-02 0. -1.
        1   -1    0    0  501    0  0.00000000000E+00  0.00000000000E+00 -0.18896778892E+04  0.18896778893E+04  0.50400001928E-02 0.  1.
    10030    2    1    2    0    0  0.00000000000E+00  0.00000000000E+00 -0.84377387715E+03  0.29355819014E+04  0.28117053088E+04 0.  0.
        3    1    3    3  502    0  0.83461782162E+03 -0.95441013037E+03 -0.10560485658E+04  0.16500679346E+04  0.10100000352E+00 0. -1.
       -3    1    3    3    0  502 -0.83461782162E+03  0.95441013037E+03  0.21227468869E+03  0.12855139668E+04  0.10100000352E+00 0.  1.
</event>
<event>
 5   0  0.1351000E-07  0.3796659E+04  0.7818609E-02  0.8046872E-01
        1   -1    0    0  501    0  0.00000000000E+00  0.00000000000E+00  0.13205015730E+04  0.13205015730E+04  0.50400001928E-02 0. -1.
       -1   -1    0    0    0  501  0.00000000000E+00  0.00000000000E+00 -0.27290045460E+04  0.27290045460E+04  0.50400001928E-02 0.  1.
    10030    2    1    2    0    0  0.00000000000E+00  0.00000000000E+00 -0.14085029729E+04  0.40495061190E+04  0.37966589501E+04 0.  0.
        4    1    3    3  502    0  0.14678565528E+04 -0.10456069635E+04 -0.13404268321E+04  0.22460281581E+04  0.12699999809E+01 0.  1.
       -4    1    3    3    0  502 -0.14678565528E+04  0.10456069635E+04 -0.68076140874E+02  0.18034779610E+04  0.12699999809E+01 0. -1.
</event>
<event>
 5   0  0.4079777E-07  0.3977099E+04  0.7818609E-02  0.8009182E-01
       -2   -1    0    0    0  501  0.00000000000E+00  0.00000000000E+00  0.16320948694E+04  0.16320948694E+04  0.25500000920E-02 0. -1.
        2   -1    0    0  501    0  0.00000000000E+00  0.00000000000E+00 -0.24228546801E+04  0.24228546801E+04  0.25500000920E-02 0.  1.
    10030    2    1    2    0    0  0.00000000000E+00  0.00000000000E+00 -0.79075981068E+03  0.40549495495E+04  0.39770987881E+04 0.  0.
        4    1    3    3  502    0  0.99378833323E+03 -0.62740448876E+03  0.12401004651E+04  0.17085380944E+04  0.12699999809E+01 0. -1.
       -4    1    3    3    0  502 -0.99378833323E+03  0.62740448876E+03 -0.20308602757E+04  0.23464114550E+04  0.12699999809E+01 0.  1.
</event>
<event>
 5   0  0.1351000E-07  0.3787934E+04  0.7818609E-02  0.8048749E-01
        1   -1    0    0  501    0  0.00000000000E+00  0.00000000000E+00  0.26139580114E+04  0.26139580114E+04  0.50400001928E-02 0. -1.
       -1   -1    0    0    0  501  0.00000000000E+00  0.00000000000E+00 -0.13722911538E+04  0.13722911538E+04  0.50400001928E-02 0.  1.
    10030    2    1    2    0    0  0.00000000000E+00  0.00000000000E+00  0.12416668576E+04  0.39862491652E+04  0.37879342421E+04 0.  0.
        3    1    3    3  502    0  0.60039648122E+03 -0.13232323264E+04  0.18992130255E+04  0.23913238699E+04  0.10100000352E+00 0. -1.
       -3    1    3    3    0  502 -0.60039648122E+03  0.13232323264E+04 -0.65754616799E+03  0.15949252953E+04  0.10100000352E+00 0.  1.
</event>
<event>
 5   0  0.1421304E-07  0.4070418E+04  0.7818609E-02  0.7990490E-01
        1   -1    0    0  501    0  0.00000000000E+00  0.00000000000E+00  0.15591567288E+04  0.15591567289E+04  0.50400001928E-02 0.  1.
       -1   -1    0    0    0  501  0.00000000000E+00  0.00000000000E+00 -0.26566121871E+04  0.26566121871E+04  0.50400001928E-02 0. -1.
    10030    2    1    2    0    0  0.00000000000E+00  0.00000000000E+00 -0.10974554583E+04  0.42157689160E+04  0.40704175547E+04 0.  0.
        2    1    3    3  502    0  0.86352181917E+03  0.18428391950E+04 -0.56806352141E+03  0.21129179812E+04  0.25500000920E-02 0. -1.
       -2    1    3    3    0  502 -0.86352181917E+03 -0.18428391950E+04 -0.52939193684E+03  0.21028509347E+04  0.25500000920E-02 0.  1.
</event>
<event>
 5   0  0.1351000E-07  0.2633285E+04  0.7818609E-02  0.8356982E-01
       -1   -1    0    0    0  501  0.00000000000E+00  0.00000000000E+00  0.11022128349E+04  0.11022128349E+04  0.50400001928E-02 0. -1.
        1   -1    0    0  501    0  0.00000000000E+00  0.00000000000E+00 -0.15727879844E+04  0.15727879844E+04  0.50400001928E-02 0.  1.
    10030    2    1    2    0    0  0.00000000000E+00  0.00000000000E+00 -0.47057514948E+03  0.26750008194E+04  0.26332847192E+04 0.  0.
        3    1    3    3  502    0  0.71398518962E+03 -0.41253305336E+03  0.80741790751E+03  0.11540719469E+04  0.10100000352E+00 0. -1.
       -3    1    3    3    0  502 -0.71398518962E+03  0.41253305336E+03 -0.12779930570E+04  0.15209288724E+04  0.10100000352E+00 0.  1.
</event>
<event>
 5   0  0.1351000E-07  0.4060329E+04  0.7818609E-02  0.7992486E-01
        1   -1    0    0  501    0  0.00000000000E+00  0.00000000000E+00  0.15951976071E+04  0.15951976071E+04  0.50400001928E-02 0. -1.
       -1   -1    0    0    0  501  0.00000000000E+00  0.00000000000E+00 -0.25837353216E+04  0.25837353216E+04  0.50400001928E-02 0.  1.
    10030    2    1    2    0    0  0.00000000000E+00  0.00000000000E+00 -0.98853771457E+03  0.41789329287E+04  0.40603292489E+04 0.  0.
        3    1    3    3  502    0 -0.72451060475E+03  0.14061636408E+04 -0.18039796184E+04  0.23992820332E+04  0.10100000352E+00 0.  1.
       -3    1    3    3    0  502  0.72451060475E+03 -0.14061636408E+04  0.81544190387E+03  0.17796508955E+04  0.10100000352E+00 0. -1.
</event>
<event>
 5   0  0.1368865E-07  0.3874983E+04  0.7818609E-02  0.8030252E-01
       -1   -1    0    0    0  501  0.00000000000E+00  0.00000000000E+00  0.15814392869E+04  0.15814392869E+04  0.50400001928E-02 0.  1.
        1   -1    0    0  501    0  0.00000000000E+00  0.00000000000E+00 -0.23737072961E+04  0.23737072961E+04  0.50400001928E-02 0. -1.
    10030    2    1    2    0    0  0.00000000000E+00  0.00000000000E+00 -0.79226800924E+03  0.39551465830E+04  0.38749833412E+04 0.  0.
        5    1    3    3  502    0  0.68818556593E+03  0.17021922042E+04 -0.10276370137E+04  0.21040716706E+04  0.46999998093E+01 0. -1.
       -5    1    3    3    0  502 -0.68818556593E+03 -0.17021922042E+04  0.23536900451E+03  0.18510749124E+04  0.46999998093E+01 0.  1.
</event>
<event>
 5   0  0.1705690E-07  0.2455224E+04  0.7818609E-02  0.8419113E-01
        1   -1    0    0  501    0  0.00000000000E+00  0.00000000000E+00  0.10705894596E+04  0.10705894597E+04  0.50400001928E-02 0. -1.
       -1   -1    0    0    0  501  0.00000000000E+00  0.00000000000E+00 -0.14076643540E+04  0.14076643540E+04  0.50400001928E-02 0.  1.
    10030    2    1    2    0    0  0.00000000000E+00  0.00000000000E+00 -0.33707489435E+03  0.24782538137E+04  0.24552235093E+04 0.  0.
        2    1    3    3  502    0  0.18598389565E+03 -0.12026394560E+04 -0.54703791240E+01  0.12169476553E+04  0.25500000920E-02 0.  1.
       -2    1    3    3    0  502 -0.18598389565E+03  0.12026394560E+04 -0.33160451523E+03  0.12613061584E+04  0.25500000920E-02 0. -1.
</event>
<event>
 5   0  0.1351000E-07  0.3941214E+04  0.7818609E-02  0.8016512E-01
        4   -1    0    0  501    0  0.00000000000E+00  0.00000000000E+00  0.18273687180E+04  0.18273691593E+04  0.12699999809E+01 0.  1.
       -4   -1    0    0    0  501  0.00000000000E+00  0.00000000000E+00 -0.21250724753E+04  0.21250728548E+04  0.12699999809E+01 0. -1.
    10030    2    1    2    0    0  0.00000000000E+00  0.00000000000E+00 -0.29770375729E+03  0.39524420141E+04  0.39412143240E+04 0.  0.
        4    1    3    3  502    0 -0.14833525437E+04 -0.12860717205E+04 -0.31955941131E+03  0.19890789500E+04  0.12699999809E+01 0. -1.
       -4    1    3    3    0  502  0.14833525437E+04  0.12860717205E+04  0.21855654017E+02  0.19633630641E+04  0.12699999809E+01 0.  1.
</event>
<event>
 5   0  0.4047916E-07  0.3975245E+04  0.7818609E-02  0.8009559E-01
        2   -1    0    0  501    0  0.00000000000E+00  0.00000000000E+00  0.14867492601E+04  0.14867492601E+04  0.25500000920E-02 0. -1.
       -2   -1    0    0    0  501  0.00000000000E+00  0.00000000000E+00 -0.26572352140E+04  0.26572352140E+04  0.25500000920E-02 0.  1.
    10030    2    1    2    0    0  0.00000000000E+00  0.00000000000E+00 -0.11704859539E+04  0.41439844742E+04  0.39752446407E+04 0.  0.
        5    1    3    3  502    0 -0.30126060114E+02 -0.13229795765E+04  0.96075922102E+03  0.16353173729E+04  0.46999998093E+01 0. -1.
       -5    1    3    3    0  502  0.30126060114E+02  0.13229795765E+04 -0.21312451749E+04  0.25086671013E+04  0.46999998093E+01 0.  1.
</event>
<event>
 5   0  0.1351000E-07  0.3908106E+04  0.7818609E-02  0.8023345E-01
       -1   -1    0    0    0  501  0.00000000000E+00  0.00000000000E+00  0.31366940903E+04  0.31366940903E+04  0.50400001928E-02 0. -1.
        1   -1    0    0  501    0  0.00000000000E+00  0.00000000000E+00 -0.12173084034E+04  0.12173084034E+04  0.50400001928E-02 0.  1.
    10030    2    1    2    0    0  0.00000000000E+00  0.00000000000E+00  0.19193856869E+04  0.43540024937E+04  0.39081064852E+04 0.  0.
        3    1    3    3  502    0 -0.10544095114E+04  0.47996061299E+03 -0.79343507581E+03  0.14041655306E+04  0.10100000352E+00 0.  1.
       -3    1    3    3    0  502  0.10544095114E+04 -0.47996061299E+03  0.27128207627E+04  0.29498369630E+04  0.10100000352E+00 0. -1.
</event>
<event>
 5   0  0.4047916E-07  0.3991887E+04  0.7818609E-02  0.8006185E-01
       -2   -1    0    0    0  501  0.00000000000E+00  0.00000000000E+00  0.14174271901E+04  0.14174271901E+04  0.25500000920E-02 0. -1.
        2   -1    0    0  501    0  0.00000000000E+00  0.00000000000E+00 -0.28105781989E+04  0.28105781989E+04  0.25500000920E-02 0.  1.
    10030    2    1    2    0    0  0.00000000000E+00  0.00000000000E+00 -0.13931510087E+04  0.42280053890E+04  0.39918867514E+04 0.  0.
        5    1    3    3  502    0 -0.15198872584E+04 -0.80180781610E+02 -0.20641840416E+04  0.25646372226E+04  0.46999998093E+01 0.  1.
       -5    1    3    3    0  502  0.15198872584E+04  0.80180781610E+02  0.67103303285E+03  0.16633681664E+04  0.46999998093E+01 0. -1.
</event>
<event>
 5   0  0.1351000E-07  0.3971511E+04  0.7818609E-02  0.8010319E-01
        1   -1    0    0  501    0  0.00000000000E+00  0.00000000000E+00  0.22314460347E+04  0.22314460347E+04  0.50400001928E-02 0.  1.
       -1   -1    0    0    0  501  0.00000000000E+00  0.00000000000E+00 -0.17671160135E+04  0.17671160135E+04  0.50400001928E-02 0. -1.
    10030    2    1    2    0    0  0.00000000000E+00  0.00000000000E+00  0.46433002118E+03  0.39985620482E+04  0.39715105545E+04 0.  0.
        3    1    3    3  502    0  0.17268484772E+04  0.72122694954E+03  0.90080454140E+03  0.20769262885E+04  0.10100000352E+00 0.  1.
       -3    1    3    3    0  502 -0.17268484772E+04 -0.72122694954E+03 -0.43647452023E+03  0.19216357597E+04  0.10100000352E+00 0. -1.
</event>
<event>
 5   0  0.4079777E-07  0.3741655E+04  0.7818609E-02  0.8058793E-01
       -2   -1    0    0    0  501  0.00000000000E+00  0.00000000000E+00  0.18681021519E+04  0.18681021519E+04  0.25500000920E-02 0.  1.
        2   -1    0    0  501    0  0.00000000000E+00  0.00000000000E+00 -0.18735565444E+04  0.18735565444E+04  0.25500000920E-02 0. -1.
    10030    2    1    2    0    0  0.00000000000E+00  0.00000000000E+00 -0.54543924697E+01  0.37416586963E+04  0.37416547207E+04 0.  0.
        4    1    3    3  502    0 -0.17755366656E+04 -0.58897548392E+03  0.21164830400E+02  0.18707945196E+04  0.12699999809E+01 0.  1.
       -4    1    3    3    0  502  0.17755366656E+04  0.58897548392E+03 -0.26619222870E+02  0.18708641767E+04  0.12699999809E+01 0. -1.
</event>
<event>
 5   0  0.1351000E-07  0.4021215E+04  0.7818609E-02  0.8000280E-01
       -1   -1    0    0    0  501  0.00000000000E+00  0.00000000000E+00  0.19691247256E+04  0.19691247256E+04  0.50400001928E-02 0.  1.
        1   -1    0    0  501    0  0.00000000000E+00  0.00000000000E+00 -0.20529646485E+04  0.20529646485E+04  0.50400001928E-02 0. -1.
    10030    2    1    2    0    0  0.00000000000E+00  0.00000000000E+00 -0.83839922937E+02  0.40220893742E+04  0.40212154631E+04 0.  0.
        4    1    3    3  502    0 -0.13637796912E+04 -0.52428137859E+03  0.13396027971E+04  0.19822470272E+04  0.12699999809E+01 0.  1.
       -4    1    3    3    0  502  0.13637796912E+04  0.52428137859E+03 -0.14234427200E+04  0.20398423469E+04  0.12699999809E+01 0. -1.
</event>
<event>
 5   0  0.4079777E-07  0.3932460E+04  0.7818609E-02  0.8018312E-01
        2   -1    0    0  501    0  0.00000000000E+00  0.00000000000E+00  0.22649782409E+04  0.22649782409E+04  0.25500000920E-02 0. -1.
       -2   -1    0    0    0  501  0.00000000000E+00  0.00000000000E+00 -0.17068864127E+04  0.17068864127E+04  0.25500000920E-02 0.  1.
    10030    2    1    2    0    0  0.00000000000E+00  0.00000000000E+00  0.55809182820E+03  0.39718646536E+04  0.39324600873E+04 0.  0.
        4    1    3    3  502    0 -0.13606235619E+04 -0.14132223392E+04  0.41290738982E+03  0.20047413755E+04  0.12699999809E+01 0. -1.
       -4    1    3    3    0  502  0.13606235619E+04  0.14132223392E+04  0.14518443838E+03  0.19671232781E+04  0.12699999809E+01 0.  1.
</event>
<event>
 5   0  0.4149487E-07  0.3947652E+04  0.7818609E-02  0.8015191E-01
        2   -1    0    0  501    0  0.00000000000E+00  0.00000000000E+00  0.21581487899E+04  0.21581487899E+04  0.25500000920E-02 0.  1.
       -2   -1    0    0    0  501  0.00000000000E+00  0.00000000000E+00 -0.18052458731E+04  0.18052458731E+04  0.25500000920E-02 0. -1.
    10030    2    1    2    0    0  0.00000000000E+00  0.00000000000E+00  0.35290291674E+03  0.39633946630E+04  0.39476520599E+04 0.  0.
        2    1    3    3  502    0  0.46395820652E+03  0.19176580166E+04  0.11860476183E+03  0.19765466287E+04  0.25500000920E-02 0. -1.
       -2    1    3    3    0  502 -0.46395820652E+03 -0.19176580166E+04  0.23429815491E+03  0.19868480343E+04  0.25500000920E-02 0.  1.
</event>
<event>
 5   0  0.1372952E-07  0.4020076E+04  0.7818609E-02  0.8000509E-01
       -1   -1    0    0    0  501  0.00000000000E+00  0.00000000000E+00  0.25023903215E+04  0.25023903215E+04  0.50400001928E-02 0.  1.
        1   -1    0    0  501    0  0.00000000000E+00  0.00000000000E+00 -0.16145575218E+04  0.16145575218E+04  0.50400001928E-02 0. -1.
    10030    2    1    2    0    0  0.00000000000E+00  0.00000000000E+00  0.88783279972E+03  0.41169478433E+04  0.40200761765E+04 0.  0.
        1    1    3    3  502    0  0.61564144422E+02 -0.58412818974E+03  0.24125433225E+04  0.24830145325E+04  0.50400001928E-02 0.  1.
       -1    1    3    3    0  502 -0.61564144422E+02  0.58412818974E+03 -0.15247105228E+04  0.16339333108E+04  0.50400001928E-02 0. -1.
</event>
<event>
 5   0  0.1351000E-07  0.4027247E+04  0.7818609E-02  0.7999072E-01
        3   -1    0    0  501    0  0.00000000000E+00  0.00000000000E+00  0.24940577227E+04  0.24940577247E+04  0.10100000352E+00 0.  1.
       -3   -1    0    0    0  501  0.00000000000E+00  0.00000000000E+00 -0.16257364110E+04  0.16257364141E+04  0.10100000352E+00 0. -1.
    10030    2    1    2    0    0  0.00000000000E+00  0.00000000000E+00  0.86832131170E+03  0.41197941388E+04  0.40272474279E+04 0.  0.
        5    1    3    3  502    0 -0.13247907086E+04 -0.20798444220E+03  0.19707879819E+04  0.23837691393E+04  0.46999998093E+01 0.  1.
       -5    1    3    3    0  502  0.13247907086E+04  0.20798444220E+03 -0.11024666702E+04  0.17360249995E+04  0.46999998093E+01 0. -1.
</event>
<event>
 5   0  0.1372952E-07  0.3964180E+04  0.7818609E-02  0.8011812E-01
       -1   -1    0    0    0  501  0.00000000000E+00  0.00000000000E+00  0.30954943028E+04  0.30954943028E+04  0.50400001928E-02 0.  1.
        1   -1    0    0  501    0  0.00000000000E+00  0.00000000000E+00 -0.12691613490E+04  0.12691613490E+04  0.50400001928E-02 0. -1.
    10030    2    1    2    0    0  0.00000000000E+00  0.00000000000E+00  0.18263329538E+04  0.43646556518E+04  0.39641804829E+04 0.  0.
        1    1    3    3  502    0 -0.15204316380E+04 -0.10165467615E+04  0.17542806825E+04  0.25342810415E+04  0.50400001928E-02 0.  1.
       -1    1    3    3    0  502  0.15204316380E+04  0.10165467615E+04  0.72052271283E+02  0.18303746103E+04  0.50400001928E-02 0. -1.
</event>
<event>
 5   0  0.4047916E-07  0.3718014E+04  0.7818609E-02  0.8063981E-01
       -2   -1    0    0    0  501  0.00000000000E+00  0.00000000000E+00  0.17288385649E+04  0.17288385649E+04  0.25500000920E-02 0.  1.
        2   -1    0    0  501    0  0.00000000000E+00  0.00000000000E+00 -0.19989761252E+04  0.19989761252E+04  0.25500000920E-02 0. -1.
    10030    2    1    2    0    0  0.00000000000E+00  0.00000000000E+00 -0.27013756024E+03  0.37278146901E+04  0.37180139944E+04 0.  0.
        5    1    3    3  502    0  0.54466153776E+03  0.55362500504E+03  0.15583855328E+04  0.17411905111E+04  0.46999998093E+01 0.  1.
       -5    1    3    3    0  502 -0.54466153776E+03 -0.55362500504E+03 -0.18285230931E+04  0.19866241790E+04  0.46999998093E+01 0. -1.
</event>
<event>
 5   0  0.4077370E-07  0.2880122E+04  0.7818609E-02  0.8278816E-01
       -2   -1    0    0    0  501  0.00000000000E+00  0.00000000000E+00  0.14804457252E+04  0.14804457252E+04  0.25500000920E-02 0. -1.
        2   -1    0    0  501    0  0.00000000000E+00  0.00000000000E+00 -0.14007777855E+04  0.14007777855E+04  0.25500000920E-02 0.  1.
    10030    2    1    2    0    0  0.00000000000E+00  0.00000000000E+00  0.79667939706E+02  0.28812235107E+04  0.28801218616E+04 0.  0.
        3    1    3    3  502    0  0.14385536543E+03  0.20709650173E+03 -0.13785207959E+04  0.14013932075E+04  0.10100000352E+00 0.  1.
       -3    1    3    3    0  502 -0.14385536543E+03 -0.20709650173E+03  0.14581887356E+04  0.14798303031E+04  0.10100000352E+00 0. -1.
</event>
<event>
 5   0  0.4077370E-07  0.3999080E+04  0.7818609E-02  0.8004732E-01
       -2   -1    0    0    0  501  0.00000000000E+00  0.00000000000E+00  0.14778964191E+04  0.14778964191E+04  0.25500000920E-02 0.  1.
        2   -1    0    0  501    0  0.00000000000E+00  0.00000000000E+00 -0.27053052979E+04  0.27053052979E+04  0.25500000920E-02 0. -1.
    10030    2    1    2    0    0  0.00000000000E+00  0.00000000000E+00 -0.12274088788E+04  0.41832017170E+04  0.39990804005E+04 0.  0.
        3    1    3    3  502    0 -0.95867718436E+03 -0.16294689906E+04  0.67371720780E+02  0.18917637522E+04  0.10100000352E+00 0. -1.
       -3    1    3    3    0  502  0.95867718436E+03  0.16294689906E+04 -0.12947805996E+04  0.22914379648E+04  0.10100000352E+00 0.  1.
</event>
<event>
 5   0  0.1421304E-07  0.3837515E+04  0.7818609E-02  0.8038152E-01
       -1   -1    0    0    0  501  0.00000000000E+00  0.00000000000E+00  0.32494362714E+04  0.32494362714E+04  0.50400001928E-02 0.  1.
        1   -1    0    0  501    0  0.00000000000E+00  0.00000000000E+00 -0.11330058020E+04  0.11330058020E+04  0.50400001928E-02 0. -1.
    10030    2    1    2    0    0  0.00000000000E+00  0.00000000000E+00  0.21164304694E+04  0.43824420735E+04  0.38375148984E+04 0.  0.
        2    1    3    3  502    0  0.57597309769E+03  0.91730829071E+02  0.31457558391E+04  0.31993654610E+04  0.25500000920E-02 0.  1.
       -2    1    3    3    0  502 -0.57597309769E+03 -0.91730829071E+02 -0.10293253696E+04  0.11830766124E+04  0.25500000920E-02 0. -1.
</event>
<event>
 5   0  0.4079777E-07  0.3648228E+04  0.7818609E-02  0.8079533E-01
        2   -1    0    0  501    0  0.00000000000E+00  0.00000000000E+00  0.21703738630E+04  0.21703738630E+04  0.25500000920E-02 0. -1.
       -2   -1    0    0    0  501  0.00000000000E+00  0.00000000000E+00 -0.15330964927E+04  0.15330964927E+04  0.25500000920E-02 0.  1.
    10030    2    1    2    0    0  0.00000000000E+00  0.00000000000E+00  0.63727737034E+03  0.37034703557E+04  0.36482283685E+04 0.  0.
        4    1    3    3  502    0  0.14297189551E+04  0.53713038286E+03  0.13311306909E+04  0.20259604803E+04  0.12699999809E+01 0. -1.
       -4    1    3    3    0  502 -0.14297189551E+04 -0.53713038286E+03 -0.69385332052E+03  0.16775098754E+04  0.12699999809E+01 0.  1.
</event>
<event>
 5   0  0.1372952E-07  0.3507693E+04  0.7818609E-02  0.8111969E-01
        1   -1    0    0  501    0  0.00000000000E+00  0.00000000000E+00  0.30526191081E+04  0.30526191081E+04  0.50400001928E-02 0.  1.
       -1   -1    0    0    0  501  0.00000000000E+00  0.00000000000E+00 -0.10076518831E+04  0.10076518831E+04  0.50400001928E-02 0. -1.
    10030    2    1    2    0    0  0.00000000000E+00  0.00000000000E+00  0.20449672250E+04  0.40602709912E+04  0.35076929128E+04 0.  0.
        1    1    3    3  502    0 -0.13540059097E+04 -0.11112097811E+04  0.11250949413E+04  0.20818159881E+04  0.50400001928E-02 0.  1.
       -1    1    3    3    0  502  0.13540059097E+04  0.11112097811E+04  0.91987228366E+03  0.19784550031E+04  0.50400001928E-02 0. -1.
</event>
<event>
 5   0  0.4077370E-07  0.3707339E+04  0.7818609E-02  0.8066337E-01
       -2   -1    0    0    0  501  0.00000000000E+00  0.00000000000E+00  0.12493289985E+04  0.12493289985E+04  0.25500000920E-02 0. -1.
        2   -1    0    0  501    0  0.00000000000E+00  0.00000000000E+00 -0.27503491438E+04  0.27503491438E+04  0.25500000920E-02 0.  1.
    10030    2    1    2    0    0  0.00000000000E+00  0.00000000000E+00 -0.15010201452E+04  0.39996781423E+04  0.37073391760E+04 0.  0.
        3    1    3    3  502    0  0.80975160095E+03 -0.10545930462E+04  0.64293633060E+03  0.14768992125E+04  0.10100000352E+00 0. -1.
       -3    1    3    3    0  502 -0.80975160095E+03  0.10545930462E+04 -0.21439564758E+04  0.25227789298E+04  0.10100000352E+00 0.  1.
</event>
<event>
 5   0  0.1372952E-07  0.4081665E+04  0.7818609E-02  0.7988272E-01
       -1   -1    0    0    0  501  0.00000000000E+00  0.00000000000E+00  0.21881060160E+04  0.21881060160E+04  0.50400001928E-02 0.  1.
        1   -1    0    0  501    0  0.00000000000E+00  0.00000000000E+00 -0.19034710582E+04  0.19034710582E+04  0.50400001928E-02 0. -1.
    10030    2    1    2    0    0  0.00000000000E+00  0.00000000000E+00  0.28463495773E+03  0.40915770742E+04  0.40816645985E+04 0.  0.
        1    1    3    3  502    0  0.10190316355E+04 -0.47393659093E+03  0.18499671022E+04  0.21645830189E+04  0.50400001928E-02 0.  1.
       -1    1    3    3    0  502 -0.10190316355E+04  0.47393659093E+03 -0.15653321445E+04  0.19269940553E+04  0.50400001928E-02 0. -1.
</event>
<event>
 5   0  0.4047916E-07  0.3653166E+04  0.7818609E-02  0.8078421E-01
        2   -1    0    0  501    0  0.00000000000E+00  0.00000000000E+00  0.17332089922E+04  0.17332089922E+04  0.25500000920E-02 0.  1.
       -2   -1    0    0    0  501  0.00000000000E+00  0.00000000000E+00 -0.19249871270E+04  0.19249871270E+04  0.25500000920E-02 0. -1.
    10030    2    1    2    0    0  0.00000000000E+00  0.00000000000E+00 -0.19177813479E+03  0.36581961192E+04  0.36531657495E+04 0.  0.
        5    1    3    3  502    0 -0.13768698684E+03 -0.14277761540E+04  0.10365441051E+04  0.17697311163E+04  0.46999998093E+01 0.  1.
       -5    1    3    3    0  502  0.13768698684E+03  0.14277761540E+04 -0.12283222398E+04  0.18884650029E+04  0.46999998093E+01 0. -1.
</event>
<event>
 5   0  0.1351000E-07  0.4023445E+04  0.7818609E-02  0.7999834E-01
        1   -1    0    0  501    0  0.00000000000E+00  0.00000000000E+00  0.18181251849E+04  0.18181251849E+04  0.50400001928E-02 0.  1.
       -1   -1    0    0    0  501  0.00000000000E+00  0.00000000000E+00 -0.22259344581E+04  0.22259344581E+04  0.50400001928E-02 0. -1.
    10030    2    1    2    0    0  0.00000000000E+00  0.00000000000E+00 -0.40780927323E+03  0.40440596430E+04  0.40234450403E+04 0.  0.
        4    1    3    3  502    0 -0.31126527913E+02 -0.13703682741E+04  0.12761028854E+04  0.18727835578E+04  0.12699999809E+01 0.  1.
       -4    1    3    3    0  502  0.31126527913E+02  0.13703682741E+04 -0.16839121586E+04  0.21712760852E+04  0.12699999809E+01 0. -1.
</event>
<event>
 5   0  0.4149487E-07  0.3129814E+04  0.7818609E-02  0.8207603E-01
        2   -1    0    0  501    0  0.00000000000E+00  0.00000000000E+00  0.18004841878E+04  0.18004841878E+04  0.25500000920E-02 0.  1.
       -2   -1    0    0    0  501  0.00000000000E+00  0.00000000000E+00 -0.13601528645E+04  0.13601528645E+04  0.25500000920E-02 0. -1.
    10030    2    1    2    0    0  0.00000000000E+00  0.00000000000E+00  0.44033132330E+03  0.31606370524E+04  0.31298138767E+04 0.  0.
        2    1    3    3  502    0  0.14920148660E+04  0.34563463098E+03 -0.10450026227E+03  0.15350869562E+04  0.25500000920E-02 0. -1.
       -2    1    3    3    0  502 -0.14920148660E+04 -0.34563463098E+03  0.54483158556E+03  0.16255500961E+04  0.25500000920E-02 0.  1.
</event>
<event>
 5   0  0.4077370E-07  0.3163216E+04  0.7818609E-02  0.8198600E-01
       -2   -1    0    0    0  501  0.00000000000E+00  0.00000000000E+00  0.11671394718E+04  0.11671394718E+04  0.25500000920E-02 0. -1.
        2   -1    0    0  501    0  0.00000000000E+00  0.00000000000E+00 -0.21432602181E+04  0.21432602181E+04  0.25500000920E-02 0.  1.
    10030    2    1    2    0    0  0.00000000000E+00  0.00000000000E+00 -0.97612074628E+03  0.33103996899E+04  0.31632158313E+04 0.  0.
        3    1    3    3  502    0  0.47762323645E+03  0.13859792334E+04  0.13321282457E+03  0.14720081720E+04  0.10100000352E+00 0. -1.
       -3    1    3    3    0  502 -0.47762323645E+03 -0.13859792334E+04 -0.11093335709E+04  0.18383915179E+04  0.10100000352E+00 0.  1.
</event>
<event>
 5   0  0.1368865E-07  0.4001935E+04  0.7818609E-02  0.8004156E-01
        1   -1    0    0  501    0  0.00000000000E+00  0.00000000000E+00  0.17918105193E+04  0.17918105193E+04  0.50400001928E-02 0.  1.
       -1   -1    0    0    0  501  0.00000000000E+00  0.00000000000E+00 -0.22345394932E+04  0.22345394932E+04  0.50400001928E-02 0. -1.
    10030    2    1    2    0    0  0.00000000000E+00  0.00000000000E+00 -0.44272897386E+03  0.40263500125E+04  0.40019352168E+04 0.  0.
        5    1    3    3  502    0 -0.79959663455E+03  0.76442657066E+03  0.14561848976E+04  0.18287152064E+04  0.46999998093E+01 0.  1.
       -5    1    3    3    0  502  0.79959663455E+03 -0.76442657066E+03 -0.18989138715E+04  0.21976348062E+04  0.46999998093E+01 0. -1.
</event>
<event>
 5   0  0.4047916E-07  0.3965183E+04  0.7818609E-02  0.8011607E-01
       -2   -1    0    0    0  501  0.00000000000E+00  0.00000000000E+00  0.16979787022E+04  0.16979787022E+04  0.25500000920E-02 0.  1.
        2   -1    0    0  501    0  0.00000000000E+00  0.00000000000E+00 -0.23149105972E+04  0.23149105972E+04  0.25500000920E-02 0. -1.
    10030    2    1    2    0    0  0.00000000000E+00  0.00000000000E+00 -0.61693189495E+03  0.40128892994E+04  0.39651829171E+04 0.  0.
        5    1    3    3  502    0  0.75629917588E+03  0.53038196242E+03 -0.20838104293E+04  0.22793818163E+04  0.46999998093E+01 0. -1.
       -5    1    3    3    0  502 -0.75629917588E+03 -0.53038196242E+03  0.14668785343E+04  0.17335074831E+04  0.46999998093E+01 0.  1.
</event>
<event>
 5   0  0.4079777E-07  0.2546359E+04  0.7818609E-02  0.8386653E-01
        2   -1    0    0  501    0  0.00000000000E+00  0.00000000000E+00  0.98830926699E+03  0.98830926699E+03  0.25500000920E-02 0. -1.
       -2   -1    0    0    0  501  0.00000000000E+00  0.00000000000E+00 -0.16401611558E+04  0.16401611558E+04  0.25500000920E-02 0.  1.
    10030    2    1    2    0    0  0.00000000000E+00  0.00000000000E+00 -0.65185188878E+03  0.26284704228E+04  0.25463593380E+04 0.  0.
        4    1    3    3  502    0 -0.12402738857E+04  0.19181848205E+03 -0.54710438785E+03  0.13690867269E+04  0.12699999809E+01 0.  1.
       -4    1    3    3    0  502  0.12402738857E+04 -0.19181848205E+03 -0.10474750094E+03  0.12593836959E+04  0.12699999809E+01 0. -1.
</event>
<event>
 5   0  0.4149487E-07  0.3458188E+04  0.7818609E-02  0.8123771E-01
        2   -1    0    0  501    0  0.00000000000E+00  0.00000000000E+00  0.16670330395E+04  0.16670330395E+04  0.25500000920E-02 0. -1.
       -2   -1    0    0    0  501  0.00000000000E+00  0.00000000000E+00 -0.17934654458E+04  0.17934654458E+04  0.25500000920E-02 0.  1.
    10030    2    1    2    0    0  0.00000000000E+00  0.00000000000E+00 -0.12643240626E+03  0.34604984854E+04  0.34581880536E+04 0.  0.
        2    1    3    3  502    0 -0.14007315924E+04 -0.51481237764E+03 -0.93711827042E+03  0.17621780361E+04  0.25500000920E-02 0.  1.
       -2    1    3    3    0  502  0.14007315924E+04  0.51481237764E+03  0.81068586416E+03  0.16983204493E+04  0.25500000920E-02 0. -1.
</event>
<event>
 5   0  0.1421304E-07  0.3889975E+04  0.7818609E-02  0.8027117E-01
       -1   -1    0    0    0  501  0.00000000000E+00  0.00000000000E+00  0.22947780275E+04  0.22947780275E+04  0.50400001928E-02 0. -1.
        1   -1    0    0  501    0  0.00000000000E+00  0.00000000000E+00 -0.16485149804E+04  0.16485149804E+04  0.50400001928E-02 0.  1.
    10030    2    1    2    0    0  0.00000000000E+00  0.00000000000E+00  0.64626304715E+03  0.39432930079E+04  0.38899747840E+04 0.  0.
        2    1    3    3  502    0  0.85166574363E+03  0.69635749417E+03 -0.13028259035E+04  0.17051696788E+04  0.25500000920E-02 0.  1.
       -2    1    3    3    0  502 -0.85166574363E+03 -0.69635749417E+03  0.19490889507E+04  0.22381233291E+04  0.25500000920E-02 0. -1.
</event>
<event>
 5   0  0.4149487E-07  0.3909299E+04  0.7818609E-02  0.8023098E-01
        2   -1    0    0  501    0  0.00000000000E+00  0.00000000000E+00  0.11086670927E+04  0.11086670927E+04  0.25500000920E-02 0. -1.
       -2   -1    0    0    0  501  0.00000000000E+00  0.00000000000E+00 -0.34461697141E+04  0.34461697141E+04  0.25500000920E-02 0.  1.
    10030    2    1    2    0    0  0.00000000000E+00  0.00000000000E+00 -0.23375026215E+04  0.45548368068E+04  0.39092991483E+04 0.  0.
        2    1    3    3  502    0 -0.93288307197E+03  0.95907104610E+03 -0.28290360023E+04  0.31294620624E+04  0.25500000920E-02 0.  1.
       -2    1    3    3    0  502  0.93288307197E+03 -0.95907104610E+03  0.49153338086E+03  0.14253747444E+04  0.25500000920E-02 0. -1.
</event>
<event>
 5   0  0.4047916E-07  0.3698659E+04  0.7818609E-02  0.8068259E-01
        2   -1    0    0  501    0  0.00000000000E+00  0.00000000000E+00  0.14446737161E+04  0.14446737161E+04  0.25500000920E-02 0. -1.
       -2   -1    0    0    0  501  0.00000000000E+00  0.00000000000E+00 -0.23673307231E+04  0.23673307231E+04  0.25500000920E-02 0.  1.
    10030    2    1    2    0    0  0.00000000000E+00  0.00000000000E+00 -0.92265700705E+03  0.38120044392E+04  0.36986594723E+04 0.  0.
        5    1    3    3  502    0  0.16977915726E+04 -0.30525456892E+03  0.22567327853E+03  0.17397204069E+04  0.46999998093E+01 0. -1.
       -5    1    3    3    0  502 -0.16977915726E+04  0.30525456892E+03 -0.11483302856E+04  0.20722840323E+04  0.46999998093E+01 0.  1.
</event>
<event>
 5   0  0.4079777E-07  0.4075997E+04  0.7818609E-02  0.7989389E-01
       -2   -1    0    0    0  501  0.00000000000E+00  0.00000000000E+00  0.19765450210E+04  0.19765450210E+04  0.25500000920E-02 0.  1.
        2   -1    0    0  501    0  0.00000000000E+00  0.00000000000E+00 -0.21013628863E+04  0.21013628863E+04  0.25500000920E-02 0. -1.
    10030    2    1    2    0    0  0.00000000000E+00  0.00000000000E+00 -0.12481786532E+03  0.40779079073E+04  0.40759972277E+04 0.  0.
        4    1    3    3  502    0 -0.30561228265E+03  0.20092303132E+04 -0.21424112969E+03  0.20436012804E+04  0.12699999809E+01 0.  1.
       -4    1    3    3    0  502  0.30561228265E+03 -0.20092303132E+04  0.89423264364E+02  0.20343066268E+04  0.12699999809E+01 0. -1.
</event>
<event>
 5   0  0.4149487E-07  0.3342200E+04  0.7818609E-02  0.8152240E-01
        2   -1    0    0  501    0  0.00000000000E+00  0.00000000000E+00  0.23677125525E+04  0.23677125525E+04  0.25500000920E-02 0.  1.
       -2   -1    0    0    0  501  0.00000000000E+00  0.00000000000E+00 -0.11794404075E+04  0.11794404075E+04  0.25500000920E-02 0. -1.
    10030    2    1    2    0    0  0.00000000000E+00  0.00000000000E+00  0.11882721450E+04  0.35471529599E+04  0.33422003876E+04 0.  0.
        2    1    3    3  502    0 -0.12021148535E+04  0.46979056062E+03  0.17207352186E+04  0.21509795407E+04  0.25500000920E-02 0.  1.
       -2    1    3    3    0  502  0.12021148535E+04 -0.46979056062E+03 -0.53246307362E+03  0.13961734192E+04  0.25500000920E-02 0. -1.
</event>
<event>
 5   0  0.4047916E-07  0.3898111E+04  0.7818609E-02  0.8025422E-01
       -2   -1    0    0    0  501  0.00000000000E+00  0.00000000000E+00  0.17956120685E+04  0.17956120685E+04  0.25500000920E-02 0.  1.
        2   -1    0    0  501    0  0.00000000000E+00  0.00000000000E+00 -0.21156117876E+04  0.21156117876E+04  0.25500000920E-02 0. -1.
    10030    2    1    2    0    0  0.00000000000E+00  0.00000000000E+00 -0.31999971910E+03  0.39112238562E+04  0.38981113674E+04 0.  0.
        5    1    3    3  502    0 -0.39119274522E+02  0.16888136621E+04 -0.11354707836E+04  0.20354208148E+04  0.46999998093E+01 0. -1.
       -5    1    3    3    0  502  0.39119274522E+02 -0.16888136621E+04  0.81547106454E+03  0.18758030414E+04  0.46999998093E+01 0.  1.
</event>
<event>
 5   0  0.1372952E-07  0.4030206E+04  0.7818609E-02  0.7998481E-01
        1   -1    0    0  501    0  0.00000000000E+00  0.00000000000E+00  0.27171214695E+04  0.27171214695E+04  0.50400001928E-02 0. -1.
       -1   -1    0    0    0  501  0.00000000000E+00  0.00000000000E+00 -0.14944640552E+04  0.14944640552E+04  0.50400001928E-02 0.  1.
    10030    2    1    2    0    0  0.00000000000E+00  0.00000000000E+00  0.12226574143E+04  0.42115855247E+04  0.40302061336E+04 0.  0.
        1    1    3    3  502    0 -0.42739368262E+03 -0.12471366529E+04  0.22039331744E+04  0.25681387478E+04  0.50400001928E-02 0. -1.
       -1    1    3    3    0  502  0.42739368262E+03  0.12471366529E+04 -0.98127576014E+03  0.16434467769E+04  0.50400001928E-02 0.  1.
</event>
<event>
 5   0  0.4077370E-07  0.3813814E+04  0.7818609E-02  0.8043197E-01
        2   -1    0    0  501    0  0.00000000000E+00  0.00000000000E+00  0.13359920784E+04  0.13359920784E+04  0.25500000920E-02 0. -1.
       -2   -1    0    0    0  501  0.00000000000E+00  0.00000000000E+00 -0.27217936341E+04  0.27217936341E+04  0.25500000920E-02 0.  1.
    10030    2    1    2    0    0  0.00000000000E+00  0.00000000000E+00 -0.13858015556E+04  0.40577857125E+04  0.38138142242E+04 0.  0.
        3    1    3    3  502    0 -0.16101217091E+04 -0.63872443402E+03  0.15550069764E+03  0.17391495904E+04  0.10100000352E+00 0. -1.
       -3    1    3    3    0  502  0.16101217091E+04  0.63872443402E+03 -0.15413022533E+04  0.23186361221E+04  0.10100000352E+00 0.  1.
</event>
<event>
 5   0  0.1372952E-07  0.3736239E+04  0.7818609E-02  0.8059978E-01
       -1   -1    0    0    0  501  0.00000000000E+00  0.00000000000E+00  0.18993328705E+04  0.18993328706E+04  0.50400001928E-02 0.  1.
        1   -1    0    0  501    0  0.00000000000E+00  0.00000000000E+00 -0.18374191154E+04  0.18374191154E+04  0.50400001928E-02 0. -1.
    10030    2    1    2    0    0  0.00000000000E+00  0.00000000000E+00  0.61913755140E+02  0.37367519860E+04  0.37362390303E+04 0.  0.
        1    1    3    3  502    0  0.15773191644E+04  0.31718285208E+03  0.98047113361E+03  0.18841083706E+04  0.50400001928E-02 0.  1.
       -1    1    3    3    0  502 -0.15773191644E+04 -0.31718285208E+03 -0.91855737847E+03  0.18526436154E+04  0.50400001928E-02 0. -1.
</event>
<event>
 5   0  0.4149487E-07  0.4104721E+04  0.7818609E-02  0.7983748E-01
        2   -1    0    0  501    0  0.00000000000E+00  0.00000000000E+00  0.27255880888E+04  0.27255880888E+04  0.25500000920E-02 0. -1.
       -2   -1    0    0    0  501  0.00000000000E+00  0.00000000000E+00 -0.15454217601E+04  0.15454217601E+04  0.25500000920E-02 0.  1.
    10030    2    1    2    0    0  0.00000000000E+00  0.00000000000E+00  0.11801663288E+04  0.42710098489E+04  0.41047207659E+04 0.  0.
        2    1    3    3  502    0  0.12922079733E+03  0.58007857563E+02 -0.15403299092E+04  0.15468287414E+04  0.25500000920E-02 0.  1.
       -2    1    3    3    0  502 -0.12922079733E+03 -0.58007857563E+02  0.27204962379E+04  0.27241811075E+04  0.25500000920E-02 0. -1.
</event>
<event>
 5   0  0.4047916E-07  0.4009345E+04  0.7818609E-02  0.8002664E-01
       -2   -1    0    0    0  501  0.00000000000E+00  0.00000000000E+00  0.18120585041E+04  0.18120585041E+04  0.25500000920E-02 0.  1.
        2   -1    0    0  501    0  0.00000000000E+00  0.00000000000E+00 -0.22177608634E+04  0.22177608634E+04  0.25500000920E-02 0. -1.
    10030    2    1    2    0    0  0.00000000000E+00  0.00000000000E+00 -0.40570235928E+03  0.40298193675E+04  0.40093452995E+04 0.  0.
        5    1    3    3  502    0 -0.73373905668E+03  0.12684058289E+04  0.11721493223E+04  0.18764814078E+04  0.46999998093E+01 0.  1.
       -5    1    3    3    0  502  0.73373905668E+03 -0.12684058289E+04 -0.15778516815E+04  0.21533379598E+04  0.46999998093E+01 0. -1.
</event>
<event>
 5   0  0.1351000E-07  0.2859933E+04  0.7818609E-02  0.8284899E-01
       -1   -1    0    0    0  501  0.00000000000E+00  0.00000000000E+00  0.75553994660E+03  0.75553994662E+03  0.50400001928E-02 0.  1.
        1   -1    0    0  501    0  0.00000000000E+00  0.00000000000E+00 -0.27064139446E+04  0.27064139446E+04  0.50400001928E-02 0. -1.
    10030    2    1    2    0    0  0.00000000000E+00  0.00000000000E+00 -0.19508739980E+04  0.34619538912E+04  0.28599327595E+04 0.  0.
        3    1    3    3  502    0 -0.96145404448E+03 -0.36109543320E+03 -0.21798833242E+04  0.24097043613E+04  0.10100000352E+00 0. -1.
       -3    1    3    3    0  502  0.96145404448E+03  0.36109543320E+03  0.22900932621E+03  0.10522495299E+04  0.10100000352E+00 0.  1.
</event>
<event>
 5   0  0.1351000E-07  0.2830249E+04  0.7818609E-02  0.8293938E-01
       -1   -1    0    0    0  501  0.00000000000E+00  0.00000000000E+00  0.11657243017E+04  0.11657243017E+04  0.50400001928E-02 0.  1.
        1   -1    0    0  501    0  0.00000000000E+00  0.00000000000E+00 -0.17178819707E+04  0.17178819707E+04  0.50400001928E-02 0. -1.
    10030    2    1    2    0    0  0.00000000000E+00  0.00000000000E+00 -0.55215766899E+03  0.28836062725E+04  0.28302485833E+04 0.  0.
        4    1    3    3  502    0 -0.14112443515E+04  0.10450605850E+03 -0.26939684677E+03  0.14405236582E+04  0.12699999809E+01 0. -1.
       -4    1    3    3    0  502  0.14112443515E+04 -0.10450605850E+03 -0.28276082222E+03  0.14430826142E+04  0.12699999809E+01 0.  1.
</event>
<event>
 5   0  0.1368865E-07  0.3710577E+04  0.7818609E-02  0.8065622E-01
       -1   -1    0    0    0  501  0.00000000000E+00  0.00000000000E+00  0.17128433660E+04  0.17128433660E+04  0.50400001928E-02 0.  1.
        1   -1    0    0  501    0  0.00000000000E+00  0.00000000000E+00 -0.20095794938E+04  0.20095794938E+04  0.50400001928E-02 0. -1.
    10030    2    1    2    0    0  0.00000000000E+00  0.00000000000E+00 -0.29673612785E+03  0.37224228598E+04  0.37105767231E+04 0.  0.
        5    1    3    3  502    0 -0.28974002210E+03  0.12947508887E+04 -0.14493288065E+04  0.19649186302E+04  0.46999998093E+01 0. -1.
       -5    1    3    3    0  502  0.28974002210E+03 -0.12947508887E+04  0.11525926787E+04  0.17575042296E+04  0.46999998093E+01 0.  1.
</event>
<event>
 5   0  0.1351000E-07  0.3830068E+04  0.7818609E-02  0.8039733E-01
        3   -1    0    0  501    0  0.00000000000E+00  0.00000000000E+00  0.17852824798E+04  0.17852824827E+04  0.10100000352E+00 0.  1.
       -3   -1    0    0    0  501  0.00000000000E+00  0.00000000000E+00 -0.20542161002E+04  0.20542161026E+04  0.10100000352E+00 0. -1.
    10030    2    1    2    0    0  0.00000000000E+00  0.00000000000E+00 -0.26893362032E+03  0.38394985853E+04  0.38300684191E+04 0.  0.
        1    1    3    3  502    0  0.26197296241E+03  0.16654646874E+03  0.17598918313E+04  0.17870609438E+04  0.50400001928E-02 0.  1.
       -1    1    3    3    0  502 -0.26197296241E+03 -0.16654646874E+03 -0.20288254516E+04  0.20524376415E+04  0.50400001928E-02 0. -1.
</event>
<event>
 5   0  0.1351000E-07  0.4016616E+04  0.7818609E-02  0.8001203E-01
        1   -1    0    0  501    0  0.00000000000E+00  0.00000000000E+00  0.17183482170E+04  0.17183482170E+04  0.50400001928E-02 0. -1.
       -1   -1    0    0    0  501  0.00000000000E+00  0.00000000000E+00 -0.23471967362E+04  0.23471967362E+04  0.50400001928E-02 0.  1.
    10030    2    1    2    0    0  0.00000000000E+00  0.00000000000E+00 -0.62884851917E+03  0.40655449531E+04  0.40166161512E+04 0.  0.
        3    1    3    3  502    0  0.15384696121E+04  0.43771485551E+03  0.91479029051E+03  0.18426405856E+04  0.10100000352E+00 0. -1.
       -3    1    3    3    0  502 -0.15384696121E+04 -0.43771485551E+03 -0.15436388097E+04  0.22229043675E+04  0.10100000352E+00 0.  1.
</event>
<event>
 5   0  0.4047916E-07  0.3998046E+04  0.7818609E-02  0.8004941E-01
        2   -1    0    0  501    0  0.00000000000E+00  0.00000000000E+00  0.26536307133E+04  0.26536307133E+04  0.25500000920E-02 0. -1.
       -2   -1    0    0    0  501  0.00000000000E+00  0.00000000000E+00 -0.15058965239E+04  0.15058965239E+04  0.25500000920E-02 0.  1.
    10030    2    1    2    0    0  0.00000000000E+00  0.00000000000E+00  0.11477341894E+04  0.41595272371E+04  0.39980461562E+04 0.  0.
        5    1    3    3  502    0 -0.13281258927E+04 -0.31384388437E+02  0.21279074295E+04  0.25085684135E+04  0.46999998093E+01 0. -1.
       -5    1    3    3    0  502  0.13281258927E+04  0.31384388437E+02 -0.98017324012E+03  0.16509588236E+04  0.46999998093E+01 0.  1.
</event>
<event>
 5   0  0.1351000E-07  0.3913044E+04  0.7818609E-02  0.8022322E-01
        3   -1    0    0  501    0  0.00000000000E+00  0.00000000000E+00  0.14547098365E+04  0.14547098400E+04  0.10100000352E+00 0.  1.
       -3   -1    0    0    0  501  0.00000000000E+00  0.00000000000E+00 -0.26314381404E+04  0.26314381423E+04  0.10100000352E+00 0. -1.
    10030    2    1    2    0    0  0.00000000000E+00  0.00000000000E+00 -0.11767283039E+04  0.40861479823E+04  0.39130443177E+04 0.  0.
        1    1    3    3  502    0  0.90775165830E+03  0.16940395589E+04 -0.97089712841E+03  0.21532357823E+04  0.50400001928E-02 0.  1.
       -1    1    3    3    0  502 -0.90775165830E+03 -0.16940395589E+04 -0.20583117546E+03  0.19329122000E+04  0.50400001928E-02 0. -1.
</event>
<event>
 5   0  0.4047916E-07  0.4024602E+04  0.7818609E-02  0.7999602E-01
       -2   -1    0    0    0  501  0.00000000000E+00  0.00000000000E+00  0.31203684894E+04  0.31203684894E+04  0.25500000920E-02 0. -1.
        2   -1    0    0  501    0  0.00000000000E+00  0.00000000000E+00 -0.12977171322E+04  0.12977171322E+04  0.25500000920E-02 0.  1.
    10030    2    1    2    0    0  0.00000000000E+00  0.00000000000E+00  0.18226513571E+04  0.44180856216E+04  0.40246021654E+04 0.  0.
        5    1    3    3  502    0  0.56344071996E+03  0.16594597258E+04  0.19969867372E+04  0.26569249415E+04  0.46999998093E+01 0. -1.
       -5    1    3    3    0  502 -0.56344071996E+03 -0.16594597258E+04 -0.17433538001E+03  0.17611606801E+04  0.46999998093E+01 0.  1.
</event>
<event>
 5   0  0.1351000E-07  0.3893551E+04  0.7818609E-02  0.8026372E-01
       -1   -1    0    0    0  501  0.00000000000E+00  0.00000000000E+00  0.16040422976E+04  0.16040422976E+04  0.50400001928E-02 0.  1.
        1   -1    0    0  501    0  0.00000000000E+00  0.00000000000E+00 -0.23627395530E+04  0.23627395530E+04  0.50400001928E-02 0. -1.
    10030    2    1    2    0    0  0.00000000000E+00  0.00000000000E+00 -0.75869725536E+03  0.39667818506E+04  0.38935506578E+04 0.  0.
        4    1    3    3  502    0  0.14423379213E+04  0.12362401673E+04 -0.81315541846E+03  0.20663619668E+04  0.12699999809E+01 0. -1.
       -4    1    3    3    0  502 -0.14423379213E+04 -0.12362401673E+04  0.54458163102E+02  0.19004198838E+04  0.12699999809E+01 0.  1.
</event>
<event>
 5   0  0.1368865E-07  0.3950147E+04  0.7818609E-02  0.8014680E-01
       -1   -1    0    0    0  501  0.00000000000E+00  0.00000000000E+00  0.24733892053E+04  0.24733892053E+04  0.50400001928E-02 0.  1.
        1   -1    0    0  501    0  0.00000000000E+00  0.00000000000E+00 -0.15771535997E+04  0.15771535997E+04  0.50400001928E-02 0. -1.
    10030    2    1    2    0    0  0.00000000000E+00  0.00000000000E+00  0.89623560560E+03  0.40505428050E+04  0.39501466751E+04 0.  0.
        5    1    3    3  502    0  0.10274172321E+04  0.11799713171E+04 -0.78791200324E+03  0.17517836319E+04  0.46999998093E+01 0. -1.
       -5    1    3    3    0  502 -0.10274172321E+04 -0.11799713171E+04  0.16841476088E+04  0.22987591732E+04  0.46999998093E+01 0.  1.
</event>
<event>
 5   0  0.4077370E-07  0.4086288E+04  0.7818609E-02  0.7987362E-01
       -2   -1    0    0    0  501  0.00000000000E+00  0.00000000000E+00  0.18944677810E+04  0.18944677810E+04  0.25500000920E-02 0.  1.
        2   -1    0    0  501    0  0.00000000000E+00  0.00000000000E+00 -0.22034880309E+04  0.22034880309E+04  0.25500000920E-02 0. -1.
    10030    2    1    2    0    0  0.00000000000E+00  0.00000000000E+00 -0.30902024989E+03  0.40979558120E+04  0.40862878413E+04 0.  0.
        3    1    3    3  502    0 -0.17025807542E+04  0.11226284097E+04 -0.27880473368E+03  0.20583507623E+04  0.10100000352E+00 0. -1.
       -3    1    3    3    0  502  0.17025807542E+04 -0.11226284097E+04 -0.30215516215E+02  0.20396050497E+04  0.10100000352E+00 0.  1.
</event>
<event>
 5   0  0.4047916E-07  0.4059264E+04  0.7818609E-02  0.7992697E-01
        2   -1    0    0  501    0  0.00000000000E+00  0.00000000000E+00  0.25313273169E+04  0.25313273169E+04  0.25500000920E-02 0.  1.
       -2   -1    0    0    0  501  0.00000000000E+00  0.00000000000E+00 -0.16273696172E+04  0.16273696172E+04  0.25500000920E-02 0. -1.
    10030    2    1    2    0    0  0.00000000000E+00  0.00000000000E+00  0.90395769968E+03  0.41586969341E+04  0.40592635622E+04 0.  0.
        5    1    3    3  502    0  0.97549258628E+03  0.17668819912E+04  0.67153020301E+03  0.21270713811E+04  0.46999998093E+01 0.  1.
       -5    1    3    3    0  502 -0.97549258628E+03 -0.17668819912E+04  0.23242749667E+03  0.20316255531E+04  0.46999998093E+01 0. -1.
</event>
<event>
 5   0  0.1351000E-07  0.3963350E+04  0.7818609E-02  0.8011981E-01
        3   -1    0    0  501    0  0.00000000000E+00  0.00000000000E+00  0.19924897115E+04  0.19924897141E+04  0.10100000352E+00 0. -1.
       -3   -1    0    0    0  501  0.00000000000E+00  0.00000000000E+00 -0.19709192930E+04  0.19709192955E+04  0.10100000352E+00 0.  1.
    10030    2    1    2    0    0  0.00000000000E+00  0.00000000000E+00  0.21570418547E+02  0.39634090096E+04  0.39633503118E+04 0.  0.
        5    1    3    3  502    0 -0.75786021331E+03  0.17938519497E+04 -0.35631342173E+03  0.19797066108E+04  0.46999998093E+01 0.  1.
       -5    1    3    3    0  502  0.75786021331E+03 -0.17938519497E+04  0.37788384028E+03  0.19837023988E+04  0.46999998093E+01 0. -1.
</event>
<event>
 5   0  0.4079777E-07  0.4033222E+04  0.7818609E-02  0.7997878E-01
       -2   -1    0    0    0  501  0.00000000000E+00  0.00000000000E+00  0.16069506354E+04  0.16069506354E+04  0.25500000920E-02 0. -1.
        2   -1    0    0  501    0  0.00000000000E+00  0.00000000000E+00 -0.25307065387E+04  0.25307065387E+04  0.25500000920E-02 0.  1.
    10030    2    1    2    0    0  0.00000000000E+00  0.00000000000E+00 -0.92375590333E+03  0.41376571742E+04  0.40332222753E+04 0.  0.
        4    1    3    3  502    0 -0.16482777294E+04 -0.54665744755E+02  0.72873829715E+03  0.18030166210E+04  0.12699999809E+01 0. -1.
       -4    1    3    3    0  502  0.16482777294E+04  0.54665744755E+02 -0.16524942005E+04  0.23346405532E+04  0.12699999809E+01 0.  1.
</event>
<event>
 5   0  0.1372952E-07  0.4007531E+04  0.7818609E-02  0.8003029E-01
       -1   -1    0    0    0  501  0.00000000000E+00  0.00000000000E+00  0.21717096626E+04  0.21717096627E+04  0.50400001928E-02 0. -1.
        1   -1    0    0  501    0  0.00000000000E+00  0.00000000000E+00 -0.18488090502E+04  0.18488090502E+04  0.50400001928E-02 0.  1.
    10030    2    1    2    0    0  0.00000000000E+00  0.00000000000E+00  0.32290061249E+03  0.40205187128E+04  0.40075311495E+04 0.  0.
        1    1    3    3  502    0 -0.14334542383E+04 -0.48972321619E+03 -0.11544622822E+04  0.19045742418E+04  0.50400001928E-02 0.  1.
       -1    1    3    3    0  502  0.14334542383E+04  0.48972321619E+03  0.14773628947E+04  0.21159444710E+04  0.50400001928E-02 0. -1.
</event>
<event>
 5   0  0.1421304E-07  0.3260484E+04  0.7818609E-02  0.8173024E-01
        1   -1    0    0  501    0  0.00000000000E+00  0.00000000000E+00  0.26052071378E+04  0.26052071378E+04  0.50400001928E-02 0. -1.
       -1   -1    0    0    0  501  0.00000000000E+00  0.00000000000E+00 -0.10201451271E+04  0.10201451271E+04  0.50400001928E-02 0.  1.
    10030    2    1    2    0    0  0.00000000000E+00  0.00000000000E+00  0.15850620107E+04  0.36253522649E+04  0.32604842381E+04 0.  0.
        2    1    3    3  502    0  0.42654237291E+03 -0.86215830160E+02 -0.95437140753E+03  0.10489024496E+04  0.25500000920E-02 0.  1.
       -2    1    3    3    0  502 -0.42654237291E+03  0.86215830160E+02  0.25394334182E+04  0.25764498153E+04  0.25500000920E-02 0. -1.
</event>
<event>
 5   0  0.1351000E-07  0.3670944E+04  0.7818609E-02  0.8074432E-01
       -1   -1    0    0    0  501  0.00000000000E+00  0.00000000000E+00  0.12934888451E+04  0.12934888452E+04  0.50400001928E-02 0. -1.
        1   -1    0    0  501    0  0.00000000000E+00  0.00000000000E+00 -0.26045505994E+04  0.26045505994E+04  0.50400001928E-02 0.  1.
    10030    2    1    2    0    0  0.00000000000E+00  0.00000000000E+00 -0.13110617542E+04  0.38980394445E+04  0.36709438279E+04 0.  0.
        4    1    3    3  502    0 -0.92586249328E+03  0.10570625875E+04  0.59834583627E+03  0.15272923830E+04  0.12699999809E+01 0.  1.
       -4    1    3    3    0  502  0.92586249328E+03 -0.10570625875E+04 -0.19094075905E+04  0.23707470616E+04  0.12699999809E+01 0. -1.
</event>
<event>
 5   0  0.1351000E-07  0.3440652E+04  0.7818609E-02  0.8128000E-01
       -1   -1    0    0    0  501  0.00000000000E+00  0.00000000000E+00  0.15068779313E+04  0.15068779313E+04  0.50400001928E-02 0. -1.
        1   -1    0    0  501    0  0.00000000000E+00  0.00000000000E+00 -0.19640086940E+04  0.19640086941E+04  0.50400001928E-02 0.  1.
    10030    2    1    2    0    0  0.00000000000E+00  0.00000000000E+00 -0.45713076273E+03  0.34708866254E+04  0.34406518906E+04 0.  0.
        4    1    3    3  502    0  0.55457358718E+02  0.73412897746E+03  0.13399285148E+04  0.15288658907E+04  0.12699999809E+01 0. -1.
       -4    1    3    3    0  502 -0.55457358718E+02 -0.73412897746E+03 -0.17970592775E+04  0.19420207347E+04  0.12699999809E+01 0.  1.
</event>
<event>
 5   0  0.1401869E-07  0.2557948E+04  0.7818609E-02  0.8382627E-01
       -1   -1    0    0    0  501  0.00000000000E+00  0.00000000000E+00  0.10333376908E+04  0.10333376908E+04  0.50400001928E-02 0. -1.
        1   -1    0    0  501    0  0.00000000000E+00  0.00000000000E+00 -0.15830014191E+04  0.15830014191E+04  0.50400001928E-02 0.  1.
    10030    2    1    2    0    0  0.00000000000E+00  0.00000000000E+00 -0.54966372828E+03  0.26163391100E+04  0.25579484209E+04 0.  0.
        1    1    3    3  502    0  0.11916448576E+04  0.29811747274E+03 -0.63917021507E+03  0.13847129876E+04  0.50400001928E-02 0.  1.
       -1    1    3    3    0  502 -0.11916448576E+04 -0.29811747274E+03  0.89506486787E+02  0.12316261224E+04  0.50400001928E-02 0. -1.
</event>
<event>
 5   0  0.1368865E-07  0.3964724E+04  0.7818609E-02  0.8011701E-01
       -1   -1    0    0    0  501  0.00000000000E+00  0.00000000000E+00  0.20362608529E+04  0.20362608529E+04  0.50400001928E-02 0.  1.
        1   -1    0    0  501    0  0.00000000000E+00  0.00000000000E+00 -0.19298901062E+04  0.19298901062E+04  0.50400001928E-02 0. -1.
    10030    2    1    2    0    0  0.00000000000E+00  0.00000000000E+00  0.10637074662E+03  0.39661509591E+04  0.39647242899E+04 0.  0.
        5    1    3    3  502    0 -0.93832321863E+03 -0.16788004103E+04  0.53389580546E+03  0.19959679610E+04  0.46999998093E+01 0.  1.
       -5    1    3    3    0  502  0.93832321863E+03  0.16788004103E+04 -0.42752505884E+03  0.19701829981E+04  0.46999998093E+01 0. -1.
</event>
<event>
 5   0  0.4079777E-07  0.4000391E+04  0.7818609E-02  0.8004468E-01
        2   -1    0    0  501    0  0.00000000000E+00  0.00000000000E+00  0.21850829174E+04  0.21850829174E+04  0.25500000920E-02 0. -1.
       -2   -1    0    0    0  501  0.00000000000E+00  0.00000000000E+00 -0.18309519659E+04  0.18309519659E+04  0.25500000920E-02 0.  1.
    10030    2    1    2    0    0  0.00000000000E+00  0.00000000000E+00  0.35413095146E+03  0.40160348833E+04  0.40003909125E+04 0.  0.
        4    1    3    3  502    0 -0.80010699803E+02 -0.49509575801E+02 -0.18287286648E+04  0.18311480150E+04  0.12699999809E+01 0.  1.
       -4    1    3    3    0  502  0.80010699803E+02  0.49509575801E+02  0.21828596163E+04  0.21848868684E+04  0.12699999809E+01 0. -1.
</event>
<event>
 5   0  0.1368865E-07  0.3458011E+04  0.7818609E-02  0.8123813E-01
       -1   -1    0    0    0  501  0.00000000000E+00  0.00000000000E+00  0.29929687266E+04  0.29929687266E+04  0.50400001928E-02 0.  1.
        1   -1    0    0  501    0  0.00000000000E+00  0.00000000000E+00 -0.99882793303E+03  0.99882793305E+03  0.50400001928E-02 0. -1.
    10030    2    1    2    0    0  0.00000000000E+00  0.00000000000E+00  0.19941407935E+04  0.39917966596E+04  0.34580114325E+04 0.  0.
        5    1    3    3  502    0  0.40282168855E+03  0.16934577205E+03  0.29281682555E+04  0.29605970219E+04  0.46999998093E+01 0.  1.
       -5    1    3    3    0  502 -0.40282168855E+03 -0.16934577205E+03 -0.93402746195E+03  0.10311996378E+04  0.46999998093E+01 0. -1.
</event>
<event>
 5   0  0.4079777E-07  0.3912816E+04  0.7818609E-02  0.8022369E-01
        2   -1    0    0  501    0  0.00000000000E+00  0.00000000000E+00  0.23464886450E+04  0.23464886450E+04  0.25500000920E-02 0.  1.
       -2   -1    0    0    0  501  0.00000000000E+00  0.00000000000E+00 -0.16311742352E+04  0.16311742352E+04  0.25500000920E-02 0. -1.
    10030    2    1    2    0    0  0.00000000000E+00  0.00000000000E+00  0.71531440985E+03  0.39776628802E+04  0.39128157743E+04 0.  0.
        4    1    3    3  502    0 -0.18993160807E+04  0.43926709299E+03  0.52523165491E+03  0.20189668292E+04  0.12699999809E+01 0. -1.
       -4    1    3    3    0  502  0.18993160807E+04 -0.43926709299E+03  0.19008275494E+03  0.19586960509E+04  0.12699999809E+01 0.  1.
</event>
<event>
 5   0  0.1372952E-07  0.4101497E+04  0.7818609E-02  0.7984379E-01
       -1   -1    0    0    0  501  0.00000000000E+00  0.00000000000E+00  0.31060295236E+04  0.31060295236E+04  0.50400001928E-02 0. -1.
        1   -1    0    0  501    0  0.00000000000E+00  0.00000000000E+00 -0.13540018663E+04  0.13540018664E+04  0.50400001928E-02 0.  1.
    10030    2    1    2    0    0  0.00000000000E+00  0.00000000000E+00  0.17520276573E+04  0.44600313900E+04  0.41014971764E+04 0.  0.
        1    1    3    3  502    0 -0.79263076321E+03 -0.87863275013E+03  0.26973326906E+04  0.29454817399E+04  0.50400001928E-02 0. -1.
       -1    1    3    3    0  502  0.79263076321E+03  0.87863275013E+03 -0.94530503334E+03  0.15145496500E+04  0.50400001928E-02 0.  1.
</event>
<event>
 5   0  0.4301754E-07  0.3917240E+04  0.7818609E-02  0.8021453E-01
       -2   -1    0    0    0  501  0.00000000000E+00  0.00000000000E+00  0.32106496707E+04  0.32106496707E+04  0.25500000920E-02 0.  1.
        2   -1    0    0  501    0  0.00000000000E+00  0.00000000000E+00 -0.11948338831E+04  0.11948338831E+04  0.25500000920E-02 0. -1.
    10030    2    1    2    0    0  0.00000000000E+00  0.00000000000E+00  0.20158157876E+04  0.44054835537E+04  0.39172403619E+04 0.  0.
        1    1    3    3  502    0  0.39554489209E+03 -0.52072358036E+03 -0.10684412216E+04  0.12526673352E+04  0.50400001928E-02 0. -1.
       -1    1    3    3    0  502 -0.39554489209E+03  0.52072358036E+03  0.30842570092E+04  0.31528162185E+04  0.50400001928E-02 0.  1.
</event>
<event>
 5   0  0.1351000E-07  0.2866936E+04  0.7818609E-02  0.8282783E-01
        1   -1    0    0  501    0  0.00000000000E+00  0.00000000000E+00  0.17926692676E+04  0.17926692676E+04  0.50400001928E-02 0.  1.
       -1   -1    0    0    0  501  0.00000000000E+00  0.00000000000E+00 -0.11462407440E+04  0.11462407440E+04  0.50400001928E-02 0. -1.
    10030    2    1    2    0    0  0.00000000000E+00  0.00000000000E+00  0.64642852359E+03  0.29389100117E+04  0.28669360336E+04 0.  0.
        3    1    3    3  502    0 -0.31819381107E+03 -0.13525782928E+04  0.68435857481E+03  0.15488905735E+04  0.10100000352E+00 0.  1.
       -3    1    3    3    0  502  0.31819381107E+03  0.13525782928E+04 -0.37930051215E+02  0.13900194382E+04  0.10100000352E+00 0. -1.
</event>
<event>
 5   0  0.4149487E-07  0.2907957E+04  0.7818609E-02  0.8270514E-01
       -2   -1    0    0    0  501  0.00000000000E+00  0.00000000000E+00  0.74867323686E+03  0.74867323687E+03  0.25500000920E-02 0.  1.
        2   -1    0    0  501    0  0.00000000000E+00  0.00000000000E+00 -0.28237338020E+04  0.28237338020E+04  0.25500000920E-02 0. -1.
    10030    2    1    2    0    0  0.00000000000E+00  0.00000000000E+00 -0.20750605651E+04  0.35724070388E+04  0.29079573075E+04 0.  0.
        2    1    3    3  502    0 -0.26413838034E+03  0.11513415030E+04 -0.20789984565E+04  0.23911484527E+04  0.25500000920E-02 0. -1.
       -2    1    3    3    0  502  0.26413838034E+03 -0.11513415030E+04  0.39378914233E+01  0.11812585862E+04  0.25500000920E-02 0.  1.
</event>
<event>
 5   0  0.1372952E-07  0.3992499E+04  0.7818609E-02  0.8006062E-01
       -1   -1    0    0    0  501  0.00000000000E+00  0.00000000000E+00  0.18097536651E+04  0.18097536651E+04  0.50400001928E-02 0.  1.
        1   -1    0    0  501    0  0.00000000000E+00  0.00000000000E+00 -0.22019633654E+04  0.22019633654E+04  0.50400001928E-02 0. -1.
    10030    2    1    2    0    0  0.00000000000E+00  0.00000000000E+00 -0.39220970025E+03  0.40117170305E+04  0.39924986016E+04 0.  0.
        1    1    3    3  502    0 -0.60477535640E+03 -0.30271860050E+03 -0.20833416048E+04  0.21903661852E+04  0.50400001928E-02 0. -1.
       -1    1    3    3    0  502  0.60477535640E+03  0.30271860050E+03  0.16911319046E+04  0.18213508453E+04  0.50400001928E-02 0.  1.
</event>
<event>
 5   0  0.1351000E-07  0.4008515E+04  0.7818609E-02  0.8002831E-01
       -1   -1    0    0    0  501  0.00000000000E+00  0.00000000000E+00  0.19457385419E+04  0.19457385419E+04  0.50400001928E-02 0. -1.
        1   -1    0    0  501    0  0.00000000000E+00  0.00000000000E+00 -0.20645361627E+04  0.20645361627E+04  0.50400001928E-02 0.  1.
    10030    2    1    2    0    0  0.00000000000E+00  0.00000000000E+00 -0.11879762083E+03  0.40102747046E+04  0.40085147288E+04 0.  0.
        3    1    3    3  502    0  0.15315613446E+04 -0.11995359879E+04  0.42297555115E+03  0.19908478258E+04  0.10100000352E+00 0. -1.
       -3    1    3    3    0  502 -0.15315613446E+04  0.11995359879E+04 -0.54177317198E+03  0.20194268787E+04  0.10100000352E+00 0.  1.
</event>
<event>
 5   0  0.1372952E-07  0.4019678E+04  0.7818609E-02  0.8000589E-01
        1   -1    0    0  501    0  0.00000000000E+00  0.00000000000E+00  0.16321767395E+04  0.16321767395E+04  0.50400001928E-02 0.  1.
       -1   -1    0    0    0  501  0.00000000000E+00  0.00000000000E+00 -0.24748866788E+04  0.24748866788E+04  0.50400001928E-02 0. -1.
    10030    2    1    2    0    0  0.00000000000E+00  0.00000000000E+00 -0.84270993926E+03  0.41070634183E+04  0.40196778329E+04 0.  0.
        1    1    3    3  502    0 -0.95667794510E+02 -0.24439725216E+03 -0.24573025756E+04  0.24712786754E+04  0.50400001928E-02 0. -1.
       -1    1    3    3    0  502  0.95667794510E+02  0.24439725216E+03  0.16145926363E+04  0.16357847429E+04  0.50400001928E-02 0.  1.
</event>
<event>
 5   0  0.4047916E-07  0.3743250E+04  0.7818609E-02  0.8058444E-01
        2   -1    0    0  501    0  0.00000000000E+00  0.00000000000E+00  0.16936471333E+04  0.16936471333E+04  0.25500000920E-02 0. -1.
       -2   -1    0    0    0  501  0.00000000000E+00  0.00000000000E+00 -0.20683053986E+04  0.20683053986E+04  0.25500000920E-02 0.  1.
    10030    2    1    2    0    0  0.00000000000E+00  0.00000000000E+00 -0.37465826530E+03  0.37619525320E+04  0.37432496626E+04 0.  0.
        5    1    3    3  502    0  0.78450235775E+03 -0.80123851838E+03  0.13186674198E+04  0.17309919025E+04  0.46999998093E+01 0. -1.
       -5    1    3    3    0  502 -0.78450235775E+03  0.80123851838E+03 -0.16933256851E+04  0.20309606294E+04  0.46999998093E+01 0.  1.
</event>
<event>
 5   0  0.4077370E-07  0.2534585E+04  0.7818609E-02  0.8390767E-01
       -2   -1    0    0    0  501  0.00000000000E+00  0.00000000000E+00  0.12127170756E+04  0.12127170756E+04  0.25500000920E-02 0.  1.
        2   -1    0    0  501    0  0.00000000000E+00  0.00000000000E+00 -0.13243244438E+04  0.13243244438E+04  0.25500000920E-02 0. -1.
    10030    2    1    2    0    0  0.00000000000E+00  0.00000000000E+00 -0.11160736816E+03  0.25370415194E+04  0.25345854625E+04 0.  0.
        3    1    3    3  502    0 -0.27467783639E+03 -0.12150916650E+04 -0.28869884292E+03  0.12787660850E+04  0.10100000352E+00 0. -1.
       -3    1    3    3    0  502  0.27467783639E+03  0.12150916650E+04  0.17709147476E+03  0.12582754344E+04  0.10100000352E+00 0.  1.
</event>
<event>
 5   0  0.4301754E-07  0.3531531E+04  0.7818609E-02  0.8106358E-01
        2   -1    0    0  501    0  0.00000000000E+00  0.00000000000E+00  0.10805099854E+04  0.10805099854E+04  0.25500000920E-02 0.  1.
       -2   -1    0    0    0  501  0.00000000000E+00  0.00000000000E+00 -0.28856082866E+04  0.28856082866E+04  0.25500000920E-02 0. -1.
    10030    2    1    2    0    0  0.00000000000E+00  0.00000000000E+00 -0.18050983012E+04  0.39661182720E+04  0.35315314342E+04 0.  0.
        1    1    3    3  502    0  0.14256258447E+04  0.53150293883E+02 -0.20711213847E+04  0.25149110904E+04  0.50400001928E-02 0. -1.
       -1    1    3    3    0  502 -0.14256258447E+04 -0.53150293883E+02  0.26602308344E+03  0.14512071816E+04  0.50400001928E-02 0.  1.
</event>
<event>
 5   0  0.1421304E-07  0.2902133E+04  0.7818609E-02  0.8272243E-01
       -1   -1    0    0    0  501  0.00000000000E+00  0.00000000000E+00  0.89821867790E+03  0.89821867791E+03  0.50400001928E-02 0. -1.
        1   -1    0    0  501    0  0.00000000000E+00  0.00000000000E+00 -0.23441890545E+04  0.23441890545E+04  0.50400001928E-02 0.  1.
    10030    2    1    2    0    0  0.00000000000E+00  0.00000000000E+00 -0.14459703766E+04  0.32424077324E+04  0.29021332797E+04 0.  0.
        2    1    3    3  502    0 -0.74390030404E+03 -0.72255260526E+03 -0.18569383689E+04  0.21268968089E+04  0.25500000920E-02 0.  1.
       -2    1    3    3    0  502  0.74390030404E+03  0.72255260526E+03  0.41096799234E+03  0.11155109235E+04  0.25500000920E-02 0. -1.
</event>
<event>
 5   0  0.1372952E-07  0.4003583E+04  0.7818609E-02  0.8003824E-01
        1   -1    0    0  501    0  0.00000000000E+00  0.00000000000E+00  0.25670511433E+04  0.25670511433E+04  0.50400001928E-02 0. -1.
       -1   -1    0    0    0  501  0.00000000000E+00  0.00000000000E+00 -0.15610008200E+04  0.15610008200E+04  0.50400001928E-02 0.  1.
    10030    2    1    2    0    0  0.00000000000E+00  0.00000000000E+00  0.10060503233E+04  0.41280519633E+04  0.40035828652E+04 0.  0.
        1    1    3    3  502    0 -0.12084430923E+04 -0.15957464567E+04  0.52434350056E+03  0.20692214884E+04  0.50400001928E-02 0.  1.
       -1    1    3    3    0  502  0.12084430923E+04  0.15957464567E+04  0.48170682273E+03  0.20588304749E+04  0.50400001928E-02 0. -1.
</event>
<event>
 5   0  0.4047916E-07  0.4072199E+04  0.7818609E-02  0.7990138E-01
       -2   -1    0    0    0  501  0.00000000000E+00  0.00000000000E+00  0.19904082996E+04  0.19904082996E+04  0.25500000920E-02 0.  1.
        2   -1    0    0  501    0  0.00000000000E+00  0.00000000000E+00 -0.20828399758E+04  0.20828399758E+04  0.25500000920E-02 0. -1.
    10030    2    1    2    0    0  0.00000000000E+00  0.00000000000E+00 -0.92431676247E+02  0.40732482754E+04  0.40721993932E+04 0.  0.
        5    1    3    3  502    0  0.33586932444E+03 -0.12895758512E+04 -0.15860491999E+04  0.20715666134E+04  0.46999998093E+01 0. -1.
       -5    1    3    3    0  502 -0.33586932444E+03  0.12895758512E+04  0.14936175237E+04  0.20016816620E+04  0.46999998093E+01 0.  1.
</event>
<event>
 5   0  0.1368865E-07  0.3500552E+04  0.7818609E-02  0.8113659E-01
        1   -1    0    0  501    0  0.00000000000E+00  0.00000000000E+00  0.27112253179E+04  0.27112253179E+04  0.50400001928E-02 0. -1.
       -1   -1    0    0    0  501  0.00000000000E+00  0.00000000000E+00 -0.11299191700E+04  0.11299191700E+04  0.50400001928E-02 0.  1.
    10030    2    1    2    0    0  0.00000000000E+00  0.00000000000E+00  0.15813061479E+04  0.38411444879E+04  0.35005516485E+04 0.  0.
        5    1    3    3  502    0 -0.89918382595E+03 -0.13330994374E+04  0.15491049071E+04  0.22328084929E+04  0.46999998093E+01 0. -1.
       -5    1    3    3    0  502  0.89918382595E+03  0.13330994374E+04  0.32201240859E+02  0.16083359950E+04  0.46999998093E+01 0.  1.
</event>
<event>
 5   0  0.1351000E-07  0.3983561E+04  0.7818609E-02  0.8007871E-01
       -1   -1    0    0    0  501  0.00000000000E+00  0.00000000000E+00  0.22416523142E+04  0.22416523142E+04  0.50400001928E-02 0. -1.
        1   -1    0    0  501    0  0.00000000000E+00  0.00000000000E+00 -0.17697615429E+04  0.17697615429E+04  0.50400001928E-02 0.  1.
    10030    2    1    2    0    0  0.00000000000E+00  0.00000000000E+00  0.47189077129E+03  0.40114138572E+04  0.39835612501E+04 0.  0.
        4    1    3    3  502    0 -0.21091464767E+03 -0.51126119568E+03  0.21627804688E+04  0.22323740654E+04  0.12699999809E+01 0. -1.
       -4    1    3    3    0  502  0.21091464767E+03  0.51126119568E+03 -0.16908896975E+04  0.17790397918E+04  0.12699999809E+01 0.  1.
</event>
<event>
 5   0  0.4077370E-07  0.3992311E+04  0.7818609E-02  0.8006099E-01
        2   -1    0    0  501    0  0.00000000000E+00  0.00000000000E+00  0.27062874677E+04  0.27062874677E+04  0.25500000920E-02 0. -1.
       -2   -1    0    0    0  501  0.00000000000E+00  0.00000000000E+00 -0.14723628471E+04  0.14723628471E+04  0.25500000920E-02 0.  1.
    10030    2    1    2    0    0  0.00000000000E+00  0.00000000000E+00  0.12339246206E+04  0.41786503148E+04  0.39923111708E+04 0.  0.
        3    1    3    3  502    0  0.41636628947E+03  0.75378612837E+03  0.25018724767E+04  0.26459252284E+04  0.10100000352E+00 0. -1.
       -3    1    3    3    0  502 -0.41636628947E+03 -0.75378612837E+03 -0.12679478562E+04  0.15327250864E+04  0.10100000352E+00 0.  1.
</event>
<event>
 5   0  0.1351000E-07  0.3242314E+04  0.7818609E-02  0.8177731E-01
        3   -1    0    0  501    0  0.00000000000E+00  0.00000000000E+00  0.18795758605E+04  0.18795758632E+04  0.10100000352E+00 0. -1.
       -3   -1    0    0    0  501  0.00000000000E+00  0.00000000000E+00 -0.13982673188E+04  0.13982673225E+04  0.10100000352E+00 0.  1.
    10030    2    1    2    0    0  0.00000000000E+00  0.00000000000E+00  0.48130854171E+03  0.32778431857E+04  0.32423136859E+04 0.  0.
        2    1    3    3  502    0 -0.91703063645E+03  0.88088063848E+02  0.15892302049E+04  0.18369423887E+04  0.25500000920E-02 0. -1.
       -2    1    3    3    0  502  0.91703063645E+03 -0.88088063848E+02 -0.11079216632E+04  0.14409007970E+04  0.25500000920E-02 0.  1.
</event>
<event>
 5   0  0.4047916E-07  0.3738354E+04  0.7818609E-02  0.8059515E-01
       -2   -1    0    0    0  501  0.00000000000E+00  0.00000000000E+00  0.22217502862E+04  0.22217502862E+04  0.25500000920E-02 0. -1.
        2   -1    0    0  501    0  0.00000000000E+00  0.00000000000E+00 -0.15725540358E+04  0.15725540358E+04  0.25500000920E-02 0.  1.
    10030    2    1    2    0    0  0.00000000000E+00  0.00000000000E+00  0.64919625037E+03  0.37943043220E+04  0.37383538512E+04 0.  0.
        5    1    3    3  502    0  0.10424647924E+04 -0.41917905428E+03 -0.11915311086E+04  0.16377461329E+04  0.46999998093E+01 0.  1.
       -5    1    3    3    0  502 -0.10424647924E+04  0.41917905428E+03  0.18407273590E+04  0.21565581891E+04  0.46999998093E+01 0. -1.
</event>
<event>
 5   0  0.4079777E-07  0.4059806E+04  0.7818609E-02  0.7992589E-01
        2   -1    0    0  501    0  0.00000000000E+00  0.00000000000E+00  0.22403920855E+04  0.22403920855E+04  0.25500000920E-02 0. -1.
       -2   -1    0    0    0  501  0.00000000000E+00  0.00000000000E+00 -0.18391895970E+04  0.18391895970E+04  0.25500000920E-02 0.  1.
    10030    2    1    2    0    0  0.00000000000E+00  0.00000000000E+00  0.40120248856E+03  0.40795816825E+04  0.40598058164E+04 0.  0.
        4    1    3    3  502    0  0.33824145199E+02 -0.18935784051E+04  0.93472199302E+03  0.21119872315E+04  0.12699999809E+01 0.  1.
       -4    1    3    3    0  502 -0.33824145199E+02  0.18935784051E+04 -0.53351950446E+03  0.19675944510E+04  0.12699999809E+01 0. -1.
</event>
<event>
 5   0  0.4301754E-07  0.4069126E+04  0.7818609E-02  0.7990745E-01
        2   -1    0    0  501    0  0.00000000000E+00  0.00000000000E+00  0.16227739188E+04  0.16227739188E+04  0.25500000920E-02 0.  1.
       -2   -1    0    0    0  501  0.00000000000E+00  0.00000000000E+00 -0.25508466361E+04  0.25508466361E+04  0.25500000920E-02 0. -1.
    10030    2    1    2    0    0  0.00000000000E+00  0.00000000000E+00 -0.92807271729E+03  0.41736205549E+04  0.40691263887E+04 0.  0.
        1    1    3    3  502    0  0.11215886171E+04 -0.79174267127E+03  0.10760653938E+04  0.17443434912E+04  0.50400001928E-02 0.  1.
       -1    1    3    3    0  502 -0.11215886171E+04  0.79174267127E+03 -0.20041381111E+04  0.24292770636E+04  0.50400001928E-02 0. -1.
</event>
<event>
 5   0  0.4301754E-07  0.3972993E+04  0.7818609E-02  0.8010017E-01
        2   -1    0    0  501    0  0.00000000000E+00  0.00000000000E+00  0.11852803048E+04  0.11852803048E+04  0.25500000920E-02 0.  1.
       -2   -1    0    0    0  501  0.00000000000E+00  0.00000000000E+00 -0.33293131025E+04  0.33293131025E+04  0.25500000920E-02 0. -1.
    10030    2    1    2    0    0  0.00000000000E+00  0.00000000000E+00 -0.21440327977E+04  0.45145934072E+04  0.39729934552E+04 0.  0.
        1    1    3    3  502    0  0.13104134457E+04  0.88445725358E+03  0.29474661792E+03  0.16082050867E+04  0.50400001928E-02 0.  1.
       -1    1    3    3    0  502 -0.13104134457E+04 -0.88445725358E+03 -0.24387794156E+04  0.29063883206E+04  0.50400001928E-02 0. -1.
</event>
<event>
 5   0  0.1421304E-07  0.3836696E+04  0.7818609E-02  0.8038326E-01
       -1   -1    0    0    0  501  0.00000000000E+00  0.00000000000E+00  0.18324048044E+04  0.18324048044E+04  0.50400001928E-02 0. -1.
        1   -1    0    0  501    0  0.00000000000E+00  0.00000000000E+00 -0.20083219104E+04  0.20083219104E+04  0.50400001928E-02 0.  1.
    10030    2    1    2    0    0  0.00000000000E+00  0.00000000000E+00 -0.17591710596E+03  0.38407267148E+04  0.38366958271E+04 0.  0.
        2    1    3    3  502    0 -0.10468110520E+04 -0.48087815611E+03 -0.16235197955E+04  0.19906967891E+04  0.25500000920E-02 0.  1.
       -2    1    3    3    0  502  0.10468110520E+04  0.48087815611E+03  0.14476026896E+04  0.18500299258E+04  0.25500000920E-02 0. -1.
</event>
<event>
 5   0  0.4301754E-07  0.3966706E+04  0.7818609E-02  0.8011297E-01
       -2   -1    0    0    0  501  0.00000000000E+00  0.00000000000E+00  0.19613600306E+04  0.19613600306E+04  0.25500000920E-02 0.  1.
        2   -1    0    0  501    0  0.00000000000E+00  0.00000000000E+00 -0.20055926063E+04  0.20055926063E+04  0.25500000920E-02 0. -1.
    10030    2    1    2    0    0  0.00000000000E+00  0.00000000000E+00 -0.44232575768E+02  0.39669526369E+04  0.39667060268E+04 0.  0.
        1    1    3    3  502    0  0.18416515167E+04  0.47693187315E+03 -0.58299414155E+03  0.19897302555E+04  0.50400001928E-02 0.  1.
       -1    1    3    3    0  502 -0.18416515167E+04 -0.47693187315E+03  0.53876156578E+03  0.19772223814E+04  0.50400001928E-02 0. -1.
</event>
<event>
 5   0  0.1368865E-07  0.3980737E+04  0.7818609E-02  0.8008444E-01
        1   -1    0    0  501    0  0.00000000000E+00  0.00000000000E+00  0.22403009105E+04  0.22403009105E+04  0.50400001928E-02 0.  1.
       -1   -1    0    0    0  501  0.00000000000E+00  0.00000000000E+00 -0.17683186600E+04  0.17683186600E+04  0.50400001928E-02 0. -1.
    10030    2    1    2    0    0  0.00000000000E+00  0.00000000000E+00  0.47198225052E+03  0.40086195705E+04  0.39807365670E+04 0.  0.
        5    1    3    3  502    0  0.71218737914E+03 -0.14005543675E+04  0.14663430936E+04  0.21491736918E+04  0.46999998093E+01 0.  1.
       -5    1    3    3    0  502 -0.71218737914E+03  0.14005543675E+04 -0.99436084312E+03  0.18594458787E+04  0.46999998093E+01 0. -1.
</event>
<event>
 5   0  0.1351000E-07  0.2843255E+04  0.7818609E-02  0.8289964E-01
        1   -1    0    0  501    0  0.00000000000E+00  0.00000000000E+00  0.19329413164E+04  0.19329413164E+04  0.50400001928E-02 0. -1.
       -1   -1    0    0    0  501  0.00000000000E+00  0.00000000000E+00 -0.10455693206E+04  0.10455693206E+04  0.50400001928E-02 0.  1.
    10030    2    1    2    0    0  0.00000000000E+00  0.00000000000E+00  0.88737199582E+03  0.29785106370E+04  0.28432545710E+04 0.  0.
        3    1    3    3  502    0  0.70018955830E+03 -0.42732611806E+03 -0.77264757612E+03  0.11268794593E+04  0.10100000352E+00 0.  1.
       -3    1    3    3    0  502 -0.70018955830E+03  0.42732611806E+03  0.16600195719E+04  0.18516311777E+04  0.10100000352E+00 0. -1.
</event>
<event>
 5   0  0.4079777E-07  0.4031041E+04  0.7818609E-02  0.7998314E-01
        2   -1    0    0  501    0  0.00000000000E+00  0.00000000000E+00  0.17661318386E+04  0.17661318386E+04  0.25500000920E-02 0. -1.
       -2   -1    0    0    0  501  0.00000000000E+00  0.00000000000E+00 -0.23001247511E+04  0.23001247511E+04  0.25500000920E-02 0.  1.
    10030    2    1    2    0    0  0.00000000000E+00  0.00000000000E+00 -0.53399291248E+03  0.40662565897E+04  0.40310413323E+04 0.  0.
        4    1    3    3  502    0  0.31624167090E+02  0.67039893176E+03 -0.21840957795E+04  0.22848874814E+04  0.12699999809E+01 0.  1.
       -4    1    3    3    0  502 -0.31624167090E+02 -0.67039893176E+03  0.16501028670E+04  0.17813691084E+04  0.12699999809E+01 0. -1.
</event>
<event>
 5   0  0.1351000E-07  0.3974890E+04  0.7818609E-02  0.8009631E-01
       -1   -1    0    0    0  501  0.00000000000E+00  0.00000000000E+00  0.26057205348E+04  0.26057205348E+04  0.50400001928E-02 0.  1.
        1   -1    0    0  501    0  0.00000000000E+00  0.00000000000E+00 -0.15158713239E+04  0.15158713240E+04  0.50400001928E-02 0. -1.
    10030    2    1    2    0    0  0.00000000000E+00  0.00000000000E+00  0.10898492108E+04  0.41215918587E+04  0.39748897026E+04 0.  0.
        4    1    3    3  502    0 -0.35800888648E+03 -0.67509259482E+03 -0.13574582707E+04  0.15577595912E+04  0.12699999809E+01 0. -1.
       -4    1    3    3    0  502  0.35800888648E+03  0.67509259482E+03  0.24473074815E+04  0.25638322676E+04  0.12699999809E+01 0.  1.
</event>
<event>
 5   0  0.4301754E-07  0.3708645E+04  0.7818609E-02  0.8066049E-01
       -2   -1    0    0    0  501  0.00000000000E+00  0.00000000000E+00  0.19868057734E+04  0.19868057734E+04  0.25500000920E-02 0. -1.
        2   -1    0    0  501    0  0.00000000000E+00  0.00000000000E+00 -0.17306737996E+04  0.17306737996E+04  0.25500000920E-02 0.  1.
    10030    2    1    2    0    0  0.00000000000E+00  0.00000000000E+00  0.25613197382E+03  0.37174795731E+04  0.37086454115E+04 0.  0.
        1    1    3    3  502    0  0.10386903519E+04 -0.11697287247E+04 -0.86998128711E+03  0.17899749653E+04  0.50400001928E-02 0.  1.
       -1    1    3    3    0  502 -0.10386903519E+04  0.11697287247E+04  0.11261132609E+04  0.19275046078E+04  0.50400001928E-02 0. -1.
</event>
<event>
 5   0  0.4077370E-07  0.4132180E+04  0.7818609E-02  0.7978400E-01
       -2   -1    0    0    0  501  0.00000000000E+00  0.00000000000E+00  0.24306028801E+04  0.24306028801E+04  0.25500000920E-02 0.  1.
        2   -1    0    0  501    0  0.00000000000E+00  0.00000000000E+00 -0.17562421720E+04  0.17562421720E+04  0.25500000920E-02 0. -1.
    10030    2    1    2    0    0  0.00000000000E+00  0.00000000000E+00  0.67436070809E+03  0.41868450521E+04  0.41321797064E+04 0.  0.
        3    1    3    3  502    0 -0.43094410728E+03  0.40815259277E+03 -0.16679963283E+04  0.17704556261E+04  0.10100000352E+00 0. -1.
       -3    1    3    3    0  502  0.43094410728E+03 -0.40815259277E+03  0.23423570363E+04  0.24163894261E+04  0.10100000352E+00 0.  1.
</event>
<event>
 5   0  0.4077370E-07  0.4088868E+04  0.7818609E-02  0.7986855E-01
        2   -1    0    0  501    0  0.00000000000E+00  0.00000000000E+00  0.20563110533E+04  0.20563110533E+04  0.25500000920E-02 0. -1.
       -2   -1    0    0    0  501  0.00000000000E+00  0.00000000000E+00 -0.20326252902E+04  0.20326252902E+04  0.25500000920E-02 0.  1.
    10030    2    1    2    0    0  0.00000000000E+00  0.00000000000E+00  0.23685763140E+02  0.40889363435E+04  0.40888677413E+04 0.  0.
        3    1    3    3  502    0  0.51272919811E+03  0.15836824123E+04  0.11987783895E+04  0.20513436697E+04  0.10100000352E+00 0. -1.
       -3    1    3    3    0  502 -0.51272919811E+03 -0.15836824123E+04 -0.11750926264E+04  0.20375926738E+04  0.10100000352E+00 0.  1.
</event>
<event>
 5   0  0.1421304E-07  0.2634744E+04  0.7818609E-02  0.8356494E-01
       -1   -1    0    0    0  501  0.00000000000E+00  0.00000000000E+00  0.11359815583E+04  0.11359815583E+04  0.50400001928E-02 0.  1.
        1   -1    0    0  501    0  0.00000000000E+00  0.00000000000E+00 -0.15277268454E+04  0.15277268454E+04  0.50400001928E-02 0. -1.
    10030    2    1    2    0    0  0.00000000000E+00  0.00000000000E+00 -0.39174528717E+03  0.26637084037E+04  0.26347444070E+04 0.  0.
        2    1    3    3  502    0  0.57751040488E+03 -0.81865452950E+03 -0.10607038265E+04  0.14590428760E+04  0.25500000920E-02 0. -1.
       -2    1    3    3    0  502 -0.57751040488E+03  0.81865452950E+03  0.66895853932E+03  0.12046655277E+04  0.25500000920E-02 0.  1.
</event>
<event>
 5   0  0.4047916E-07  0.3942456E+04  0.7818609E-02  0.8016257E-01
        2   -1    0    0  501    0  0.00000000000E+00  0.00000000000E+00  0.22356933427E+04  0.22356933427E+04  0.25500000920E-02 0. -1.
       -2   -1    0    0    0  501  0.00000000000E+00  0.00000000000E+00 -0.17380472978E+04  0.17380472978E+04  0.25500000920E-02 0.  1.
    10030    2    1    2    0    0  0.00000000000E+00  0.00000000000E+00  0.49764604484E+03  0.39737406405E+04  0.39424564794E+04 0.  0.
        5    1    3    3  502    0  0.60253780167E+03 -0.75215409972E+03  0.19820411076E+04  0.22039275474E+04  0.46999998093E+01 0. -1.
       -5    1    3    3    0  502 -0.60253780167E+03  0.75215409972E+03 -0.14843950627E+04  0.17698130931E+04  0.46999998093E+01 0.  1.
</event>
<event>
 5   0  0.4047916E-07  0.3125806E+04  0.7818609E-02  0.8208691E-01
       -2   -1    0    0    0  501  0.00000000000E+00  0.00000000000E+00  0.14464247695E+04  0.14464247695E+04  0.25500000920E-02 0. -1.
        2   -1    0    0  501    0  0.00000000000E+00  0.00000000000E+00 -0.16887610254E+04  0.16887610254E+04  0.25500000920E-02 0.  1.
    10030    2    1    2    0    0  0.00000000000E+00  0.00000000000E+00 -0.24233625594E+03  0.31351857949E+04  0.31258059933E+04 0.  0.
        5    1    3    3  502    0  0.12315205638E+04  0.96193139998E+03 -0.94844953879E+02  0.15655582303E+04  0.46999998093E+01 0.  1.
       -5    1    3    3    0  502 -0.12315205638E+04 -0.96193139998E+03 -0.14749130206E+03  0.15696275646E+04  0.46999998093E+01 0. -1.
</event>
<event>
 5   0  0.4079777E-07  0.3949180E+04  0.7818609E-02  0.8014878E-01
       -2   -1    0    0    0  501  0.00000000000E+00  0.00000000000E+00  0.16902032477E+04  0.16902032477E+04  0.25500000920E-02 0. -1.
        2   -1    0    0  501    0  0.00000000000E+00  0.00000000000E+00 -0.23068269250E+04  0.23068269250E+04  0.25500000920E-02 0.  1.
    10030    2    1    2    0    0  0.00000000000E+00  0.00000000000E+00 -0.61662367726E+03  0.39970301727E+04  0.39491803506E+04 0.  0.
        4    1    3    3  502    0 -0.56411222192E+03  0.56674850324E+03  0.15189936848E+04  0.17166158255E+04  0.12699999809E+01 0. -1.
       -4    1    3    3    0  502  0.56411222192E+03 -0.56674850324E+03 -0.21356173621E+04  0.22804143472E+04  0.12699999809E+01 0.  1.
</event>
<event>
 5   0  0.4079777E-07  0.4013288E+04  0.7818609E-02  0.8001871E-01
        2   -1    0    0  501    0  0.00000000000E+00  0.00000000000E+00  0.23442020422E+04  0.23442020422E+04  0.25500000920E-02 0. -1.
       -2   -1    0    0    0  501  0.00000000000E+00  0.00000000000E+00 -0.17176935210E+04  0.17176935210E+04  0.25500000920E-02 0.  1.
    10030    2    1    2    0    0  0.00000000000E+00  0.00000000000E+00  0.62650852121E+03  0.40618955632E+04  0.40132882577E+04 0.  0.
        4    1    3    3  502    0 -0.90497689416E+03 -0.84153893125E+02  0.21239312287E+04  0.23102273771E+04  0.12699999809E+01 0. -1.
       -4    1    3    3    0  502  0.90497689416E+03  0.84153893125E+02 -0.14974227075E+04  0.17516681862E+04  0.12699999809E+01 0.  1.
</event>
<event>
 5   0  0.1421304E-07  0.3823045E+04  0.7818609E-02  0.8041227E-01
        1   -1    0    0  501    0  0.00000000000E+00  0.00000000000E+00  0.25488494669E+04  0.25488494669E+04  0.50400001928E-02 0.  1.
       -1   -1    0    0    0  501  0.00000000000E+00  0.00000000000E+00 -0.14335562407E+04  0.14335562407E+04  0.50400001928E-02 0. -1.
    10030    2    1    2    0    0  0.00000000000E+00  0.00000000000E+00  0.11152932262E+04  0.39824057076E+04  0.38230454143E+04 0.  0.
        2    1    3    3  502    0  0.16161365740E+04 -0.61039559260E+03 -0.29465145158E+03  0.17525123918E+04  0.25500000920E-02 0. -1.
       -2    1    3    3    0  502 -0.16161365740E+04  0.61039559260E+03  0.14099446778E+04  0.22298933158E+04  0.25500000920E-02 0.  1.
</event>
<event>
 5   0  0.4077370E-07  0.4020314E+04  0.7818609E-02  0.8000461E-01
       -2   -1    0    0    0  501  0.00000000000E+00  0.00000000000E+00  0.23096326117E+04  0.23096326117E+04  0.25500000920E-02 0.  1.
        2   -1    0    0  501    0  0.00000000000E+00  0.00000000000E+00 -0.17495122073E+04  0.17495122073E+04  0.25500000920E-02 0. -1.
    10030    2    1    2    0    0  0.00000000000E+00  0.00000000000E+00  0.56012040440E+03  0.40591448190E+04  0.40203136437E+04 0.  0.
        3    1    3    3  502    0  0.10809376549E+04 -0.10870110863E+04 -0.10327722848E+04  0.18484149745E+04  0.10100000352E+00 0. -1.
       -3    1    3    3    0  502 -0.10809376549E+04  0.10870110863E+04  0.15928926892E+04  0.22107298444E+04  0.10100000352E+00 0.  1.
</event>
<event>
 5   0  0.1351000E-07  0.3999569E+04  0.7818609E-02  0.8004634E-01
        1   -1    0    0  501    0  0.00000000000E+00  0.00000000000E+00  0.18469424173E+04  0.18469424173E+04  0.50400001928E-02 0. -1.
       -1   -1    0    0    0  501  0.00000000000E+00  0.00000000000E+00 -0.21652748999E+04  0.21652748999E+04  0.50400001928E-02 0.  1.
    10030    2    1    2    0    0  0.00000000000E+00  0.00000000000E+00 -0.31833248258E+03  0.40122173173E+04  0.39995690057E+04 0.  0.
        4    1    3    3  502    0 -0.52032795163E+03  0.58522229172E+03  0.16867371499E+04  0.18596532295E+04  0.12699999809E+01 0. -1.
       -4    1    3    3    0  502  0.52032795163E+03 -0.58522229172E+03 -0.20050696325E+04  0.21525640878E+04  0.12699999809E+01 0.  1.
</event>
<event>
 5   0  0.4301754E-07  0.2570776E+04  0.7818609E-02  0.8378196E-01
        2   -1    0    0  501    0  0.00000000000E+00  0.00000000000E+00  0.76539387819E+03  0.76539387819E+03  0.25500000920E-02 0.  1.
       -2   -1    0    0    0  501  0.00000000000E+00  0.00000000000E+00 -0.21586571199E+04  0.21586571199E+04  0.25500000920E-02 0. -1.
    10030    2    1    2    0    0  0.00000000000E+00  0.00000000000E+00 -0.13932632417E+04  0.29240509981E+04  0.25707764933E+04 0.  0.
        1    1    3    3  502    0 -0.64057370869E+03  0.88404874517E+03  0.75093876821E+02  0.10943107193E+04  0.50400001928E-02 0.  1.
       -1    1    3    3    0  502  0.64057370869E+03 -0.88404874517E+03 -0.14683571185E+04  0.18297402787E+04  0.50400001928E-02 0. -1.
</event>
<event>
 5   0  0.4149487E-07  0.3970972E+04  0.7818609E-02  0.8010428E-01
       -2   -1    0    0    0  501  0.00000000000E+00  0.00000000000E+00  0.15768664108E+04  0.15768664108E+04  0.25500000920E-02 0. -1.
        2   -1    0    0  501    0  0.00000000000E+00  0.00000000000E+00 -0.24999924355E+04  0.24999924355E+04  0.25500000920E-02 0.  1.
    10030    2    1    2    0    0  0.00000000000E+00  0.00000000000E+00 -0.92312602467E+03  0.40768588464E+04  0.39709717193E+04 0.  0.
        2    1    3    3  502    0 -0.21114888942E+03 -0.11623384567E+04 -0.20999032376E+04  0.24093999562E+04  0.25500000920E-02 0.  1.
       -2    1    3    3    0  502  0.21114888942E+03  0.11623384567E+04  0.11767772130E+04  0.16674588902E+04  0.25500000920E-02 0. -1.
</event>
<event>
 5   0  0.1351000E-07  0.3094164E+04  0.7818609E-02  0.8217341E-01
        1   -1    0    0  501    0  0.00000000000E+00  0.00000000000E+00  0.27563650601E+04  0.27563650601E+04  0.50400001928E-02 0.  1.
       -1   -1    0    0    0  501  0.00000000000E+00  0.00000000000E+00 -0.86834027136E+03  0.86834027137E+03  0.50400001928E-02 0. -1.
    10030    2    1    2    0    0  0.00000000000E+00  0.00000000000E+00  0.18880247887E+04  0.36247053315E+04  0.30941640450E+04 0.  0.
        4    1    3    3  502    0 -0.79810421923E+03  0.11360085682E+03 -0.60284763379E+03  0.10066292177E+04  0.12699999809E+01 0. -1.
       -4    1    3    3    0  502  0.79810421923E+03 -0.11360085682E+03  0.24908724225E+04  0.26180761138E+04  0.12699999809E+01 0.  1.
</event>
<event>
 5   0  0.1488605E-07  0.2494958E+04  0.7818609E-02  0.8404784E-01
       -1   -1    0    0    0  501  0.00000000000E+00  0.00000000000E+00  0.12534336554E+04  0.12534336554E+04  0.50400001928E-02 0. -1.
        1   -1    0    0  501    0  0.00000000000E+00  0.00000000000E+00 -0.12415523052E+04  0.12415523052E+04  0.50400001928E-02 0.  1.
    10030    2    1    2    0    0  0.00000000000E+00  0.00000000000E+00  0.11881350210E+02  0.24949859606E+04  0.24949576704E+04 0.  0.
        2    1    3    3  502    0 -0.44301888833E+03 -0.36020635155E+03 -0.11032107985E+04  0.12422111001E+04  0.25500000920E-02 0.  1.
       -2    1    3    3    0  502  0.44301888833E+03  0.36020635155E+03  0.11150921487E+04  0.12527748606E+04  0.25500000920E-02 0. -1.
</event>
<event>
 5   0  0.4079777E-07  0.2998645E+04  0.7818609E-02  0.8244118E-01
       -2   -1    0    0    0  501  0.00000000000E+00  0.00000000000E+00  0.16962641218E+04  0.16962641218E+04  0.25500000920E-02 0. -1.
        2   -1    0    0  501    0  0.00000000000E+00  0.00000000000E+00 -0.13252465484E+04  0.13252465484E+04  0.25500000920E-02 0.  1.
    10030    2    1    2    0    0  0.00000000000E+00  0.00000000000E+00  0.37101757335E+03  0.30215106702E+04  0.29986451425E+04 0.  0.
        4    1    3    3  502    0 -0.33785898784E+03  0.11260380907E+04  0.11231181023E+04  0.16258863312E+04  0.12699999809E+01 0. -1.
       -4    1    3    3    0  502  0.33785898784E+03 -0.11260380907E+04 -0.75210052892E+03  0.13956243391E+04  0.12699999809E+01 0.  1.
</event>
<event>
 5   0  0.4079777E-07  0.3693443E+04  0.7818609E-02  0.8069417E-01
        2   -1    0    0  501    0  0.00000000000E+00  0.00000000000E+00  0.19041520996E+04  0.19041520996E+04  0.25500000920E-02 0. -1.
       -2   -1    0    0    0  501  0.00000000000E+00  0.00000000000E+00 -0.17910225836E+04  0.17910225836E+04  0.25500000920E-02 0.  1.
    10030    2    1    2    0    0  0.00000000000E+00  0.00000000000E+00  0.11312951605E+03  0.36951746832E+04  0.36934425205E+04 0.  0.
        4    1    3    3  502    0  0.28180220746E+03 -0.18267483112E+03  0.18733445964E+04  0.19032089134E+04  0.12699999809E+01 0. -1.
       -4    1    3    3    0  502 -0.28180220746E+03  0.18267483112E+03 -0.17602150804E+04  0.17919657698E+04  0.12699999809E+01 0.  1.
</event>
<event>
 5   0  0.1351000E-07  0.3969516E+04  0.7818609E-02  0.8010724E-01
        1   -1    0    0  501    0  0.00000000000E+00  0.00000000000E+00  0.18210123774E+04  0.18210123774E+04  0.50400001928E-02 0.  1.
       -1   -1    0    0    0  501  0.00000000000E+00  0.00000000000E+00 -0.21632280052E+04  0.21632280052E+04  0.50400001928E-02 0. -1.
    10030    2    1    2    0    0  0.00000000000E+00  0.00000000000E+00 -0.34221562785E+03  0.39842403826E+04  0.39695163295E+04 0.  0.
        4    1    3    3  502    0 -0.21055754013E+02  0.12277737109E+04  0.13939680995E+04  0.18576921988E+04  0.12699999809E+01 0.  1.
       -4    1    3    3    0  502  0.21055754013E+02 -0.12277737109E+04 -0.17361837274E+04  0.21265481838E+04  0.12699999809E+01 0. -1.
</event>
<event>
 5   0  0.1421304E-07  0.3357515E+04  0.7818609E-02  0.8148413E-01
        1   -1    0    0  501    0  0.00000000000E+00  0.00000000000E+00  0.29931105729E+04  0.29931105729E+04  0.50400001928E-02 0. -1.
       -1   -1    0    0    0  501  0.00000000000E+00  0.00000000000E+00 -0.94157111868E+03  0.94157111869E+03  0.50400001928E-02 0.  1.
    10030    2    1    2    0    0  0.00000000000E+00  0.00000000000E+00  0.20515394542E+04  0.39346816916E+04  0.33575148372E+04 0.  0.
        2    1    3    3  502    0  0.41397119418E+03  0.11046382118E+04  0.24255090024E+04  0.26971636305E+04  0.25500000920E-02 0. -1.
       -2    1    3    3    0  502 -0.41397119418E+03 -0.11046382118E+04 -0.37396954822E+03  0.12375180611E+04  0.25500000920E-02 0.  1.
</event>
<event>
 5   0  0.4047916E-07  0.3982842E+04  0.7818609E-02  0.8008017E-01
        2   -1    0    0  501    0  0.00000000000E+00  0.00000000000E+00  0.20530549429E+04  0.20530549429E+04  0.25500000920E-02 0.  1.
       -2   -1    0    0    0  501  0.00000000000E+00  0.00000000000E+00 -0.19316371086E+04  0.19316371086E+04  0.25500000920E-02 0. -1.
    10030    2    1    2    0    0  0.00000000000E+00  0.00000000000E+00  0.12141783437E+03  0.39846920515E+04  0.39828417562E+04 0.  0.
        5    1    3    3  502    0  0.85293144438E+03  0.17449379326E+04  0.50072522903E+03  0.20057537940E+04  0.46999998093E+01 0.  1.
       -5    1    3    3    0  502 -0.85293144438E+03 -0.17449379326E+04 -0.37930739465E+03  0.19789382575E+04  0.46999998093E+01 0. -1.
</event>
<event>
 5   0  0.4047916E-07  0.3869398E+04  0.7818609E-02  0.8031424E-01
        2   -1    0    0  501    0  0.00000000000E+00  0.00000000000E+00  0.22042681248E+04  0.22042681248E+04  0.25500000920E-02 0. -1.
       -2   -1    0    0    0  501  0.00000000000E+00  0.00000000000E+00 -0.16980969826E+04  0.16980969826E+04  0.25500000920E-02 0.  1.
    10030    2    1    2    0    0  0.00000000000E+00  0.00000000000E+00  0.50617114220E+03  0.39023651075E+04  0.38693984296E+04 0.  0.
        5    1    3    3  502    0 -0.13122160260E+04  0.13686890130E+04 -0.13466171628E+03  0.19008883137E+04  0.46999998093E+01 0. -1.
       -5    1    3    3    0  502  0.13122160260E+04 -0.13686890130E+04  0.64083285849E+03  0.20014767937E+04  0.46999998093E+01 0.  1.
</event>
<event>
 5   0  0.1368865E-07  0.3984752E+04  0.7818609E-02  0.8007630E-01
        1   -1    0    0  501    0  0.00000000000E+00  0.00000000000E+00  0.17383733110E+04  0.17383733110E+04  0.50400001928E-02 0.  1.
       -1   -1    0    0    0  501  0.00000000000E+00  0.00000000000E+00 -0.22834922472E+04  0.22834922472E+04  0.50400001928E-02 0. -1.
    10030    2    1    2    0    0  0.00000000000E+00  0.00000000000E+00 -0.54511893620E+03  0.40218655582E+04  0.39847519262E+04 0.  0.
        5    1    3    3  502    0 -0.18659653350E+03  0.10893614368E+04  0.14005935977E+04  0.17841555768E+04  0.46999998093E+01 0.  1.
       -5    1    3    3    0  502  0.18659653350E+03 -0.10893614368E+04 -0.19457125339E+04  0.22377099814E+04  0.46999998093E+01 0. -1.
</event>
<event>
 5   0  0.4149487E-07  0.3938097E+04  0.7818609E-02  0.8017152E-01
        2   -1    0    0  501    0  0.00000000000E+00  0.00000000000E+00  0.27923980165E+04  0.27923980165E+04  0.25500000920E-02 0.  1.
       -2   -1    0    0    0  501  0.00000000000E+00  0.00000000000E+00 -0.13884666092E+04  0.13884666092E+04  0.25500000920E-02 0. -1.
    10030    2    1    2    0    0  0.00000000000E+00  0.00000000000E+00  0.14039314072E+04  0.41808646257E+04  0.39380967004E+04 0.  0.
        2    1    3    3  502    0 -0.73209052607E+03  0.83784526666E+03  0.24266782315E+04  0.26695895693E+04  0.25500000920E-02 0.  1.
       -2    1    3    3    0  502  0.73209052607E+03 -0.83784526666E+03 -0.10227468243E+04  0.15112750563E+04  0.25500000920E-02 0. -1.
</event>
<event>
 5   0  0.1351000E-07  0.3748159E+04  0.7818609E-02  0.8057372E-01
        1   -1    0    0  501    0  0.00000000000E+00  0.00000000000E+00  0.24076210009E+04  0.24076210009E+04  0.50400001928E-02 0. -1.
       -1   -1    0    0    0  501  0.00000000000E+00  0.00000000000E+00 -0.14587735750E+04  0.14587735750E+04  0.50400001928E-02 0.  1.
    10030    2    1    2    0    0  0.00000000000E+00  0.00000000000E+00  0.94884742587E+03  0.38663945759E+04  0.37481589587E+04 0.  0.
        4    1    3    3  502    0  0.22241584160E+03  0.17866184666E+04  0.10111225315E+04  0.20649079250E+04  0.12699999809E+01 0.  1.
       -4    1    3    3    0  502 -0.22241584160E+03 -0.17866184666E+04 -0.62275105666E+02  0.18014866510E+04  0.12699999809E+01 0. -1.
</event>
<event>
 5   0  0.4077370E-07  0.3958667E+04  0.7818609E-02  0.8012937E-01
       -2   -1    0    0    0  501  0.00000000000E+00  0.00000000000E+00  0.15022440707E+04  0.15022440708E+04  0.25500000920E-02 0.  1.
        2   -1    0    0  501    0  0.00000000000E+00  0.00000000000E+00 -0.26079393025E+04  0.26079393025E+04  0.25500000920E-02 0. -1.
    10030    2    1    2    0    0  0.00000000000E+00  0.00000000000E+00 -0.11056952317E+04  0.41101833732E+04  0.39586671262E+04 0.  0.
        3    1    3    3  502    0  0.45479936802E+03 -0.17302772789E+04  0.32635664728E+03  0.18185737814E+04  0.10100000352E+00 0.  1.
       -3    1    3    3    0  502 -0.45479936802E+03  0.17302772789E+04 -0.14320518790E+04  0.22916095918E+04  0.10100000352E+00 0. -1.
</event>
<event>
 5   0  0.4047916E-07  0.2722163E+04  0.7818609E-02  0.8327849E-01
       -2   -1    0    0    0  501  0.00000000000E+00  0.00000000000E+00  0.10841943036E+04  0.10841943036E+04  0.25500000920E-02 0.  1.
        2   -1    0    0  501    0  0.00000000000E+00  0.00000000000E+00 -0.17086818569E+04  0.17086818569E+04  0.25500000920E-02 0. -1.
    10030    2    1    2    0    0  0.00000000000E+00  0.00000000000E+00 -0.62448755330E+03  0.27928761604E+04  0.27221632103E+04 0.  0.
        5    1    3    3  502    0 -0.12733652052E+04  0.28180615133E+03 -0.71177892644E+03  0.14857742032E+04  0.46999998093E+01 0.  1.
       -5    1    3    3    0  502  0.12733652052E+04 -0.28180615133E+03  0.87291373148E+02  0.13071019572E+04  0.46999998093E+01 0. -1.
</event>
<event>
 5   0  0.4149487E-07  0.3984948E+04  0.7818609E-02  0.8007590E-01
        2   -1    0    0  501    0  0.00000000000E+00  0.00000000000E+00  0.13812859965E+04  0.13812859965E+04  0.25500000920E-02 0.  1.
       -2   -1    0    0    0  501  0.00000000000E+00  0.00000000000E+00 -0.28740993290E+04  0.28740993290E+04  0.25500000920E-02 0. -1.
    10030    2    1    2    0    0  0.00000000000E+00  0.00000000000E+00 -0.14928133325E+04  0.42553853255E+04  0.39849482585E+04 0.  0.
        2    1    3    3  502    0  0.74033417729E+03 -0.36849696737E+03 -0.26821800201E+04  0.28067729458E+04  0.25500000920E-02 0. -1.
       -2    1    3    3    0  502 -0.74033417729E+03  0.36849696737E+03  0.11893666876E+04  0.14486123797E+04  0.25500000920E-02 0.  1.
</event>
<event>
 5   0  0.1351000E-07  0.4208656E+04  0.7818609E-02  0.7963728E-01
       -1   -1    0    0    0  501  0.00000000000E+00  0.00000000000E+00  0.16175899791E+04  0.16175899791E+04  0.50400001928E-02 0. -1.
        1   -1    0    0  501    0  0.00000000000E+00  0.00000000000E+00 -0.27375271193E+04  0.27375271193E+04  0.50400001928E-02 0.  1.
    10030    2    1    2    0    0  0.00000000000E+00  0.00000000000E+00 -0.11199371402E+04  0.43551170984E+04  0.42086560494E+04 0.  0.
        3    1    3    3  502    0  0.64237071268E+03 -0.81631644740E+03 -0.24537327149E+04  0.26645481645E+04  0.10100000352E+00 0.  1.
       -3    1    3    3    0  502 -0.64237071268E+03  0.81631644740E+03  0.13337955747E+04  0.16905689338E+04  0.10100000352E+00 0. -1.
</event>
<event>
 5   0  0.4149487E-07  0.3976808E+04  0.7818609E-02  0.8009242E-01
        2   -1    0    0  501    0  0.00000000000E+00  0.00000000000E+00  0.23328677430E+04  0.23328677430E+04  0.25500000920E-02 0.  1.
       -2   -1    0    0    0  501  0.00000000000E+00  0.00000000000E+00 -0.16948023919E+04  0.16948023919E+04  0.25500000920E-02 0. -1.
    10030    2    1    2    0    0  0.00000000000E+00  0.00000000000E+00  0.63806535110E+03  0.40276701348E+04  0.39768076799E+04 0.  0.
        2    1    3    3  502    0 -0.17908680071E+04  0.65790301670E+03 -0.24822474673E+03  0.19239698862E+04  0.25500000920E-02 0. -1.
       -2    1    3    3    0  502  0.17908680071E+04 -0.65790301670E+03  0.88629009784E+03  0.21037002486E+04  0.25500000920E-02 0.  1.
</event>
<event>
 5   0  0.1368865E-07  0.3719432E+04  0.7818609E-02  0.8063669E-01
       -1   -1    0    0    0  501  0.00000000000E+00  0.00000000000E+00  0.15260473799E+04  0.15260473799E+04  0.50400001928E-02 0. -1.
        1   -1    0    0  501    0  0.00000000000E+00  0.00000000000E+00 -0.22663411097E+04  0.22663411097E+04  0.50400001928E-02 0.  1.
    10030    2    1    2    0    0  0.00000000000E+00  0.00000000000E+00 -0.74029372986E+03  0.37923884896E+04  0.37194321677E+04 0.  0.
        5    1    3    3  502    0 -0.11346021194E+04 -0.55723465904E+03  0.10206801490E+04  0.16246976614E+04  0.46999998093E+01 0. -1.
       -5    1    3    3    0  502  0.11346021194E+04  0.55723465904E+03 -0.17609738789E+04  0.21676908282E+04  0.46999998093E+01 0.  1.
</event>
<event>
 5   0  0.1351000E-07  0.3929288E+04  0.7818609E-02  0.8018965E-01
       -1   -1    0    0    0  501  0.00000000000E+00  0.00000000000E+00  0.29070408334E+04  0.29070408334E+04  0.50400001928E-02 0. -1.
        1   -1    0    0  501    0  0.00000000000E+00  0.00000000000E+00 -0.13277508777E+04  0.13277508777E+04  0.50400001928E-02 0.  1.
    10030    2    1    2    0    0  0.00000000000E+00  0.00000000000E+00  0.15792899557E+04  0.42347917110E+04  0.39292879853E+04 0.  0.
        4    1    3    3  502    0  0.18932750659E+04  0.28336614877E+03  0.12656124972E+04  0.22948994434E+04  0.12699999809E+01 0.  1.
       -4    1    3    3    0  502 -0.18932750659E+04 -0.28336614877E+03  0.31367745848E+03  0.19398922677E+04  0.12699999809E+01 0. -1.
</event>
<event>
 5   0  0.4077370E-07  0.3865233E+04  0.7818609E-02  0.8032299E-01
       -2   -1    0    0    0  501  0.00000000000E+00  0.00000000000E+00  0.24610851474E+04  0.24610851474E+04  0.25500000920E-02 0.  1.
        2   -1    0    0  501    0  0.00000000000E+00  0.00000000000E+00 -0.15176256134E+04  0.15176256134E+04  0.25500000920E-02 0. -1.
    10030    2    1    2    0    0  0.00000000000E+00  0.00000000000E+00  0.94345953406E+03  0.39787107608E+04  0.38652326484E+04 0.  0.
        3    1    3    3  502    0  0.19595504012E+03  0.45036404444E+03  0.23957714992E+04  0.24455975215E+04  0.10100000352E+00 0.  1.
       -3    1    3    3    0  502 -0.19595504012E+03 -0.45036404444E+03 -0.14523119652E+04  0.15331132394E+04  0.10100000352E+00 0. -1.
</event>
<event>
 5   0  0.1351000E-07  0.3902713E+04  0.7818609E-02  0.8024465E-01
       -1   -1    0    0    0  501  0.00000000000E+00  0.00000000000E+00  0.18435233088E+04  0.18435233088E+04  0.50400001928E-02 0. -1.
        1   -1    0    0  501    0  0.00000000000E+00  0.00000000000E+00 -0.20654973466E+04  0.20654973466E+04  0.50400001928E-02 0.  1.
    10030    2    1    2    0    0  0.00000000000E+00  0.00000000000E+00 -0.22197403778E+03  0.39090206554E+04  0.39027131602E+04 0.  0.
        3    1    3    3  502    0 -0.30026228834E+03  0.19176448554E+04 -0.31199334304E+03  0.19659244872E+04  0.10100000352E+00 0. -1.
       -3    1    3    3    0  502  0.30026228834E+03 -0.19176448554E+04  0.90019305264E+02  0.19430961681E+04  0.10100000352E+00 0.  1.
</event>
<event>
 5   0  0.1421304E-07  0.3953506E+04  0.7818609E-02  0.8013992E-01
       -1   -1    0    0    0  501  0.00000000000E+00  0.00000000000E+00  0.18088898933E+04  0.18088898933E+04  0.50400001928E-02 0.  1.
        1   -1    0    0  501    0  0.00000000000E+00  0.00000000000E+00 -0.21601936937E+04  0.21601936937E+04  0.50400001928E-02 0. -1.
    10030    2    1    2    0    0  0.00000000000E+00  0.00000000000E+00 -0.35130380041E+03  0.39690835870E+04  0.39535060593E+04 0.  0.
        2    1    3    3  502    0 -0.13586428220E+04 -0.12888916956E+03 -0.16113319226E+04  0.21116139090E+04  0.25500000920E-02 0. -1.
       -2    1    3    3    0  502  0.13586428220E+04  0.12888916956E+03  0.12600281222E+04  0.18574696780E+04  0.25500000920E-02 0.  1.
</event>
<event>
 5   0  0.1421304E-07  0.3019930E+04  0.7818609E-02  0.8238063E-01
       -1   -1    0    0    0  501  0.00000000000E+00  0.00000000000E+00  0.69736009278E+03  0.69736009280E+03  0.50400001928E-02 0.  1.
        1   -1    0    0  501    0  0.00000000000E+00  0.00000000000E+00 -0.32694649978E+04  0.32694649978E+04  0.50400001928E-02 0. -1.
    10030    2    1    2    0    0  0.00000000000E+00  0.00000000000E+00 -0.25721049050E+04  0.39668250906E+04  0.30199300748E+04 0.  0.
        2    1    3    3  502    0  0.63278965982E+03  0.11700814561E+04 -0.22245561229E+04  0.25919419961E+04  0.25500000920E-02 0.  1.
       -2    1    3    3    0  502 -0.63278965982E+03 -0.11700814561E+04 -0.34754878209E+03  0.13748830944E+04  0.25500000920E-02 0. -1.
</event>
<event>
 5   0  0.4079777E-07  0.4001811E+04  0.7818609E-02  0.8004181E-01
       -2   -1    0    0    0  501  0.00000000000E+00  0.00000000000E+00  0.17149507820E+04  0.17149507820E+04  0.25500000920E-02 0.  1.
        2   -1    0    0  501    0  0.00000000000E+00  0.00000000000E+00 -0.23345404008E+04  0.23345404008E+04  0.25500000920E-02 0. -1.
    10030    2    1    2    0    0  0.00000000000E+00  0.00000000000E+00 -0.61958961874E+03  0.40494911828E+04  0.40018105333E+04 0.  0.
        4    1    3    3  502    0  0.10815750922E+04 -0.44590268187E+03 -0.19523997433E+04  0.22760712318E+04  0.12699999809E+01 0. -1.
       -4    1    3    3    0  502 -0.10815750922E+04  0.44590268187E+03  0.13328101245E+04  0.17734199510E+04  0.12699999809E+01 0.  1.
</event>
<event>
 5   0  0.1372952E-07  0.2452754E+04  0.7818609E-02  0.8420013E-01
       -1   -1    0    0    0  501  0.00000000000E+00  0.00000000000E+00  0.49172402028E+03  0.49172402031E+03  0.50400001928E-02 0. -1.
        1   -1    0    0  501    0  0.00000000000E+00  0.00000000000E+00 -0.30586261437E+04  0.30586261437E+04  0.50400001928E-02 0.  1.
    10030    2    1    2    0    0  0.00000000000E+00  0.00000000000E+00 -0.25669021234E+04  0.35503501640E+04  0.24527535090E+04 0.  0.
        1    1    3    3  502    0  0.33425664646E+03 -0.52549474401E+03 -0.28126860598E+04  0.28808115355E+04  0.50400001928E-02 0.  1.
       -1    1    3    3    0  502 -0.33425664646E+03  0.52549474401E+03  0.24578393642E+03  0.66953862854E+03  0.50400001928E-02 0. -1.
</event>
<event>
 5   0  0.1372952E-07  0.4053283E+04  0.7818609E-02  0.7993883E-01
        1   -1    0    0  501    0  0.00000000000E+00  0.00000000000E+00  0.16159235893E+04  0.16159235893E+04  0.50400001928E-02 0. -1.
       -1   -1    0    0    0  501  0.00000000000E+00  0.00000000000E+00 -0.25417507004E+04  0.25417507005E+04  0.50400001928E-02 0.  1.
    10030    2    1    2    0    0  0.00000000000E+00  0.00000000000E+00 -0.92582711118E+03  0.41576742897E+04  0.40532825783E+04 0.  0.
        1    1    3    3  502    0 -0.46005754958E+02  0.17389996829E+04 -0.15294216603E+04  0.23163261949E+04  0.50400001928E-02 0.  1.
       -1    1    3    3    0  502  0.46005754958E+02 -0.17389996829E+04  0.60359454907E+03  0.18413480948E+04  0.50400001928E-02 0. -1.
</event>
<event>
 5   0  0.4047916E-07  0.3969071E+04  0.7818609E-02  0.8010815E-01
       -2   -1    0    0    0  501  0.00000000000E+00  0.00000000000E+00  0.18812618902E+04  0.18812618902E+04  0.25500000920E-02 0.  1.
        2   -1    0    0  501    0  0.00000000000E+00  0.00000000000E+00 -0.20934785240E+04  0.20934785240E+04  0.25500000920E-02 0. -1.
    10030    2    1    2    0    0  0.00000000000E+00  0.00000000000E+00 -0.21221663378E+03  0.39747404142E+04  0.39690711080E+04 0.  0.
        5    1    3    3  502    0  0.10446306590E+04 -0.10046339633E+04  0.12514890383E+04  0.19148862935E+04  0.46999998093E+01 0.  1.
       -5    1    3    3    0  502 -0.10446306590E+04  0.10046339633E+04 -0.14637056721E+04  0.20598541207E+04  0.46999998093E+01 0. -1.
</event>
<event>
 5   0  0.4316810E-07  0.2639787E+04  0.7818609E-02  0.8354811E-01
        2   -1    0    0  501    0  0.00000000000E+00  0.00000000000E+00  0.19715921066E+04  0.19715921066E+04  0.25500000920E-02 0. -1.
       -2   -1    0    0    0  501  0.00000000000E+00  0.00000000000E+00 -0.88361019712E+03  0.88361019713E+03  0.25500000920E-02 0.  1.
    10030    2    1    2    0    0  0.00000000000E+00  0.00000000000E+00  0.10879819095E+04  0.28552023038E+04  0.26397870293E+04 0.  0.
        1    1    3    3  502    0  0.81680565624E+03  0.78891154073E+01  0.16653612062E+04  0.18549020636E+04  0.50400001928E-02 0. -1.
       -1    1    3    3    0  502 -0.81680565624E+03 -0.78891154073E+01 -0.57737929672E+03  0.10003002402E+04  0.50400001928E-02 0.  1.
</event>
<event>
 5   0  0.4301754E-07  0.3163689E+04  0.7818609E-02  0.8198473E-01
        2   -1    0    0  501    0  0.00000000000E+00  0.00000000000E+00  0.29114521413E+04  0.29114521413E+04  0.25500000920E-02 0. -1.
       -2   -1    0    0    0  501  0.00000000000E+00  0.00000000000E+00 -0.85944457778E+03  0.85944457778E+03  0.25500000920E-02 0.  1.
    10030    2    1    2    0    0  0.00000000000E+00  0.00000000000E+00  0.20520075635E+04  0.37708967191E+04  0.31636888319E+04 0.  0.
        1    1    3    3  502    0  0.13543969784E+04 -0.31682061749E+03  0.19238883814E+04  0.23740499116E+04  0.50400001928E-02 0. -1.
       -1    1    3    3    0  502 -0.13543969784E+04  0.31682061749E+03  0.12811918211E+03  0.13968468075E+04  0.50400001928E-02 0.  1.
</event>
<event>
 5   0  0.1351000E-07  0.3275939E+04  0.7818609E-02  0.8169045E-01
       -1   -1    0    0    0  501  0.00000000000E+00  0.00000000000E+00  0.19427926071E+04  0.19427926072E+04  0.50400001928E-02 0. -1.
        1   -1    0    0  501    0  0.00000000000E+00  0.00000000000E+00 -0.13809731223E+04  0.13809731223E+04  0.50400001928E-02 0.  1.
    10030    2    1    2    0    0  0.00000000000E+00  0.00000000000E+00  0.56181948483E+03  0.33237657295E+04  0.32759391769E+04 0.  0.
        3    1    3    3  502    0 -0.14862466206E+04  0.34025681954E+03 -0.32636050396E+03  0.15592353605E+04  0.10100000352E+00 0.  1.
       -3    1    3    3    0  502  0.14862466206E+04 -0.34025681954E+03  0.88817998879E+03  0.17645303690E+04  0.10100000352E+00 0. -1.
</event>
<event>
 5   0  0.4047916E-07  0.4077280E+04  0.7818609E-02  0.7989136E-01
       -2   -1    0    0    0  501  0.00000000000E+00  0.00000000000E+00  0.17971926985E+04  0.17971926985E+04  0.25500000920E-02 0.  1.
        2   -1    0    0  501    0  0.00000000000E+00  0.00000000000E+00 -0.23125245617E+04  0.23125245617E+04  0.25500000920E-02 0. -1.
    10030    2    1    2    0    0  0.00000000000E+00  0.00000000000E+00 -0.51533186319E+03  0.41097172602E+04  0.40772796114E+04 0.  0.
        5    1    3    3  502    0 -0.25027947900E+03 -0.27685633906E+03  0.17624596069E+04  0.18015480027E+04  0.46999998093E+01 0.  1.
       -5    1    3    3    0  502  0.25027947900E+03  0.27685633906E+03 -0.22777914701E+04  0.23081692575E+04  0.46999998093E+01 0. -1.
</event>
<event>
 5   0  0.4149487E-07  0.3982665E+04  0.7818609E-02  0.8008053E-01
       -2   -1    0    0    0  501  0.00000000000E+00  0.00000000000E+00  0.27570011143E+04  0.27570011143E+04  0.25500000920E-02 0. -1.
        2   -1    0    0  501    0  0.00000000000E+00  0.00000000000E+00 -0.14383036771E+04  0.14383036771E+04  0.25500000920E-02 0.  1.
    10030    2    1    2    0    0  0.00000000000E+00  0.00000000000E+00  0.13186974372E+04  0.41953047914E+04  0.39826648568E+04 0.  0.
        2    1    3    3  502    0  0.14760598484E+04  0.12219784563E+04  0.88744186186E+02  0.19182960028E+04  0.25500000920E-02 0. -1.
       -2    1    3    3    0  502 -0.14760598484E+04 -0.12219784563E+04  0.12299532510E+04  0.22770087886E+04  0.25500000920E-02 0.  1.
</event>
<event>
 5   0  0.1368865E-07  0.3166728E+04  0.7818609E-02  0.8197660E-01
        1   -1    0    0  501    0  0.00000000000E+00  0.00000000000E+00  0.17389609191E+04  0.17389609191E+04  0.50400001928E-02 0.  1.
       -1   -1    0    0    0  501  0.00000000000E+00  0.00000000000E+00 -0.14416891889E+04  0.14416891889E+04  0.50400001928E-02 0. -1.
    10030    2    1    2    0    0  0.00000000000E+00  0.00000000000E+00  0.29727173027E+03  0.31806501080E+04  0.31667277477E+04 0.  0.
        5    1    3    3  502    0 -0.25323458518E+03 -0.32163536533E+03  0.16848837950E+04  0.17339067322E+04  0.46999998093E+01 0.  1.
       -5    1    3    3    0  502  0.25323458518E+03  0.32163536533E+03 -0.13876120647E+04  0.14467433758E+04  0.46999998093E+01 0. -1.
</event>
<event>
 5   0  0.4301754E-07  0.3946147E+04  0.7818609E-02  0.8015499E-01
       -2   -1    0    0    0  501  0.00000000000E+00  0.00000000000E+00  0.22279404077E+04  0.22279404077E+04  0.25500000920E-02 0.  1.
        2   -1    0    0  501    0  0.00000000000E+00  0.00000000000E+00 -0.17473621741E+04  0.17473621741E+04  0.25500000920E-02 0. -1.
    10030    2    1    2    0    0  0.00000000000E+00  0.00000000000E+00  0.48057823358E+03  0.39753025819E+04  0.39461468775E+04 0.  0.
        1    1    3    3  502    0  0.11567525706E+04  0.61860947965E+03 -0.12444607911E+04  0.18081584163E+04  0.50400001928E-02 0. -1.
       -1    1    3    3    0  502 -0.11567525706E+04 -0.61860947965E+03  0.17250390246E+04  0.21671441656E+04  0.50400001928E-02 0.  1.
</event>
<event>
 5   0  0.4079777E-07  0.3985990E+04  0.7818609E-02  0.8007379E-01
        2   -1    0    0  501    0  0.00000000000E+00  0.00000000000E+00  0.16515725726E+04  0.16515725726E+04  0.25500000920E-02 0.  1.
       -2   -1    0    0    0  501  0.00000000000E+00  0.00000000000E+00 -0.24049980706E+04  0.24049980706E+04  0.25500000920E-02 0. -1.
    10030    2    1    2    0    0  0.00000000000E+00  0.00000000000E+00 -0.75342549800E+03  0.40565706432E+04  0.39859898899E+04 0.  0.
        4    1    3    3  502    0  0.89284188766E+03  0.16320508974E+04  0.35098026420E+03  0.18931311436E+04  0.12699999809E+01 0. -1.
       -4    1    3    3    0  502 -0.89284188766E+03 -0.16320508974E+04 -0.11044057622E+04  0.21634394996E+04  0.12699999809E+01 0.  1.
</event>
<event>
 5   0  0.4301754E-07  0.4020135E+04  0.7818609E-02  0.8000497E-01
       -2   -1    0    0    0  501  0.00000000000E+00  0.00000000000E+00  0.22353073165E+04  0.22353073165E+04  0.25500000920E-02 0.  1.
        2   -1    0    0  501    0  0.00000000000E+00  0.00000000000E+00 -0.18075236536E+04  0.18075236536E+04  0.25500000920E-02 0. -1.
    10030    2    1    2    0    0  0.00000000000E+00  0.00000000000E+00  0.42778366291E+03  0.40428309701E+04  0.40201347478E+04 0.  0.
        1    1    3    3  502    0  0.86444589101E+03  0.67789381496E+03  0.19067146189E+04  0.22005379708E+04  0.50400001928E-02 0.  1.
       -1    1    3    3    0  502 -0.86444589101E+03 -0.67789381496E+03 -0.14789309560E+04  0.18422929994E+04  0.50400001928E-02 0. -1.
</event>
<event>
 5   0  0.4149487E-07  0.4003805E+04  0.7818609E-02  0.8003779E-01
        2   -1    0    0  501    0  0.00000000000E+00  0.00000000000E+00  0.22333645134E+04  0.22333645134E+04  0.25500000920E-02 0.  1.
       -2   -1    0    0    0  501  0.00000000000E+00  0.00000000000E+00 -0.17944287212E+04  0.17944287212E+04  0.25500000920E-02 0. -1.
    10030    2    1    2    0    0  0.00000000000E+00  0.00000000000E+00  0.43893579222E+03  0.40277932346E+04  0.40038049042E+04 0.  0.
        2    1    3    3  502    0  0.12500925854E+04 -0.15213629927E+04  0.58265252112E+03  0.20534752952E+04  0.25500000920E-02 0.  1.
       -2    1    3    3    0  502 -0.12500925854E+04  0.15213629927E+04 -0.14371672890E+03  0.19743179394E+04  0.25500000920E-02 0. -1.
</event>
<event>
 5   0  0.1421304E-07  0.2566959E+04  0.7818609E-02  0.8379512E-01
       -1   -1    0    0    0  501  0.00000000000E+00  0.00000000000E+00  0.15456494487E+04  0.15456494487E+04  0.50400001928E-02 0.  1.
        1   -1    0    0  501    0  0.00000000000E+00  0.00000000000E+00 -0.10657779563E+04  0.10657779563E+04  0.50400001928E-02 0. -1.
    10030    2    1    2    0    0  0.00000000000E+00  0.00000000000E+00  0.47987149239E+03  0.26114274050E+04  0.25669585977E+04 0.  0.
        2    1    3    3  502    0 -0.48798233186E+03  0.76187117504E+03  0.11660604454E+04  0.14758968141E+04  0.25500000920E-02 0.  1.
       -2    1    3    3    0  502  0.48798233186E+03 -0.76187117504E+03 -0.68618895299E+03  0.11355305909E+04  0.25500000920E-02 0. -1.
</event>
<event>
 5   0  0.1421304E-07  0.3966354E+04  0.7818609E-02  0.8011369E-01
       -1   -1    0    0    0  501  0.00000000000E+00  0.00000000000E+00  0.15398214588E+04  0.15398214588E+04  0.50400001928E-02 0.  1.
        1   -1    0    0  501    0  0.00000000000E+00  0.00000000000E+00 -0.25541859287E+04  0.25541859287E+04  0.50400001928E-02 0. -1.
    10030    2    1    2    0    0  0.00000000000E+00  0.00000000000E+00 -0.10143644699E+04  0.40940073874E+04  0.39663536417E+04 0.  0.
        2    1    3    3  502    0 -0.18885661341E+04 -0.47192973316E+03 -0.89831137558E+03  0.21439130214E+04  0.25500000920E-02 0.  1.
       -2    1    3    3    0  502  0.18885661341E+04  0.47192973316E+03 -0.11605309430E+03  0.19500943660E+04  0.25500000920E-02 0. -1.
</event>
<event>
 5   0  0.4522357E-07  0.2569747E+04  0.7818609E-02  0.8378551E-01
        2   -1    0    0  501    0  0.00000000000E+00  0.00000000000E+00  0.13390347612E+04  0.13390347612E+04  0.25500000920E-02 0.  1.
       -2   -1    0    0    0  501  0.00000000000E+00  0.00000000000E+00 -0.12329031113E+04  0.12329031113E+04  0.25500000920E-02 0. -1.
    10030    2    1    2    0    0  0.00000000000E+00  0.00000000000E+00  0.10613164987E+03  0.25719378725E+04  0.25697471651E+04 0.  0.
        1    1    3    3  502    0  0.53136923220E+03 -0.19752418689E+03 -0.11009700811E+04  0.12383473603E+04  0.50400001928E-02 0. -1.
       -1    1    3    3    0  502 -0.53136923220E+03  0.19752418689E+03  0.12071017309E+04  0.13335905122E+04  0.50400001928E-02 0.  1.
</event>
<event>
 5   0  0.1372952E-07  0.3947687E+04  0.7818609E-02  0.8015184E-01
       -1   -1    0    0    0  501  0.00000000000E+00  0.00000000000E+00  0.34242825247E+04  0.34242825247E+04  0.50400001928E-02 0. -1.
        1   -1    0    0  501    0  0.00000000000E+00  0.00000000000E+00 -0.11377734947E+04  0.11377734947E+04  0.50400001928E-02 0.  1.
    10030    2    1    2    0    0  0.00000000000E+00  0.00000000000E+00  0.22865090300E+04  0.45620560195E+04  0.39476868645E+04 0.  0.
        1    1    3    3  502    0  0.18771600702E+04  0.57497414131E+03  0.90717615833E+03  0.21627051983E+04  0.50400001928E-02 0.  1.
       -1    1    3    3    0  502 -0.18771600702E+04 -0.57497414131E+03  0.13793328716E+04  0.23993508212E+04  0.50400001928E-02 0. -1.
</event>
<event>
 5   0  0.1368865E-07  0.2925315E+04  0.7818609E-02  0.8265385E-01
        1   -1    0    0  501    0  0.00000000000E+00  0.00000000000E+00  0.17198798648E+04  0.17198798648E+04  0.50400001928E-02 0. -1.
       -1   -1    0    0    0  501  0.00000000000E+00  0.00000000000E+00 -0.12439050780E+04  0.12439050780E+04  0.50400001928E-02 0.  1.
    10030    2    1    2    0    0  0.00000000000E+00  0.00000000000E+00  0.47597478686E+03  0.29637849428E+04  0.29253152291E+04 0.  0.
        5    1    3    3  502    0 -0.12092495107E+04 -0.62096738202E+03 -0.30898290995E+03  0.13940507155E+04  0.46999998093E+01 0.  1.
       -5    1    3    3    0  502  0.12092495107E+04  0.62096738202E+03  0.78495769681E+03  0.15697342273E+04  0.46999998093E+01 0. -1.
</event>
<event>
 5   0  0.4301754E-07  0.4028378E+04  0.7818609E-02  0.7998846E-01
       -2   -1    0    0    0  501  0.00000000000E+00  0.00000000000E+00  0.13982872734E+04  0.13982872734E+04  0.25500000920E-02 0.  1.
        2   -1    0    0  501    0  0.00000000000E+00  0.00000000000E+00 -0.29013761133E+04  0.29013761133E+04  0.25500000920E-02 0. -1.
    10030    2    1    2    0    0  0.00000000000E+00  0.00000000000E+00 -0.15030888399E+04  0.42996633867E+04  0.40283779835E+04 0.  0.
        1    1    3    3  502    0 -0.29751610341E+03 -0.16416290886E+04  0.45294484303E+03  0.17287628314E+04  0.50400001928E-02 0.  1.
       -1    1    3    3    0  502  0.29751610341E+03  0.16416290886E+04 -0.19560336829E+04  0.25709005553E+04  0.50400001928E-02 0. -1.
</event>
<event>
 5   0  0.1351000E-07  0.3986961E+04  0.7818609E-02  0.8007182E-01
       -1   -1    0    0    0  501  0.00000000000E+00  0.00000000000E+00  0.28710075811E+04  0.28710075811E+04  0.50400001928E-02 0. -1.
        1   -1    0    0  501    0  0.00000000000E+00  0.00000000000E+00 -0.13841704918E+04  0.13841704918E+04  0.50400001928E-02 0.  1.
    10030    2    1    2    0    0  0.00000000000E+00  0.00000000000E+00  0.14868370893E+04  0.42551780729E+04  0.39869607350E+04 0.  0.
        4    1    3    3  502    0  0.40484693935E+03 -0.16955988398E+04 -0.28858919602E+03  0.17669866459E+04  0.12699999809E+01 0.  1.
       -4    1    3    3    0  502 -0.40484693935E+03  0.16955988398E+04  0.17754262853E+04  0.24881914270E+04  0.12699999809E+01 0. -1.
</event>
<event>
 5   0  0.4149487E-07  0.2447344E+04  0.7818609E-02  0.8421989E-01
        2   -1    0    0  501    0  0.00000000000E+00  0.00000000000E+00  0.23384984757E+04  0.23384984757E+04  0.25500000920E-02 0.  1.
       -2   -1    0    0    0  501  0.00000000000E+00  0.00000000000E+00 -0.64031368872E+03  0.64031368873E+03  0.25500000920E-02 0. -1.
    10030    2    1    2    0    0  0.00000000000E+00  0.00000000000E+00  0.16981847870E+04  0.29788121644E+04  0.24473435272E+04 0.  0.
        2    1    3    3  502    0 -0.15706416151E+03  0.12102623952E+04  0.95774318671E+03  0.15513465853E+04  0.25500000920E-02 0.  1.
       -2    1    3    3    0  502  0.15706416151E+03 -0.12102623952E+04  0.74044160029E+03  0.14274655791E+04  0.25500000920E-02 0. -1.
</event>
<event>
 5   0  0.1351000E-07  0.3494420E+04  0.7818609E-02  0.8115114E-01
        1   -1    0    0  501    0  0.00000000000E+00  0.00000000000E+00  0.23110280637E+04  0.23110280637E+04  0.50400001928E-02 0.  1.
       -1   -1    0    0    0  501  0.00000000000E+00  0.00000000000E+00 -0.13209456220E+04  0.13209456220E+04  0.50400001928E-02 0. -1.
    10030    2    1    2    0    0  0.00000000000E+00  0.00000000000E+00  0.99008244176E+03  0.36319736857E+04  0.34944197819E+04 0.  0.
        4    1    3    3  502    0  0.46151397322E+03  0.16321894276E+03  0.22382949638E+04  0.22912008922E+04  0.12699999809E+01 0.  1.
       -4    1    3    3    0  502 -0.46151397322E+03 -0.16321894276E+03 -0.12482125220E+04  0.13407727935E+04  0.12699999809E+01 0. -1.
</event>
<event>
 5   0  0.1372952E-07  0.3188739E+04  0.7818609E-02  0.8191797E-01
       -1   -1    0    0    0  501  0.00000000000E+00  0.00000000000E+00  0.17337598607E+04  0.17337598607E+04  0.50400001928E-02 0. -1.
        1   -1    0    0  501    0  0.00000000000E+00  0.00000000000E+00 -0.14661862171E+04  0.14661862171E+04  0.50400001928E-02 0.  1.
    10030    2    1    2    0    0  0.00000000000E+00  0.00000000000E+00  0.26757364359E+03  0.31999460778E+04  0.31887394447E+04 0.  0.
        1    1    3    3  502    0  0.49465074369E+03  0.78827784955E+03  0.14329227889E+04  0.17086044145E+04  0.50400001928E-02 0. -1.
       -1    1    3    3    0  502 -0.49465074369E+03 -0.78827784955E+03 -0.11653491453E+04  0.14913416633E+04  0.50400001928E-02 0.  1.
</event>
<event>
 5   0  0.4047916E-07  0.3667513E+04  0.7818609E-02  0.8075200E-01
        2   -1    0    0  501    0  0.00000000000E+00  0.00000000000E+00  0.20713174456E+04  0.20713174456E+04  0.25500000920E-02 0. -1.
       -2   -1    0    0    0  501  0.00000000000E+00  0.00000000000E+00 -0.16234417446E+04  0.16234417446E+04  0.25500000920E-02 0.  1.
    10030    2    1    2    0    0  0.00000000000E+00  0.00000000000E+00  0.44787570091E+03  0.36947591902E+04  0.36675131670E+04 0.  0.
        5    1    3    3  502    0 -0.15255383592E+04  0.58349527031E+03 -0.61586594160E+03  0.17455792632E+04  0.46999998093E+01 0.  1.
       -5    1    3    3    0  502  0.15255383592E+04 -0.58349527031E+03  0.10637416425E+04  0.19491799270E+04  0.46999998093E+01 0. -1.
</event>
<event>
 5   0  0.1351000E-07  0.3495082E+04  0.7818609E-02  0.8114956E-01
       -1   -1    0    0    0  501  0.00000000000E+00  0.00000000000E+00  0.13592510326E+04  0.13592510326E+04  0.50400001928E-02 0.  1.
        1   -1    0    0  501    0  0.00000000000E+00  0.00000000000E+00 -0.22467521391E+04  0.22467521391E+04  0.50400001928E-02 0. -1.
    10030    2    1    2    0    0  0.00000000000E+00  0.00000000000E+00 -0.88750110642E+03  0.36060031717E+04  0.34950823539E+04 0.  0.
        3    1    3    3  502    0 -0.17448688057E+04  0.82965740345E+02 -0.49481568072E+03  0.18155696162E+04  0.10100000352E+00 0.  1.
       -3    1    3    3    0  502  0.17448688057E+04 -0.82965740345E+02 -0.39268542570E+03  0.17904335555E+04  0.10100000352E+00 0. -1.
</event>
<event>
 5   0  0.1351000E-07  0.4055051E+04  0.7818609E-02  0.7993532E-01
        1   -1    0    0  501    0  0.00000000000E+00  0.00000000000E+00  0.15713131408E+04  0.15713131409E+04  0.50400001928E-02 0. -1.
       -1   -1    0    0    0  501  0.00000000000E+00  0.00000000000E+00 -0.26161942385E+04  0.26161942385E+04  0.50400001928E-02 0.  1.
    10030    2    1    2    0    0  0.00000000000E+00  0.00000000000E+00 -0.10448810976E+04  0.41875073793E+04  0.40550513614E+04 0.  0.
        3    1    3    3  502    0  0.53591313658E+02  0.64782468712E+03 -0.25056702762E+04  0.25886159231E+04  0.10100000352E+00 0.  1.
       -3    1    3    3    0  502 -0.53591313658E+02 -0.64782468712E+03  0.14607891786E+04  0.15988914562E+04  0.10100000352E+00 0. -1.
</event>
<event>
 5   0  0.4149487E-07  0.3968920E+04  0.7818609E-02  0.8010846E-01
        2   -1    0    0  501    0  0.00000000000E+00  0.00000000000E+00  0.25696714599E+04  0.25696714599E+04  0.25500000920E-02 0. -1.
       -2   -1    0    0    0  501  0.00000000000E+00  0.00000000000E+00 -0.15325232821E+04  0.15325232821E+04  0.25500000920E-02 0.  1.
    10030    2    1    2    0    0  0.00000000000E+00  0.00000000000E+00  0.10371481779E+04  0.41021947420E+04  0.39689199234E+04 0.  0.
        2    1    3    3  502    0 -0.42293451359E+03 -0.14843467651E+04  0.18078263627E+04  0.23770559689E+04  0.25500000920E-02 0. -1.
       -2    1    3    3    0  502  0.42293451359E+03  0.14843467651E+04 -0.77067818482E+03  0.17251387731E+04  0.25500000920E-02 0.  1.
</event>
<event>
 5   0  0.4079777E-07  0.3995869E+04  0.7818609E-02  0.8005380E-01
       -2   -1    0    0    0  501  0.00000000000E+00  0.00000000000E+00  0.19228647085E+04  0.19228647085E+04  0.25500000920E-02 0.  1.
        2   -1    0    0  501    0  0.00000000000E+00  0.00000000000E+00 -0.20759350605E+04  0.20759350605E+04  0.25500000920E-02 0. -1.
    10030    2    1    2    0    0  0.00000000000E+00  0.00000000000E+00 -0.15307035198E+03  0.39987997690E+04  0.39958689993E+04 0.  0.
        4    1    3    3  502    0  0.12391007970E+04 -0.95995564461E+03 -0.13163365034E+04  0.20468583311E+04  0.12699999809E+01 0. -1.
       -4    1    3    3    0  502 -0.12391007970E+04  0.95995564461E+03  0.11632661514E+04  0.19519414378E+04  0.12699999809E+01 0.  1.
</event>
<event>
 5   0  0.1351000E-07  0.3967032E+04  0.7818609E-02  0.8011230E-01
       -1   -1    0    0    0  501  0.00000000000E+00  0.00000000000E+00  0.26240564148E+04  0.26240564148E+04  0.50400001928E-02 0.  1.
        1   -1    0    0  501    0  0.00000000000E+00  0.00000000000E+00 -0.14993336040E+04  0.14993336040E+04  0.50400001928E-02 0. -1.
    10030    2    1    2    0    0  0.00000000000E+00  0.00000000000E+00  0.11247228108E+04  0.41233900189E+04  0.39670321207E+04 0.  0.
        3    1    3    3  502    0 -0.12894048601E+04  0.14790947332E+04  0.26102117672E+03  0.19794994792E+04  0.10100000352E+00 0. -1.
       -3    1    3    3    0  502  0.12894048601E+04 -0.14790947332E+04  0.86370163412E+03  0.21438905397E+04  0.10100000352E+00 0.  1.
</event>
<event>
 5   0  0.4149487E-07  0.2742782E+04  0.7818609E-02  0.8321256E-01
       -2   -1    0    0    0  501  0.00000000000E+00  0.00000000000E+00  0.17333698748E+04  0.17333698748E+04  0.25500000920E-02 0. -1.
        2   -1    0    0  501    0  0.00000000000E+00  0.00000000000E+00 -0.10850038439E+04  0.10850038439E+04  0.25500000920E-02 0.  1.
    10030    2    1    2    0    0  0.00000000000E+00  0.00000000000E+00  0.64836603088E+03  0.28183737187E+04  0.27427817829E+04 0.  0.
        2    1    3    3  502    0 -0.16381549949E+03  0.12834993957E+04 -0.14277137280E+03  0.13017641421E+04  0.25500000920E-02 0.  1.
       -2    1    3    3    0  502  0.16381549949E+03 -0.12834993957E+04  0.79113740368E+03  0.15166095767E+04  0.25500000920E-02 0. -1.
</event>
<event>
 5   0  0.4079777E-07  0.3980647E+04  0.7818609E-02  0.8008462E-01
       -2   -1    0    0    0  501  0.00000000000E+00  0.00000000000E+00  0.21606763351E+04  0.21606763351E+04  0.25500000920E-02 0.  1.
        2   -1    0    0  501    0  0.00000000000E+00  0.00000000000E+00 -0.18334019846E+04  0.18334019846E+04  0.25500000920E-02 0. -1.
    10030    2    1    2    0    0  0.00000000000E+00  0.00000000000E+00  0.32727435047E+03  0.39940783197E+04  0.39806473247E+04 0.  0.
        4    1    3    3  502    0 -0.74283718206E+02 -0.50149817212E+03 -0.17675303396E+04  0.18387995002E+04  0.12699999809E+01 0. -1.
       -4    1    3    3    0  502  0.74283718206E+02  0.50149817212E+03  0.20948046901E+04  0.21552788196E+04  0.12699999809E+01 0.  1.
</event>
<event>
 5   0  0.4077370E-07  0.2730669E+04  0.7818609E-02  0.8325122E-01
        2   -1    0    0  501    0  0.00000000000E+00  0.00000000000E+00  0.12775677517E+04  0.12775677517E+04  0.25500000920E-02 0.  1.
       -2   -1    0    0    0  501  0.00000000000E+00  0.00000000000E+00 -0.14591310088E+04  0.14591310088E+04  0.25500000920E-02 0. -1.
    10030    2    1    2    0    0  0.00000000000E+00  0.00000000000E+00 -0.18156325712E+03  0.27366987605E+04  0.27306693116E+04 0.  0.
        3    1    3    3  502    0 -0.99051983807E+03  0.85211566743E+03  0.30620922512E+03  0.13420114605E+04  0.10100000352E+00 0.  1.
       -3    1    3    3    0  502  0.99051983807E+03 -0.85211566743E+03 -0.48777248224E+03  0.13946873000E+04  0.10100000352E+00 0. -1.
</event>
<event>
 5   0  0.1351000E-07  0.2672377E+04  0.7818609E-02  0.8344024E-01
       -1   -1    0    0    0  501  0.00000000000E+00  0.00000000000E+00  0.11188725858E+04  0.11188725858E+04  0.50400001928E-02 0.  1.
        1   -1    0    0  501    0  0.00000000000E+00  0.00000000000E+00 -0.15957127552E+04  0.15957127552E+04  0.50400001928E-02 0. -1.
    10030    2    1    2    0    0  0.00000000000E+00  0.00000000000E+00 -0.47684016947E+03  0.27145853410E+04  0.26723766625E+04 0.  0.
        3    1    3    3  502    0 -0.33692273582E+03 -0.20191315462E+03  0.10589022833E+04  0.11294068831E+04  0.10100000352E+00 0.  1.
       -3    1    3    3    0  502  0.33692273582E+03  0.20191315462E+03 -0.15357424528E+04  0.15851784579E+04  0.10100000352E+00 0. -1.
</event>
<event>
 5   0  0.4149487E-07  0.3970179E+04  0.7818609E-02  0.8010590E-01
        2   -1    0    0  501    0  0.00000000000E+00  0.00000000000E+00  0.24231180679E+04  0.24231180679E+04  0.25500000920E-02 0.  1.
       -2   -1    0    0    0  501  0.00000000000E+00  0.00000000000E+00 -0.16262432851E+04  0.16262432851E+04  0.25500000920E-02 0. -1.
    10030    2    1    2    0    0  0.00000000000E+00  0.00000000000E+00  0.79687478277E+03  0.40493613531E+04  0.39701785789E+04 0.  0.
        2    1    3    3  502    0  0.23993268158E+03  0.16367801095E+04  0.15175737421E+04  0.22449157849E+04  0.25500000920E-02 0.  1.
       -2    1    3    3    0  502 -0.23993268158E+03 -0.16367801095E+04 -0.72069895935E+03  0.18044455682E+04  0.25500000920E-02 0. -1.
</event>
<event>
 5   0  0.1351000E-07  0.3963974E+04  0.7818609E-02  0.8011854E-01
        3   -1    0    0  501    0  0.00000000000E+00  0.00000000000E+00  0.19860531508E+04  0.19860531534E+04  0.10100000352E+00 0.  1.
       -3   -1    0    0    0  501  0.00000000000E+00  0.00000000000E+00 -0.19779287826E+04  0.19779287852E+04  0.10100000352E+00 0. -1.
    10030    2    1    2    0    0  0.00000000000E+00  0.00000000000E+00  0.81243682001E+01  0.39639819386E+04  0.39639736129E+04 0.  0.
        4    1    3    3  502    0  0.19484322730E+04  0.32612212606E+03  0.16383149231E+03  0.19823184240E+04  0.12699999809E+01 0.  1.
       -4    1    3    3    0  502 -0.19484322730E+04 -0.32612212606E+03 -0.15570712411E+03  0.19816635146E+04  0.12699999809E+01 0. -1.
</event>
<event>
 5   0  0.1351000E-07  0.3874279E+04  0.7818609E-02  0.8030400E-01
       -1   -1    0    0    0  501  0.00000000000E+00  0.00000000000E+00  0.21995271382E+04  0.21995271382E+04  0.50400001928E-02 0.  1.
        1   -1    0    0  501    0  0.00000000000E+00  0.00000000000E+00 -0.17060525258E+04  0.17060525258E+04  0.50400001928E-02 0. -1.
    10030    2    1    2    0    0  0.00000000000E+00  0.00000000000E+00  0.49347461236E+03  0.39055796640E+04  0.38742786836E+04 0.  0.
        4    1    3    3  502    0 -0.82435935542E+03  0.16920549819E+04 -0.21510029013E+03  0.18944361052E+04  0.12699999809E+01 0.  1.
       -4    1    3    3    0  502  0.82435935542E+03 -0.16920549819E+04  0.70857490250E+03  0.20111435588E+04  0.12699999809E+01 0. -1.
</event>
<event>
 5   0  0.4149487E-07  0.4020716E+04  0.7818609E-02  0.8000380E-01
        2   -1    0    0  501    0  0.00000000000E+00  0.00000000000E+00  0.16968460280E+04  0.16968460280E+04  0.25500000920E-02 0.  1.
       -2   -1    0    0    0  501  0.00000000000E+00  0.00000000000E+00 -0.23817951225E+04  0.23817951225E+04  0.25500000920E-02 0. -1.
    10030    2    1    2    0    0  0.00000000000E+00  0.00000000000E+00 -0.68494909443E+03  0.40786411505E+04  0.40207161517E+04 0.  0.
        2    1    3    3  502    0 -0.13721102759E+04  0.12203121246E+04  0.48766176505E+03  0.18999111263E+04  0.25500000920E-02 0.  1.
       -2    1    3    3    0  502  0.13721102759E+04 -0.12203121246E+04 -0.11726108595E+04  0.21787300242E+04  0.25500000920E-02 0. -1.
</event>
<event>
 5   0  0.1368865E-07  0.3846463E+04  0.7818609E-02  0.8036257E-01
       -1   -1    0    0    0  501  0.00000000000E+00  0.00000000000E+00  0.13171447596E+04  0.13171447596E+04  0.50400001928E-02 0. -1.
        1   -1    0    0  501    0  0.00000000000E+00  0.00000000000E+00 -0.28082105727E+04  0.28082105727E+04  0.50400001928E-02 0.  1.
    10030    2    1    2    0    0  0.00000000000E+00  0.00000000000E+00 -0.14910658131E+04  0.41253553323E+04  0.38464632272E+04 0.  0.
        5    1    3    3  502    0 -0.94670344752E+02 -0.10259824700E+04 -0.24872231506E+04  0.26921930826E+04  0.46999998093E+01 0.  1.
       -5    1    3    3    0  502  0.94670344752E+02  0.10259824700E+04  0.99615733751E+03  0.14331622497E+04  0.46999998093E+01 0. -1.
</event>
<event>
 5   0  0.1368865E-07  0.3037227E+04  0.7818609E-02  0.8233180E-01
       -1   -1    0    0    0  501  0.00000000000E+00  0.00000000000E+00  0.13779972821E+04  0.13779972821E+04  0.50400001928E-02 0. -1.
        1   -1    0    0  501    0  0.00000000000E+00  0.00000000000E+00 -0.16735791146E+04  0.16735791146E+04  0.50400001928E-02 0.  1.
    10030    2    1    2    0    0  0.00000000000E+00  0.00000000000E+00 -0.29558183242E+03  0.30515763967E+04  0.30372273351E+04 0.  0.
        5    1    3    3  502    0 -0.60421766956E+03  0.13901589871E+04 -0.54918399036E+02  0.15167923794E+04  0.46999998093E+01 0.  1.
       -5    1    3    3    0  502  0.60421766956E+03 -0.13901589871E+04 -0.24066343338E+03  0.15347840173E+04  0.46999998093E+01 0. -1.
</event>
<event>
 5   0  0.1351000E-07  0.4089234E+04  0.7818609E-02  0.7986783E-01
       -1   -1    0    0    0  501  0.00000000000E+00  0.00000000000E+00  0.22398926760E+04  0.22398926760E+04  0.50400001928E-02 0.  1.
        1   -1    0    0  501    0  0.00000000000E+00  0.00000000000E+00 -0.18663656021E+04  0.18663656021E+04  0.50400001928E-02 0. -1.
    10030    2    1    2    0    0  0.00000000000E+00  0.00000000000E+00  0.37352707392E+03  0.41062582780E+04  0.40892339834E+04 0.  0.
        3    1    3    3  502    0 -0.47942439448E+03  0.14269521116E+03  0.21775025696E+04  0.22342173404E+04  0.10100000352E+00 0.  1.
       -3    1    3    3    0  502  0.47942439448E+03 -0.14269521116E+03 -0.18039754956E+04  0.18720409377E+04  0.10100000352E+00 0. -1.
</event>
<event>
 5   0  0.1421304E-07  0.3960639E+04  0.7818609E-02  0.8012534E-01
        1   -1    0    0  501    0  0.00000000000E+00  0.00000000000E+00  0.29476795292E+04  0.29476795292E+04  0.50400001928E-02 0.  1.
       -1   -1    0    0    0  501  0.00000000000E+00  0.00000000000E+00 -0.13304248067E+04  0.13304248067E+04  0.50400001928E-02 0. -1.
    10030    2    1    2    0    0  0.00000000000E+00  0.00000000000E+00  0.16172547225E+04  0.42781043359E+04  0.39606393262E+04 0.  0.
        2    1    3    3  502    0 -0.14021571711E+04  0.82907516786E+03 -0.40780921807E+03  0.16792018118E+04  0.25500000920E-02 0. -1.
       -2    1    3    3    0  502  0.14021571711E+04 -0.82907516786E+03  0.20250639405E+04  0.25989025241E+04  0.25500000920E-02 0.  1.
</event>
<event>
 5   0  0.4047916E-07  0.4046237E+04  0.7818609E-02  0.7995284E-01
        2   -1    0    0  501    0  0.00000000000E+00  0.00000000000E+00  0.16029372630E+04  0.16029372630E+04  0.25500000920E-02 0. -1.
       -2   -1    0    0    0  501  0.00000000000E+00  0.00000000000E+00 -0.25534422254E+04  0.25534422254E+04  0.25500000920E-02 0.  1.
    10030    2    1    2    0    0  0.00000000000E+00  0.00000000000E+00 -0.95050496238E+03  0.41563794883E+04  0.40462366178E+04 0.  0.
        5    1    3    3  502    0  0.87083547454E+03 -0.10929469962E+04 -0.19779817721E+04  0.24218425921E+04  0.46999998093E+01 0.  1.
       -5    1    3    3    0  502 -0.87083547454E+03  0.10929469962E+04  0.10274768097E+04  0.17345368963E+04  0.46999998093E+01 0. -1.
</event>
<event>
 5   0  0.1351000E-07  0.4030052E+04  0.7818609E-02  0.7998511E-01
        1   -1    0    0  501    0  0.00000000000E+00  0.00000000000E+00  0.22177000337E+04  0.22177000337E+04  0.50400001928E-02 0.  1.
       -1   -1    0    0    0  501  0.00000000000E+00  0.00000000000E+00 -0.18308744692E+04  0.18308744692E+04  0.50400001928E-02 0. -1.
    10030    2    1    2    0    0  0.00000000000E+00  0.00000000000E+00  0.38682556454E+03  0.40485745029E+04  0.40300522935E+04 0.  0.
        4    1    3    3  502    0  0.11344202704E+04  0.14668038823E+03  0.18599235168E+04  0.21835158776E+04  0.12699999809E+01 0.  1.
       -4    1    3    3    0  502 -0.11344202704E+04 -0.14668038823E+03 -0.14730979523E+04  0.18650586254E+04  0.12699999809E+01 0. -1.
</event>
<event>
 5   0  0.1368865E-07  0.2834776E+04  0.7818609E-02  0.8292552E-01
       -1   -1    0    0    0  501  0.00000000000E+00  0.00000000000E+00  0.16739498486E+04  0.16739498486E+04  0.50400001928E-02 0. -1.
        1   -1    0    0  501    0  0.00000000000E+00  0.00000000000E+00 -0.12001491237E+04  0.12001491238E+04  0.50400001928E-02 0.  1.
    10030    2    1    2    0    0  0.00000000000E+00  0.00000000000E+00  0.47380072481E+03  0.28740989723E+04  0.28347764949E+04 0.  0.
        5    1    3    3  502    0  0.14007177050E+03 -0.36742059793E+03 -0.11437339908E+04  0.12094492666E+04  0.46999998093E+01 0.  1.
       -5    1    3    3    0  502 -0.14007177050E+03  0.36742059793E+03  0.16175347156E+04  0.16646497058E+04  0.46999998093E+01 0. -1.
</event>
<event>
 5   0  0.4149487E-07  0.3915661E+04  0.7818609E-02  0.8021780E-01
       -2   -1    0    0    0  501  0.00000000000E+00  0.00000000000E+00  0.22093299070E+04  0.22093299070E+04  0.25500000920E-02 0.  1.
        2   -1    0    0  501    0  0.00000000000E+00  0.00000000000E+00 -0.17349603037E+04  0.17349603037E+04  0.25500000920E-02 0. -1.
    10030    2    1    2    0    0  0.00000000000E+00  0.00000000000E+00  0.47436960333E+03  0.39442902107E+04  0.39156607036E+04 0.  0.
        2    1    3    3  502    0 -0.10955542829E+04  0.14169539531E+04 -0.55922986848E+03  0.18763623685E+04  0.25500000920E-02 0. -1.
       -2    1    3    3    0  502  0.10955542829E+04 -0.14169539531E+04  0.10335994718E+04  0.20679278421E+04  0.25500000920E-02 0.  1.
</event>
<event>
 5   0  0.1351000E-07  0.2518018E+04  0.7818609E-02  0.8396594E-01
       -4   -1    0    0    0  501  0.00000000000E+00  0.00000000000E+00  0.15111498648E+04  0.15111503985E+04  0.12699999809E+01 0.  1.
        4   -1    0    0  501    0  0.00000000000E+00  0.00000000000E+00 -0.10489377799E+04  0.10489385487E+04  0.12699999809E+01 0. -1.
    10030    2    1    2    0    0  0.00000000000E+00  0.00000000000E+00  0.46221208497E+03  0.25600889472E+04  0.25180181504E+04 0.  0.
        3    1    3    3  502    0 -0.49067852960E+03  0.33155820063E+03  0.13607081358E+04  0.14839888480E+04  0.10100000352E+00 0.  1.
       -3    1    3    3    0  502  0.49067852960E+03 -0.33155820063E+03 -0.89849605087E+03  0.10761000992E+04  0.10100000352E+00 0. -1.
</event>
<event>
 5   0  0.4047916E-07  0.4017916E+04  0.7818609E-02  0.8000942E-01
       -2   -1    0    0    0  501  0.00000000000E+00  0.00000000000E+00  0.14326211439E+04  0.14326211439E+04  0.25500000920E-02 0.  1.
        2   -1    0    0  501    0  0.00000000000E+00  0.00000000000E+00 -0.28171530680E+04  0.28171530680E+04  0.25500000920E-02 0. -1.
    10030    2    1    2    0    0  0.00000000000E+00  0.00000000000E+00 -0.13845319241E+04  0.42497742119E+04  0.40179164007E+04 0.  0.
        5    1    3    3  502    0  0.54426718383E+03  0.19078955186E+04 -0.10260704684E+04  0.22336371177E+04  0.46999998093E+01 0. -1.
       -5    1    3    3    0  502 -0.54426718383E+03 -0.19078955186E+04 -0.35846145574E+03  0.20161370942E+04  0.46999998093E+01 0.  1.
</event>
<event>
 5   0  0.1372952E-07  0.3800163E+04  0.7818609E-02  0.8046120E-01
       -1   -1    0    0    0  501  0.00000000000E+00  0.00000000000E+00  0.17624808472E+04  0.17624808472E+04  0.50400001928E-02 0.  1.
        1   -1    0    0  501    0  0.00000000000E+00  0.00000000000E+00 -0.20484249411E+04  0.20484249411E+04  0.50400001928E-02 0. -1.
    10030    2    1    2    0    0  0.00000000000E+00  0.00000000000E+00 -0.28594409391E+03  0.38109057883E+04  0.38001630099E+04 0.  0.
        1    1    3    3  502    0  0.18604942110E+04  0.37258633566E+03 -0.42436765023E+02  0.18979094198E+04  0.50400001928E-02 0.  1.
       -1    1    3    3    0  502 -0.18604942110E+04 -0.37258633566E+03 -0.24350732889E+03  0.19129963685E+04  0.50400001928E-02 0. -1.
</event>
<event>
 5   0  0.4077370E-07  0.4022244E+04  0.7818609E-02  0.8000074E-01
       -2   -1    0    0    0  501  0.00000000000E+00  0.00000000000E+00  0.29767919835E+04  0.29767919835E+04  0.25500000920E-02 0. -1.
        2   -1    0    0  501    0  0.00000000000E+00  0.00000000000E+00 -0.13587145952E+04  0.13587145952E+04  0.25500000920E-02 0.  1.
    10030    2    1    2    0    0  0.00000000000E+00  0.00000000000E+00  0.16180773884E+04  0.43355065787E+04  0.40222435107E+04 0.  0.
        3    1    3    3  502    0 -0.16616165993E+04 -0.10936940291E+04  0.49024343271E+03  0.20487740202E+04  0.10100000352E+00 0. -1.
       -3    1    3    3    0  502  0.16616165993E+04  0.10936940291E+04  0.11278339557E+04  0.22867325585E+04  0.10100000352E+00 0.  1.
</event>
<event>
 5   0  0.4047916E-07  0.3971505E+04  0.7818609E-02  0.8010320E-01
        2   -1    0    0  501    0  0.00000000000E+00  0.00000000000E+00  0.30147944138E+04  0.30147944138E+04  0.25500000920E-02 0. -1.
       -2   -1    0    0    0  501  0.00000000000E+00  0.00000000000E+00 -0.13079539716E+04  0.13079539716E+04  0.25500000920E-02 0.  1.
    10030    2    1    2    0    0  0.00000000000E+00  0.00000000000E+00  0.17068404422E+04  0.43227483855E+04  0.39715046656E+04 0.  0.
        5    1    3    3  502    0 -0.19108235924E+04  0.40227963790E+03  0.12460360247E+04  0.23163988373E+04  0.46999998093E+01 0. -1.
       -5    1    3    3    0  502  0.19108235924E+04 -0.40227963790E+03  0.46080441747E+03  0.20063495482E+04  0.46999998093E+01 0.  1.
</event>
<event>
 5   0  0.1372952E-07  0.3991613E+04  0.7818609E-02  0.8006241E-01
        1   -1    0    0  501    0  0.00000000000E+00  0.00000000000E+00  0.22262951152E+04  0.22262951152E+04  0.50400001928E-02 0.  1.
       -1   -1    0    0    0  501  0.00000000000E+00  0.00000000000E+00 -0.17891808206E+04  0.17891808206E+04  0.50400001928E-02 0. -1.
    10030    2    1    2    0    0  0.00000000000E+00  0.00000000000E+00  0.43711429466E+03  0.40154759358E+04  0.39916134688E+04 0.  0.
        1    1    3    3  502    0  0.99481444975E+03  0.15031868900E+04  0.10804273680E+04  0.21015589245E+04  0.50400001928E-02 0. -1.
       -1    1    3    3    0  502 -0.99481444975E+03 -0.15031868900E+04 -0.64331307334E+03  0.19139170113E+04  0.50400001928E-02 0.  1.
</event>
<event>
 5   0  0.4149487E-07  0.3854810E+04  0.7818609E-02  0.8034494E-01
        2   -1    0    0  501    0  0.00000000000E+00  0.00000000000E+00  0.17778193232E+04  0.17778193232E+04  0.25500000920E-02 0. -1.
       -2   -1    0    0    0  501  0.00000000000E+00  0.00000000000E+00 -0.20895764936E+04  0.20895764936E+04  0.25500000920E-02 0.  1.
    10030    2    1    2    0    0  0.00000000000E+00  0.00000000000E+00 -0.31175717036E+03  0.38673958169E+04  0.38548097062E+04 0.  0.
        2    1    3    3  502    0  0.16057500898E+04 -0.96260053366E+03 -0.61547508798E+03  0.19707467423E+04  0.25500000920E-02 0. -1.
       -2    1    3    3    0  502 -0.16057500898E+04  0.96260053366E+03  0.30371791762E+03  0.18966490745E+04  0.25500000920E-02 0.  1.
</event>
<event>
 5   0  0.4047916E-07  0.3765189E+04  0.7818609E-02  0.8053667E-01
       -2   -1    0    0    0  501  0.00000000000E+00  0.00000000000E+00  0.15383172313E+04  0.15383172313E+04  0.25500000920E-02 0.  1.
        2   -1    0    0  501    0  0.00000000000E+00  0.00000000000E+00 -0.23039220363E+04  0.23039220363E+04  0.25500000920E-02 0. -1.
    10030    2    1    2    0    0  0.00000000000E+00  0.00000000000E+00 -0.76560480505E+03  0.38422392677E+04  0.37651894869E+04 0.  0.
        5    1    3    3  502    0  0.12894445225E+04 -0.11308095693E+04  0.40945044285E+03  0.17632552888E+04  0.46999998093E+01 0.  1.
       -5    1    3    3    0  502 -0.12894445225E+04  0.11308095693E+04 -0.11750552479E+04  0.20789839788E+04  0.46999998093E+01 0. -1.
</event>
<event>
 5   0  0.1421304E-07  0.3980433E+04  0.7818609E-02  0.8008505E-01
        1   -1    0    0  501    0  0.00000000000E+00  0.00000000000E+00  0.21852429360E+04  0.21852429360E+04  0.50400001928E-02 0.  1.
       -1   -1    0    0    0  501  0.00000000000E+00  0.00000000000E+00 -0.18125958262E+04  0.18125958262E+04  0.50400001928E-02 0. -1.
    10030    2    1    2    0    0  0.00000000000E+00  0.00000000000E+00  0.37264710986E+03  0.39978387622E+04  0.39804332553E+04 0.  0.
        2    1    3    3  502    0 -0.19131288427E+04 -0.52108974136E+03  0.14209876236E+02  0.19828762966E+04  0.25500000920E-02 0. -1.
       -2    1    3    3    0  502  0.19131288427E+04  0.52108974136E+03  0.35843723363E+03  0.20149624656E+04  0.25500000920E-02 0.  1.
</event>
<event>
 5   0  0.4077370E-07  0.3997730E+04  0.7818609E-02  0.8005005E-01
        2   -1    0    0  501    0  0.00000000000E+00  0.00000000000E+00  0.18851384146E+04  0.18851384146E+04  0.25500000920E-02 0.  1.
       -2   -1    0    0    0  501  0.00000000000E+00  0.00000000000E+00 -0.21194519908E+04  0.21194519908E+04  0.25500000920E-02 0. -1.
    10030    2    1    2    0    0  0.00000000000E+00  0.00000000000E+00 -0.23431357625E+03  0.40045904054E+04  0.39977295385E+04 0.  0.
        3    1    3    3  502    0  0.59802698470E+03 -0.11877514139E+04 -0.16120552381E+04  0.20897635744E+04  0.10100000352E+00 0. -1.
       -3    1    3    3    0  502 -0.59802698470E+03  0.11877514139E+04  0.13777416619E+04  0.19148268310E+04  0.10100000352E+00 0.  1.
</event>
<event>
 5   0  0.1351000E-07  0.3788304E+04  0.7818609E-02  0.8048670E-01
        1   -1    0    0  501    0  0.00000000000E+00  0.00000000000E+00  0.11378017245E+04  0.11378017245E+04  0.50400001928E-02 0. -1.
       -1   -1    0    0    0  501  0.00000000000E+00  0.00000000000E+00 -0.31532835193E+04  0.31532835193E+04  0.50400001928E-02 0.  1.
    10030    2    1    2    0    0  0.00000000000E+00  0.00000000000E+00 -0.20154817949E+04  0.42910852438E+04  0.37883038031E+04 0.  0.
        4    1    3    3  502    0 -0.10100170192E+04  0.42518736901E+03  0.74226151681E+03  0.13235831859E+04  0.12699999809E+01 0. -1.
       -4    1    3    3    0  502  0.10100170192E+04 -0.42518736901E+03 -0.27577433117E+04  0.29675020579E+04  0.12699999809E+01 0.  1.
</event>
<event>
 5   0  0.1368865E-07  0.3974519E+04  0.7818609E-02  0.8009707E-01
        1   -1    0    0  501    0  0.00000000000E+00  0.00000000000E+00  0.19561838552E+04  0.19561838552E+04  0.50400001928E-02 0.  1.
       -1   -1    0    0    0  501  0.00000000000E+00  0.00000000000E+00 -0.20188292593E+04  0.20188292593E+04  0.50400001928E-02 0. -1.
    10030    2    1    2    0    0  0.00000000000E+00  0.00000000000E+00 -0.62645404158E+02  0.39750131145E+04  0.39745194444E+04 0.  0.
        5    1    3    3  502    0  0.94024515747E+02 -0.80356794367E+03  0.17840107536E+04  0.19588972685E+04  0.46999998093E+01 0.  1.
       -5    1    3    3    0  502 -0.94024515747E+02  0.80356794367E+03 -0.18466561577E+04  0.20161158460E+04  0.46999998093E+01 0. -1.
</event>
<event>
 5   0  0.1368865E-07  0.2612854E+04  0.7818609E-02  0.8363848E-01
        1   -1    0    0  501    0  0.00000000000E+00  0.00000000000E+00  0.17134077969E+04  0.17134077969E+04  0.50400001928E-02 0.  1.
       -1   -1    0    0    0  501  0.00000000000E+00  0.00000000000E+00 -0.99611523003E+03  0.99611523004E+03  0.50400001928E-02 0. -1.
    10030    2    1    2    0    0  0.00000000000E+00  0.00000000000E+00  0.71729256686E+03  0.27095230269E+04  0.26128540730E+04 0.  0.
        5    1    3    3  502    0 -0.78915001617E+03 -0.72968079495E+03  0.11287785034E+04  0.15586387684E+04  0.46999998093E+01 0.  1.
       -5    1    3    3    0  502  0.78915001617E+03  0.72968079495E+03 -0.41148593658E+03  0.11508842585E+04  0.46999998093E+01 0. -1.
</event>
<event>
 5   0  0.1351000E-07  0.3983238E+04  0.7818609E-02  0.8007937E-01
       -3   -1    0    0    0  501  0.00000000000E+00  0.00000000000E+00  0.11708943810E+04  0.11708943854E+04  0.10100000352E+00 0. -1.
        3   -1    0    0  501    0  0.00000000000E+00  0.00000000000E+00 -0.33876209540E+04  0.33876209555E+04  0.10100000352E+00 0.  1.
    10030    2    1    2    0    0  0.00000000000E+00  0.00000000000E+00 -0.22167265730E+04  0.45585153409E+04  0.39832380564E+04 0.  0.
        1    1    3    3  502    0 -0.55093969151E+03  0.12514467054E+04  0.54883810090E+03  0.14733895144E+04  0.50400001928E-02 0. -1.
       -1    1    3    3    0  502  0.55093969151E+03 -0.12514467054E+04 -0.27655646739E+04  0.30851258266E+04  0.50400001928E-02 0.  1.
</event>
<event>
 5   0  0.4077370E-07  0.3957288E+04  0.7818609E-02  0.8013219E-01
       -2   -1    0    0    0  501  0.00000000000E+00  0.00000000000E+00  0.15379208798E+04  0.15379208798E+04  0.25500000920E-02 0. -1.
        2   -1    0    0  501    0  0.00000000000E+00  0.00000000000E+00 -0.25456652124E+04  0.25456652124E+04  0.25500000920E-02 0.  1.
    10030    2    1    2    0    0  0.00000000000E+00  0.00000000000E+00 -0.10077443326E+04  0.40835860923E+04  0.39572878001E+04 0.  0.
        3    1    3    3  502    0  0.46141888954E+03 -0.35318337671E+03  0.14478903283E+04  0.15601385522E+04  0.10100000352E+00 0. -1.
       -3    1    3    3    0  502 -0.46141888954E+03  0.35318337671E+03 -0.24556346609E+04  0.25234475400E+04  0.10100000352E+00 0.  1.
</event>
<event>
 5   0  0.1368865E-07  0.3483371E+04  0.7818609E-02  0.8117742E-01
        1   -1    0    0  501    0  0.00000000000E+00  0.00000000000E+00  0.23254197033E+04  0.23254197033E+04  0.50400001928E-02 0. -1.
       -1   -1    0    0    0  501  0.00000000000E+00  0.00000000000E+00 -0.13044817415E+04  0.13044817415E+04  0.50400001928E-02 0.  1.
    10030    2    1    2    0    0  0.00000000000E+00  0.00000000000E+00  0.10209379617E+04  0.36299014448E+04  0.34833705197E+04 0.  0.
        5    1    3    3  502    0  0.57449389471E+03 -0.28195795045E+03 -0.11775174900E+04  0.13401914229E+04  0.46999998093E+01 0.  1.
       -5    1    3    3    0  502 -0.57449389471E+03  0.28195795045E+03  0.21984554517E+04  0.22897100219E+04  0.46999998093E+01 0. -1.
</event>
<event>
 5   0  0.1368865E-07  0.2610926E+04  0.7818609E-02  0.8364499E-01
       -1   -1    0    0    0  501  0.00000000000E+00  0.00000000000E+00  0.17467117242E+04  0.17467117243E+04  0.50400001928E-02 0. -1.
        1   -1    0    0  501    0  0.00000000000E+00  0.00000000000E+00 -0.97568124317E+03  0.97568124318E+03  0.50400001928E-02 0.  1.
    10030    2    1    2    0    0  0.00000000000E+00  0.00000000000E+00  0.77103048108E+03  0.27223929674E+04  0.26109261702E+04 0.  0.
        5    1    3    3  502    0  0.40035398637E+03  0.70373943216E+03  0.14532848727E+04  0.16636079809E+04  0.46999998093E+01 0. -1.
       -5    1    3    3    0  502 -0.40035398637E+03 -0.70373943216E+03 -0.68225439167E+03  0.10587849865E+04  0.46999998093E+01 0.  1.
</event>
<event>
 5   0  0.4077370E-07  0.3451927E+04  0.7818609E-02  0.8125278E-01
        2   -1    0    0  501    0  0.00000000000E+00  0.00000000000E+00  0.10700589881E+04  0.10700589881E+04  0.25500000920E-02 0.  1.
       -2   -1    0    0    0  501  0.00000000000E+00  0.00000000000E+00 -0.27839112287E+04  0.27839112287E+04  0.25500000920E-02 0. -1.
    10030    2    1    2    0    0  0.00000000000E+00  0.00000000000E+00 -0.17138522405E+04  0.38539702168E+04  0.34519265533E+04 0.  0.
        3    1    3    3  502    0  0.19466939659E+03  0.63199365792E+02  0.10564622705E+04  0.10761054191E+04  0.10100000352E+00 0.  1.
       -3    1    3    3    0  502 -0.19466939659E+03 -0.63199365792E+02 -0.27703145111E+04  0.27778647977E+04  0.10100000352E+00 0. -1.
</event>
<event>
 5   0  0.4301754E-07  0.2833592E+04  0.7818609E-02  0.8292915E-01
        2   -1    0    0  501    0  0.00000000000E+00  0.00000000000E+00  0.17502280949E+04  0.17502280949E+04  0.25500000920E-02 0.  1.
       -2   -1    0    0    0  501  0.00000000000E+00  0.00000000000E+00 -0.11468854116E+04  0.11468854116E+04  0.25500000920E-02 0. -1.
    10030    2    1    2    0    0  0.00000000000E+00  0.00000000000E+00  0.60334268327E+03  0.28971135065E+04  0.28335921153E+04 0.  0.
        1    1    3    3  502    0 -0.11890258539E+02 -0.14038845612E+04  0.10693418539E+03  0.14080014771E+04  0.50400001928E-02 0.  1.
       -1    1    3    3    0  502  0.11890258539E+02  0.14038845612E+04  0.49640849787E+03  0.14891120294E+04  0.50400001928E-02 0. -1.
</event>
<event>
 5   0  0.4079777E-07  0.3966140E+04  0.7818609E-02  0.8011412E-01
       -2   -1    0    0    0  501  0.00000000000E+00  0.00000000000E+00  0.12347651181E+04  0.12347651181E+04  0.25500000920E-02 0.  1.
        2   -1    0    0  501    0  0.00000000000E+00  0.00000000000E+00 -0.31848701732E+04  0.31848701732E+04  0.25500000920E-02 0. -1.
    10030    2    1    2    0    0  0.00000000000E+00  0.00000000000E+00 -0.19501050551E+04  0.44196352912E+04  0.39661399851E+04 0.  0.
        4    1    3    3  502    0 -0.10347846403E+03 -0.32685468897E+03  0.12014891417E+04  0.12494476983E+04  0.12699999809E+01 0.  1.
       -4    1    3    3    0  502  0.10347846403E+03  0.32685468897E+03 -0.31515941968E+04  0.31701875929E+04  0.12699999809E+01 0. -1.
</event>
<event>
 5   0  0.1421304E-07  0.4015237E+04  0.7818609E-02  0.8001480E-01
       -1   -1    0    0    0  501  0.00000000000E+00  0.00000000000E+00  0.28420431758E+04  0.28420431758E+04  0.50400001928E-02 0.  1.
        1   -1    0    0  501    0  0.00000000000E+00  0.00000000000E+00 -0.14181812481E+04  0.14181812481E+04  0.50400001928E-02 0. -1.
    10030    2    1    2    0    0  0.00000000000E+00  0.00000000000E+00  0.14238619276E+04  0.42602244239E+04  0.40152371478E+04 0.  0.
        2    1    3    3  502    0  0.31311323380E+03 -0.49024377537E+03 -0.13268057805E+04  0.14487209654E+04  0.25500000920E-02 0. -1.
       -2    1    3    3    0  502 -0.31311323380E+03  0.49024377537E+03  0.27506677081E+04  0.28115034585E+04  0.25500000920E-02 0.  1.
</event>
<event>
 5   0  0.4047916E-07  0.3998576E+04  0.7818609E-02  0.8004834E-01
        2   -1    0    0  501    0  0.00000000000E+00  0.00000000000E+00  0.23443575869E+04  0.23443575869E+04  0.25500000920E-02 0.  1.
       -2   -1    0    0    0  501  0.00000000000E+00  0.00000000000E+00 -0.17050094241E+04  0.17050094241E+04  0.25500000920E-02 0. -1.
    10030    2    1    2    0    0  0.00000000000E+00  0.00000000000E+00  0.63934816279E+03  0.40493670110E+04  0.39985756359E+04 0.  0.
        5    1    3    3  502    0 -0.16442444026E+04  0.12687505313E+03  0.14642933376E+04  0.22054056323E+04  0.46999998093E+01 0.  1.
       -5    1    3    3    0  502  0.16442444026E+04 -0.12687505313E+03 -0.82494517477E+03  0.18439613787E+04  0.46999998093E+01 0. -1.
</event>
<event>
 5   0  0.1351000E-07  0.3978825E+04  0.7818609E-02  0.8008832E-01
        1   -1    0    0  501    0  0.00000000000E+00  0.00000000000E+00  0.16980585282E+04  0.16980585283E+04  0.50400001928E-02 0. -1.
       -1   -1    0    0    0  501  0.00000000000E+00  0.00000000000E+00 -0.23307570195E+04  0.23307570195E+04  0.50400001928E-02 0.  1.
    10030    2    1    2    0    0  0.00000000000E+00  0.00000000000E+00 -0.63269849128E+03  0.40288155478E+04  0.39788248689E+04 0.  0.
        4    1    3    3  502    0 -0.12711358327E+04  0.33371939608E+03  0.11959367266E+04  0.17769133933E+04  0.12699999809E+01 0. -1.
       -4    1    3    3    0  502  0.12711358327E+04 -0.33371939608E+03 -0.18286352179E+04  0.22519021545E+04  0.12699999809E+01 0.  1.
</event>
<event>
 5   0  0.4301754E-07  0.4047750E+04  0.7818609E-02  0.7994983E-01
        2   -1    0    0  501    0  0.00000000000E+00  0.00000000000E+00  0.14512399910E+04  0.14512399910E+04  0.25500000920E-02 0.  1.
       -2   -1    0    0    0  501  0.00000000000E+00  0.00000000000E+00 -0.28224615613E+04  0.28224615613E+04  0.25500000920E-02 0. -1.
    10030    2    1    2    0    0  0.00000000000E+00  0.00000000000E+00 -0.13712215703E+04  0.42737015524E+04  0.40477495431E+04 0.  0.
        1    1    3    3  502    0  0.18679144062E+04  0.35902277690E+02 -0.15073058917E+04  0.24004925023E+04  0.50400001928E-02 0.  1.
       -1    1    3    3    0  502 -0.18679144062E+04 -0.35902277690E+02  0.13608432147E+03  0.18732090500E+04  0.50400001928E-02 0. -1.
</event>
<event>
 5   0  0.4047916E-07  0.3897931E+04  0.7818609E-02  0.8025460E-01
        2   -1    0    0  501    0  0.00000000000E+00  0.00000000000E+00  0.22233560076E+04  0.22233560076E+04  0.25500000920E-02 0. -1.
       -2   -1    0    0    0  501  0.00000000000E+00  0.00000000000E+00 -0.17084383097E+04  0.17084383097E+04  0.25500000920E-02 0.  1.
    10030    2    1    2    0    0  0.00000000000E+00  0.00000000000E+00  0.51491769795E+03  0.39317943173E+04  0.38979310304E+04 0.  0.
        5    1    3    3  502    0 -0.84708016074E+01  0.43178455423E+03 -0.16595609278E+04  0.17148394149E+04  0.46999998093E+01 0.  1.
       -5    1    3    3    0  502  0.84708016074E+01 -0.43178455423E+03  0.21744786257E+04  0.22169549025E+04  0.46999998093E+01 0. -1.
</event>
<event>
 5   0  0.4149487E-07  0.3961458E+04  0.7818609E-02  0.8012367E-01
       -2   -1    0    0    0  501  0.00000000000E+00  0.00000000000E+00  0.27387490955E+04  0.27387490955E+04  0.25500000920E-02 0. -1.
        2   -1    0    0  501    0  0.00000000000E+00  0.00000000000E+00 -0.14325105412E+04  0.14325105412E+04  0.25500000920E-02 0.  1.
    10030    2    1    2    0    0  0.00000000000E+00  0.00000000000E+00  0.13062385543E+04  0.41712596368E+04  0.39614577868E+04 0.  0.
        2    1    3    3  502    0  0.11498376414E+04  0.34986263949E+03 -0.10046692201E+04  0.15664899329E+04  0.25500000920E-02 0.  1.
       -2    1    3    3    0  502 -0.11498376414E+04 -0.34986263949E+03  0.23109077744E+04  0.26047697038E+04  0.25500000920E-02 0. -1.
</event>
<event>
 5   0  0.1372952E-07  0.2566846E+04  0.7818609E-02  0.8379551E-01
       -1   -1    0    0    0  501  0.00000000000E+00  0.00000000000E+00  0.13362806553E+04  0.13362806553E+04  0.50400001928E-02 0. -1.
        1   -1    0    0  501    0  0.00000000000E+00  0.00000000000E+00 -0.12326564986E+04  0.12326564986E+04  0.50400001928E-02 0.  1.
    10030    2    1    2    0    0  0.00000000000E+00  0.00000000000E+00  0.10362415666E+03  0.25689371539E+04  0.25668463403E+04 0.  0.
        1    1    3    3  502    0  0.17796532982E+01 -0.81104216538E+03 -0.94367520102E+03  0.12443132428E+04  0.50400001928E-02 0.  1.
       -1    1    3    3    0  502 -0.17796532982E+01  0.81104216538E+03  0.10472993577E+04  0.13246239111E+04  0.50400001928E-02 0. -1.
</event>
<event>
 5   0  0.1351000E-07  0.4114547E+04  0.7818609E-02  0.7981829E-01
       -1   -1    0    0    0  501  0.00000000000E+00  0.00000000000E+00  0.32156640034E+04  0.32156640034E+04  0.50400001928E-02 0.  1.
        1   -1    0    0  501    0  0.00000000000E+00  0.00000000000E+00 -0.13161741598E+04  0.13161741598E+04  0.50400001928E-02 0. -1.
    10030    2    1    2    0    0  0.00000000000E+00  0.00000000000E+00  0.18994898436E+04  0.45318381632E+04  0.41145468124E+04 0.  0.
        4    1    3    3  502    0 -0.16885761626E+03 -0.46193916071E+03  0.31499567506E+04  0.31881232451E+04  0.12699999809E+01 0.  1.
       -4    1    3    3    0  502  0.16885761626E+03  0.46193916071E+03 -0.12504669070E+04  0.13437149181E+04  0.12699999809E+01 0. -1.
</event>
<event>
 5   0  0.4149487E-07  0.3765924E+04  0.7818609E-02  0.8053507E-01
        2   -1    0    0  501    0  0.00000000000E+00  0.00000000000E+00  0.28255702037E+04  0.28255702038E+04  0.25500000920E-02 0.  1.
       -2   -1    0    0    0  501  0.00000000000E+00  0.00000000000E+00 -0.12548071204E+04  0.12548071204E+04  0.25500000920E-02 0. -1.
    10030    2    1    2    0    0  0.00000000000E+00  0.00000000000E+00  0.15707630833E+04  0.40803773242E+04  0.37659238500E+04 0.  0.
        2    1    3    3  502    0  0.10370225638E+04  0.54121706553E+03 -0.81336397897E+03  0.14247430197E+04  0.25500000920E-02 0. -1.
       -2    1    3    3    0  502 -0.10370225638E+04 -0.54121706553E+03  0.23841270623E+04  0.26556343045E+04  0.25500000920E-02 0.  1.
</event>
<event>
 5   0  0.4047916E-07  0.3997822E+04  0.7818609E-02  0.8004986E-01
       -2   -1    0    0    0  501  0.00000000000E+00  0.00000000000E+00  0.15436689406E+04  0.15436689406E+04  0.25500000920E-02 0. -1.
        2   -1    0    0  501    0  0.00000000000E+00  0.00000000000E+00 -0.25884078116E+04  0.25884078116E+04  0.25500000920E-02 0.  1.
    10030    2    1    2    0    0  0.00000000000E+00  0.00000000000E+00 -0.10447388710E+04  0.41320767523E+04  0.39978217792E+04 0.  0.
        5    1    3    3  502    0  0.12457816876E+04 -0.36538741629E+03  0.10485877604E+04  0.16688434193E+04  0.46999998093E+01 0. -1.
       -5    1    3    3    0  502 -0.12457816876E+04  0.36538741629E+03 -0.20933266313E+04  0.24632333329E+04  0.46999998093E+01 0.  1.
</event>
<event>
 5   0  0.1351000E-07  0.4013195E+04  0.7818609E-02  0.8001890E-01
        1   -1    0    0  501    0  0.00000000000E+00  0.00000000000E+00  0.19983050191E+04  0.19983050191E+04  0.50400001928E-02 0.  1.
       -1   -1    0    0    0  501  0.00000000000E+00  0.00000000000E+00 -0.20149248464E+04  0.20149248464E+04  0.50400001928E-02 0. -1.
    10030    2    1    2    0    0  0.00000000000E+00  0.00000000000E+00 -0.16619827309E+02  0.40132298655E+04  0.40131954518E+04 0.  0.
        4    1    3    3  502    0 -0.12682447375E+04  0.13014313585E+04  0.84273470735E+03  0.20030905359E+04  0.12699999809E+01 0.  1.
       -4    1    3    3    0  502  0.12682447375E+04 -0.13014313585E+04 -0.85935453466E+03  0.20101393296E+04  0.12699999809E+01 0. -1.
</event>
<event>
 5   0  0.1421304E-07  0.3740629E+04  0.7818609E-02  0.8059017E-01
       -1   -1    0    0    0  501  0.00000000000E+00  0.00000000000E+00  0.17052847409E+04  0.17052847409E+04  0.50400001928E-02 0. -1.
        1   -1    0    0  501    0  0.00000000000E+00  0.00000000000E+00 -0.20513154823E+04  0.20513154823E+04  0.50400001928E-02 0.  1.
    10030    2    1    2    0    0  0.00000000000E+00  0.00000000000E+00 -0.34603074137E+03  0.37566002232E+04  0.37406293539E+04 0.  0.
        2    1    3    3  502    0 -0.14944692775E+03 -0.78649515756E+03 -0.18705482276E+04  0.20346645151E+04  0.25500000920E-02 0.  1.
       -2    1    3    3    0  502  0.14944692775E+03  0.78649515756E+03  0.15245174863E+04  0.17219357081E+04  0.25500000920E-02 0. -1.
</event>
<event>
 5   0  0.4079777E-07  0.3557586E+04  0.7818609E-02  0.8100277E-01
       -2   -1    0    0    0  501  0.00000000000E+00  0.00000000000E+00  0.22391826868E+04  0.22391826868E+04  0.25500000920E-02 0. -1.
        2   -1    0    0  501    0  0.00000000000E+00  0.00000000000E+00 -0.14130620960E+04  0.14130620960E+04  0.25500000920E-02 0.  1.
    10030    2    1    2    0    0  0.00000000000E+00  0.00000000000E+00  0.82612059075E+03  0.36522447828E+04  0.35575857998E+04 0.  0.
        4    1    3    3  502    0  0.16068853924E+04  0.72679321075E+03  0.17495474113E+03  0.17722640350E+04  0.12699999809E+01 0.  1.
       -4    1    3    3    0  502 -0.16068853924E+04 -0.72679321075E+03  0.65116584962E+03  0.18799807478E+04  0.12699999809E+01 0. -1.
</event>
<event>
 5   0  0.1351000E-07  0.3109835E+04  0.7818609E-02  0.8213044E-01
       -3   -1    0    0    0  501  0.00000000000E+00  0.00000000000E+00  0.23314897408E+04  0.23314897430E+04  0.10100000352E+00 0.  1.
        3   -1    0    0  501    0  0.00000000000E+00  0.00000000000E+00 -0.10370060885E+04  0.10370060934E+04  0.10100000352E+00 0. -1.
    10030    2    1    2    0    0  0.00000000000E+00  0.00000000000E+00  0.12944836523E+04  0.33684958364E+04  0.31098354095E+04 0.  0.
        2    1    3    3  502    0  0.17785350701E+03 -0.73311858839E+03 -0.82550744506E+03  0.11182831826E+04  0.25500000920E-02 0. -1.
       -2    1    3    3    0  502 -0.17785350701E+03  0.73311858839E+03  0.21199910974E+04  0.22502126538E+04  0.25500000920E-02 0.  1.
</event>
<event>
 5   0  0.4079777E-07  0.2585881E+04  0.7818609E-02  0.8373013E-01
       -2   -1    0    0    0  501  0.00000000000E+00  0.00000000000E+00  0.25277758543E+04  0.25277758543E+04  0.25500000920E-02 0.  1.
        2   -1    0    0  501    0  0.00000000000E+00  0.00000000000E+00 -0.66133067549E+03  0.66133067550E+03  0.25500000920E-02 0. -1.
    10030    2    1    2    0    0  0.00000000000E+00  0.00000000000E+00  0.18664451788E+04  0.31891065298E+04  0.25858814460E+04 0.  0.
        4    1    3    3  502    0  0.11188172504E+03  0.11918247940E+04  0.15358017864E+04  0.19472166289E+04  0.12699999809E+01 0.  1.
       -4    1    3    3    0  502 -0.11188172504E+03 -0.11918247940E+04  0.33064339242E+03  0.12418899009E+04  0.12699999809E+01 0. -1.
</event>
<event>
 5   0  0.4079777E-07  0.3971936E+04  0.7818609E-02  0.8010232E-01
        2   -1    0    0  501    0  0.00000000000E+00  0.00000000000E+00  0.16361340198E+04  0.16361340198E+04  0.25500000920E-02 0.  1.
       -2   -1    0    0    0  501  0.00000000000E+00  0.00000000000E+00 -0.24106031747E+04  0.24106031747E+04  0.25500000920E-02 0. -1.
    10030    2    1    2    0    0  0.00000000000E+00  0.00000000000E+00 -0.77446915489E+03  0.40467371944E+04  0.39719364860E+04 0.  0.
        4    1    3    3  502    0 -0.91193259138E+03 -0.11952747648E+04 -0.17092712452E+04  0.22763814744E+04  0.12699999809E+01 0. -1.
       -4    1    3    3    0  502  0.91193259138E+03  0.11952747648E+04  0.93480209028E+03  0.17703557200E+04  0.12699999809E+01 0.  1.
</event>
<event>
 5   0  0.4077370E-07  0.3831177E+04  0.7818609E-02  0.8039497E-01
        2   -1    0    0  501    0  0.00000000000E+00  0.00000000000E+00  0.26452414268E+04  0.26452414268E+04  0.25500000920E-02 0.  1.
       -2   -1    0    0    0  501  0.00000000000E+00  0.00000000000E+00 -0.13872000946E+04  0.13872000946E+04  0.25500000920E-02 0. -1.
    10030    2    1    2    0    0  0.00000000000E+00  0.00000000000E+00  0.12580413322E+04  0.40324415214E+04  0.38311769249E+04 0.  0.
        3    1    3    3  502    0 -0.26782204806E+03  0.17035561191E+03 -0.13593286436E+04  0.13958954314E+04  0.10100000352E+00 0. -1.
       -3    1    3    3    0  502  0.26782204806E+03 -0.17035561191E+03  0.26173699758E+04  0.26365460899E+04  0.10100000352E+00 0.  1.
</event>
<event>
 5   0  0.1421304E-07  0.2500805E+04  0.7818609E-02  0.8402699E-01
        1   -1    0    0  501    0  0.00000000000E+00  0.00000000000E+00  0.10376655891E+04  0.10376655891E+04  0.50400001928E-02 0.  1.
       -1   -1    0    0    0  501  0.00000000000E+00  0.00000000000E+00 -0.15067538516E+04  0.15067538516E+04  0.50400001928E-02 0. -1.
    10030    2    1    2    0    0  0.00000000000E+00  0.00000000000E+00 -0.46908826246E+03  0.25444194407E+04  0.25008051688E+04 0.  0.
        2    1    3    3  502    0 -0.11484410204E+04 -0.45121354255E+03 -0.44055046253E+03  0.13101889743E+04  0.25500000920E-02 0.  1.
       -2    1    3    3    0  502  0.11484410204E+04  0.45121354255E+03 -0.28537799932E+02  0.12342304664E+04  0.25500000920E-02 0. -1.
</event>
<event>
 5   0  0.1372952E-07  0.2950557E+04  0.7818609E-02  0.8257992E-01
        1   -1    0    0  501    0  0.00000000000E+00  0.00000000000E+00  0.21830617994E+04  0.21830617994E+04  0.50400001928E-02 0. -1.
       -1   -1    0    0    0  501  0.00000000000E+00  0.00000000000E+00 -0.99696973320E+03  0.99696973321E+03  0.50400001928E-02 0.  1.
    10030    2    1    2    0    0  0.00000000000E+00  0.00000000000E+00  0.11860920662E+04  0.31800315327E+04  0.29505569235E+04 0.  0.
        1    1    3    3  502    0  0.11715487125E+04 -0.52887748928E+03 -0.18728623098E+03  0.12989664802E+04  0.50400001928E-02 0.  1.
       -1    1    3    3    0  502 -0.11715487125E+04  0.52887748928E+03  0.13733782972E+04  0.18810650525E+04  0.50400001928E-02 0. -1.
</event>
<event>
 5   0  0.1368865E-07  0.3872459E+04  0.7818609E-02  0.8030782E-01
        1   -1    0    0  501    0  0.00000000000E+00  0.00000000000E+00  0.21856047964E+04  0.21856047964E+04  0.50400001928E-02 0. -1.
       -1   -1    0    0    0  501  0.00000000000E+00  0.00000000000E+00 -0.17153078474E+04  0.17153078474E+04  0.50400001928E-02 0.  1.
    10030    2    1    2    0    0  0.00000000000E+00  0.00000000000E+00  0.47029694902E+03  0.39009126438E+04  0.38724591973E+04 0.  0.
        5    1    3    3  502    0  0.10743771204E+04  0.16058946398E+04  0.10861030210E+03  0.19352007851E+04  0.46999998093E+01 0.  1.
       -5    1    3    3    0  502 -0.10743771204E+04 -0.16058946398E+04  0.36168664693E+03  0.19657118587E+04  0.46999998093E+01 0. -1.
</event>
<event>
 5   0  0.4301754E-07  0.2479414E+04  0.7818609E-02  0.8410356E-01
        2   -1    0    0  501    0  0.00000000000E+00  0.00000000000E+00  0.24551503529E+04  0.24551503529E+04  0.25500000920E-02 0. -1.
       -2   -1    0    0    0  501  0.00000000000E+00  0.00000000000E+00 -0.62597954574E+03  0.62597954574E+03  0.25500000920E-02 0.  1.
    10030    2    1    2    0    0  0.00000000000E+00  0.00000000000E+00  0.18291708072E+04  0.30811298987E+04  0.24794143685E+04 0.  0.
        1    1    3    3  502    0 -0.15006253123E+03  0.94865182632E+02 -0.61010078268E+03  0.63540627256E+03  0.50400001928E-02 0.  1.
       -1    1    3    3    0  502  0.15006253123E+03 -0.94865182632E+02  0.24392715899E+04  0.24457236261E+04  0.50400001928E-02 0. -1.
</event>
<event>
 5   0  0.4047916E-07  0.4068951E+04  0.7818609E-02  0.7990780E-01
       -2   -1    0    0    0  501  0.00000000000E+00  0.00000000000E+00  0.19993432301E+04  0.19993432301E+04  0.25500000920E-02 0.  1.
        2   -1    0    0  501    0  0.00000000000E+00  0.00000000000E+00 -0.20702250550E+04  0.20702250550E+04  0.25500000920E-02 0. -1.
    10030    2    1    2    0    0  0.00000000000E+00  0.00000000000E+00 -0.70881824860E+02  0.40695682851E+04  0.40689509452E+04 0.  0.
        5    1    3    3  502    0 -0.10159961766E+04 -0.52189737094E+03 -0.17192768334E+04  0.20641124041E+04  0.46999998093E+01 0. -1.
       -5    1    3    3    0  502  0.10159961766E+04  0.52189737094E+03  0.16483950086E+04  0.20054558811E+04  0.46999998093E+01 0.  1.
</event>
<event>
 5   0  0.4079777E-07  0.2739420E+04  0.7818609E-02  0.8322327E-01
       -2   -1    0    0    0  501  0.00000000000E+00  0.00000000000E+00  0.10104248353E+04  0.10104248353E+04  0.25500000920E-02 0. -1.
        2   -1    0    0  501    0  0.00000000000E+00  0.00000000000E+00 -0.18567495702E+04  0.18567495702E+04  0.25500000920E-02 0.  1.
    10030    2    1    2    0    0  0.00000000000E+00  0.00000000000E+00 -0.84632473487E+03  0.28671744055E+04  0.27394202881E+04 0.  0.
        4    1    3    3  502    0  0.13109971168E+04  0.40006454020E+02 -0.83627232457E+03  0.15555278752E+04  0.12699999809E+01 0.  1.
       -4    1    3    3    0  502 -0.13109971168E+04 -0.40006454020E+02 -0.10052410302E+02  0.13116465303E+04  0.12699999809E+01 0. -1.
</event>
<event>
 5   0  0.1368865E-07  0.3745347E+04  0.7818609E-02  0.8057986E-01
       -1   -1    0    0    0  501  0.00000000000E+00  0.00000000000E+00  0.11181328611E+04  0.11181328611E+04  0.50400001928E-02 0.  1.
        1   -1    0    0  501    0  0.00000000000E+00  0.00000000000E+00 -0.31363943194E+04  0.31363943194E+04  0.50400001928E-02 0. -1.
    10030    2    1    2    0    0  0.00000000000E+00  0.00000000000E+00 -0.20182614582E+04  0.42545271805E+04  0.37453467417E+04 0.  0.
        5    1    3    3  502    0  0.16010729604E+04  0.37715647388E+03  0.76568661578E+01  0.16449201646E+04  0.46999998093E+01 0. -1.
       -5    1    3    3    0  502 -0.16010729604E+04 -0.37715647388E+03 -0.20259183244E+04  0.26096070159E+04  0.46999998093E+01 0.  1.
</event>
<event>
 5   0  0.1372952E-07  0.4031011E+04  0.7818609E-02  0.7998320E-01
       -1   -1    0    0    0  501  0.00000000000E+00  0.00000000000E+00  0.27857611525E+04  0.27857611525E+04  0.50400001928E-02 0. -1.
        1   -1    0    0  501    0  0.00000000000E+00  0.00000000000E+00 -0.14582233205E+04  0.14582233205E+04  0.50400001928E-02 0.  1.
    10030    2    1    2    0    0  0.00000000000E+00  0.00000000000E+00  0.13275378320E+04  0.42439844730E+04  0.40310107308E+04 0.  0.
        1    1    3    3  502    0 -0.29926664590E+03  0.17200079155E+04 -0.39655243081E+03  0.17903188501E+04  0.50400001928E-02 0. -1.
       -1    1    3    3    0  502  0.29926664590E+03 -0.17200079155E+04  0.17240902628E+04  0.24536656229E+04  0.50400001928E-02 0.  1.
</event>
<event>
 5   0  0.1421304E-07  0.2855685E+04  0.7818609E-02  0.8286186E-01
       -1   -1    0    0    0  501  0.00000000000E+00  0.00000000000E+00  0.14095274779E+04  0.14095274779E+04  0.50400001928E-02 0.  1.
        1   -1    0    0  501    0  0.00000000000E+00  0.00000000000E+00 -0.14463957477E+04  0.14463957477E+04  0.50400001928E-02 0. -1.
    10030    2    1    2    0    0  0.00000000000E+00  0.00000000000E+00 -0.36868269749E+02  0.28559232256E+04  0.28556852420E+04 0.  0.
        2    1    3    3  502    0 -0.97725393059E+03 -0.96558081326E+03  0.37065226659E+03  0.14229387388E+04  0.25500000920E-02 0.  1.
       -2    1    3    3    0  502  0.97725393059E+03  0.96558081326E+03 -0.40752053634E+03  0.14329844868E+04  0.25500000920E-02 0. -1.
</event>
<event>
 5   0  0.1421304E-07  0.4083663E+04  0.7818609E-02  0.7987878E-01
        1   -1    0    0  501    0  0.00000000000E+00  0.00000000000E+00  0.21244072082E+04  0.21244072082E+04  0.50400001928E-02 0.  1.
       -1   -1    0    0    0  501  0.00000000000E+00  0.00000000000E+00 -0.19624656370E+04  0.19624656370E+04  0.50400001928E-02 0. -1.
    10030    2    1    2    0    0  0.00000000000E+00  0.00000000000E+00  0.16194157121E+03  0.40868728453E+04  0.40836631326E+04 0.  0.
        2    1    3    3  502    0  0.58934392689E+03 -0.69794536208E+03  0.19085008572E+04  0.21158519595E+04  0.25500000920E-02 0.  1.
       -2    1    3    3    0  502 -0.58934392689E+03  0.69794536208E+03 -0.17465592860E+04  0.19710208858E+04  0.25500000920E-02 0. -1.
</event>
<event>
 5   0  0.1368865E-07  0.3969833E+04  0.7818609E-02  0.8010660E-01
       -1   -1    0    0    0  501  0.00000000000E+00  0.00000000000E+00  0.14336229178E+04  0.14336229178E+04  0.50400001928E-02 0.  1.
        1   -1    0    0  501    0  0.00000000000E+00  0.00000000000E+00 -0.27482071146E+04  0.27482071146E+04  0.50400001928E-02 0. -1.
    10030    2    1    2    0    0  0.00000000000E+00  0.00000000000E+00 -0.13145841968E+04  0.41818300324E+04  0.39698325921E+04 0.  0.
        5    1    3    3  502    0  0.18062322910E+04 -0.81421149010E+03 -0.78394228251E+03  0.21307282868E+04  0.46999998093E+01 0.  1.
       -5    1    3    3    0  502 -0.18062322910E+04  0.81421149010E+03 -0.53064191425E+03  0.20511017456E+04  0.46999998093E+01 0. -1.
</event>
<event>
 5   0  0.4301754E-07  0.3941112E+04  0.7818609E-02  0.8016533E-01
        2   -1    0    0  501    0  0.00000000000E+00  0.00000000000E+00  0.17126602524E+04  0.17126602525E+04  0.25500000920E-02 0.  1.
       -2   -1    0    0    0  501  0.00000000000E+00  0.00000000000E+00 -0.22672866310E+04  0.22672866310E+04  0.25500000920E-02 0. -1.
    10030    2    1    2    0    0  0.00000000000E+00  0.00000000000E+00 -0.55462637860E+03  0.39799468835E+04  0.39411123779E+04 0.  0.
        1    1    3    3  502    0  0.16010176825E+04  0.61154988751E+02 -0.14358289205E+04  0.21514186578E+04  0.50400001928E-02 0. -1.
       -1    1    3    3    0  502 -0.16010176825E+04 -0.61154988751E+02  0.88120254186E+03  0.18285282257E+04  0.50400001928E-02 0.  1.
</event>
<event>
 5   0  0.1421304E-07  0.3038777E+04  0.7818609E-02  0.8232744E-01
        1   -1    0    0  501    0  0.00000000000E+00  0.00000000000E+00  0.87693810727E+03  0.87693810728E+03  0.50400001928E-02 0.  1.
       -1   -1    0    0    0  501  0.00000000000E+00  0.00000000000E+00 -0.26325023127E+04  0.26325023127E+04  0.50400001928E-02 0. -1.
    10030    2    1    2    0    0  0.00000000000E+00  0.00000000000E+00 -0.17555642054E+04  0.35094404199E+04  0.30387771195E+04 0.  0.
        2    1    3    3  502    0 -0.82567398155E+03  0.47986123081E+03  0.48700619929E+03  0.10719978371E+04  0.25500000920E-02 0.  1.
       -2    1    3    3    0  502  0.82567398155E+03 -0.47986123081E+03 -0.22425704047E+04  0.24374425828E+04  0.25500000920E-02 0. -1.
</event>
<event>
 5   0  0.1372952E-07  0.3795356E+04  0.7818609E-02  0.8047152E-01
       -1   -1    0    0    0  501  0.00000000000E+00  0.00000000000E+00  0.14046866723E+04  0.14046866723E+04  0.50400001928E-02 0.  1.
        1   -1    0    0  501    0  0.00000000000E+00  0.00000000000E+00 -0.25636907668E+04  0.25636907668E+04  0.50400001928E-02 0. -1.
    10030    2    1    2    0    0  0.00000000000E+00  0.00000000000E+00 -0.11590040945E+04  0.39683774391E+04  0.37953562426E+04 0.  0.
        1    1    3    3  502    0  0.12736160990E+04  0.10460651523E+04 -0.15630393395E+04  0.22714405665E+04  0.50400001928E-02 0. -1.
       -1    1    3    3    0  502 -0.12736160990E+04 -0.10460651523E+04  0.40403524500E+03  0.16969368726E+04  0.50400001928E-02 0.  1.
</event>
<event>
 5   0  0.4079777E-07  0.3813536E+04  0.7818609E-02  0.8043256E-01
        2   -1    0    0  501    0  0.00000000000E+00  0.00000000000E+00  0.29068713413E+04  0.29068713413E+04  0.25500000920E-02 0. -1.
       -2   -1    0    0    0  501  0.00000000000E+00  0.00000000000E+00 -0.12507482084E+04  0.12507482084E+04  0.25500000920E-02 0.  1.
    10030    2    1    2    0    0  0.00000000000E+00  0.00000000000E+00  0.16561231329E+04  0.41576195498E+04  0.38135359562E+04 0.  0.
        4    1    3    3  502    0  0.14567031714E+04  0.11700791786E+04  0.12427680304E+04  0.22440016497E+04  0.12699999809E+01 0.  1.
       -4    1    3    3    0  502 -0.14567031714E+04 -0.11700791786E+04  0.41335510252E+03  0.19136179001E+04  0.12699999809E+01 0. -1.
</event>
<event>
 5   0  0.1368865E-07  0.3940029E+04  0.7818609E-02  0.8016755E-01
        1   -1    0    0  501    0  0.00000000000E+00  0.00000000000E+00  0.31452468921E+04  0.31452468921E+04  0.50400001928E-02 0.  1.
       -1   -1    0    0    0  501  0.00000000000E+00  0.00000000000E+00 -0.12339120693E+04  0.12339120693E+04  0.50400001928E-02 0. -1.
    10030    2    1    2    0    0  0.00000000000E+00  0.00000000000E+00  0.19113348228E+04  0.43791589614E+04  0.39400294929E+04 0.  0.
        5    1    3    3  502    0 -0.18163338734E+04 -0.40450811767E+03  0.23687372112E+03  0.18758536208E+04  0.46999998093E+01 0.  1.
       -5    1    3    3    0  502  0.18163338734E+04  0.40450811767E+03  0.16744611017E+04  0.25033053406E+04  0.46999998093E+01 0. -1.
</event>
<event>
 5   0  0.1368865E-07  0.3808782E+04  0.7818609E-02  0.8044273E-01
       -1   -1    0    0    0  501  0.00000000000E+00  0.00000000000E+00  0.18898991881E+04  0.18898991881E+04  0.50400001928E-02 0. -1.
        1   -1    0    0  501    0  0.00000000000E+00  0.00000000000E+00 -0.19189936915E+04  0.19189936915E+04  0.50400001928E-02 0.  1.
    10030    2    1    2    0    0  0.00000000000E+00  0.00000000000E+00 -0.29094503338E+02  0.38088928796E+04  0.38087817578E+04 0.  0.
        5    1    3    3  502    0 -0.11483169129E+04  0.49838569194E+03  0.14206470498E+04  0.18934836045E+04  0.46999998093E+01 0. -1.
       -5    1    3    3    0  502  0.11483169129E+04 -0.49838569194E+03 -0.14497415531E+04  0.19154092751E+04  0.46999998093E+01 0.  1.
</event>
<event>
 5   0  0.1421304E-07  0.2738798E+04  0.7818609E-02  0.8322525E-01
       -1   -1    0    0    0  501  0.00000000000E+00  0.00000000000E+00  0.10432824717E+04  0.10432824717E+04  0.50400001928E-02 0. -1.
        1   -1    0    0  501    0  0.00000000000E+00  0.00000000000E+00 -0.17974550907E+04  0.17974550908E+04  0.50400001928E-02 0.  1.
    10030    2    1    2    0    0  0.00000000000E+00  0.00000000000E+00 -0.75417261909E+03  0.28407375624E+04  0.27387978310E+04 0.  0.
        2    1    3    3  502    0 -0.48524006850E+03 -0.12399480314E+04 -0.45298347138E+02  0.13322841232E+04  0.25500000920E-02 0. -1.
       -2    1    3    3    0  502  0.48524006850E+03  0.12399480314E+04 -0.70887427195E+03  0.15084534392E+04  0.25500000920E-02 0.  1.
</event>
<event>
 5   0  0.4301754E-07  0.4161822E+04  0.7818609E-02  0.7972674E-01
        2   -1    0    0  501    0  0.00000000000E+00  0.00000000000E+00  0.21856008174E+04  0.21856008174E+04  0.25500000920E-02 0. -1.
       -2   -1    0    0    0  501  0.00000000000E+00  0.00000000000E+00 -0.19812358078E+04  0.19812358078E+04  0.25500000920E-02 0.  1.
    10030    2    1    2    0    0  0.00000000000E+00  0.00000000000E+00  0.20436500968E+03  0.41668366252E+04  0.41618220053E+04 0.  0.
        1    1    3    3  502    0 -0.69763302242E+03  0.81996442954E+03 -0.16807374657E+04  0.19959739298E+04  0.50400001928E-02 0.  1.
       -1    1    3    3    0  502  0.69763302242E+03 -0.81996442954E+03  0.18851024754E+04  0.21708626954E+04  0.50400001928E-02 0. -1.
</event>
<event>
 5   0  0.1421304E-07  0.3891738E+04  0.7818609E-02  0.8026750E-01
        1   -1    0    0  501    0  0.00000000000E+00  0.00000000000E+00  0.19874269127E+04  0.19874269127E+04  0.50400001928E-02 0. -1.
       -1   -1    0    0    0  501  0.00000000000E+00  0.00000000000E+00 -0.19051805158E+04  0.19051805158E+04  0.50400001928E-02 0.  1.
    10030    2    1    2    0    0  0.00000000000E+00  0.00000000000E+00  0.82246396953E+02  0.38926074285E+04  0.38917384448E+04 0.  0.
        2    1    3    3  502    0  0.13434121458E+04  0.72597760098E+03  0.12474635440E+04  0.19717923228E+04  0.25500000920E-02 0. -1.
       -2    1    3    3    0  502 -0.13434121458E+04 -0.72597760098E+03 -0.11652171470E+04  0.19208151057E+04  0.25500000920E-02 0.  1.
</event>
<event>
 5   0  0.4301754E-07  0.4018299E+04  0.7818609E-02  0.8000865E-01
        2   -1    0    0  501    0  0.00000000000E+00  0.00000000000E+00  0.11964710217E+04  0.11964710217E+04  0.25500000920E-02 0. -1.
       -2   -1    0    0    0  501  0.00000000000E+00  0.00000000000E+00 -0.33738231438E+04  0.33738231438E+04  0.25500000920E-02 0.  1.
    10030    2    1    2    0    0  0.00000000000E+00  0.00000000000E+00 -0.21773521220E+04  0.45702941655E+04  0.40182989555E+04 0.  0.
        1    1    3    3  502    0 -0.98165754661E+03 -0.13410802647E+04 -0.23727132133E+04  0.28968803579E+04  0.50400001928E-02 0.  1.
       -1    1    3    3    0  502  0.98165754661E+03  0.13410802647E+04  0.19536109133E+03  0.16734138076E+04  0.50400001928E-02 0. -1.
</event>
<event>
 5   0  0.4077370E-07  0.4090944E+04  0.7818609E-02  0.7986447E-01
       -2   -1    0    0    0  501  0.00000000000E+00  0.00000000000E+00  0.22003331546E+04  0.22003331546E+04  0.25500000920E-02 0.  1.
        2   -1    0    0  501    0  0.00000000000E+00  0.00000000000E+00 -0.19015104098E+04  0.19015104098E+04  0.25500000920E-02 0. -1.
    10030    2    1    2    0    0  0.00000000000E+00  0.00000000000E+00  0.29882274482E+03  0.41018435644E+04  0.40909443401E+04 0.  0.
        3    1    3    3  502    0  0.11660687585E+04 -0.92498253894E+03  0.15562344533E+04  0.21534100239E+04  0.10100000352E+00 0.  1.
       -3    1    3    3    0  502 -0.11660687585E+04  0.92498253894E+03 -0.12574117085E+04  0.19484335405E+04  0.10100000352E+00 0. -1.
</event>
<event>
 5   0  0.4077370E-07  0.3363680E+04  0.7818609E-02  0.8146878E-01
        2   -1    0    0  501    0  0.00000000000E+00  0.00000000000E+00  0.25926515361E+04  0.25926515361E+04  0.25500000920E-02 0.  1.
       -2   -1    0    0    0  501  0.00000000000E+00  0.00000000000E+00 -0.10910013882E+04  0.10910013882E+04  0.25500000920E-02 0. -1.
    10030    2    1    2    0    0  0.00000000000E+00  0.00000000000E+00  0.15016501478E+04  0.36836529243E+04  0.33636803802E+04 0.  0.
        3    1    3    3  502    0 -0.14081436864E+04 -0.29629589079E+03 -0.20258016310E+03  0.14531684793E+04  0.10100000352E+00 0. -1.
       -3    1    3    3    0  502  0.14081436864E+04  0.29629589079E+03  0.17042303109E+04  0.22304844450E+04  0.10100000352E+00 0.  1.
</event>
<event>
 5   0  0.1372952E-07  0.4238140E+04  0.7818609E-02  0.7958157E-01
        1   -1    0    0  501    0  0.00000000000E+00  0.00000000000E+00  0.32999155785E+04  0.32999155785E+04  0.50400001928E-02 0. -1.
       -1   -1    0    0    0  501  0.00000000000E+00  0.00000000000E+00 -0.13607792819E+04  0.13607792819E+04  0.50400001928E-02 0.  1.
    10030    2    1    2    0    0  0.00000000000E+00  0.00000000000E+00  0.19391362966E+04  0.46606948604E+04  0.42381395688E+04 0.  0.
        1    1    3    3  502    0  0.16981666007E+02 -0.18760619975E+04 -0.11382617388E+03  0.18795886235E+04  0.50400001928E-02 0.  1.
       -1    1    3    3    0  502 -0.16981666007E+02  0.18760619975E+04  0.20529624705E+04  0.27811062369E+04  0.50400001928E-02 0. -1.
</event>
<event>
 5   0  0.1368865E-07  0.4027033E+04  0.7818609E-02  0.7999115E-01
       -1   -1    0    0    0  501  0.00000000000E+00  0.00000000000E+00  0.20942151366E+04  0.20942151366E+04  0.50400001928E-02 0. -1.
        1   -1    0    0  501    0  0.00000000000E+00  0.00000000000E+00 -0.19359273782E+04  0.19359273782E+04  0.50400001928E-02 0.  1.
    10030    2    1    2    0    0  0.00000000000E+00  0.00000000000E+00  0.15828775838E+03  0.40301425148E+04  0.40270328624E+04 0.  0.
        5    1    3    3  502    0 -0.66507637623E+03  0.42995856516E+03  0.19317987563E+04  0.20878360756E+04  0.46999998093E+01 0. -1.
       -5    1    3    3    0  502  0.66507637623E+03 -0.42995856516E+03 -0.17735109979E+04  0.19423064392E+04  0.46999998093E+01 0.  1.
</event>
<event>
 5   0  0.4077370E-07  0.3965601E+04  0.7818609E-02  0.8011522E-01
       -2   -1    0    0    0  501  0.00000000000E+00  0.00000000000E+00  0.16278973689E+04  0.16278973689E+04  0.25500000920E-02 0.  1.
        2   -1    0    0  501    0  0.00000000000E+00  0.00000000000E+00 -0.24150776083E+04  0.24150776083E+04  0.25500000920E-02 0. -1.
    10030    2    1    2    0    0  0.00000000000E+00  0.00000000000E+00 -0.78718023938E+03  0.40429749772E+04  0.39656013336E+04 0.  0.
        3    1    3    3  502    0 -0.15197390719E+04 -0.90497620969E+02 -0.16886911363E+04  0.22736478245E+04  0.10100000352E+00 0. -1.
       -3    1    3    3    0  502  0.15197390719E+04  0.90497620969E+02  0.90151089689E+03  0.17693271527E+04  0.10100000352E+00 0.  1.
</event>
<event>
 5   0  0.1368865E-07  0.3992720E+04  0.7818609E-02  0.8006017E-01
       -1   -1    0    0    0  501  0.00000000000E+00  0.00000000000E+00  0.21503867507E+04  0.21503867507E+04  0.50400001928E-02 0.  1.
        1   -1    0    0  501    0  0.00000000000E+00  0.00000000000E+00 -0.18533659329E+04  0.18533659329E+04  0.50400001928E-02 0. -1.
    10030    2    1    2    0    0  0.00000000000E+00  0.00000000000E+00  0.29702081776E+03  0.40037526836E+04  0.39927201486E+04 0.  0.
        5    1    3    3  502    0 -0.17424989288E+03  0.12980462117E+04  0.16593735240E+04  0.21139606371E+04  0.46999998093E+01 0.  1.
       -5    1    3    3    0  502  0.17424989288E+03 -0.12980462117E+04 -0.13623527063E+04  0.18897920465E+04  0.46999998093E+01 0. -1.
</event>
<event>
 5   0  0.4149487E-07  0.3984218E+04  0.7818609E-02  0.8007738E-01
       -2   -1    0    0    0  501  0.00000000000E+00  0.00000000000E+00  0.19019842773E+04  0.19019842773E+04  0.25500000920E-02 0.  1.
        2   -1    0    0  501    0  0.00000000000E+00  0.00000000000E+00 -0.20865038550E+04  0.20865038550E+04  0.25500000920E-02 0. -1.
    10030    2    1    2    0    0  0.00000000000E+00  0.00000000000E+00 -0.18451957772E+03  0.39884881323E+04  0.39842176280E+04 0.  0.
        2    1    3    3  502    0 -0.30340838140E+02 -0.17784649606E+04 -0.99023817524E+03  0.20357872743E+04  0.25500000920E-02 0. -1.
       -2    1    3    3    0  502  0.30340838140E+02  0.17784649606E+04  0.80571859752E+03  0.19527008580E+04  0.25500000920E-02 0.  1.
</event>
<event>
 5   0  0.1351000E-07  0.3593364E+04  0.7818609E-02  0.8092013E-01
       -1   -1    0    0    0  501  0.00000000000E+00  0.00000000000E+00  0.17514128371E+04  0.17514128371E+04  0.50400001928E-02 0. -1.
        1   -1    0    0  501    0  0.00000000000E+00  0.00000000000E+00 -0.18431210911E+04  0.18431210911E+04  0.50400001928E-02 0.  1.
    10030    2    1    2    0    0  0.00000000000E+00  0.00000000000E+00 -0.91708254075E+02  0.35945339282E+04  0.35933638498E+04 0.  0.
        3    1    3    3  502    0  0.16329888609E+04  0.61721152468E+03  0.37909385549E+03  0.17864251587E+04  0.10100000352E+00 0. -1.
       -3    1    3    3    0  502 -0.16329888609E+04 -0.61721152468E+03 -0.47080210957E+03  0.18081087696E+04  0.10100000352E+00 0.  1.
</event>
<event>
 5   0  0.1372952E-07  0.3966453E+04  0.7818609E-02  0.8011348E-01
        1   -1    0    0  501    0  0.00000000000E+00  0.00000000000E+00  0.16723790019E+04  0.16723790019E+04  0.50400001928E-02 0. -1.
       -1   -1    0    0    0  501  0.00000000000E+00  0.00000000000E+00 -0.23518515299E+04  0.23518515299E+04  0.50400001928E-02 0.  1.
    10030    2    1    2    0    0  0.00000000000E+00  0.00000000000E+00 -0.67947252802E+03  0.40242305319E+04  0.39664528810E+04 0.  0.
        1    1    3    3  502    0 -0.17459111718E+04 -0.54978252731E+03 -0.11142171221E+04  0.21428827412E+04  0.50400001928E-02 0.  1.
       -1    1    3    3    0  502  0.17459111718E+04  0.54978252731E+03  0.43474459412E+03  0.18813477907E+04  0.50400001928E-02 0. -1.
</event>
<event>
 5   0  0.1351000E-07  0.3821704E+04  0.7818609E-02  0.8041513E-01
        1   -1    0    0  501    0  0.00000000000E+00  0.00000000000E+00  0.22214516448E+04  0.22214516448E+04  0.50400001928E-02 0. -1.
       -1   -1    0    0    0  501  0.00000000000E+00  0.00000000000E+00 -0.16436794730E+04  0.16436794730E+04  0.50400001928E-02 0.  1.
    10030    2    1    2    0    0  0.00000000000E+00  0.00000000000E+00  0.57777217178E+03  0.38651311179E+04  0.38217035306E+04 0.  0.
        4    1    3    3  502    0  0.14293807563E+04  0.43434212151E+03 -0.91611020459E+03  0.17524388562E+04  0.12699999809E+01 0.  1.
       -4    1    3    3    0  502 -0.14293807563E+04 -0.43434212151E+03  0.14938823764E+04  0.21126922616E+04  0.12699999809E+01 0. -1.
</event>
<event>
 5   0  0.4079777E-07  0.2909099E+04  0.7818609E-02  0.8270175E-01
       -2   -1    0    0    0  501  0.00000000000E+00  0.00000000000E+00  0.97417977373E+03  0.97417977373E+03  0.25500000920E-02 0.  1.
        2   -1    0    0  501    0  0.00000000000E+00  0.00000000000E+00 -0.21717909757E+04  0.21717909757E+04  0.25500000920E-02 0. -1.
    10030    2    1    2    0    0  0.00000000000E+00  0.00000000000E+00 -0.11976112020E+04  0.31459707495E+04  0.29090994079E+04 0.  0.
        4    1    3    3  502    0  0.11878127928E+04  0.63938736497E+03 -0.11871618310E+04  0.17969613961E+04  0.12699999809E+01 0. -1.
       -4    1    3    3    0  502 -0.11878127928E+04 -0.63938736497E+03 -0.10449370975E+02  0.13490093533E+04  0.12699999809E+01 0.  1.
</event>
<event>
 5   0  0.1351000E-07  0.4105877E+04  0.7818609E-02  0.7983522E-01
        1   -1    0    0  501    0  0.00000000000E+00  0.00000000000E+00  0.28004388114E+04  0.28004388114E+04  0.50400001928E-02 0.  1.
       -1   -1    0    0    0  501  0.00000000000E+00  0.00000000000E+00 -0.15049632422E+04  0.15049632422E+04  0.50400001928E-02 0. -1.
    10030    2    1    2    0    0  0.00000000000E+00  0.00000000000E+00  0.12954755692E+04  0.43054020536E+04  0.41058774815E+04 0.  0.
        3    1    3    3  502    0  0.19150610344E+04  0.71838289276E+03  0.83243555006E+03  0.22082757304E+04  0.10100000352E+00 0.  1.
       -3    1    3    3    0  502 -0.19150610344E+04 -0.71838289276E+03  0.46304001912E+03  0.20971263232E+04  0.10100000352E+00 0. -1.
</event>
<event>
 5   0  0.1368865E-07  0.3642384E+04  0.7818609E-02  0.8080852E-01
        1   -1    0    0  501    0  0.00000000000E+00  0.00000000000E+00  0.26905952702E+04  0.26905952702E+04  0.50400001928E-02 0.  1.
       -1   -1    0    0    0  501  0.00000000000E+00  0.00000000000E+00 -0.12327159973E+04  0.12327159973E+04  0.50400001928E-02 0. -1.
    10030    2    1    2    0    0  0.00000000000E+00  0.00000000000E+00  0.14578792729E+04  0.39233112674E+04  0.36423837424E+04 0.  0.
        5    1    3    3  502    0  0.87762020323E+03 -0.84283269171E+03 -0.73061112095E+03  0.14192952009E+04  0.46999998093E+01 0. -1.
       -5    1    3    3    0  502 -0.87762020323E+03  0.84283269171E+03  0.21884903939E+04  0.25040160665E+04  0.46999998093E+01 0.  1.
</event>
<event>
 5   0  0.1351000E-07  0.2593175E+04  0.7818609E-02  0.8370523E-01
        1   -1    0    0  501    0  0.00000000000E+00  0.00000000000E+00  0.20511827713E+04  0.20511827713E+04  0.50400001928E-02 0.  1.
       -1   -1    0    0    0  501  0.00000000000E+00  0.00000000000E+00 -0.81959518861E+03  0.81959518863E+03  0.50400001928E-02 0. -1.
    10030    2    1    2    0    0  0.00000000000E+00  0.00000000000E+00  0.12315875827E+04  0.28707779599E+04  0.25931752971E+04 0.  0.
        4    1    3    3  502    0 -0.12333956705E+04  0.16983580516E+03  0.21506442443E+03  0.12634727541E+04  0.12699999809E+01 0.  1.
       -4    1    3    3    0  502  0.12333956705E+04 -0.16983580516E+03  0.10165231583E+04  0.16073052059E+04  0.12699999809E+01 0. -1.
</event>
<event>
 5   0  0.4149487E-07  0.4118369E+04  0.7818609E-02  0.7981084E-01
        2   -1    0    0  501    0  0.00000000000E+00  0.00000000000E+00  0.22568180505E+04  0.22568180505E+04  0.25500000920E-02 0.  1.
       -2   -1    0    0    0  501  0.00000000000E+00  0.00000000000E+00 -0.18788584212E+04  0.18788584212E+04  0.25500000920E-02 0. -1.
    10030    2    1    2    0    0  0.00000000000E+00  0.00000000000E+00  0.37795962922E+03  0.41356764717E+04  0.41183693857E+04 0.  0.
        2    1    3    3  502    0  0.21159599166E+03 -0.12966579420E+04 -0.14032897233E+04  0.19223206625E+04  0.25500000920E-02 0. -1.
       -2    1    3    3    0  502 -0.21159599166E+03  0.12966579420E+04  0.17812493525E+04  0.22133558092E+04  0.25500000920E-02 0.  1.
</event>
<event>
 5   0  0.4079777E-07  0.3798565E+04  0.7818609E-02  0.8046463E-01
       -2   -1    0    0    0  501  0.00000000000E+00  0.00000000000E+00  0.14520140458E+04  0.14520140458E+04  0.25500000920E-02 0. -1.
        2   -1    0    0  501    0  0.00000000000E+00  0.00000000000E+00 -0.24843249247E+04  0.24843249247E+04  0.25500000920E-02 0.  1.
    10030    2    1    2    0    0  0.00000000000E+00  0.00000000000E+00 -0.10323108789E+04  0.39363389704E+04  0.37985653528E+04 0.  0.
        4    1    3    3  502    0 -0.15341859341E+04 -0.53057414235E+03 -0.15378343652E+04  0.22361063366E+04  0.12699999809E+01 0.  1.
       -4    1    3    3    0  502  0.15341859341E+04  0.53057414235E+03  0.50552348632E+03  0.17002326338E+04  0.12699999809E+01 0. -1.
</event>
<event>
 5   0  0.4079777E-07  0.3921291E+04  0.7818609E-02  0.8020616E-01
        2   -1    0    0  501    0  0.00000000000E+00  0.00000000000E+00  0.19407561808E+04  0.19407561808E+04  0.25500000920E-02 0.  1.
       -2   -1    0    0    0  501  0.00000000000E+00  0.00000000000E+00 -0.19807385225E+04  0.19807385225E+04  0.25500000920E-02 0. -1.
    10030    2    1    2    0    0  0.00000000000E+00  0.00000000000E+00 -0.39982341729E+02  0.39214947033E+04  0.39212908742E+04 0.  0.
        4    1    3    3  502    0 -0.50611677018E+03 -0.18374257448E+04 -0.48027737324E+03  0.19654402868E+04  0.12699999809E+01 0. -1.
       -4    1    3    3    0  502  0.50611677018E+03  0.18374257448E+04  0.44029503151E+03  0.19560544165E+04  0.12699999809E+01 0.  1.
</event>
<event>
 5   0  0.1351000E-07  0.3995291E+04  0.7818609E-02  0.8005497E-01
       -1   -1    0    0    0  501  0.00000000000E+00  0.00000000000E+00  0.16245764303E+04  0.16245764303E+04  0.50400001928E-02 0.  1.
        1   -1    0    0  501    0  0.00000000000E+00  0.00000000000E+00 -0.24563866176E+04  0.24563866176E+04  0.50400001928E-02 0. -1.
    10030    2    1    2    0    0  0.00000000000E+00  0.00000000000E+00 -0.83181018729E+03  0.40809630480E+04  0.39952911297E+04 0.  0.
        4    1    3    3  502    0  0.51485275756E+03 -0.65047731487E+03  0.14403110654E+04  0.16621346748E+04  0.12699999809E+01 0.  1.
       -4    1    3    3    0  502 -0.51485275756E+03  0.65047731487E+03 -0.22721212527E+04  0.24188283732E+04  0.12699999809E+01 0. -1.
</event>
<event>
 5   0  0.4149487E-07  0.3009229E+04  0.7818609E-02  0.8241100E-01
        2   -1    0    0  501    0  0.00000000000E+00  0.00000000000E+00  0.14824788788E+04  0.14824788788E+04  0.25500000920E-02 0.  1.
       -2   -1    0    0    0  501  0.00000000000E+00  0.00000000000E+00 -0.15270807431E+04  0.15270807431E+04  0.25500000920E-02 0. -1.
    10030    2    1    2    0    0  0.00000000000E+00  0.00000000000E+00 -0.44601864285E+02  0.30095596219E+04  0.30092291025E+04 0.  0.
        2    1    3    3  502    0 -0.83145721681E+03 -0.66623900516E+03  0.10402043062E+04  0.14890334160E+04  0.25500000920E-02 0.  1.
       -2    1    3    3    0  502  0.83145721681E+03  0.66623900516E+03 -0.10848061704E+04  0.15205262059E+04  0.25500000920E-02 0. -1.
</event>
<event>
 5   0  0.4079777E-07  0.4036886E+04  0.7818609E-02  0.7997146E-01
        2   -1    0    0  501    0  0.00000000000E+00  0.00000000000E+00  0.24120650945E+04  0.24120650945E+04  0.25500000920E-02 0.  1.
       -2   -1    0    0    0  501  0.00000000000E+00  0.00000000000E+00 -0.16890559977E+04  0.16890559977E+04  0.25500000920E-02 0. -1.
    10030    2    1    2    0    0  0.00000000000E+00  0.00000000000E+00  0.72300909684E+03  0.41011210923E+04  0.40368864313E+04 0.  0.
        4    1    3    3  502    0  0.11521592640E+03 -0.55016246610E+03 -0.16079391762E+04  0.17033565264E+04  0.12699999809E+01 0. -1.
       -4    1    3    3    0  502 -0.11521592640E+03  0.55016246610E+03  0.23309482730E+04  0.23977645659E+04  0.12699999809E+01 0.  1.
</event>
<event>
 5   0  0.4047916E-07  0.2975229E+04  0.7818609E-02  0.8250840E-01
        2   -1    0    0  501    0  0.00000000000E+00  0.00000000000E+00  0.19042247469E+04  0.19042247469E+04  0.25500000920E-02 0. -1.
       -2   -1    0    0    0  501  0.00000000000E+00  0.00000000000E+00 -0.11621508241E+04  0.11621508241E+04  0.25500000920E-02 0.  1.
    10030    2    1    2    0    0  0.00000000000E+00  0.00000000000E+00  0.74207392284E+03  0.30663755710E+04  0.29752286358E+04 0.  0.
        5    1    3    3  502    0  0.16512616348E+03  0.42153077315E+03 -0.10894206485E+04  0.11797517883E+04  0.46999998093E+01 0.  1.
       -5    1    3    3    0  502 -0.16512616348E+03 -0.42153077315E+03  0.18314945713E+04  0.18866237827E+04  0.46999998093E+01 0. -1.
</event>
<event>
 5   0  0.4047916E-07  0.3885429E+04  0.7818609E-02  0.8028066E-01
        2   -1    0    0  501    0  0.00000000000E+00  0.00000000000E+00  0.16399629255E+04  0.16399629255E+04  0.25500000920E-02 0.  1.
       -2   -1    0    0    0  501  0.00000000000E+00  0.00000000000E+00 -0.23013570177E+04  0.23013570177E+04  0.25500000920E-02 0. -1.
    10030    2    1    2    0    0  0.00000000000E+00  0.00000000000E+00 -0.66139409226E+03  0.39413199432E+04  0.38854292876E+04 0.  0.
        5    1    3    3  502    0  0.69976413384E+02  0.19092726186E+04 -0.68775392150E+03  0.20305777939E+04  0.46999998093E+01 0. -1.
       -5    1    3    3    0  502 -0.69976413384E+02 -0.19092726186E+04  0.26359829243E+02  0.19107421493E+04  0.46999998093E+01 0.  1.
</event>
<event>
 5   0  0.4077370E-07  0.3981304E+04  0.7818609E-02  0.8008329E-01
        2   -1    0    0  501    0  0.00000000000E+00  0.00000000000E+00  0.28236097040E+04  0.28236097040E+04  0.25500000920E-02 0.  1.
       -2   -1    0    0    0  501  0.00000000000E+00  0.00000000000E+00 -0.14034149292E+04  0.14034149292E+04  0.25500000920E-02 0. -1.
    10030    2    1    2    0    0  0.00000000000E+00  0.00000000000E+00  0.14201947748E+04  0.42270246332E+04  0.39813043154E+04 0.  0.
        3    1    3    3  502    0 -0.16404430585E+03  0.16749227908E+04 -0.41873419119E+03  0.17342477396E+04  0.10100000352E+00 0. -1.
       -3    1    3    3    0  502  0.16404430585E+03 -0.16749227908E+04  0.18389289659E+04  0.24927768936E+04  0.10100000352E+00 0.  1.
</event>
<event>
 5   0  0.1368865E-07  0.3956833E+04  0.7818609E-02  0.8013312E-01
        1   -1    0    0  501    0  0.00000000000E+00  0.00000000000E+00  0.18352933526E+04  0.18352933526E+04  0.50400001928E-02 0. -1.
       -1   -1    0    0    0  501  0.00000000000E+00  0.00000000000E+00 -0.21327009376E+04  0.21327009376E+04  0.50400001928E-02 0.  1.
    10030    2    1    2    0    0  0.00000000000E+00  0.00000000000E+00 -0.29740758501E+03  0.39679942903E+04  0.39568330033E+04 0.  0.
        5    1    3    3  502    0 -0.16013279385E+03 -0.15151316706E+04  0.11169351816E+04  0.18891354585E+04  0.46999998093E+01 0. -1.
       -5    1    3    3    0  502  0.16013279385E+03  0.15151316706E+04 -0.14143427666E+04  0.20788588317E+04  0.46999998093E+01 0.  1.
</event>
<event>
 5   0  0.1421304E-07  0.2798060E+04  0.7818609E-02  0.8303871E-01
        1   -1    0    0  501    0  0.00000000000E+00  0.00000000000E+00  0.13495422154E+04  0.13495422154E+04  0.50400001928E-02 0.  1.
       -1   -1    0    0    0  501  0.00000000000E+00  0.00000000000E+00 -0.14503324698E+04  0.14503324698E+04  0.50400001928E-02 0. -1.
    10030    2    1    2    0    0  0.00000000000E+00  0.00000000000E+00 -0.10079025442E+03  0.27998746851E+04  0.27980599667E+04 0.  0.
        2    1    3    3  502    0  0.13779091028E+04  0.23076028768E+03 -0.12393488840E+03  0.14025846365E+04  0.25500000920E-02 0. -1.
       -2    1    3    3    0  502 -0.13779091028E+04 -0.23076028768E+03  0.23144633980E+02  0.13972900486E+04  0.25500000920E-02 0.  1.
</event>
<event>
 5   0  0.4301754E-07  0.3980620E+04  0.7818609E-02  0.8008467E-01
        2   -1    0    0  501    0  0.00000000000E+00  0.00000000000E+00  0.15072515982E+04  0.15072515982E+04  0.25500000920E-02 0.  1.
       -2   -1    0    0    0  501  0.00000000000E+00  0.00000000000E+00 -0.26281841025E+04  0.26281841025E+04  0.25500000920E-02 0. -1.
    10030    2    1    2    0    0  0.00000000000E+00  0.00000000000E+00 -0.11209325044E+04  0.41354357007E+04  0.39806203983E+04 0.  0.
        1    1    3    3  502    0 -0.17625633662E+04 -0.54700978597E+03 -0.13347619002E+04  0.22775949280E+04  0.50400001928E-02 0. -1.
       -1    1    3    3    0  502  0.17625633662E+04  0.54700978597E+03  0.21382939584E+03  0.18578407726E+04  0.50400001928E-02 0.  1.
</event>
<event>
 5   0  0.1351000E-07  0.3665500E+04  0.7818609E-02  0.8075651E-01
        1   -1    0    0  501    0  0.00000000000E+00  0.00000000000E+00  0.27393981799E+04  0.27393981799E+04  0.50400001928E-02 0.  1.
       -1   -1    0    0    0  501  0.00000000000E+00  0.00000000000E+00 -0.12261720298E+04  0.12261720298E+04  0.50400001928E-02 0. -1.
    10030    2    1    2    0    0  0.00000000000E+00  0.00000000000E+00  0.15132261501E+04  0.39655702097E+04  0.36655004715E+04 0.  0.
        4    1    3    3  502    0 -0.15103956956E+03 -0.17694993956E+03 -0.12101320440E+04  0.12322927450E+04  0.12699999809E+01 0. -1.
       -4    1    3    3    0  502  0.15103956956E+03  0.17694993956E+03  0.27233581941E+04  0.27332774647E+04  0.12699999809E+01 0.  1.
</event>
<event>
 5   0  0.4077370E-07  0.3736760E+04  0.7818609E-02  0.8059864E-01
        2   -1    0    0  501    0  0.00000000000E+00  0.00000000000E+00  0.20960014127E+04  0.20960014127E+04  0.25500000920E-02 0. -1.
       -2   -1    0    0    0  501  0.00000000000E+00  0.00000000000E+00 -0.16654774963E+04  0.16654774963E+04  0.25500000920E-02 0.  1.
    10030    2    1    2    0    0  0.00000000000E+00  0.00000000000E+00  0.43052391635E+03  0.37614789090E+04  0.37367596578E+04 0.  0.
        3    1    3    3  502    0  0.14053416809E+04  0.11888697531E+04 -0.10692824874E+03  0.18438628448E+04  0.10100000352E+00 0.  1.
       -3    1    3    3    0  502 -0.14053416809E+04 -0.11888697531E+04  0.53745216509E+03  0.19176160642E+04  0.10100000352E+00 0. -1.
</event>
<event>
 5   0  0.1368865E-07  0.3627077E+04  0.7818609E-02  0.8084317E-01
       -1   -1    0    0    0  501  0.00000000000E+00  0.00000000000E+00  0.27190149065E+04  0.27190149065E+04  0.50400001928E-02 0.  1.
        1   -1    0    0  501    0  0.00000000000E+00  0.00000000000E+00 -0.12096006113E+04  0.12096006113E+04  0.50400001928E-02 0. -1.
    10030    2    1    2    0    0  0.00000000000E+00  0.00000000000E+00  0.15094142952E+04  0.39286155178E+04  0.36270771114E+04 0.  0.
        5    1    3    3  502    0  0.17648886551E+04  0.35600392777E+03  0.99034633237E+03  0.20548427457E+04  0.46999998093E+01 0.  1.
       -5    1    3    3    0  502 -0.17648886551E+04 -0.35600392777E+03  0.51906796288E+03  0.18737727721E+04  0.46999998093E+01 0. -1.
</event>
<event>
 5   0  0.1351000E-07  0.3964083E+04  0.7818609E-02  0.8011832E-01
        1   -1    0    0  501    0  0.00000000000E+00  0.00000000000E+00  0.24869391273E+04  0.24869391273E+04  0.50400001928E-02 0. -1.
       -1   -1    0    0    0  501  0.00000000000E+00  0.00000000000E+00 -0.15796478410E+04  0.15796478410E+04  0.50400001928E-02 0.  1.
    10030    2    1    2    0    0  0.00000000000E+00  0.00000000000E+00  0.90729128629E+03  0.40665869683E+04  0.39640827555E+04 0.  0.
        3    1    3    3  502    0 -0.10553211061E+04 -0.14113590725E+04 -0.47692197992E+03  0.18256756704E+04  0.10100000352E+00 0.  1.
       -3    1    3    3    0  502  0.10553211061E+04  0.14113590725E+04  0.13842132662E+04  0.22409112979E+04  0.10100000352E+00 0. -1.
</event>
<event>
 5   0  0.1351000E-07  0.3948868E+04  0.7818609E-02  0.8014942E-01
        3   -1    0    0  501    0  0.00000000000E+00  0.00000000000E+00  0.25242946414E+04  0.25242946434E+04  0.10100000352E+00 0.  1.
       -3   -1    0    0    0  501  0.00000000000E+00  0.00000000000E+00 -0.15443483070E+04  0.15443483103E+04  0.10100000352E+00 0. -1.
    10030    2    1    2    0    0  0.00000000000E+00  0.00000000000E+00  0.97994633442E+03  0.40686429538E+04  0.39488682767E+04 0.  0.
        3    1    3    3  502    0 -0.76480039448E+02 -0.19582250448E+04  0.24205985963E+03  0.19746107233E+04  0.10100000352E+00 0. -1.
       -3    1    3    3    0  502  0.76480039448E+02  0.19582250448E+04  0.73788647479E+03  0.20940322305E+04  0.10100000352E+00 0.  1.
</event>
<event>
 5   0  0.4149487E-07  0.2654246E+04  0.7818609E-02  0.8350005E-01
       -2   -1    0    0    0  501  0.00000000000E+00  0.00000000000E+00  0.13197235618E+04  0.13197235618E+04  0.25500000920E-02 0.  1.
        2   -1    0    0  501    0  0.00000000000E+00  0.00000000000E+00 -0.13345637680E+04  0.13345637680E+04  0.25500000920E-02 0. -1.
    10030    2    1    2    0    0  0.00000000000E+00  0.00000000000E+00 -0.14840206269E+02  0.26542873298E+04  0.26542458435E+04 0.  0.
        2    1    3    3  502    0 -0.96383813925E+03 -0.84557304883E+03  0.33504329046E+03  0.13252289410E+04  0.25500000920E-02 0.  1.
       -2    1    3    3    0  502  0.96383813925E+03  0.84557304883E+03 -0.34988349673E+03  0.13290583888E+04  0.25500000920E-02 0. -1.
</event>
<event>
 5   0  0.4047916E-07  0.3009026E+04  0.7818609E-02  0.8241158E-01
        2   -1    0    0  501    0  0.00000000000E+00  0.00000000000E+00  0.14739744362E+04  0.14739744362E+04  0.25500000920E-02 0. -1.
       -2   -1    0    0    0  501  0.00000000000E+00  0.00000000000E+00 -0.15356843529E+04  0.15356843529E+04  0.25500000920E-02 0.  1.
    10030    2    1    2    0    0  0.00000000000E+00  0.00000000000E+00 -0.61709916704E+02  0.30096587890E+04  0.30090260738E+04 0.  0.
        5    1    3    3  502    0  0.33414274668E+03 -0.94380678865E+03  0.10923748355E+04  0.14817987383E+04  0.46999998093E+01 0. -1.
       -5    1    3    3    0  502 -0.33414274668E+03  0.94380678865E+03 -0.11540847522E+04  0.15278600508E+04  0.46999998093E+01 0.  1.
</event>
<event>
 5   0  0.1351000E-07  0.3959610E+04  0.7818609E-02  0.8012744E-01
       -1   -1    0    0    0  501  0.00000000000E+00  0.00000000000E+00  0.28156131092E+04  0.28156131092E+04  0.50400001928E-02 0. -1.
        1   -1    0    0  501    0  0.00000000000E+00  0.00000000000E+00 -0.13921045444E+04  0.13921045444E+04  0.50400001928E-02 0.  1.
    10030    2    1    2    0    0  0.00000000000E+00  0.00000000000E+00  0.14235085648E+04  0.42077176537E+04  0.39596099832E+04 0.  0.
        4    1    3    3  502    0  0.18944288514E+04  0.76343358312E+02  0.13175049529E+04  0.23087897035E+04  0.12699999809E+01 0. -1.
       -4    1    3    3    0  502 -0.18944288514E+04 -0.76343358312E+02  0.10600361188E+03  0.18989279501E+04  0.12699999809E+01 0.  1.
</event>
<event>
 5   0  0.4079777E-07  0.3999228E+04  0.7818609E-02  0.8004702E-01
       -2   -1    0    0    0  501  0.00000000000E+00  0.00000000000E+00  0.15010967428E+04  0.15010967428E+04  0.25500000920E-02 0.  1.
        2   -1    0    0  501    0  0.00000000000E+00  0.00000000000E+00 -0.26636895809E+04  0.26636895809E+04  0.25500000920E-02 0. -1.
    10030    2    1    2    0    0  0.00000000000E+00  0.00000000000E+00 -0.11625928381E+04  0.41647863237E+04  0.39992278023E+04 0.  0.
        4    1    3    3  502    0  0.75993017714E+03 -0.12310441429E+03 -0.25031774814E+04  0.26188829083E+04  0.12699999809E+01 0. -1.
       -4    1    3    3    0  502 -0.75993017714E+03  0.12310441429E+03  0.13405846433E+04  0.15459034154E+04  0.12699999809E+01 0.  1.
</event>
<event>
 5   0  0.1368865E-07  0.4214024E+04  0.7818609E-02  0.7962710E-01
        1   -1    0    0  501    0  0.00000000000E+00  0.00000000000E+00  0.19049633378E+04  0.19049633378E+04  0.50400001928E-02 0.  1.
       -1   -1    0    0    0  501  0.00000000000E+00  0.00000000000E+00 -0.23304913415E+04  0.23304913415E+04  0.50400001928E-02 0. -1.
    10030    2    1    2    0    0  0.00000000000E+00  0.00000000000E+00 -0.42552800366E+03  0.42354546793E+04  0.42140244729E+04 0.  0.
        5    1    3    3  502    0 -0.10957070283E+04  0.46546014843E+03 -0.19600672396E+04  0.22932755428E+04  0.46999998093E+01 0. -1.
       -5    1    3    3    0  502  0.10957070283E+04 -0.46546014843E+03  0.15345392359E+04  0.19421791365E+04  0.46999998093E+01 0.  1.
</event>
<event>
 5   0  0.4149487E-07  0.3998714E+04  0.7818609E-02  0.8004806E-01
       -2   -1    0    0    0  501  0.00000000000E+00  0.00000000000E+00  0.15349621800E+04  0.15349621800E+04  0.25500000920E-02 0. -1.
        2   -1    0    0  501    0  0.00000000000E+00  0.00000000000E+00 -0.26042526542E+04  0.26042526542E+04  0.25500000920E-02 0.  1.
    10030    2    1    2    0    0  0.00000000000E+00  0.00000000000E+00 -0.10692904742E+04  0.41392148342E+04  0.39987144591E+04 0.  0.
        2    1    3    3  502    0 -0.14913834275E+04 -0.13125078442E+04 -0.30196287329E+03  0.20094981826E+04  0.25500000920E-02 0. -1.
       -2    1    3    3    0  502  0.14913834275E+04  0.13125078442E+04 -0.76732760086E+03  0.21297166516E+04  0.25500000920E-02 0.  1.
</event>
<event>
 5   0  0.4077370E-07  0.2962833E+04  0.7818609E-02  0.8254424E-01
       -2   -1    0    0    0  501  0.00000000000E+00  0.00000000000E+00  0.11365436924E+04  0.11365436924E+04  0.25500000920E-02 0. -1.
        2   -1    0    0  501    0  0.00000000000E+00  0.00000000000E+00 -0.19309378009E+04  0.19309378009E+04  0.25500000920E-02 0.  1.
    10030    2    1    2    0    0  0.00000000000E+00  0.00000000000E+00 -0.79439410853E+03  0.30674814933E+04  0.29628332238E+04 0.  0.
        3    1    3    3  502    0  0.79292494972E+03  0.12361350733E+04 -0.19581388195E+03  0.14815879933E+04  0.10100000352E+00 0.  1.
       -3    1    3    3    0  502 -0.79292494972E+03 -0.12361350733E+04 -0.59858022657E+03  0.15858935000E+04  0.10100000352E+00 0. -1.
</event>
<event>
 5   0  0.1421304E-07  0.4029832E+04  0.7818609E-02  0.7998555E-01
        1   -1    0    0  501    0  0.00000000000E+00  0.00000000000E+00  0.19029765873E+04  0.19029765873E+04  0.50400001928E-02 0.  1.
       -1   -1    0    0    0  501  0.00000000000E+00  0.00000000000E+00 -0.21334399843E+04  0.21334399843E+04  0.50400001928E-02 0. -1.
    10030    2    1    2    0    0  0.00000000000E+00  0.00000000000E+00 -0.23046339695E+03  0.40364165716E+04  0.40298319273E+04 0.  0.
        2    1    3    3  502    0 -0.24076865473E+03  0.97297717302E+03 -0.18660100165E+04  0.21181707925E+04  0.25500000920E-02 0. -1.
       -2    1    3    3    0  502  0.24076865473E+03 -0.97297717302E+03  0.16355466196E+04  0.19182457791E+04  0.25500000920E-02 0.  1.
</event>
<event>
 5   0  0.1368865E-07  0.4002175E+04  0.7818609E-02  0.8004108E-01
       -1   -1    0    0    0  501  0.00000000000E+00  0.00000000000E+00  0.20038450455E+04  0.20038450455E+04  0.50400001928E-02 0. -1.
        1   -1    0    0  501    0  0.00000000000E+00  0.00000000000E+00 -0.19983333248E+04  0.19983333248E+04  0.50400001928E-02 0.  1.
    10030    2    1    2    0    0  0.00000000000E+00  0.00000000000E+00  0.55117207159E+01  0.40021783703E+04  0.40021745750E+04 0.  0.
        5    1    3    3  502    0  0.41522388499E+03  0.79958891929E+03 -0.17840236400E+04  0.19986284679E+04  0.46999998093E+01 0.  1.
       -5    1    3    3    0  502 -0.41522388499E+03 -0.79958891929E+03  0.17895353607E+04  0.20035499025E+04  0.46999998093E+01 0. -1.
</event>
<event>
 5   0  0.4077370E-07  0.4040358E+04  0.7818609E-02  0.7996454E-01
        2   -1    0    0  501    0  0.00000000000E+00  0.00000000000E+00  0.18368438920E+04  0.18368438920E+04  0.25500000920E-02 0.  1.
       -2   -1    0    0    0  501  0.00000000000E+00  0.00000000000E+00 -0.22218125164E+04  0.22218125164E+04  0.25500000920E-02 0. -1.
    10030    2    1    2    0    0  0.00000000000E+00  0.00000000000E+00 -0.38496862446E+03  0.40586564084E+04  0.40403577812E+04 0.  0.
        3    1    3    3  502    0 -0.17625766946E+04  0.47817040427E+03 -0.10599921738E+04  0.21116124073E+04  0.10100000352E+00 0. -1.
       -3    1    3    3    0  502  0.17625766946E+04 -0.47817040427E+03  0.67502354935E+03  0.19470440011E+04  0.10100000352E+00 0.  1.
</event>
<event>
 5   0  0.4077370E-07  0.2533717E+04  0.7818609E-02  0.8391071E-01
       -2   -1    0    0    0  501  0.00000000000E+00  0.00000000000E+00  0.65677061141E+03  0.65677061142E+03  0.25500000920E-02 0. -1.
        2   -1    0    0  501    0  0.00000000000E+00  0.00000000000E+00 -0.24436696713E+04  0.24436696713E+04  0.25500000920E-02 0.  1.
    10030    2    1    2    0    0  0.00000000000E+00  0.00000000000E+00 -0.17868990599E+04  0.31004402828E+04  0.25337169725E+04 0.  0.
        3    1    3    3  502    0 -0.34727546560E+03 -0.10990149580E+04 -0.25000676467E+03  0.11793801420E+04  0.10100000352E+00 0. -1.
       -3    1    3    3    0  502  0.34727546560E+03  0.10990149580E+04 -0.15368922953E+04  0.19210601407E+04  0.10100000352E+00 0.  1.
</event>
<event>
 5   0  0.4149487E-07  0.4018370E+04  0.7818609E-02  0.8000851E-01
       -2   -1    0    0    0  501  0.00000000000E+00  0.00000000000E+00  0.21739199398E+04  0.21739199398E+04  0.25500000920E-02 0.  1.
        2   -1    0    0  501    0  0.00000000000E+00  0.00000000000E+00 -0.18569332735E+04  0.18569332735E+04  0.25500000920E-02 0. -1.
    10030    2    1    2    0    0  0.00000000000E+00  0.00000000000E+00  0.31698666628E+03  0.40308532133E+04  0.40183699532E+04 0.  0.
        2    1    3    3  502    0 -0.13982347537E+04 -0.30268585340E+03 -0.12566141849E+04  0.19041424217E+04  0.25500000920E-02 0. -1.
       -2    1    3    3    0  502  0.13982347537E+04  0.30268585340E+03  0.15736008512E+04  0.21267107916E+04  0.25500000920E-02 0.  1.
</event>
<event>
 5   0  0.1372952E-07  0.4086510E+04  0.7818609E-02  0.7987319E-01
        1   -1    0    0  501    0  0.00000000000E+00  0.00000000000E+00  0.21131970624E+04  0.21131970624E+04  0.50400001928E-02 0. -1.
       -1   -1    0    0    0  501  0.00000000000E+00  0.00000000000E+00 -0.19756274565E+04  0.19756274565E+04  0.50400001928E-02 0.  1.
    10030    2    1    2    0    0  0.00000000000E+00  0.00000000000E+00  0.13756960589E+03  0.40888245189E+04  0.40865095803E+04 0.  0.
        1    1    3    3  502    0 -0.19860437092E+04 -0.13377700055E+03  0.53015797187E+03  0.20599352844E+04  0.50400001928E-02 0.  1.
       -1    1    3    3    0  502  0.19860437092E+04  0.13377700055E+03 -0.39258836598E+03  0.20288892345E+04  0.50400001928E-02 0. -1.
</event>
<event>
 5   0  0.4079777E-07  0.2449250E+04  0.7818609E-02  0.8421292E-01
        2   -1    0    0  501    0  0.00000000000E+00  0.00000000000E+00  0.23333159871E+04  0.23333159871E+04  0.25500000920E-02 0. -1.
       -2   -1    0    0    0  501  0.00000000000E+00  0.00000000000E+00 -0.64273613147E+03  0.64273613147E+03  0.25500000920E-02 0.  1.
    10030    2    1    2    0    0  0.00000000000E+00  0.00000000000E+00  0.16905798557E+04  0.29760521186E+04  0.24492500820E+04 0.  0.
        4    1    3    3  502    0  0.15090661717E+03  0.45771522380E+03  0.22132366867E+04  0.22651035909E+04  0.12699999809E+01 0. -1.
       -4    1    3    3    0  502 -0.15090661717E+03 -0.45771522380E+03 -0.52265683101E+03  0.71094852774E+03  0.12699999809E+01 0.  1.
</event>
<event>
 5   0  0.4077370E-07  0.4065290E+04  0.7818609E-02  0.7991504E-01
        2   -1    0    0  501    0  0.00000000000E+00  0.00000000000E+00  0.19979348122E+04  0.19979348122E+04  0.25500000920E-02 0.  1.
       -2   -1    0    0    0  501  0.00000000000E+00  0.00000000000E+00 -0.20679580385E+04  0.20679580385E+04  0.25500000920E-02 0. -1.
    10030    2    1    2    0    0  0.00000000000E+00  0.00000000000E+00 -0.70023226235E+02  0.40658928507E+04  0.40652898324E+04 0.  0.
        3    1    3    3  502    0 -0.10641860034E+04 -0.10196182844E+04 -0.14350521199E+04  0.20570580674E+04  0.10100000352E+00 0. -1.
       -3    1    3    3    0  502  0.10641860034E+04  0.10196182844E+04  0.13650288937E+04  0.20088347833E+04  0.10100000352E+00 0.  1.
</event>
<event>
 5   0  0.1421304E-07  0.3988479E+04  0.7818609E-02  0.8006875E-01
        1   -1    0    0  501    0  0.00000000000E+00  0.00000000000E+00  0.26664097304E+04  0.26664097304E+04  0.50400001928E-02 0. -1.
       -1   -1    0    0    0  501  0.00000000000E+00  0.00000000000E+00 -0.14915151555E+04  0.14915151555E+04  0.50400001928E-02 0.  1.
    10030    2    1    2    0    0  0.00000000000E+00  0.00000000000E+00  0.11748945749E+04  0.41579248860E+04  0.39884786693E+04 0.  0.
        2    1    3    3  502    0  0.12051194190E+04  0.28249753166E+03  0.22174844467E+04  0.25395580208E+04  0.25500000920E-02 0. -1.
       -2    1    3    3    0  502 -0.12051194190E+04 -0.28249753166E+03 -0.10425898718E+04  0.16183668652E+04  0.25500000920E-02 0.  1.
</event>
<event>
 5   0  0.1372952E-07  0.3579207E+04  0.7818609E-02  0.8095271E-01
       -1   -1    0    0    0  501  0.00000000000E+00  0.00000000000E+00  0.18038294894E+04  0.18038294894E+04  0.50400001928E-02 0.  1.
        1   -1    0    0  501    0  0.00000000000E+00  0.00000000000E+00 -0.17754895348E+04  0.17754895348E+04  0.50400001928E-02 0. -1.
    10030    2    1    2    0    0  0.00000000000E+00  0.00000000000E+00  0.28339954644E+02  0.35793190242E+04  0.35792068289E+04 0.  0.
        1    1    3    3  502    0 -0.13490387943E+04 -0.68315931741E+02 -0.11597951178E+04  0.17803644151E+04  0.50400001928E-02 0. -1.
       -1    1    3    3    0  502  0.13490387943E+04  0.68315931741E+02  0.11881350725E+04  0.17989546091E+04  0.50400001928E-02 0.  1.
</event>
<event>
 5   0  0.4301754E-07  0.3991822E+04  0.7818609E-02  0.8006198E-01
       -2   -1    0    0    0  501  0.00000000000E+00  0.00000000000E+00  0.14855060322E+04  0.14855060322E+04  0.25500000920E-02 0.  1.
        2   -1    0    0  501    0  0.00000000000E+00  0.00000000000E+00 -0.26816864755E+04  0.26816864755E+04  0.25500000920E-02 0. -1.
    10030    2    1    2    0    0  0.00000000000E+00  0.00000000000E+00 -0.11961804433E+04  0.41671925077E+04  0.39918223586E+04 0.  0.
        1    1    3    3  502    0 -0.13087230049E+04  0.13185703282E+04 -0.13597158383E+04  0.23022186635E+04  0.50400001928E-02 0. -1.
       -1    1    3    3    0  502  0.13087230049E+04 -0.13185703282E+04  0.16353539499E+03  0.18649738441E+04  0.50400001928E-02 0.  1.
</event>
<event>
 5   0  0.1368865E-07  0.3893802E+04  0.7818609E-02  0.8026319E-01
       -1   -1    0    0    0  501  0.00000000000E+00  0.00000000000E+00  0.17049458537E+04  0.17049458537E+04  0.50400001928E-02 0.  1.
        1   -1    0    0  501    0  0.00000000000E+00  0.00000000000E+00 -0.22231932747E+04  0.22231932747E+04  0.50400001928E-02 0. -1.
    10030    2    1    2    0    0  0.00000000000E+00  0.00000000000E+00 -0.51824742099E+03  0.39281391284E+04  0.38938023348E+04 0.  0.
        5    1    3    3  502    0  0.89168921860E+03  0.13099113022E+04  0.88196744642E+03  0.18135230765E+04  0.46999998093E+01 0.  1.
       -5    1    3    3    0  502 -0.89168921860E+03 -0.13099113022E+04 -0.14002148674E+04  0.21146160520E+04  0.46999998093E+01 0. -1.
</event>
<event>
 5   0  0.1351000E-07  0.3988028E+04  0.7818609E-02  0.8006966E-01
       -1   -1    0    0    0  501  0.00000000000E+00  0.00000000000E+00  0.13690861655E+04  0.13690861655E+04  0.50400001928E-02 0.  1.
        1   -1    0    0  501    0  0.00000000000E+00  0.00000000000E+00 -0.29041938584E+04  0.29041938584E+04  0.50400001928E-02 0. -1.
    10030    2    1    2    0    0  0.00000000000E+00  0.00000000000E+00 -0.15351076929E+04  0.42732800239E+04  0.39880279004E+04 0.  0.
        4    1    3    3  502    0  0.19861796926E+04  0.58431323722E+02 -0.94610392925E+03  0.22007812815E+04  0.12699999809E+01 0. -1.
       -4    1    3    3    0  502 -0.19861796926E+04 -0.58431323722E+02 -0.58900376362E+03  0.20724987425E+04  0.12699999809E+01 0.  1.
</event>
<event>
 5   0  0.4077370E-07  0.4047727E+04  0.7818609E-02  0.7994987E-01
        2   -1    0    0  501    0  0.00000000000E+00  0.00000000000E+00  0.23830154654E+04  0.23830154654E+04  0.25500000920E-02 0. -1.
       -2   -1    0    0    0  501  0.00000000000E+00  0.00000000000E+00 -0.17188404560E+04  0.17188404560E+04  0.25500000920E-02 0.  1.
    10030    2    1    2    0    0  0.00000000000E+00  0.00000000000E+00  0.66417500946E+03  0.41018559214E+04  0.40477269617E+04 0.  0.
        3    1    3    3  502    0 -0.17794606863E+04 -0.89720208072E+03 -0.25579179826E+02  0.19930143533E+04  0.10100000352E+00 0. -1.
       -3    1    3    3    0  502  0.17794606863E+04  0.89720208072E+03  0.68975418929E+03  0.21088415681E+04  0.10100000352E+00 0.  1.
</event>
<event>
 5   0  0.1351000E-07  0.3937334E+04  0.7818609E-02  0.8017309E-01
       -1   -1    0    0    0  501  0.00000000000E+00  0.00000000000E+00  0.13388824397E+04  0.13388824397E+04  0.50400001928E-02 0. -1.
        1   -1    0    0  501    0  0.00000000000E+00  0.00000000000E+00 -0.28946907869E+04  0.28946907869E+04  0.50400001928E-02 0.  1.
    10030    2    1    2    0    0  0.00000000000E+00  0.00000000000E+00 -0.15558083472E+04  0.42335732266E+04  0.39373344603E+04 0.  0.
        4    1    3    3  502    0  0.14085194850E+04  0.13515048561E+04 -0.10523671426E+04  0.22176498216E+04  0.12699999809E+01 0.  1.
       -4    1    3    3    0  502 -0.14085194850E+04 -0.13515048561E+04 -0.50344120457E+03  0.20159234050E+04  0.12699999809E+01 0. -1.
</event>
<event>
 5   0  0.1372952E-07  0.3973233E+04  0.7818609E-02  0.8009968E-01
       -1   -1    0    0    0  501  0.00000000000E+00  0.00000000000E+00  0.12117784674E+04  0.12117784674E+04  0.50400001928E-02 0.  1.
        1   -1    0    0  501    0  0.00000000000E+00  0.00000000000E+00 -0.32569026864E+04  0.32569026864E+04  0.50400001928E-02 0. -1.
    10030    2    1    2    0    0  0.00000000000E+00  0.00000000000E+00 -0.20451242191E+04  0.44686811538E+04  0.39732327119E+04 0.  0.
        1    1    3    3  502    0 -0.10861774870E+04  0.15779582086E+04 -0.16144035826E+04  0.25052011035E+04  0.50400001928E-02 0. -1.
       -1    1    3    3    0  502  0.10861774870E+04 -0.15779582086E+04 -0.43072063649E+03  0.19634800503E+04  0.50400001928E-02 0.  1.
</event>
<event>
 5   0  0.1421304E-07  0.4035559E+04  0.7818609E-02  0.7997411E-01
        1   -1    0    0  501    0  0.00000000000E+00  0.00000000000E+00  0.22417757173E+04  0.22417757173E+04  0.50400001928E-02 0. -1.
       -1   -1    0    0    0  501  0.00000000000E+00  0.00000000000E+00 -0.18161649001E+04  0.18161649001E+04  0.50400001928E-02 0.  1.
    10030    2    1    2    0    0  0.00000000000E+00  0.00000000000E+00  0.42561081720E+03  0.40579406175E+04  0.40355591295E+04 0.  0.
        2    1    3    3  502    0  0.93188409530E+03 -0.38526148767E+03 -0.15446290822E+04  0.18446445139E+04  0.25500000920E-02 0.  1.
       -2    1    3    3    0  502 -0.93188409530E+03  0.38526148767E+03  0.19702398994E+04  0.22132961036E+04  0.25500000920E-02 0. -1.
</event>
<event>
 5   0  0.4301754E-07  0.4059316E+04  0.7818609E-02  0.7992686E-01
       -2   -1    0    0    0  501  0.00000000000E+00  0.00000000000E+00  0.15127586907E+04  0.15127586907E+04  0.25500000920E-02 0.  1.
        2   -1    0    0  501    0  0.00000000000E+00  0.00000000000E+00 -0.27231786456E+04  0.27231786456E+04  0.25500000920E-02 0. -1.
    10030    2    1    2    0    0  0.00000000000E+00  0.00000000000E+00 -0.12104199549E+04  0.42359373363E+04  0.40593162786E+04 0.  0.
        1    1    3    3  502    0  0.32151844788E+02 -0.64666619987E+03  0.14021033935E+04  0.15443784644E+04  0.50400001928E-02 0.  1.
       -1    1    3    3    0  502 -0.32151844788E+02  0.64666619987E+03 -0.26125233484E+04  0.26915588719E+04  0.50400001928E-02 0. -1.
</event>
<event>
 5   0  0.1351000E-07  0.4007326E+04  0.7818609E-02  0.8003070E-01
       -3   -1    0    0    0  501  0.00000000000E+00  0.00000000000E+00  0.14570449306E+04  0.14570449341E+04  0.10100000352E+00 0. -1.
        3   -1    0    0  501    0  0.00000000000E+00  0.00000000000E+00 -0.27553483839E+04  0.27553483858E+04  0.10100000352E+00 0.  1.
    10030    2    1    2    0    0  0.00000000000E+00  0.00000000000E+00 -0.12983034533E+04  0.42123933198E+04  0.40073264933E+04 0.  0.
        3    1    3    3  502    0  0.63896477059E+03  0.44777530364E+03  0.12907929707E+04  0.15082855180E+04  0.10100000352E+00 0. -1.
       -3    1    3    3    0  502 -0.63896477059E+03 -0.44777530364E+03 -0.25890964240E+04  0.27041078018E+04  0.10100000352E+00 0.  1.
</event>
<event>
 5   0  0.4077370E-07  0.3899067E+04  0.7818609E-02  0.8025223E-01
        2   -1    0    0  501    0  0.00000000000E+00  0.00000000000E+00  0.19997269485E+04  0.19997269485E+04  0.25500000920E-02 0. -1.
       -2   -1    0    0    0  501  0.00000000000E+00  0.00000000000E+00 -0.19005999625E+04  0.19005999625E+04  0.25500000920E-02 0.  1.
    10030    2    1    2    0    0  0.00000000000E+00  0.00000000000E+00  0.99126986008E+02  0.39003269110E+04  0.38990670491E+04 0.  0.
        3    1    3    3  502    0  0.83379060346E+03 -0.10476726174E+04 -0.13678828133E+04  0.19141389931E+04  0.10100000352E+00 0.  1.
       -3    1    3    3    0  502 -0.83379060346E+03  0.10476726174E+04  0.14670097993E+04  0.19861879179E+04  0.10100000352E+00 0. -1.
</event>
<event>
 5   0  0.4149487E-07  0.4005534E+04  0.7818609E-02  0.8003431E-01
       -2   -1    0    0    0  501  0.00000000000E+00  0.00000000000E+00  0.28579517416E+04  0.28579517416E+04  0.25500000920E-02 0.  1.
        2   -1    0    0  501    0  0.00000000000E+00  0.00000000000E+00 -0.14034792743E+04  0.14034792743E+04  0.25500000920E-02 0. -1.
    10030    2    1    2    0    0  0.00000000000E+00  0.00000000000E+00  0.14544724673E+04  0.42614310159E+04  0.40055341897E+04 0.  0.
        2    1    3    3  502    0  0.21552173160E+03 -0.19733982968E+04  0.10093678036E+04  0.22270100623E+04  0.25500000920E-02 0. -1.
       -2    1    3    3    0  502 -0.21552173160E+03  0.19733982968E+04  0.44510466371E+03  0.20344209536E+04  0.25500000920E-02 0.  1.
</event>
<event>
 5   0  0.4079777E-07  0.3959512E+04  0.7818609E-02  0.8012764E-01
        2   -1    0    0  501    0  0.00000000000E+00  0.00000000000E+00  0.23485134171E+04  0.23485134171E+04  0.25500000920E-02 0. -1.
       -2   -1    0    0    0  501  0.00000000000E+00  0.00000000000E+00 -0.16688999782E+04  0.16688999782E+04  0.25500000920E-02 0.  1.
    10030    2    1    2    0    0  0.00000000000E+00  0.00000000000E+00  0.67961343889E+03  0.40174133953E+04  0.39595120864E+04 0.  0.
        4    1    3    3  502    0 -0.13434716654E+04 -0.43579208519E+03 -0.10677803305E+04  0.17705895358E+04  0.12699999809E+01 0.  1.
       -4    1    3    3    0  502  0.13434716654E+04  0.43579208519E+03  0.17473937694E+04  0.22468238595E+04  0.12699999809E+01 0. -1.
</event>
<event>
 5   0  0.4077370E-07  0.3381195E+04  0.7818609E-02  0.8142537E-01
        2   -1    0    0  501    0  0.00000000000E+00  0.00000000000E+00  0.18591801148E+04  0.18591801148E+04  0.25500000920E-02 0. -1.
       -2   -1    0    0    0  501  0.00000000000E+00  0.00000000000E+00 -0.15373011806E+04  0.15373011806E+04  0.25500000920E-02 0.  1.
    10030    2    1    2    0    0  0.00000000000E+00  0.00000000000E+00  0.32187893416E+03  0.33964812954E+04  0.33811949281E+04 0.  0.
        3    1    3    3  502    0  0.28811099442E+03  0.13037341016E+03 -0.15073260472E+04  0.15401418746E+04  0.10100000352E+00 0.  1.
       -3    1    3    3    0  502 -0.28811099442E+03 -0.13037341016E+03  0.18292049813E+04  0.18563394208E+04  0.10100000352E+00 0. -1.
</event>
<event>
 5   0  0.1372952E-07  0.3937858E+04  0.7818609E-02  0.8017201E-01
        1   -1    0    0  501    0  0.00000000000E+00  0.00000000000E+00  0.12676142341E+04  0.12676142341E+04  0.50400001928E-02 0. -1.
       -1   -1    0    0    0  501  0.00000000000E+00  0.00000000000E+00 -0.30582501580E+04  0.30582501580E+04  0.50400001928E-02 0.  1.
    10030    2    1    2    0    0  0.00000000000E+00  0.00000000000E+00 -0.17906359239E+04  0.43258643921E+04  0.39378580126E+04 0.  0.
        1    1    3    3  502    0  0.30247280936E+03 -0.17623386119E+04  0.10124788998E+02  0.17881358155E+04  0.50400001928E-02 0. -1.
       -1    1    3    3    0  502 -0.30247280936E+03  0.17623386119E+04 -0.18007607129E+04  0.25377285766E+04  0.50400001928E-02 0.  1.
</event>
<event>
 5   0  0.1351000E-07  0.4020170E+04  0.7818609E-02  0.8000490E-01
        3   -1    0    0  501    0  0.00000000000E+00  0.00000000000E+00  0.15412333797E+04  0.15412333830E+04  0.10100000352E+00 0. -1.
       -3   -1    0    0    0  501  0.00000000000E+00  0.00000000000E+00 -0.26215634891E+04  0.26215634911E+04  0.10100000352E+00 0.  1.
    10030    2    1    2    0    0  0.00000000000E+00  0.00000000000E+00 -0.10803301095E+04  0.41627968740E+04  0.40201697314E+04 0.  0.
        1    1    3    3  502    0  0.15302962673E+04 -0.66934939141E+03  0.61781496489E+03  0.17808791662E+04  0.50400001928E-02 0. -1.
       -1    1    3    3    0  502 -0.15302962673E+04  0.66934939141E+03 -0.16981450744E+04  0.23819177079E+04  0.50400001928E-02 0.  1.
</event>
<event>
 5   0  0.4079777E-07  0.4106946E+04  0.7818609E-02  0.7983313E-01
        2   -1    0    0  501    0  0.00000000000E+00  0.00000000000E+00  0.19596913673E+04  0.19596913673E+04  0.25500000920E-02 0.  1.
       -2   -1    0    0    0  501  0.00000000000E+00  0.00000000000E+00 -0.21517424920E+04  0.21517424920E+04  0.25500000920E-02 0. -1.
    10030    2    1    2    0    0  0.00000000000E+00  0.00000000000E+00 -0.19205112471E+03  0.41114338593E+04  0.41069459145E+04 0.  0.
        4    1    3    3  502    0 -0.16796087793E+03  0.47307376340E+03  0.18973157929E+04  0.19626050221E+04  0.12699999809E+01 0.  1.
       -4    1    3    3    0  502  0.16796087793E+03 -0.47307376340E+03 -0.20893669176E+04  0.21488288371E+04  0.12699999809E+01 0. -1.
</event>
<event>
 5   0  0.4149487E-07  0.4028098E+04  0.7818609E-02  0.7998902E-01
       -2   -1    0    0    0  501  0.00000000000E+00  0.00000000000E+00  0.21205019084E+04  0.21205019084E+04  0.25500000920E-02 0. -1.
        2   -1    0    0  501    0  0.00000000000E+00  0.00000000000E+00 -0.19129398699E+04  0.19129398699E+04  0.25500000920E-02 0.  1.
    10030    2    1    2    0    0  0.00000000000E+00  0.00000000000E+00  0.20756203853E+03  0.40334417782E+04  0.40280976377E+04 0.  0.
        2    1    3    3  502    0 -0.17276753777E+04 -0.73978420659E+03 -0.62123052917E+03  0.19794115927E+04  0.25500000920E-02 0.  1.
       -2    1    3    3    0  502  0.17276753777E+04  0.73978420659E+03  0.82879256770E+03  0.20540301856E+04  0.25500000920E-02 0. -1.
</event>
<event>
 5   0  0.1421304E-07  0.3520293E+04  0.7818609E-02  0.8108997E-01
        1   -1    0    0  501    0  0.00000000000E+00  0.00000000000E+00  0.25164764666E+04  0.25164764666E+04  0.50400001928E-02 0. -1.
       -1   -1    0    0    0  501  0.00000000000E+00  0.00000000000E+00 -0.12311327041E+04  0.12311327041E+04  0.50400001928E-02 0.  1.
    10030    2    1    2    0    0  0.00000000000E+00  0.00000000000E+00  0.12853437625E+04  0.37476091707E+04  0.35202934406E+04 0.  0.
        2    1    3    3  502    0  0.15996511175E+04  0.62006812828E+03  0.22388953675E+03  0.17301718718E+04  0.25500000920E-02 0. -1.
       -2    1    3    3    0  502 -0.15996511175E+04 -0.62006812828E+03  0.10614542258E+04  0.20174372988E+04  0.25500000920E-02 0.  1.
</event>
<event>
 5   0  0.4047916E-07  0.2682724E+04  0.7818609E-02  0.8340632E-01
       -2   -1    0    0    0  501  0.00000000000E+00  0.00000000000E+00  0.93210108638E+03  0.93210108638E+03  0.25500000920E-02 0. -1.
        2   -1    0    0  501    0  0.00000000000E+00  0.00000000000E+00 -0.19303186292E+04  0.19303186292E+04  0.25500000920E-02 0.  1.
    10030    2    1    2    0    0  0.00000000000E+00  0.00000000000E+00 -0.99821754279E+03  0.28624197155E+04  0.26827240569E+04 0.  0.
        5    1    3    3  502    0 -0.20289617804E+02  0.34568553704E+03  0.88357867718E+03  0.94902240641E+03  0.46999998093E+01 0. -1.
       -5    1    3    3    0  502  0.20289617804E+02 -0.34568553704E+03 -0.18817962200E+04  0.19133973091E+04  0.46999998093E+01 0.  1.
</event>
<event>
 5   0  0.4301754E-07  0.3098765E+04  0.7818609E-02  0.8216077E-01
       -2   -1    0    0    0  501  0.00000000000E+00  0.00000000000E+00  0.11972243605E+04  0.11972243605E+04  0.25500000920E-02 0.  1.
        2   -1    0    0  501    0  0.00000000000E+00  0.00000000000E+00 -0.20051257492E+04  0.20051257492E+04  0.25500000920E-02 0. -1.
    10030    2    1    2    0    0  0.00000000000E+00  0.00000000000E+00 -0.80790138862E+03  0.32023501097E+04  0.30987645234E+04 0.  0.
        1    1    3    3  502    0  0.70908101090E+03  0.42741705931E+03 -0.17573485603E+04  0.19426155526E+04  0.50400001928E-02 0. -1.
       -1    1    3    3    0  502 -0.70908101090E+03 -0.42741705931E+03  0.94944717169E+03  0.12597345571E+04  0.50400001928E-02 0.  1.
</event>
<event>
 5   0  0.1351000E-07  0.3863533E+04  0.7818609E-02  0.8032657E-01
        1   -1    0    0  501    0  0.00000000000E+00  0.00000000000E+00  0.24108264022E+04  0.24108264022E+04  0.50400001928E-02 0.  1.
       -1   -1    0    0    0  501  0.00000000000E+00  0.00000000000E+00 -0.15479015872E+04  0.15479015872E+04  0.50400001928E-02 0. -1.
    10030    2    1    2    0    0  0.00000000000E+00  0.00000000000E+00  0.86292481497E+03  0.39587279894E+04  0.38635331056E+04 0.  0.
        4    1    3    3  502    0  0.18596872197E+04  0.24403631925E+03 -0.42238143586E+02  0.18761065945E+04  0.12699999809E+01 0. -1.
       -4    1    3    3    0  502 -0.18596872197E+04 -0.24403631925E+03  0.90516295855E+03  0.20826213949E+04  0.12699999809E+01 0.  1.
</event>
<event>
 5   0  0.1368865E-07  0.4034195E+04  0.7818609E-02  0.7997684E-01
       -1   -1    0    0    0  501  0.00000000000E+00  0.00000000000E+00  0.17568921949E+04  0.17568921949E+04  0.50400001928E-02 0.  1.
        1   -1    0    0  501    0  0.00000000000E+00  0.00000000000E+00 -0.23158408781E+04  0.23158408781E+04  0.50400001928E-02 0. -1.
    10030    2    1    2    0    0  0.00000000000E+00  0.00000000000E+00 -0.55894868313E+03  0.40727330730E+04  0.40341952176E+04 0.  0.
        5    1    3    3  502    0 -0.19031654935E+03  0.19888486871E+04  0.52178164881E+00  0.19979394013E+04  0.46999998093E+01 0. -1.
       -5    1    3    3    0  502  0.19031654935E+03 -0.19888486871E+04 -0.55947046478E+03  0.20747936717E+04  0.46999998093E+01 0.  1.
</event>
<event>
 5   0  0.1372952E-07  0.2706727E+04  0.7818609E-02  0.8332825E-01
       -1   -1    0    0    0  501  0.00000000000E+00  0.00000000000E+00  0.12248128343E+04  0.12248128343E+04  0.50400001928E-02 0. -1.
        1   -1    0    0  501    0  0.00000000000E+00  0.00000000000E+00 -0.14954066813E+04  0.14954066813E+04  0.50400001928E-02 0.  1.
    10030    2    1    2    0    0  0.00000000000E+00  0.00000000000E+00 -0.27059384702E+03  0.27202195156E+04  0.27067273936E+04 0.  0.
        1    1    3    3  502    0 -0.74123056156E+03  0.80183937752E+03  0.66820334340E+03  0.12801815656E+04  0.50400001928E-02 0. -1.
       -1    1    3    3    0  502  0.74123056156E+03 -0.80183937752E+03 -0.93879719042E+03  0.14400379500E+04  0.50400001928E-02 0.  1.
</event>
<event>
 5   0  0.1351000E-07  0.3996890E+04  0.7818609E-02  0.8005174E-01
        1   -1    0    0  501    0  0.00000000000E+00  0.00000000000E+00  0.18402403785E+04  0.18402403785E+04  0.50400001928E-02 0. -1.
       -1   -1    0    0    0  501  0.00000000000E+00  0.00000000000E+00 -0.21702507155E+04  0.21702507155E+04  0.50400001928E-02 0.  1.
    10030    2    1    2    0    0  0.00000000000E+00  0.00000000000E+00 -0.33001033705E+03  0.40104910940E+04  0.39968902903E+04 0.  0.
        3    1    3    3  502    0 -0.19087727135E+04 -0.18149472563E+03 -0.73033107734E+03  0.20517643870E+04  0.10100000352E+00 0. -1.
       -3    1    3    3    0  502  0.19087727135E+04  0.18149472563E+03  0.40032074028E+03  0.19587267070E+04  0.10100000352E+00 0.  1.
</event>
<event>
 5   0  0.4301754E-07  0.2522352E+04  0.7818609E-02  0.8395065E-01
        2   -1    0    0  501    0  0.00000000000E+00  0.00000000000E+00  0.28748145312E+04  0.28748145312E+04  0.25500000920E-02 0. -1.
       -2   -1    0    0    0  501  0.00000000000E+00  0.00000000000E+00 -0.55327581976E+03  0.55327581977E+03  0.25500000920E-02 0.  1.
    10030    2    1    2    0    0  0.00000000000E+00  0.00000000000E+00  0.23215387115E+04  0.34280903510E+04  0.25223523675E+04 0.  0.
        1    1    3    3  502    0  0.11221858689E+04  0.45582958595E+03  0.68318378356E+03  0.13906192210E+04  0.50400001928E-02 0.  1.
       -1    1    3    3    0  502 -0.11221858689E+04 -0.45582958595E+03  0.16383549279E+04  0.20374711300E+04  0.50400001928E-02 0. -1.
</event>
<event>
 5   0  0.4301754E-07  0.3975782E+04  0.7818609E-02  0.8009450E-01
        2   -1    0    0  501    0  0.00000000000E+00  0.00000000000E+00  0.22652984392E+04  0.22652984392E+04  0.25500000920E-02 0.  1.
       -2   -1    0    0    0  501  0.00000000000E+00  0.00000000000E+00 -0.17444549901E+04  0.17444549901E+04  0.25500000920E-02 0. -1.
    10030    2    1    2    0    0  0.00000000000E+00  0.00000000000E+00  0.52084344912E+03  0.40097534294E+04  0.39757822709E+04 0.  0.
        1    1    3    3  502    0 -0.10118934399E+04  0.81725831468E+03 -0.12557101023E+04  0.18079400841E+04  0.50400001928E-02 0. -1.
       -1    1    3    3    0  502  0.10118934399E+04 -0.81725831468E+03  0.17765535514E+04  0.22018133453E+04  0.50400001928E-02 0.  1.
</event>
<event>
 5   0  0.1351000E-07  0.3752840E+04  0.7818609E-02  0.8056352E-01
       -3   -1    0    0    0  501  0.00000000000E+00  0.00000000000E+00  0.16198779004E+04  0.16198779035E+04  0.10100000352E+00 0. -1.
        3   -1    0    0  501    0  0.00000000000E+00  0.00000000000E+00 -0.21735906080E+04  0.21735906104E+04  0.10100000352E+00 0.  1.
    10030    2    1    2    0    0  0.00000000000E+00  0.00000000000E+00 -0.55371270764E+03  0.37934685139E+04  0.37528396719E+04 0.  0.
        5    1    3    3  502    0  0.12867995347E+03 -0.28009724459E+03  0.15941051332E+04  0.16236398192E+04  0.46999998093E+01 0. -1.
       -5    1    3    3    0  502 -0.12867995347E+03  0.28009724459E+03 -0.21478178408E+04  0.21698286947E+04  0.46999998093E+01 0.  1.
</event>
<event>
 5   0  0.4079777E-07  0.3240997E+04  0.7818609E-02  0.8178073E-01
        2   -1    0    0  501    0  0.00000000000E+00  0.00000000000E+00  0.21277516412E+04  0.21277516412E+04  0.25500000920E-02 0.  1.
       -2   -1    0    0    0  501  0.00000000000E+00  0.00000000000E+00 -0.12341736900E+04  0.12341736900E+04  0.25500000920E-02 0. -1.
    10030    2    1    2    0    0  0.00000000000E+00  0.00000000000E+00  0.89357795117E+03  0.33619253312E+04  0.32409968186E+04 0.  0.
        4    1    3    3  502    0 -0.67777527773E+03 -0.14557354684E+04  0.22078724868E+03  0.16208928722E+04  0.12699999809E+01 0. -1.
       -4    1    3    3    0  502  0.67777527773E+03  0.14557354684E+04  0.67279070249E+03  0.17410324590E+04  0.12699999809E+01 0.  1.
</event>
<event>
 5   0  0.1421304E-07  0.4075606E+04  0.7818609E-02  0.7989466E-01
       -1   -1    0    0    0  501  0.00000000000E+00  0.00000000000E+00  0.21900073374E+04  0.21900073374E+04  0.50400001928E-02 0.  1.
        1   -1    0    0  501    0  0.00000000000E+00  0.00000000000E+00 -0.18961769584E+04  0.18961769584E+04  0.50400001928E-02 0. -1.
    10030    2    1    2    0    0  0.00000000000E+00  0.00000000000E+00  0.29383037899E+03  0.40861842958E+04  0.40756061889E+04 0.  0.
        2    1    3    3  502    0 -0.24367920021E+02 -0.13718354913E+04  0.16575158505E+04  0.21517168042E+04  0.25500000920E-02 0.  1.
       -2    1    3    3    0  502  0.24367920021E+02  0.13718354913E+04 -0.13636854715E+04  0.19344674916E+04  0.25500000920E-02 0. -1.
</event>
<event>
 5   0  0.4047916E-07  0.3971798E+04  0.7818609E-02  0.8010260E-01
        2   -1    0    0  501    0  0.00000000000E+00  0.00000000000E+00  0.25988322678E+04  0.25988322678E+04  0.25500000920E-02 0. -1.
       -2   -1    0    0    0  501  0.00000000000E+00  0.00000000000E+00 -0.15175258737E+04  0.15175258737E+04  0.25500000920E-02 0.  1.
    10030    2    1    2    0    0  0.00000000000E+00  0.00000000000E+00  0.10813063941E+04  0.41163581415E+04  0.39717981861E+04 0.  0.
        5    1    3    3  502    0 -0.10845614618E+03  0.76793614934E+02  0.25942131409E+04  0.25976188915E+04  0.46999998093E+01 0. -1.
       -5    1    3    3    0  502  0.10845614618E+03 -0.76793614934E+02 -0.15129067468E+04  0.15187392500E+04  0.46999998093E+01 0.  1.
</event>
<event>
 5   0  0.4047916E-07  0.4035268E+04  0.7818609E-02  0.7997469E-01
        2   -1    0    0  501    0  0.00000000000E+00  0.00000000000E+00  0.26945703033E+04  0.26945703033E+04  0.25500000920E-02 0. -1.
       -2   -1    0    0    0  501  0.00000000000E+00  0.00000000000E+00 -0.15107591489E+04  0.15107591489E+04  0.25500000920E-02 0.  1.
    10030    2    1    2    0    0  0.00000000000E+00  0.00000000000E+00  0.11838111544E+04  0.42053294521E+04  0.40352678910E+04 0.  0.
        5    1    3    3  502    0 -0.17644600170E+04 -0.90120903844E+03  0.98919037870E+03  0.22145014287E+04  0.46999998093E+01 0. -1.
       -5    1    3    3    0  502  0.17644600170E+04  0.90120903844E+03  0.19462077567E+03  0.19908280234E+04  0.46999998093E+01 0.  1.
</event>
<event>
 5   0  0.4077370E-07  0.3960680E+04  0.7818609E-02  0.8012526E-01
        2   -1    0    0  501    0  0.00000000000E+00  0.00000000000E+00  0.30641489764E+04  0.30641489764E+04  0.25500000920E-02 0. -1.
       -2   -1    0    0    0  501  0.00000000000E+00  0.00000000000E+00 -0.12798813619E+04  0.12798813619E+04  0.25500000920E-02 0.  1.
    10030    2    1    2    0    0  0.00000000000E+00  0.00000000000E+00  0.17842676146E+04  0.43440303383E+04  0.39606803279E+04 0.  0.
        3    1    3    3  502    0 -0.17780841221E+03  0.55278593237E+03  0.29686767996E+04  0.30249347215E+04  0.10100000352E+00 0. -1.
       -3    1    3    3    0  502  0.17780841221E+03 -0.55278593237E+03 -0.11844091850E+04  0.13190956168E+04  0.10100000352E+00 0.  1.
</event>
<event>
 5   0  0.4047916E-07  0.3916404E+04  0.7818609E-02  0.8021626E-01
        2   -1    0    0  501    0  0.00000000000E+00  0.00000000000E+00  0.22635153992E+04  0.22635153992E+04  0.25500000920E-02 0. -1.
       -2   -1    0    0    0  501  0.00000000000E+00  0.00000000000E+00 -0.16940704499E+04  0.16940704499E+04  0.25500000920E-02 0.  1.
    10030    2    1    2    0    0  0.00000000000E+00  0.00000000000E+00  0.56944494925E+03  0.39575858491E+04  0.39164037334E+04 0.  0.
        5    1    3    3  502    0  0.32304921770E+03 -0.10305134760E+04  0.19353656040E+04  0.22162989267E+04  0.46999998093E+01 0. -1.
       -5    1    3    3    0  502 -0.32304921770E+03  0.10305134760E+04 -0.13659206547E+04  0.17412869225E+04  0.46999998093E+01 0.  1.
</event>
<event>
 5   0  0.4149487E-07  0.3933184E+04  0.7818609E-02  0.8018163E-01
        2   -1    0    0  501    0  0.00000000000E+00  0.00000000000E+00  0.14224288518E+04  0.14224288518E+04  0.25500000920E-02 0.  1.
       -2   -1    0    0    0  501  0.00000000000E+00  0.00000000000E+00 -0.27189298142E+04  0.27189298142E+04  0.25500000920E-02 0. -1.
    10030    2    1    2    0    0  0.00000000000E+00  0.00000000000E+00 -0.12965009624E+04  0.41413586661E+04  0.39331840607E+04 0.  0.
        2    1    3    3  502    0  0.22221077444E+03  0.56227057810E+03  0.13221480014E+04  0.14538229497E+04  0.25500000920E-02 0.  1.
       -2    1    3    3    0  502 -0.22221077444E+03 -0.56227057810E+03 -0.26186489638E+04  0.26875357164E+04  0.25500000920E-02 0. -1.
</event>
<event>
 5   0  0.4047916E-07  0.4085940E+04  0.7818609E-02  0.7987431E-01
       -2   -1    0    0    0  501  0.00000000000E+00  0.00000000000E+00  0.29273339040E+04  0.29273339040E+04  0.25500000920E-02 0.  1.
        2   -1    0    0  501    0  0.00000000000E+00  0.00000000000E+00 -0.14257773622E+04  0.14257773622E+04  0.25500000920E-02 0. -1.
    10030    2    1    2    0    0  0.00000000000E+00  0.00000000000E+00  0.15015565418E+04  0.43531112662E+04  0.40859399956E+04 0.  0.
        5    1    3    3  502    0 -0.11331595057E+04 -0.16838168295E+04  0.50225556855E+03  0.20908305352E+04  0.46999998093E+01 0. -1.
       -5    1    3    3    0  502  0.11331595057E+04  0.16838168295E+04  0.99930097321E+03  0.22622807310E+04  0.46999998093E+01 0.  1.
</event>
<event>
 5   0  0.4149487E-07  0.4028468E+04  0.7818609E-02  0.7998828E-01
        2   -1    0    0  501    0  0.00000000000E+00  0.00000000000E+00  0.17255863161E+04  0.17255863161E+04  0.25500000920E-02 0.  1.
       -2   -1    0    0    0  501  0.00000000000E+00  0.00000000000E+00 -0.23511649130E+04  0.23511649130E+04  0.25500000920E-02 0. -1.
    10030    2    1    2    0    0  0.00000000000E+00  0.00000000000E+00 -0.62557859687E+03  0.40767512291E+04  0.40284676992E+04 0.  0.
        2    1    3    3  502    0 -0.16625700882E+03  0.12781387496E+04  0.12536185742E+04  0.17980098959E+04  0.25500000920E-02 0.  1.
       -2    1    3    3    0  502  0.16625700882E+03 -0.12781387496E+04 -0.18791971711E+04  0.22787413333E+04  0.25500000920E-02 0. -1.
</event>
<event>
 5   0  0.4079777E-07  0.4006018E+04  0.7818609E-02  0.8003334E-01
       -2   -1    0    0    0  501  0.00000000000E+00  0.00000000000E+00  0.26170748618E+04  0.26170748618E+04  0.25500000920E-02 0. -1.
        2   -1    0    0  501    0  0.00000000000E+00  0.00000000000E+00 -0.15330265904E+04  0.15330265904E+04  0.25500000920E-02 0.  1.
    10030    2    1    2    0    0  0.00000000000E+00  0.00000000000E+00  0.10840482714E+04  0.41501014522E+04  0.40060181488E+04 0.  0.
        4    1    3    3  502    0  0.11554305853E+04  0.13047753970E+04  0.15647416112E+04  0.23421948247E+04  0.12699999809E+01 0. -1.
       -4    1    3    3    0  502 -0.11554305853E+04 -0.13047753970E+04 -0.48069333978E+03  0.18079066275E+04  0.12699999809E+01 0.  1.
</event>
<event>
 5   0  0.4301754E-07  0.3978578E+04  0.7818609E-02  0.8008882E-01
        2   -1    0    0  501    0  0.00000000000E+00  0.00000000000E+00  0.28374853356E+04  0.28374853356E+04  0.25500000920E-02 0. -1.
       -2   -1    0    0    0  501  0.00000000000E+00  0.00000000000E+00 -0.13946401204E+04  0.13946401204E+04  0.25500000920E-02 0.  1.
    10030    2    1    2    0    0  0.00000000000E+00  0.00000000000E+00  0.14428452152E+04  0.42321254559E+04  0.39785780827E+04 0.  0.
        1    1    3    3  502    0  0.19340657833E+04  0.46545737978E+03  0.71808188293E+03  0.21149237852E+04  0.50400001928E-02 0. -1.
       -1    1    3    3    0  502 -0.19340657833E+04 -0.46545737978E+03  0.72476333228E+03  0.21172016707E+04  0.50400001928E-02 0.  1.
</event>
<event>
 5   0  0.1372952E-07  0.3980478E+04  0.7818609E-02  0.8008496E-01
       -1   -1    0    0    0  501  0.00000000000E+00  0.00000000000E+00  0.17683151186E+04  0.17683151186E+04  0.50400001928E-02 0. -1.
        1   -1    0    0  501    0  0.00000000000E+00  0.00000000000E+00 -0.22400139038E+04  0.22400139038E+04  0.50400001928E-02 0.  1.
    10030    2    1    2    0    0  0.00000000000E+00  0.00000000000E+00 -0.47169878523E+03  0.40083290224E+04  0.39804775854E+04 0.  0.
        1    1    3    3  502    0  0.13875537696E+04  0.51307835619E+03 -0.15765159065E+04  0.21619336869E+04  0.50400001928E-02 0.  1.
       -1    1    3    3    0  502 -0.13875537696E+04 -0.51307835619E+03  0.11048171213E+04  0.18463953354E+04  0.50400001928E-02 0. -1.
</event>
<event>
 5   0  0.1368865E-07  0.3998934E+04  0.7818609E-02  0.8004762E-01
        1   -1    0    0  501    0  0.00000000000E+00  0.00000000000E+00  0.21216442551E+04  0.21216442551E+04  0.50400001928E-02 0. -1.
       -1   -1    0    0    0  501  0.00000000000E+00  0.00000000000E+00 -0.18843252336E+04  0.18843252336E+04  0.50400001928E-02 0.  1.
    10030    2    1    2    0    0  0.00000000000E+00  0.00000000000E+00  0.23731902147E+03  0.40059694887E+04  0.39989337612E+04 0.  0.
        5    1    3    3  502    0 -0.59062876235E+03  0.19102351376E+04  0.12092198030E+03  0.20031187761E+04  0.46999998093E+01 0.  1.
       -5    1    3    3    0  502  0.59062876235E+03 -0.19102351376E+04  0.11639704117E+03  0.20028507126E+04  0.46999998093E+01 0. -1.
</event>
<event>
 5   0  0.1421304E-07  0.2770274E+04  0.7818609E-02  0.8312557E-01
       -1   -1    0    0    0  501  0.00000000000E+00  0.00000000000E+00  0.97390073662E+03  0.97390073663E+03  0.50400001928E-02 0.  1.
        1   -1    0    0  501    0  0.00000000000E+00  0.00000000000E+00 -0.19700212066E+04  0.19700212066E+04  0.50400001928E-02 0. -1.
    10030    2    1    2    0    0  0.00000000000E+00  0.00000000000E+00 -0.99612047003E+03  0.29439219433E+04  0.27702744300E+04 0.  0.
        2    1    3    3  502    0 -0.33451029650E+03  0.10670764212E+03 -0.19219442238E+04  0.19537536331E+04  0.25500000920E-02 0. -1.
       -2    1    3    3    0  502  0.33451029650E+03 -0.10670764212E+03  0.92582375380E+03  0.99016831017E+03  0.25500000920E-02 0.  1.
</event>
<event>
 5   0  0.1368865E-07  0.4030841E+04  0.7818609E-02  0.7998354E-01
        1   -1    0    0  501    0  0.00000000000E+00  0.00000000000E+00  0.17925035300E+04  0.17925035300E+04  0.50400001928E-02 0.  1.
       -1   -1    0    0    0  501  0.00000000000E+00  0.00000000000E+00 -0.22660592776E+04  0.22660592776E+04  0.50400001928E-02 0. -1.
    10030    2    1    2    0    0  0.00000000000E+00  0.00000000000E+00 -0.47355574756E+03  0.40585628076E+04  0.40308407332E+04 0.  0.
        5    1    3    3  502    0 -0.15575233827E+04 -0.11220803284E+04  0.38141031495E+03  0.19571508039E+04  0.46999998093E+01 0.  1.
       -5    1    3    3    0  502  0.15575233827E+04  0.11220803284E+04 -0.85496606251E+03  0.21014120036E+04  0.46999998093E+01 0. -1.
</event>
<event>
 5   0  0.4301754E-07  0.3932573E+04  0.7818609E-02  0.8018289E-01
        2   -1    0    0  501    0  0.00000000000E+00  0.00000000000E+00  0.21526680820E+04  0.21526680820E+04  0.25500000920E-02 0. -1.
       -2   -1    0    0    0  501  0.00000000000E+00  0.00000000000E+00 -0.17960419862E+04  0.17960419862E+04  0.25500000920E-02 0.  1.
    10030    2    1    2    0    0  0.00000000000E+00  0.00000000000E+00  0.35662609581E+03  0.39487100682E+04  0.39325728258E+04 0.  0.
        1    1    3    3  502    0 -0.49270525195E+03 -0.16657815091E+04  0.11033402167E+04  0.20578984754E+04  0.50400001928E-02 0.  1.
       -1    1    3    3    0  502  0.49270525195E+03  0.16657815091E+04 -0.74671412084E+03  0.18908115928E+04  0.50400001928E-02 0. -1.
</event>
<event>
 5   0  0.4079777E-07  0.4003675E+04  0.7818609E-02  0.8003806E-01
        2   -1    0    0  501    0  0.00000000000E+00  0.00000000000E+00  0.15356442034E+04  0.15356442034E+04  0.25500000920E-02 0. -1.
       -2   -1    0    0    0  501  0.00000000000E+00  0.00000000000E+00 -0.26095586708E+04  0.26095586708E+04  0.25500000920E-02 0.  1.
    10030    2    1    2    0    0  0.00000000000E+00  0.00000000000E+00 -0.10739144674E+04  0.41452028742E+04  0.40036751348E+04 0.  0.
        4    1    3    3  502    0  0.54208445414E+03 -0.18001553118E+04  0.17505713502E+03  0.18881369960E+04  0.12699999809E+01 0. -1.
       -4    1    3    3    0  502 -0.54208445414E+03  0.18001553118E+04 -0.12489716024E+04  0.22570658782E+04  0.12699999809E+01 0.  1.
</event>
<event>
 5   0  0.1351000E-07  0.4008752E+04  0.7818609E-02  0.8002783E-01
        1   -1    0    0  501    0  0.00000000000E+00  0.00000000000E+00  0.26869316836E+04  0.26869316836E+04  0.50400001928E-02 0.  1.
       -1   -1    0    0    0  501  0.00000000000E+00  0.00000000000E+00 -0.14952085508E+04  0.14952085508E+04  0.50400001928E-02 0. -1.
    10030    2    1    2    0    0  0.00000000000E+00  0.00000000000E+00  0.11917231329E+04  0.41821402344E+04  0.40087520396E+04 0.  0.
        4    1    3    3  502    0  0.12912497917E+04 -0.52418612167E+02  0.21942685808E+04  0.25465447087E+04  0.12699999809E+01 0.  1.
       -4    1    3    3    0  502 -0.12912497917E+04  0.52418612167E+02 -0.10025454480E+04  0.16355955257E+04  0.12699999809E+01 0. -1.
</event>
<event>
 5   0  0.1421304E-07  0.3689331E+04  0.7818609E-02  0.8070330E-01
       -1   -1    0    0    0  501  0.00000000000E+00  0.00000000000E+00  0.10686567367E+04  0.10686567368E+04  0.50400001928E-02 0. -1.
        1   -1    0    0  501    0  0.00000000000E+00  0.00000000000E+00 -0.31841755800E+04  0.31841755800E+04  0.50400001928E-02 0.  1.
    10030    2    1    2    0    0  0.00000000000E+00  0.00000000000E+00 -0.21155188433E+04  0.42528323168E+04  0.36893309337E+04 0.  0.
        2    1    3    3  502    0 -0.10644066055E+04 -0.70565243683E+03 -0.25921936487E+04  0.28897014891E+04  0.25500000920E-02 0.  1.
       -2    1    3    3    0  502  0.10644066055E+04  0.70565243683E+03  0.47667480539E+03  0.13631308277E+04  0.25500000920E-02 0. -1.
</event>
<event>
 5   0  0.1421304E-07  0.3988467E+04  0.7818609E-02  0.8006877E-01
       -1   -1    0    0    0  501  0.00000000000E+00  0.00000000000E+00  0.14036449921E+04  0.14036449921E+04  0.50400001928E-02 0. -1.
        1   -1    0    0  501    0  0.00000000000E+00  0.00000000000E+00 -0.28333143753E+04  0.28333143753E+04  0.50400001928E-02 0.  1.
    10030    2    1    2    0    0  0.00000000000E+00  0.00000000000E+00 -0.14296693832E+04  0.42369593674E+04  0.39884671411E+04 0.  0.
        2    1    3    3  502    0 -0.16977757206E+04  0.89369477613E+03 -0.13704086324E+03  0.19235157781E+04  0.25500000920E-02 0. -1.
       -2    1    3    3    0  502  0.16977757206E+04 -0.89369477613E+03 -0.12926285200E+04  0.23134435893E+04  0.25500000920E-02 0.  1.
</event>
<event>
 5   0  0.4149487E-07  0.4020335E+04  0.7818609E-02  0.8000457E-01
       -2   -1    0    0    0  501  0.00000000000E+00  0.00000000000E+00  0.20071710660E+04  0.20071710660E+04  0.25500000920E-02 0.  1.
        2   -1    0    0  501    0  0.00000000000E+00  0.00000000000E+00 -0.20131679538E+04  0.20131679538E+04  0.25500000920E-02 0. -1.
    10030    2    1    2    0    0  0.00000000000E+00  0.00000000000E+00 -0.59968878669E+01  0.40203390198E+04  0.40203345472E+04 0.  0.
        2    1    3    3  502    0 -0.10709371346E+04  0.81956058505E+03 -0.14937001288E+04  0.20123930962E+04  0.25500000920E-02 0. -1.
       -2    1    3    3    0  502  0.10709371346E+04 -0.81956058505E+03  0.14877032409E+04  0.20079459236E+04  0.25500000920E-02 0.  1.
</event>
<event>
 5   0  0.1372952E-07  0.3957816E+04  0.7818609E-02  0.8013111E-01
        1   -1    0    0  501    0  0.00000000000E+00  0.00000000000E+00  0.23353008044E+04  0.23353008044E+04  0.50400001928E-02 0. -1.
       -1   -1    0    0    0  501  0.00000000000E+00  0.00000000000E+00 -0.16769046240E+04  0.16769046240E+04  0.50400001928E-02 0.  1.
    10030    2    1    2    0    0  0.00000000000E+00  0.00000000000E+00  0.65839618042E+03  0.40122054285E+04  0.39578159217E+04 0.  0.
        1    1    3    3  502    0  0.66036731849E+03  0.52793312979E+03  0.21429976305E+04  0.23037441762E+04  0.50400001928E-02 0. -1.
       -1    1    3    3    0  502 -0.66036731849E+03 -0.52793312979E+03 -0.14846014501E+04  0.17084612523E+04  0.50400001928E-02 0.  1.
</event>
<event>
 5   0  0.1421304E-07  0.2715049E+04  0.7818609E-02  0.8330138E-01
       -1   -1    0    0    0  501  0.00000000000E+00  0.00000000000E+00  0.11996451570E+04  0.11996451570E+04  0.50400001928E-02 0. -1.
        1   -1    0    0  501    0  0.00000000000E+00  0.00000000000E+00 -0.15361819854E+04  0.15361819854E+04  0.50400001928E-02 0.  1.
    10030    2    1    2    0    0  0.00000000000E+00  0.00000000000E+00 -0.33653682839E+03  0.27358271425E+04  0.27150493765E+04 0.  0.
        2    1    3    3  502    0  0.10808207929E+04  0.81597283589E+03 -0.26326620955E+03  0.13795993449E+04  0.25500000920E-02 0. -1.
       -2    1    3    3    0  502 -0.10808207929E+04 -0.81597283589E+03 -0.73270618841E+02  0.13562277976E+04  0.25500000920E-02 0.  1.
</event>
<event>
 5   0  0.1351000E-07  0.4150958E+04  0.7818609E-02  0.7974767E-01
       -1   -1    0    0    0  501  0.00000000000E+00  0.00000000000E+00  0.24906253933E+04  0.24906253933E+04  0.50400001928E-02 0.  1.
        1   -1    0    0  501    0  0.00000000000E+00  0.00000000000E+00 -0.17295304816E+04  0.17295304816E+04  0.50400001928E-02 0. -1.
    10030    2    1    2    0    0  0.00000000000E+00  0.00000000000E+00  0.76109491169E+03  0.42201558749E+04  0.41509577381E+04 0.  0.
        3    1    3    3  502    0  0.12811818135E+04  0.12845144567E+04 -0.64432907652E+03  0.19252439320E+04  0.10100000352E+00 0. -1.
       -3    1    3    3    0  502 -0.12811818135E+04 -0.12845144567E+04  0.14054239882E+04  0.22949119429E+04  0.10100000352E+00 0.  1.
</event>
<event>
 5   0  0.1351000E-07  0.3460098E+04  0.7818609E-02  0.8123312E-01
       -1   -1    0    0    0  501  0.00000000000E+00  0.00000000000E+00  0.22911856449E+04  0.22911856450E+04  0.50400001928E-02 0.  1.
        1   -1    0    0  501    0  0.00000000000E+00  0.00000000000E+00 -0.13063408592E+04  0.13063408592E+04  0.50400001928E-02 0. -1.
    10030    2    1    2    0    0  0.00000000000E+00  0.00000000000E+00  0.98484478572E+03  0.35975265042E+04  0.34600979316E+04 0.  0.
        4    1    3    3  502    0 -0.20418893868E+03  0.17014883829E+04  0.24569579146E+03  0.17312203427E+04  0.12699999809E+01 0. -1.
       -4    1    3    3    0  502  0.20418893868E+03 -0.17014883829E+04  0.73914899425E+03  0.18663061615E+04  0.12699999809E+01 0.  1.
</event>
<event>
 5   0  0.4079777E-07  0.4003370E+04  0.7818609E-02  0.8003867E-01
        2   -1    0    0  501    0  0.00000000000E+00  0.00000000000E+00  0.26118142678E+04  0.26118142678E+04  0.25500000920E-02 0. -1.
       -2   -1    0    0    0  501  0.00000000000E+00  0.00000000000E+00 -0.15340840192E+04  0.15340840192E+04  0.25500000920E-02 0.  1.
    10030    2    1    2    0    0  0.00000000000E+00  0.00000000000E+00  0.10777302486E+04  0.41458982870E+04  0.40033698452E+04 0.  0.
        4    1    3    3  502    0  0.12079070278E+03  0.14729034471E+03 -0.15246759963E+04  0.15365296438E+04  0.12699999809E+01 0.  1.
       -4    1    3    3    0  502 -0.12079070278E+03 -0.14729034471E+03  0.26024062450E+04  0.26093686432E+04  0.12699999809E+01 0. -1.
</event>
<event>
 5   0  0.4149487E-07  0.4194474E+04  0.7818609E-02  0.7966424E-01
       -2   -1    0    0    0  501  0.00000000000E+00  0.00000000000E+00  0.14456654159E+04  0.14456654159E+04  0.25500000920E-02 0. -1.
        2   -1    0    0  501    0  0.00000000000E+00  0.00000000000E+00 -0.30424771987E+04  0.30424771987E+04  0.25500000920E-02 0.  1.
    10030    2    1    2    0    0  0.00000000000E+00  0.00000000000E+00 -0.15968117828E+04  0.44881426146E+04  0.41944744915E+04 0.  0.
        2    1    3    3  502    0  0.12607351890E+04 -0.12178067662E+04  0.43368875777E+03  0.18057110719E+04  0.25500000920E-02 0. -1.
       -2    1    3    3    0  502 -0.12607351890E+04  0.12178067662E+04 -0.20305005406E+04  0.26824315428E+04  0.25500000920E-02 0.  1.
</event>
<event>
 5   0  0.4047916E-07  0.4031628E+04  0.7818609E-02  0.7998196E-01
       -2   -1    0    0    0  501  0.00000000000E+00  0.00000000000E+00  0.16144752234E+04  0.16144752234E+04  0.25500000920E-02 0.  1.
        2   -1    0    0  501    0  0.00000000000E+00  0.00000000000E+00 -0.25169201774E+04  0.25169201774E+04  0.25500000920E-02 0. -1.
    10030    2    1    2    0    0  0.00000000000E+00  0.00000000000E+00 -0.90244495397E+03  0.41313954008E+04  0.40316275948E+04 0.  0.
        5    1    3    3  502    0 -0.17897893098E+04 -0.73808314629E+03 -0.10266981956E+04  0.21914022404E+04  0.46999998093E+01 0.  1.
       -5    1    3    3    0  502  0.17897893098E+04  0.73808314629E+03  0.12425324160E+03  0.19399931604E+04  0.46999998093E+01 0. -1.
</event>
<event>
 5   0  0.4077370E-07  0.3673726E+04  0.7818609E-02  0.8073810E-01
       -2   -1    0    0    0  501  0.00000000000E+00  0.00000000000E+00  0.13156683615E+04  0.13156683615E+04  0.25500000920E-02 0.  1.
        2   -1    0    0  501    0  0.00000000000E+00  0.00000000000E+00 -0.25645256511E+04  0.25645256511E+04  0.25500000920E-02 0. -1.
    10030    2    1    2    0    0  0.00000000000E+00  0.00000000000E+00 -0.12488572895E+04  0.38801940126E+04  0.36737257717E+04 0.  0.
        3    1    3    3  502    0 -0.74310325856E+02 -0.29828725396E+03  0.12883073136E+04  0.13244746336E+04  0.10100000352E+00 0.  1.
       -3    1    3    3    0  502  0.74310325856E+02  0.29828725396E+03 -0.25371646032E+04  0.25557193790E+04  0.10100000352E+00 0. -1.
</event>
<event>
 5   0  0.4301754E-07  0.4042964E+04  0.7818609E-02  0.7995935E-01
       -2   -1    0    0    0  501  0.00000000000E+00  0.00000000000E+00  0.16387837767E+04  0.16387837767E+04  0.25500000920E-02 0.  1.
        2   -1    0    0  501    0  0.00000000000E+00  0.00000000000E+00 -0.24935498244E+04  0.24935498244E+04  0.25500000920E-02 0. -1.
    10030    2    1    2    0    0  0.00000000000E+00  0.00000000000E+00 -0.85476604767E+03  0.41323336011E+04  0.40429637637E+04 0.  0.
        1    1    3    3  502    0 -0.10473412673E+02  0.15304270857E+04  0.92244288791E+03  0.17869576488E+04  0.50400001928E-02 0.  1.
       -1    1    3    3    0  502  0.10473412673E+02 -0.15304270857E+04 -0.17772089356E+04  0.23453759523E+04  0.50400001928E-02 0. -1.
</event>
<event>
 5   0  0.1351000E-07  0.3976508E+04  0.7818609E-02  0.8009302E-01
       -1   -1    0    0    0  501  0.00000000000E+00  0.00000000000E+00  0.22317295927E+04  0.22317295927E+04  0.50400001928E-02 0. -1.
        1   -1    0    0  501    0  0.00000000000E+00  0.00000000000E+00 -0.17713408579E+04  0.17713408579E+04  0.50400001928E-02 0.  1.
    10030    2    1    2    0    0  0.00000000000E+00  0.00000000000E+00  0.46038873487E+03  0.40030704506E+04  0.39765079210E+04 0.  0.
        3    1    3    3  502    0  0.10395971250E+04  0.41859294787E+03  0.18834715333E+04  0.21916768159E+04  0.10100000352E+00 0. -1.
       -3    1    3    3    0  502 -0.10395971250E+04 -0.41859294787E+03 -0.14230827985E+04  0.18113936347E+04  0.10100000352E+00 0.  1.
</event>
<event>
 5   0  0.1351000E-07  0.3901224E+04  0.7818609E-02  0.8024775E-01
        1   -1    0    0  501    0  0.00000000000E+00  0.00000000000E+00  0.26238422827E+04  0.26238422827E+04  0.50400001928E-02 0.  1.
       -1   -1    0    0    0  501  0.00000000000E+00  0.00000000000E+00 -0.14501207284E+04  0.14501207284E+04  0.50400001928E-02 0. -1.
    10030    2    1    2    0    0  0.00000000000E+00  0.00000000000E+00  0.11737215543E+04  0.40739630111E+04  0.39012244653E+04 0.  0.
        3    1    3    3  502    0  0.78159842846E+03 -0.72586269077E+02 -0.12779061299E+04  0.14997362958E+04  0.10100000352E+00 0. -1.
       -3    1    3    3    0  502 -0.78159842846E+03  0.72586269077E+02  0.24516276842E+04  0.25742267153E+04  0.10100000352E+00 0.  1.
</event>
<event>
 5   0  0.4077370E-07  0.3678892E+04  0.7818609E-02  0.8072656E-01
        2   -1    0    0  501    0  0.00000000000E+00  0.00000000000E+00  0.21140685406E+04  0.21140685406E+04  0.25500000920E-02 0. -1.
       -2   -1    0    0    0  501  0.00000000000E+00  0.00000000000E+00 -0.16004973053E+04  0.16004973053E+04  0.25500000920E-02 0.  1.
    10030    2    1    2    0    0  0.00000000000E+00  0.00000000000E+00  0.51357123536E+03  0.37145658459E+04  0.36788916823E+04 0.  0.
        3    1    3    3  502    0  0.13279916563E+04 -0.10793380186E+04  0.93788487192E+03  0.19514508553E+04  0.10100000352E+00 0. -1.
       -3    1    3    3    0  502 -0.13279916563E+04  0.10793380186E+04 -0.42431363656E+03  0.17631149906E+04  0.10100000352E+00 0.  1.
</event>
<event>
 5   0  0.1351000E-07  0.4018596E+04  0.7818609E-02  0.8000806E-01
       -1   -1    0    0    0  501  0.00000000000E+00  0.00000000000E+00  0.23135966924E+04  0.23135966924E+04  0.50400001928E-02 0. -1.
        1   -1    0    0  501    0  0.00000000000E+00  0.00000000000E+00 -0.17450227042E+04  0.17450227042E+04  0.50400001928E-02 0.  1.
    10030    2    1    2    0    0  0.00000000000E+00  0.00000000000E+00  0.56857398818E+03  0.40586193966E+04  0.40185961512E+04 0.  0.
        4    1    3    3  502    0  0.60317083949E+03 -0.53083237964E+03 -0.15757061273E+04  0.17687423468E+04  0.12699999809E+01 0.  1.
       -4    1    3    3    0  502 -0.60317083949E+03  0.53083237964E+03  0.21442801155E+04  0.22898770498E+04  0.12699999809E+01 0. -1.
</event>
<event>
 5   0  0.4301754E-07  0.3980911E+04  0.7818609E-02  0.8008408E-01
       -2   -1    0    0    0  501  0.00000000000E+00  0.00000000000E+00  0.18580638532E+04  0.18580638532E+04  0.25500000920E-02 0.  1.
        2   -1    0    0  501    0  0.00000000000E+00  0.00000000000E+00 -0.21322806247E+04  0.21322806247E+04  0.25500000920E-02 0. -1.
    10030    2    1    2    0    0  0.00000000000E+00  0.00000000000E+00 -0.27421677152E+03  0.39903444779E+04  0.39809112292E+04 0.  0.
        1    1    3    3  502    0 -0.19893055170E+03 -0.19804783801E+04 -0.14387532215E+03  0.19956372633E+04  0.50400001928E-02 0. -1.
       -1    1    3    3    0  502  0.19893055170E+03  0.19804783801E+04 -0.13034144937E+03  0.19947072146E+04  0.50400001928E-02 0.  1.
</event>
<event>
 5   0  0.4077370E-07  0.3986338E+04  0.7818609E-02  0.8007308E-01
        2   -1    0    0  501    0  0.00000000000E+00  0.00000000000E+00  0.25780453492E+04  0.25780453492E+04  0.25500000920E-02 0.  1.
       -2   -1    0    0    0  501  0.00000000000E+00  0.00000000000E+00 -0.15409820829E+04  0.15409820829E+04  0.25500000920E-02 0. -1.
    10030    2    1    2    0    0  0.00000000000E+00  0.00000000000E+00  0.10370632663E+04  0.41190274322E+04  0.39863375131E+04 0.  0.
        3    1    3    3  502    0 -0.98990639515E+03  0.10433394495E+04 -0.90734705385E+03  0.17005147939E+04  0.10100000352E+00 0. -1.
       -3    1    3    3    0  502  0.98990639515E+03 -0.10433394495E+04  0.19444103202E+04  0.24185126383E+04  0.10100000352E+00 0.  1.
</event>
<event>
 5   0  0.1351000E-07  0.4097404E+04  0.7818609E-02  0.7985180E-01
       -1   -1    0    0    0  501  0.00000000000E+00  0.00000000000E+00  0.27215389183E+04  0.27215389183E+04  0.50400001928E-02 0. -1.
        1   -1    0    0  501    0  0.00000000000E+00  0.00000000000E+00 -0.15422085475E+04  0.15422085475E+04  0.50400001928E-02 0.  1.
    10030    2    1    2    0    0  0.00000000000E+00  0.00000000000E+00  0.11793303709E+04  0.42637474658E+04  0.40974043404E+04 0.  0.
        3    1    3    3  502    0  0.23685171469E+03 -0.14016353988E+04 -0.94552431496E+03  0.17072483025E+04  0.10100000352E+00 0.  1.
       -3    1    3    3    0  502 -0.23685171469E+03  0.14016353988E+04  0.21248546858E+04  0.25564991633E+04  0.10100000352E+00 0. -1.
</event>
<event>
 5   0  0.4077370E-07  0.2600903E+04  0.7818609E-02  0.8367894E-01
       -2   -1    0    0    0  501  0.00000000000E+00  0.00000000000E+00  0.91911578719E+03  0.91911578719E+03  0.25500000920E-02 0.  1.
        2   -1    0    0  501    0  0.00000000000E+00  0.00000000000E+00 -0.18400014063E+04  0.18400014063E+04  0.25500000920E-02 0. -1.
    10030    2    1    2    0    0  0.00000000000E+00  0.00000000000E+00 -0.92088561909E+03  0.27591171935E+04  0.26009031823E+04 0.  0.
        3    1    3    3  502    0  0.96762729635E+03 -0.55358334101E+03  0.24993127209E+03  0.11424634572E+04  0.10100000352E+00 0. -1.
       -3    1    3    3    0  502 -0.96762729635E+03  0.55358334101E+03 -0.11708168912E+04  0.16166537363E+04  0.10100000352E+00 0.  1.
</event>
<event>
 5   0  0.4301754E-07  0.2766630E+04  0.7818609E-02  0.8313704E-01
       -2   -1    0    0    0  501  0.00000000000E+00  0.00000000000E+00  0.13790030801E+04  0.13790030802E+04  0.25500000920E-02 0. -1.
        2   -1    0    0  501    0  0.00000000000E+00  0.00000000000E+00 -0.13876404435E+04  0.13876404435E+04  0.25500000920E-02 0.  1.
    10030    2    1    2    0    0  0.00000000000E+00  0.00000000000E+00 -0.86373633190E+01  0.27666435236E+04  0.27666300408E+04 0.  0.
        1    1    3    3  502    0  0.10010421316E+04  0.57809198662E+03  0.75547759243E+03  0.13809497047E+04  0.50400001928E-02 0. -1.
       -1    1    3    3    0  502 -0.10010421316E+04 -0.57809198662E+03 -0.76411495575E+03  0.13856938189E+04  0.50400001928E-02 0.  1.
</event>
<event>
 5   0  0.1421304E-07  0.2895663E+04  0.7818609E-02  0.8274169E-01
        1   -1    0    0  501    0  0.00000000000E+00  0.00000000000E+00  0.17235529592E+04  0.17235529592E+04  0.50400001928E-02 0. -1.
       -1   -1    0    0    0  501  0.00000000000E+00  0.00000000000E+00 -0.12162183201E+04  0.12162183201E+04  0.50400001928E-02 0.  1.
    10030    2    1    2    0    0  0.00000000000E+00  0.00000000000E+00  0.50733463912E+03  0.29397712793E+04  0.28956634366E+04 0.  0.
        2    1    3    3  502    0  0.60626580077E+03  0.17076199620E+03  0.15771732509E+04  0.16982913013E+04  0.25500000920E-02 0. -1.
       -2    1    3    3    0  502 -0.60626580077E+03 -0.17076199620E+03 -0.10698386118E+04  0.12414799780E+04  0.25500000920E-02 0.  1.
</event>
<event>
 5   0  0.4079777E-07  0.3720768E+04  0.7818609E-02  0.8063375E-01
        2   -1    0    0  501    0  0.00000000000E+00  0.00000000000E+00  0.28276062958E+04  0.28276062958E+04  0.25500000920E-02 0. -1.
       -2   -1    0    0    0  501  0.00000000000E+00  0.00000000000E+00 -0.12240137353E+04  0.12240137353E+04  0.25500000920E-02 0.  1.
    10030    2    1    2    0    0  0.00000000000E+00  0.00000000000E+00  0.16035925605E+04  0.40516200311E+04  0.37207681701E+04 0.  0.
        4    1    3    3  502    0 -0.55224263153E+03 -0.16820072505E+04  0.17919756639E+03  0.17793913835E+04  0.12699999809E+01 0.  1.
       -4    1    3    3    0  502  0.55224263153E+03  0.16820072505E+04  0.14243949941E+04  0.22722286476E+04  0.12699999809E+01 0. -1.
</event>
<event>
 5   0  0.4149487E-07  0.2685816E+04  0.7818609E-02  0.8339622E-01
        2   -1    0    0  501    0  0.00000000000E+00  0.00000000000E+00  0.95261605347E+03  0.95261605348E+03  0.25500000920E-02 0. -1.
       -2   -1    0    0    0  501  0.00000000000E+00  0.00000000000E+00 -0.18931042227E+04  0.18931042227E+04  0.25500000920E-02 0.  1.
    10030    2    1    2    0    0  0.00000000000E+00  0.00000000000E+00 -0.94048816925E+03  0.28457202762E+04  0.26858156850E+04 0.  0.
        2    1    3    3  502    0 -0.18145507161E+03 -0.94307000032E+03 -0.14647955209E+04  0.17515515655E+04  0.25500000920E-02 0.  1.
       -2    1    3    3    0  502  0.18145507161E+03  0.94307000032E+03  0.52430735165E+03  0.10941687107E+04  0.25500000920E-02 0. -1.
</event>
<event>
 5   0  0.1351000E-07  0.4008953E+04  0.7818609E-02  0.8002743E-01
        1   -1    0    0  501    0  0.00000000000E+00  0.00000000000E+00  0.23220830315E+04  0.23220830315E+04  0.50400001928E-02 0. -1.
       -1   -1    0    0    0  501  0.00000000000E+00  0.00000000000E+00 -0.17303111968E+04  0.17303111968E+04  0.50400001928E-02 0.  1.
    10030    2    1    2    0    0  0.00000000000E+00  0.00000000000E+00  0.59177183471E+03  0.40523942283E+04  0.40089531148E+04 0.  0.
        3    1    3    3  502    0 -0.74138062781E+03 -0.17885006613E+04  0.82069033918E+03  0.21028343952E+04  0.10100000352E+00 0. -1.
       -3    1    3    3    0  502  0.74138062781E+03  0.17885006613E+04 -0.22891850447E+03  0.19495598330E+04  0.10100000352E+00 0.  1.
</event>
<event>
 5   0  0.1351000E-07  0.3823999E+04  0.7818609E-02  0.8041024E-01
       -1   -1    0    0    0  501  0.00000000000E+00  0.00000000000E+00  0.17075313373E+04  0.17075313373E+04  0.50400001928E-02 0. -1.
        1   -1    0    0  501    0  0.00000000000E+00  0.00000000000E+00 -0.21409520345E+04  0.21409520345E+04  0.50400001928E-02 0.  1.
    10030    2    1    2    0    0  0.00000000000E+00  0.00000000000E+00 -0.43342069719E+03  0.38484833718E+04  0.38239993152E+04 0.  0.
        4    1    3    3  502    0  0.90841276588E+03 -0.33238214344E+03 -0.18765273441E+04  0.21111722167E+04  0.12699999809E+01 0.  1.
       -4    1    3    3    0  502 -0.90841276588E+03  0.33238214344E+03  0.14431066469E+04  0.17373111551E+04  0.12699999809E+01 0. -1.
</event>
<event>
 5   0  0.1368865E-07  0.2668034E+04  0.7818609E-02  0.8345452E-01
       -1   -1    0    0    0  501  0.00000000000E+00  0.00000000000E+00  0.21488474602E+04  0.21488474602E+04  0.50400001928E-02 0. -1.
        1   -1    0    0  501    0  0.00000000000E+00  0.00000000000E+00 -0.82816559440E+03  0.82816559442E+03  0.50400001928E-02 0.  1.
    10030    2    1    2    0    0  0.00000000000E+00  0.00000000000E+00  0.13206818658E+04  0.29770130546E+04  0.26680341333E+04 0.  0.
        5    1    3    3  502    0 -0.58597213904E+03  0.61552217896E+03  0.18076975995E+04  0.19975043434E+04  0.46999998093E+01 0. -1.
       -5    1    3    3    0  502  0.58597213904E+03 -0.61552217896E+03 -0.48701573371E+03  0.97950871125E+03  0.46999998093E+01 0.  1.
</event>
<event>
 5   0  0.1351000E-07  0.3013580E+04  0.7818609E-02  0.8239864E-01
        1   -1    0    0  501    0  0.00000000000E+00  0.00000000000E+00  0.14563264517E+04  0.14563264517E+04  0.50400001928E-02 0.  1.
       -1   -1    0    0    0  501  0.00000000000E+00  0.00000000000E+00 -0.15590025954E+04  0.15590025955E+04  0.50400001928E-02 0. -1.
    10030    2    1    2    0    0  0.00000000000E+00  0.00000000000E+00 -0.10267614379E+03  0.30153290471E+04  0.30135804074E+04 0.  0.
        4    1    3    3  502    0  0.10708162700E+04  0.37520031785E+03  0.94069692868E+03  0.14738843534E+04  0.12699999809E+01 0.  1.
       -4    1    3    3    0  502 -0.10708162700E+04 -0.37520031785E+03 -0.10433730725E+04  0.15414446937E+04  0.12699999809E+01 0. -1.
</event>
<event>
 5   0  0.1372952E-07  0.3861198E+04  0.7818609E-02  0.8033148E-01
       -1   -1    0    0    0  501  0.00000000000E+00  0.00000000000E+00  0.12970760860E+04  0.12970760860E+04  0.50400001928E-02 0. -1.
        1   -1    0    0  501    0  0.00000000000E+00  0.00000000000E+00 -0.28735494819E+04  0.28735494819E+04  0.50400001928E-02 0.  1.
    10030    2    1    2    0    0  0.00000000000E+00  0.00000000000E+00 -0.15764733960E+04  0.41706255679E+04  0.38611979047E+04 0.  0.
        1    1    3    3  502    0  0.68679997000E+03  0.10757762680E+04 -0.23528427894E+04  0.26767252323E+04  0.50400001928E-02 0.  1.
       -1    1    3    3    0  502 -0.68679997000E+03 -0.10757762680E+04  0.77636939343E+03  0.14939003356E+04  0.50400001928E-02 0. -1.
</event>
<event>
 5   0  0.4047916E-07  0.4136413E+04  0.7818609E-02  0.7977579E-01
       -2   -1    0    0    0  501  0.00000000000E+00  0.00000000000E+00  0.29474354413E+04  0.29474354413E+04  0.25500000920E-02 0. -1.
        2   -1    0    0  501    0  0.00000000000E+00  0.00000000000E+00 -0.14512543293E+04  0.14512543293E+04  0.25500000920E-02 0.  1.
    10030    2    1    2    0    0  0.00000000000E+00  0.00000000000E+00  0.14961811120E+04  0.43986897706E+04  0.41364131537E+04 0.  0.
        5    1    3    3  502    0 -0.12099153247E+04  0.13825606906E+04  0.17580959255E+04  0.25428905854E+04  0.46999998093E+01 0. -1.
       -5    1    3    3    0  502  0.12099153247E+04 -0.13825606906E+04 -0.26191481350E+03  0.18557991852E+04  0.46999998093E+01 0.  1.
</event>
<event>
 5   0  0.1351000E-07  0.3950258E+04  0.7818609E-02  0.8014657E-01
        1   -1    0    0  501    0  0.00000000000E+00  0.00000000000E+00  0.24555542253E+04  0.24555542253E+04  0.50400001928E-02 0.  1.
       -1   -1    0    0    0  501  0.00000000000E+00  0.00000000000E+00 -0.15886984677E+04  0.15886984677E+04  0.50400001928E-02 0. -1.
    10030    2    1    2    0    0  0.00000000000E+00  0.00000000000E+00  0.86685575760E+03  0.40442526930E+04  0.39502583384E+04 0.  0.
        4    1    3    3  502    0  0.13173990131E+04 -0.13719566818E+04 -0.11152353361E+03  0.19053200277E+04  0.12699999809E+01 0. -1.
       -4    1    3    3    0  502 -0.13173990131E+04  0.13719566818E+04  0.97837929120E+03  0.21389326653E+04  0.12699999809E+01 0.  1.
</event>
<event>
 5   0  0.4047916E-07  0.3995491E+04  0.7818609E-02  0.8005457E-01
       -2   -1    0    0    0  501  0.00000000000E+00  0.00000000000E+00  0.13762832366E+04  0.13762832366E+04  0.25500000920E-02 0. -1.
        2   -1    0    0  501    0  0.00000000000E+00  0.00000000000E+00 -0.28998291896E+04  0.28998291896E+04  0.25500000920E-02 0.  1.
    10030    2    1    2    0    0  0.00000000000E+00  0.00000000000E+00 -0.15235459530E+04  0.42761124263E+04  0.39954906095E+04 0.  0.
        5    1    3    3  502    0  0.69368547134E+03 -0.14132219477E+04 -0.20780173057E+04  0.26070239392E+04  0.46999998093E+01 0.  1.
       -5    1    3    3    0  502 -0.69368547134E+03  0.14132219477E+04  0.55447135269E+03  0.16690884871E+04  0.46999998093E+01 0. -1.
</event>
<event>
 5   0  0.4077370E-07  0.4100963E+04  0.7818609E-02  0.7984483E-01
        2   -1    0    0  501    0  0.00000000000E+00  0.00000000000E+00  0.27999860445E+04  0.27999860445E+04  0.25500000920E-02 0.  1.
       -2   -1    0    0    0  501  0.00000000000E+00  0.00000000000E+00 -0.15016056122E+04  0.15016056122E+04  0.25500000920E-02 0. -1.
    10030    2    1    2    0    0  0.00000000000E+00  0.00000000000E+00  0.12983804323E+04  0.43015916567E+04  0.41009631837E+04 0.  0.
        3    1    3    3  502    0 -0.91763994964E+03  0.14156855938E+04 -0.57326377651E+03  0.17818137235E+04  0.10100000352E+00 0. -1.
       -3    1    3    3    0  502  0.91763994964E+03 -0.14156855938E+04  0.18716442088E+04  0.25197779331E+04  0.10100000352E+00 0.  1.
</event>
<event>
 5   0  0.4077370E-07  0.2587179E+04  0.7818609E-02  0.8372569E-01
        2   -1    0    0  501    0  0.00000000000E+00  0.00000000000E+00  0.11202399710E+04  0.11202399710E+04  0.25500000920E-02 0. -1.
       -2   -1    0    0    0  501  0.00000000000E+00  0.00000000000E+00 -0.14937633681E+04  0.14937633681E+04  0.25500000920E-02 0.  1.
    10030    2    1    2    0    0  0.00000000000E+00  0.00000000000E+00 -0.37352339708E+03  0.26140033391E+04  0.25871787199E+04 0.  0.
        3    1    3    3  502    0  0.13012678798E+03 -0.45023353863E+03 -0.14049701669E+04  0.14810754202E+04  0.10100000352E+00 0.  1.
       -3    1    3    3    0  502 -0.13012678798E+03  0.45023353863E+03  0.10314467698E+04  0.11329279189E+04  0.10100000352E+00 0. -1.
</event>
<event>
 5   0  0.1368865E-07  0.4011647E+04  0.7818609E-02  0.8002201E-01
        1   -1    0    0  501    0  0.00000000000E+00  0.00000000000E+00  0.14853450373E+04  0.14853450373E+04  0.50400001928E-02 0.  1.
       -1   -1    0    0    0  501  0.00000000000E+00  0.00000000000E+00 -0.27086818652E+04  0.27086818652E+04  0.50400001928E-02 0. -1.
    10030    2    1    2    0    0  0.00000000000E+00  0.00000000000E+00 -0.12233368279E+04  0.41940269025E+04  0.40116466275E+04 0.  0.
        5    1    3    3  502    0  0.93631730039E+03 -0.15334234866E+04  0.32062841941E+03  0.18250759846E+04  0.46999998093E+01 0. -1.
       -5    1    3    3    0  502 -0.93631730039E+03  0.15334234866E+04 -0.15439652473E+04  0.23689509179E+04  0.46999998093E+01 0.  1.
</event>
<event>
 5   0  0.4047916E-07  0.3874192E+04  0.7818609E-02  0.8030418E-01
        2   -1    0    0  501    0  0.00000000000E+00  0.00000000000E+00  0.22271100337E+04  0.22271100337E+04  0.25500000920E-02 0. -1.
       -2   -1    0    0    0  501  0.00000000000E+00  0.00000000000E+00 -0.16848479593E+04  0.16848479593E+04  0.25500000920E-02 0.  1.
    10030    2    1    2    0    0  0.00000000000E+00  0.00000000000E+00  0.54226207440E+03  0.39119579929E+04  0.38741924553E+04 0.  0.
        5    1    3    3  502    0 -0.10053829413E+04  0.69476058830E+03 -0.12464609063E+04  0.17456156549E+04  0.46999998093E+01 0.  1.
       -5    1    3    3    0  502  0.10053829413E+04 -0.69476058830E+03  0.17887229807E+04  0.21663423380E+04  0.46999998093E+01 0. -1.
</event>
<event>
 5   0  0.4077370E-07  0.3936656E+04  0.7818609E-02  0.8017448E-01
        2   -1    0    0  501    0  0.00000000000E+00  0.00000000000E+00  0.17286209486E+04  0.17286209486E+04  0.25500000920E-02 0.  1.
       -2   -1    0    0    0  501  0.00000000000E+00  0.00000000000E+00 -0.22412752253E+04  0.22412752253E+04  0.25500000920E-02 0. -1.
    10030    2    1    2    0    0  0.00000000000E+00  0.00000000000E+00 -0.51265427672E+03  0.39698961738E+04  0.39366560967E+04 0.  0.
        3    1    3    3  502    0 -0.14249305058E+04 -0.37220764910E+03  0.10605898832E+04  0.18148874320E+04  0.10100000352E+00 0.  1.
       -3    1    3    3    0  502  0.14249305058E+04  0.37220764910E+03 -0.15732441599E+04  0.21550087418E+04  0.10100000352E+00 0. -1.
</event>
<event>
 5   0  0.1351000E-07  0.3971919E+04  0.7818609E-02  0.8010235E-01
       -1   -1    0    0    0  501  0.00000000000E+00  0.00000000000E+00  0.24284162269E+04  0.24284162269E+04  0.50400001928E-02 0. -1.
        1   -1    0    0  501    0  0.00000000000E+00  0.00000000000E+00 -0.16241184468E+04  0.16241184468E+04  0.50400001928E-02 0.  1.
    10030    2    1    2    0    0  0.00000000000E+00  0.00000000000E+00  0.80429778005E+03  0.40525346737E+04  0.39719192291E+04 0.  0.
        3    1    3    3  502    0  0.11127029886E+04 -0.14475506836E+04 -0.39507065144E+03  0.18680449010E+04  0.10100000352E+00 0.  1.
       -3    1    3    3    0  502 -0.11127029886E+04  0.14475506836E+04  0.11993684315E+04  0.21844897727E+04  0.10100000352E+00 0. -1.
</event>
<event>
 5   0  0.1351000E-07  0.3653388E+04  0.7818609E-02  0.8078371E-01
       -1   -1    0    0    0  501  0.00000000000E+00  0.00000000000E+00  0.15021391991E+04  0.15021391991E+04  0.50400001928E-02 0.  1.
        1   -1    0    0  501    0  0.00000000000E+00  0.00000000000E+00 -0.22213725023E+04  0.22213725023E+04  0.50400001928E-02 0. -1.
    10030    2    1    2    0    0  0.00000000000E+00  0.00000000000E+00 -0.71923330314E+03  0.37235117014E+04  0.36533878587E+04 0.  0.
        3    1    3    3  502    0 -0.46942961566E+03 -0.14247801090E+04  0.70271824998E+03  0.16565553030E+04  0.10100000352E+00 0.  1.
       -3    1    3    3    0  502  0.46942961566E+03  0.14247801090E+04 -0.14219515531E+04  0.20669563983E+04  0.10100000352E+00 0. -1.
</event>
<event>
 5   0  0.1351000E-07  0.4008855E+04  0.7818609E-02  0.8002763E-01
       -1   -1    0    0    0  501  0.00000000000E+00  0.00000000000E+00  0.21617231202E+04  0.21617231202E+04  0.50400001928E-02 0.  1.
        1   -1    0    0  501    0  0.00000000000E+00  0.00000000000E+00 -0.18585775190E+04  0.18585775190E+04  0.50400001928E-02 0. -1.
    10030    2    1    2    0    0  0.00000000000E+00  0.00000000000E+00  0.30314560118E+03  0.40203006391E+04  0.40088551949E+04 0.  0.
        4    1    3    3  502    0 -0.86724941254E+03  0.64616591481E+03  0.18440155354E+04  0.21377667882E+04  0.12699999809E+01 0.  1.
       -4    1    3    3    0  502  0.86724941254E+03 -0.64616591481E+03 -0.15408699342E+04  0.18825338510E+04  0.12699999809E+01 0. -1.
</event>
<event>
 5   0  0.4301754E-07  0.3993402E+04  0.7818609E-02  0.8005879E-01
       -2   -1    0    0    0  501  0.00000000000E+00  0.00000000000E+00  0.19982316883E+04  0.19982316883E+04  0.25500000920E-02 0.  1.
        2   -1    0    0  501    0  0.00000000000E+00  0.00000000000E+00 -0.19951713968E+04  0.19951713968E+04  0.25500000920E-02 0. -1.
    10030    2    1    2    0    0  0.00000000000E+00  0.00000000000E+00  0.30602915016E+01  0.39934030852E+04  0.39934019126E+04 0.  0.
        1    1    3    3  502    0  0.14751193852E+04  0.10614153946E+04 -0.82565500281E+03  0.19960676402E+04  0.50400001928E-02 0.  1.
       -1    1    3    3    0  502 -0.14751193852E+04 -0.10614153946E+04  0.82871529431E+03  0.19973354450E+04  0.50400001928E-02 0. -1.
</event>
<event>
 5   0  0.4047916E-07  0.3911046E+04  0.7818609E-02  0.8022736E-01
       -2   -1    0    0    0  501  0.00000000000E+00  0.00000000000E+00  0.22308212133E+04  0.22308212133E+04  0.25500000920E-02 0. -1.
        2   -1    0    0  501    0  0.00000000000E+00  0.00000000000E+00 -0.17141983321E+04  0.17141983321E+04  0.25500000920E-02 0.  1.
    10030    2    1    2    0    0  0.00000000000E+00  0.00000000000E+00  0.51662288123E+03  0.39450195453E+04  0.39110458974E+04 0.  0.
        5    1    3    3  502    0 -0.48781738181E+03  0.12029129842E+04  0.17335763442E+04  0.21657041527E+04  0.46999998093E+01 0. -1.
       -5    1    3    3    0  502  0.48781738181E+03 -0.12029129842E+04 -0.12169534630E+04  0.17793153927E+04  0.46999998093E+01 0.  1.
</event>
<event>
 5   0  0.4149487E-07  0.2521122E+04  0.7818609E-02  0.8395499E-01
        2   -1    0    0  501    0  0.00000000000E+00  0.00000000000E+00  0.17615457042E+04  0.17615457042E+04  0.25500000920E-02 0. -1.
       -2   -1    0    0    0  501  0.00000000000E+00  0.00000000000E+00 -0.90205642078E+03  0.90205642079E+03  0.25500000920E-02 0.  1.
    10030    2    1    2    0    0  0.00000000000E+00  0.00000000000E+00  0.85948928341E+03  0.26636021250E+04  0.25211216654E+04 0.  0.
        2    1    3    3  502    0  0.25459723973E+03 -0.10954844253E+02  0.17340478240E+04  0.17526727073E+04  0.25500000920E-02 0. -1.
       -2    1    3    3    0  502 -0.25459723973E+03  0.10954844253E+02 -0.87455854057E+03  0.91092941767E+03  0.25500000920E-02 0.  1.
</event>
<event>
 5   0  0.4077370E-07  0.3959947E+04  0.7818609E-02  0.8012676E-01
        2   -1    0    0  501    0  0.00000000000E+00  0.00000000000E+00  0.16196636563E+04  0.16196636563E+04  0.25500000920E-02 0. -1.
       -2   -1    0    0    0  501  0.00000000000E+00  0.00000000000E+00 -0.24204375538E+04  0.24204375538E+04  0.25500000920E-02 0.  1.
    10030    2    1    2    0    0  0.00000000000E+00  0.00000000000E+00 -0.80077389745E+03  0.40401012101E+04  0.39599468371E+04 0.  0.
        3    1    3    3  502    0  0.18052870078E+04 -0.35164514371E+03  0.34765186709E+03  0.18717845278E+04  0.10100000352E+00 0. -1.
       -3    1    3    3    0  502 -0.18052870078E+04  0.35164514371E+03 -0.11484257645E+04  0.21683166823E+04  0.10100000352E+00 0.  1.
</event>
<event>
 5   0  0.1421304E-07  0.3970310E+04  0.7818609E-02  0.8010563E-01
        1   -1    0    0  501    0  0.00000000000E+00  0.00000000000E+00  0.35872751965E+04  0.35872751965E+04  0.50400001928E-02 0. -1.
       -1   -1    0    0    0  501  0.00000000000E+00  0.00000000000E+00 -0.10985609675E+04  0.10985609676E+04  0.50400001928E-02 0.  1.
    10030    2    1    2    0    0  0.00000000000E+00  0.00000000000E+00  0.24887142290E+04  0.46858361641E+04  0.39703100689E+04 0.  0.
        2    1    3    3  502    0 -0.56143009065E+03 -0.61646821572E+03  0.33705879872E+04  0.34721895379E+04  0.25500000920E-02 0. -1.
       -2    1    3    3    0  502  0.56143009065E+03  0.61646821572E+03 -0.88187375824E+03  0.12136466261E+04  0.25500000920E-02 0.  1.
</event>
<event>
 5   0  0.1372952E-07  0.4001188E+04  0.7818609E-02  0.8004307E-01
        1   -1    0    0  501    0  0.00000000000E+00  0.00000000000E+00  0.26931813957E+04  0.26931813957E+04  0.50400001928E-02 0.  1.
       -1   -1    0    0    0  501  0.00000000000E+00  0.00000000000E+00 -0.14861148414E+04  0.14861148414E+04  0.50400001928E-02 0. -1.
    10030    2    1    2    0    0  0.00000000000E+00  0.00000000000E+00  0.12070665544E+04  0.41792962371E+04  0.40011882448E+04 0.  0.
        1    1    3    3  502    0 -0.78117165744E+03  0.11478485714E+03 -0.13164899209E+04  0.15351060008E+04  0.50400001928E-02 0. -1.
       -1    1    3    3    0  502  0.78117165744E+03 -0.11478485714E+03  0.25235564753E+04  0.26441902363E+04  0.50400001928E-02 0.  1.
</event>
<event>
 5   0  0.4077370E-07  0.4037474E+04  0.7818609E-02  0.7997029E-01
       -2   -1    0    0    0  501  0.00000000000E+00  0.00000000000E+00  0.16879040969E+04  0.16879040969E+04  0.25500000920E-02 0. -1.
        2   -1    0    0  501    0  0.00000000000E+00  0.00000000000E+00 -0.24144133894E+04  0.24144133894E+04  0.25500000920E-02 0.  1.
    10030    2    1    2    0    0  0.00000000000E+00  0.00000000000E+00 -0.72650929242E+03  0.41023174863E+04  0.40374735920E+04 0.  0.
        3    1    3    3  502    0  0.48439047165E+03  0.18797778665E+04 -0.92632022120E+03  0.21508761282E+04  0.10100000352E+00 0.  1.
       -3    1    3    3    0  502 -0.48439047165E+03 -0.18797778665E+04  0.19981092877E+03  0.19514413581E+04  0.10100000352E+00 0. -1.
</event>
<event>
 5   0  0.4047916E-07  0.3921526E+04  0.7818609E-02  0.8020567E-01
        2   -1    0    0  501    0  0.00000000000E+00  0.00000000000E+00  0.22937250737E+04  0.22937250737E+04  0.25500000920E-02 0. -1.
       -2   -1    0    0    0  501  0.00000000000E+00  0.00000000000E+00 -0.16761340936E+04  0.16761340936E+04  0.25500000920E-02 0.  1.
    10030    2    1    2    0    0  0.00000000000E+00  0.00000000000E+00  0.61759098005E+03  0.39698591673E+04  0.39215256201E+04 0.  0.
        5    1    3    3  502    0 -0.40086311013E+03 -0.19010843486E+04  0.41427060942E+02  0.19433350778E+04  0.46999998093E+01 0. -1.
       -5    1    3    3    0  502  0.40086311013E+03  0.19010843486E+04  0.57616391910E+03  0.20265240894E+04  0.46999998093E+01 0.  1.
</event>
<event>
 5   0  0.1351000E-07  0.3742321E+04  0.7818609E-02  0.8058647E-01
       -1   -1    0    0    0  501  0.00000000000E+00  0.00000000000E+00  0.17170157397E+04  0.17170157397E+04  0.50400001928E-02 0. -1.
        1   -1    0    0  501    0  0.00000000000E+00  0.00000000000E+00 -0.20391437305E+04  0.20391437305E+04  0.50400001928E-02 0.  1.
    10030    2    1    2    0    0  0.00000000000E+00  0.00000000000E+00 -0.32212799083E+03  0.37561594703E+04  0.37423211412E+04 0.  0.
        3    1    3    3  502    0  0.10888604722E+04 -0.25895586048E+03 -0.16661310435E+04  0.20071541869E+04  0.10100000352E+00 0.  1.
       -3    1    3    3    0  502 -0.10888604722E+04  0.25895586048E+03  0.13440030526E+04  0.17490052834E+04  0.10100000352E+00 0. -1.
</event>
<event>
 5   0  0.1421304E-07  0.3827974E+04  0.7818609E-02  0.8040178E-01
       -1   -1    0    0    0  501  0.00000000000E+00  0.00000000000E+00  0.21127557103E+04  0.21127557103E+04  0.50400001928E-02 0. -1.
        1   -1    0    0  501    0  0.00000000000E+00  0.00000000000E+00 -0.17339182804E+04  0.17339182804E+04  0.50400001928E-02 0.  1.
    10030    2    1    2    0    0  0.00000000000E+00  0.00000000000E+00  0.37883742991E+03  0.38466739907E+04  0.38279737450E+04 0.  0.
        2    1    3    3  502    0  0.34085315296E+03 -0.18231272658E+04  0.66434985939E+03  0.19701103103E+04  0.25500000920E-02 0.  1.
       -2    1    3    3    0  502 -0.34085315296E+03  0.18231272658E+04 -0.28551242948E+03  0.18765636804E+04  0.25500000920E-02 0. -1.
</event>
<event>
 5   0  0.2082673E-07  0.2530001E+04  0.7818609E-02  0.8392375E-01
        1   -1    0    0  501    0  0.00000000000E+00  0.00000000000E+00  0.19323115366E+04  0.19323115366E+04  0.50400001928E-02 0. -1.
       -1   -1    0    0    0  501  0.00000000000E+00  0.00000000000E+00 -0.82814123343E+03  0.82814123345E+03  0.50400001928E-02 0.  1.
    10030    2    1    2    0    0  0.00000000000E+00  0.00000000000E+00  0.11041703032E+04  0.27604527701E+04  0.25300014698E+04 0.  0.
        2    1    3    3  502    0  0.16389359871E+03  0.15684460894E+02  0.19205714030E+04  0.19276155291E+04  0.25500000920E-02 0. -1.
       -2    1    3    3    0  502 -0.16389359871E+03 -0.15684460894E+02 -0.81640109986E+03  0.83283724092E+03  0.25500000920E-02 0.  1.
</event>
<event>
 5   0  0.4079777E-07  0.3922013E+04  0.7818609E-02  0.8020466E-01
       -2   -1    0    0    0  501  0.00000000000E+00  0.00000000000E+00  0.19252106917E+04  0.19252106917E+04  0.25500000920E-02 0. -1.
        2   -1    0    0  501    0  0.00000000000E+00  0.00000000000E+00 -0.19974682598E+04  0.19974682598E+04  0.25500000920E-02 0.  1.
    10030    2    1    2    0    0  0.00000000000E+00  0.00000000000E+00 -0.72257568102E+02  0.39226789515E+04  0.39220133861E+04 0.  0.
        4    1    3    3  502    0  0.16551086631E+04  0.26161247018E+03 -0.10549870165E+04  0.19801073176E+04  0.12699999809E+01 0.  1.
       -4    1    3    3    0  502 -0.16551086631E+04 -0.26161247018E+03  0.98272944842E+03  0.19425716339E+04  0.12699999809E+01 0. -1.
</event>
<event>
 5   0  0.1368865E-07  0.3908651E+04  0.7818609E-02  0.8023232E-01
        1   -1    0    0  501    0  0.00000000000E+00  0.00000000000E+00  0.27082731687E+04  0.27082731687E+04  0.50400001928E-02 0. -1.
       -1   -1    0    0    0  501  0.00000000000E+00  0.00000000000E+00 -0.14102668043E+04  0.14102668043E+04  0.50400001928E-02 0.  1.
    10030    2    1    2    0    0  0.00000000000E+00  0.00000000000E+00  0.12980063644E+04  0.41185399730E+04  0.39086507886E+04 0.  0.
        5    1    3    3  502    0  0.17890232432E+04 -0.11764472528E+03 -0.17052863835E+03  0.18009848841E+04  0.46999998093E+01 0.  1.
       -5    1    3    3    0  502 -0.17890232432E+04  0.11764472528E+03  0.14685350027E+04  0.23175550890E+04  0.46999998093E+01 0. -1.
</event>
<event>
 5   0  0.4047916E-07  0.3951407E+04  0.7818609E-02  0.8014422E-01
        2   -1    0    0  501    0  0.00000000000E+00  0.00000000000E+00  0.16991669541E+04  0.16991669541E+04  0.25500000920E-02 0.  1.
       -2   -1    0    0    0  501  0.00000000000E+00  0.00000000000E+00 -0.22972456978E+04  0.22972456978E+04  0.25500000920E-02 0. -1.
    10030    2    1    2    0    0  0.00000000000E+00  0.00000000000E+00 -0.59807874366E+03  0.39964126519E+04  0.39514068255E+04 0.  0.
        5    1    3    3  502    0 -0.19600715275E+04 -0.27533086414E+02 -0.54830833308E+03  0.20355103984E+04  0.46999998093E+01 0. -1.
       -5    1    3    3    0  502  0.19600715275E+04  0.27533086414E+02 -0.49770410577E+02  0.19609022535E+04  0.46999998093E+01 0.  1.
</event>
<event>
 5   0  0.1421304E-07  0.4037410E+04  0.7818609E-02  0.7997042E-01
        1   -1    0    0  501    0  0.00000000000E+00  0.00000000000E+00  0.26787572852E+04  0.26787572852E+04  0.50400001928E-02 0.  1.
       -1   -1    0    0    0  501  0.00000000000E+00  0.00000000000E+00 -0.15212914987E+04  0.15212914987E+04  0.50400001928E-02 0. -1.
    10030    2    1    2    0    0  0.00000000000E+00  0.00000000000E+00  0.11574657864E+04  0.42000487839E+04  0.40374104003E+04 0.  0.
        2    1    3    3  502    0 -0.16199788186E+04 -0.11081574011E+04  0.87672571671E+02  0.19646960778E+04  0.25500000920E-02 0. -1.
       -2    1    3    3    0  502  0.16199788186E+04  0.11081574011E+04  0.10697932148E+04  0.22353527061E+04  0.25500000920E-02 0.  1.
</event>
<event>
 5   0  0.4301754E-07  0.4026773E+04  0.7818609E-02  0.7999167E-01
       -2   -1    0    0    0  501  0.00000000000E+00  0.00000000000E+00  0.20476437462E+04  0.20476437462E+04  0.25500000920E-02 0. -1.
        2   -1    0    0  501    0  0.00000000000E+00  0.00000000000E+00 -0.19797023711E+04  0.19797023711E+04  0.25500000920E-02 0.  1.
    10030    2    1    2    0    0  0.00000000000E+00  0.00000000000E+00  0.67941375103E+02  0.40273461174E+04  0.40267729907E+04 0.  0.
        1    1    3    3  502    0 -0.18861451355E+04 -0.69923817730E+03  0.11911610525E+03  0.20151094629E+04  0.50400001928E-02 0. -1.
       -1    1    3    3    0  502  0.18861451355E+04  0.69923817730E+03 -0.51174730148E+02  0.20122366545E+04  0.50400001928E-02 0.  1.
</event>
<event>
 5   0  0.1368865E-07  0.3094202E+04  0.7818609E-02  0.8217331E-01
        1   -1    0    0  501    0  0.00000000000E+00  0.00000000000E+00  0.18037301059E+04  0.18037301059E+04  0.50400001928E-02 0.  1.
       -1   -1    0    0    0  501  0.00000000000E+00  0.00000000000E+00 -0.13269843409E+04  0.13269843409E+04  0.50400001928E-02 0. -1.
    10030    2    1    2    0    0  0.00000000000E+00  0.00000000000E+00  0.47674576505E+03  0.31307144468E+04  0.30942020656E+04 0.  0.
        5    1    3    3  502    0 -0.14223009123E+03 -0.55490598975E+03 -0.12157180232E+04  0.13439279959E+04  0.46999998093E+01 0. -1.
       -5    1    3    3    0  502  0.14223009123E+03  0.55490598975E+03  0.16924637883E+04  0.17867864508E+04  0.46999998093E+01 0.  1.
</event>
<event>
 5   0  0.4047916E-07  0.2891754E+04  0.7818609E-02  0.8275335E-01
        2   -1    0    0  501    0  0.00000000000E+00  0.00000000000E+00  0.24302089453E+04  0.24302089453E+04  0.25500000920E-02 0. -1.
       -2   -1    0    0    0  501  0.00000000000E+00  0.00000000000E+00 -0.86023912143E+03  0.86023912143E+03  0.25500000920E-02 0.  1.
    10030    2    1    2    0    0  0.00000000000E+00  0.00000000000E+00  0.15699698239E+04  0.32904480667E+04  0.28917543519E+04 0.  0.
        5    1    3    3  502    0  0.21416090222E+02 -0.14382958684E+04  0.61858659883E+03  0.15658304903E+04  0.46999998093E+01 0.  1.
       -5    1    3    3    0  502 -0.21416090222E+02  0.14382958684E+04  0.95138322503E+03  0.17246175764E+04  0.46999998093E+01 0. -1.
</event>
<event>
 5   0  0.4149487E-07  0.4008040E+04  0.7818609E-02  0.8002927E-01
       -2   -1    0    0    0  501  0.00000000000E+00  0.00000000000E+00  0.24238061794E+04  0.24238061794E+04  0.25500000920E-02 0. -1.
        2   -1    0    0  501    0  0.00000000000E+00  0.00000000000E+00 -0.16569374511E+04  0.16569374511E+04  0.25500000920E-02 0.  1.
    10030    2    1    2    0    0  0.00000000000E+00  0.00000000000E+00  0.76686872834E+03  0.40807436305E+04  0.40080395371E+04 0.  0.
        2    1    3    3  502    0  0.74431321148E+03  0.16704718203E+04 -0.45095382148E+03  0.18835704416E+04  0.25500000920E-02 0.  1.
       -2    1    3    3    0  502 -0.74431321148E+03 -0.16704718203E+04  0.12178225498E+04  0.21971731889E+04  0.25500000920E-02 0. -1.
</event>
<event>
 5   0  0.4149487E-07  0.4010741E+04  0.7818609E-02  0.8002383E-01
       -2   -1    0    0    0  501  0.00000000000E+00  0.00000000000E+00  0.25510283199E+04  0.25510283199E+04  0.25500000920E-02 0.  1.
        2   -1    0    0  501    0  0.00000000000E+00  0.00000000000E+00 -0.15764277156E+04  0.15764277156E+04  0.25500000920E-02 0. -1.
    10030    2    1    2    0    0  0.00000000000E+00  0.00000000000E+00  0.97460060428E+03  0.41274560355E+04  0.40107414510E+04 0.  0.
        2    1    3    3  502    0 -0.17748899039E+03 -0.19798409196E+03  0.25328072329E+04  0.25467258434E+04  0.25500000920E-02 0.  1.
       -2    1    3    3    0  502  0.17748899039E+03  0.19798409196E+03 -0.15582066287E+04  0.15807301920E+04  0.25500000920E-02 0. -1.
</event>
<event>
 5   0  0.4079777E-07  0.3933178E+04  0.7818609E-02  0.8018164E-01
       -2   -1    0    0    0  501  0.00000000000E+00  0.00000000000E+00  0.12437030890E+04  0.12437030890E+04  0.25500000920E-02 0.  1.
        2   -1    0    0  501    0  0.00000000000E+00  0.00000000000E+00 -0.31096419938E+04  0.31096419938E+04  0.25500000920E-02 0. -1.
    10030    2    1    2    0    0  0.00000000000E+00  0.00000000000E+00 -0.18659389047E+04  0.43533450828E+04  0.39331775212E+04 0.  0.
        4    1    3    3  502    0 -0.56648829107E+03 -0.13917807851E+04  0.47122088835E+03  0.15748058535E+04  0.12699999809E+01 0.  1.
       -4    1    3    3    0  502  0.56648829107E+03  0.13917807851E+04 -0.23371597931E+04  0.27785392293E+04  0.12699999809E+01 0. -1.
</event>
<event>
 5   0  0.4149487E-07  0.4052932E+04  0.7818609E-02  0.7993953E-01
       -2   -1    0    0    0  501  0.00000000000E+00  0.00000000000E+00  0.29218444666E+04  0.29218444666E+04  0.25500000920E-02 0. -1.
        2   -1    0    0  501    0  0.00000000000E+00  0.00000000000E+00 -0.14054699111E+04  0.14054699111E+04  0.25500000920E-02 0.  1.
    10030    2    1    2    0    0  0.00000000000E+00  0.00000000000E+00  0.15163745555E+04  0.43273143777E+04  0.40529320166E+04 0.  0.
        2    1    3    3  502    0  0.13832155228E+04 -0.75091936246E+03 -0.60470931634E+03  0.16860718931E+04  0.25500000920E-02 0.  1.
       -2    1    3    3    0  502 -0.13832155228E+04  0.75091936246E+03  0.21210838718E+04  0.26412424846E+04  0.25500000920E-02 0. -1.
</event>
<event>
 5   0  0.4149487E-07  0.4017763E+04  0.7818609E-02  0.8000973E-01
        2   -1    0    0  501    0  0.00000000000E+00  0.00000000000E+00  0.24813368426E+04  0.24813368426E+04  0.25500000920E-02 0. -1.
       -2   -1    0    0    0  501  0.00000000000E+00  0.00000000000E+00 -0.16263833823E+04  0.16263833823E+04  0.25500000920E-02 0.  1.
    10030    2    1    2    0    0  0.00000000000E+00  0.00000000000E+00  0.85495346036E+03  0.41077202249E+04  0.40177630625E+04 0.  0.
        2    1    3    3  502    0  0.62161109784E+03  0.99323970840E+03  0.20957837779E+04  0.24010904021E+04  0.25500000920E-02 0. -1.
       -2    1    3    3    0  502 -0.62161109784E+03 -0.99323970840E+03 -0.12408303175E+04  0.17066298228E+04  0.25500000920E-02 0.  1.
</event>
<event>
 5   0  0.4077370E-07  0.3544743E+04  0.7818609E-02  0.8103268E-01
       -2   -1    0    0    0  501  0.00000000000E+00  0.00000000000E+00  0.13608108007E+04  0.13608108007E+04  0.25500000920E-02 0.  1.
        2   -1    0    0  501    0  0.00000000000E+00  0.00000000000E+00 -0.23084031487E+04  0.23084031487E+04  0.25500000920E-02 0. -1.
    10030    2    1    2    0    0  0.00000000000E+00  0.00000000000E+00 -0.94759234798E+03  0.36692139494E+04  0.35447425504E+04 0.  0.
        3    1    3    3  502    0 -0.16469538712E+04 -0.64890417756E+03 -0.56501695310E+03  0.18581651846E+04  0.10100000352E+00 0. -1.
       -3    1    3    3    0  502  0.16469538712E+04  0.64890417756E+03 -0.38257539487E+03  0.18110487648E+04  0.10100000352E+00 0.  1.
</event>
<event>
 5   0  0.1351000E-07  0.3993079E+04  0.7818609E-02  0.8005944E-01
        1   -1    0    0  501    0  0.00000000000E+00  0.00000000000E+00  0.23399501391E+04  0.23399501391E+04  0.50400001928E-02 0.  1.
       -1   -1    0    0    0  501  0.00000000000E+00  0.00000000000E+00 -0.17035277834E+04  0.17035277834E+04  0.50400001928E-02 0. -1.
    10030    2    1    2    0    0  0.00000000000E+00  0.00000000000E+00  0.63642235572E+03  0.40434779224E+04  0.39930790494E+04 0.  0.
        4    1    3    3  502    0  0.16957416587E+04 -0.11625679212E+03 -0.74244068252E+03  0.18547978851E+04  0.12699999809E+01 0. -1.
       -4    1    3    3    0  502 -0.16957416587E+04  0.11625679212E+03  0.13788630382E+04  0.21886800373E+04  0.12699999809E+01 0.  1.
</event>
<event>
 5   0  0.1372952E-07  0.3951866E+04  0.7818609E-02  0.8014328E-01
       -1   -1    0    0    0  501  0.00000000000E+00  0.00000000000E+00  0.16818207126E+04  0.16818207126E+04  0.50400001928E-02 0.  1.
        1   -1    0    0  501    0  0.00000000000E+00  0.00000000000E+00 -0.23214793229E+04  0.23214793229E+04  0.50400001928E-02 0. -1.
    10030    2    1    2    0    0  0.00000000000E+00  0.00000000000E+00 -0.63965861025E+03  0.40033000355E+04  0.39518663992E+04 0.  0.
        1    1    3    3  502    0 -0.72613114286E+03 -0.18297837485E+04 -0.14750652780E+03  0.19741157967E+04  0.50400001928E-02 0. -1.
       -1    1    3    3    0  502  0.72613114286E+03  0.18297837485E+04 -0.49215208245E+03  0.20291842389E+04  0.50400001928E-02 0.  1.
</event>
<event>
 5   0  0.1351000E-07  0.3483992E+04  0.7818609E-02  0.8117594E-01
       -1   -1    0    0    0  501  0.00000000000E+00  0.00000000000E+00  0.15258414846E+04  0.15258414846E+04  0.50400001928E-02 0.  1.
        1   -1    0    0  501    0  0.00000000000E+00  0.00000000000E+00 -0.19887718788E+04  0.19887718788E+04  0.50400001928E-02 0. -1.
    10030    2    1    2    0    0  0.00000000000E+00  0.00000000000E+00 -0.46293039421E+03  0.35146133634E+04  0.34839923284E+04 0.  0.
        3    1    3    3  502    0  0.63339572515E+03 -0.22644308129E+03  0.13895442663E+04  0.15437939927E+04  0.10100000352E+00 0.  1.
       -3    1    3    3    0  502 -0.63339572515E+03  0.22644308129E+03 -0.18524746605E+04  0.19708193707E+04  0.10100000352E+00 0. -1.
</event>
<event>
 5   0  0.1421304E-07  0.4016174E+04  0.7818609E-02  0.8001292E-01
       -1   -1    0    0    0  501  0.00000000000E+00  0.00000000000E+00  0.16713638206E+04  0.16713638206E+04  0.50400001928E-02 0.  1.
        1   -1    0    0  501    0  0.00000000000E+00  0.00000000000E+00 -0.24126487985E+04  0.24126487985E+04  0.50400001928E-02 0. -1.
    10030    2    1    2    0    0  0.00000000000E+00  0.00000000000E+00 -0.74128497789E+03  0.40840126191E+04  0.40161742560E+04 0.  0.
        2    1    3    3  502    0 -0.95780210605E+03  0.15498910532E+04  0.48793344396E+03  0.18861670650E+04  0.25500000920E-02 0.  1.
       -2    1    3    3    0  502  0.95780210605E+03 -0.15498910532E+04 -0.12292184218E+04  0.21978455541E+04  0.25500000920E-02 0. -1.
</event>
<event>
 5   0  0.1372952E-07  0.3899341E+04  0.7818609E-02  0.8025166E-01
       -1   -1    0    0    0  501  0.00000000000E+00  0.00000000000E+00  0.12762089962E+04  0.12762089962E+04  0.50400001928E-02 0. -1.
        1   -1    0    0  501    0  0.00000000000E+00  0.00000000000E+00 -0.29785203342E+04  0.29785203342E+04  0.50400001928E-02 0.  1.
    10030    2    1    2    0    0  0.00000000000E+00  0.00000000000E+00 -0.17023113380E+04  0.42547293304E+04  0.38993406857E+04 0.  0.
        1    1    3    3  502    0  0.49729124536E+03 -0.35007327087E+03  0.11700671246E+04  0.13186762127E+04  0.50400001928E-02 0. -1.
       -1    1    3    3    0  502 -0.49729124536E+03  0.35007327087E+03 -0.28723784626E+04  0.29360531177E+04  0.50400001928E-02 0.  1.
</event>
<event>
 5   0  0.4079777E-07  0.4005930E+04  0.7818609E-02  0.8003351E-01
        2   -1    0    0  501    0  0.00000000000E+00  0.00000000000E+00  0.15435386169E+04  0.15435386169E+04  0.25500000920E-02 0. -1.
       -2   -1    0    0    0  501  0.00000000000E+00  0.00000000000E+00 -0.25991372837E+04  0.25991372837E+04  0.25500000920E-02 0.  1.
    10030    2    1    2    0    0  0.00000000000E+00  0.00000000000E+00 -0.10555986668E+04  0.41426759007E+04  0.40059299885E+04 0.  0.
        4    1    3    3  502    0  0.29651495155E+03  0.13581578107E+04  0.96342079272E+03  0.16913589187E+04  0.12699999809E+01 0.  1.
       -4    1    3    3    0  502 -0.29651495155E+03 -0.13581578107E+04 -0.20190194595E+04  0.24513169819E+04  0.12699999809E+01 0. -1.
</event>
<event>
 5   0  0.4079777E-07  0.3973761E+04  0.7818609E-02  0.8009861E-01
        2   -1    0    0  501    0  0.00000000000E+00  0.00000000000E+00  0.20720239020E+04  0.20720239020E+04  0.25500000920E-02 0. -1.
       -2   -1    0    0    0  501  0.00000000000E+00  0.00000000000E+00 -0.19052362596E+04  0.19052362596E+04  0.25500000920E-02 0.  1.
    10030    2    1    2    0    0  0.00000000000E+00  0.00000000000E+00  0.16678764239E+03  0.39772601616E+04  0.39737614769E+04 0.  0.
        4    1    3    3  502    0 -0.13031581628E+04  0.94213599274E+03 -0.10846178061E+04  0.19396491498E+04  0.12699999809E+01 0. -1.
       -4    1    3    3    0  502  0.13031581628E+04 -0.94213599274E+03  0.12514054485E+04  0.20376110118E+04  0.12699999809E+01 0.  1.
</event>
<event>
 5   0  0.4149487E-07  0.3936349E+04  0.7818609E-02  0.8017512E-01
       -2   -1    0    0    0  501  0.00000000000E+00  0.00000000000E+00  0.13613829139E+04  0.13613829139E+04  0.25500000920E-02 0.  1.
        2   -1    0    0  501    0  0.00000000000E+00  0.00000000000E+00 -0.28454228895E+04  0.28454228895E+04  0.25500000920E-02 0. -1.
    10030    2    1    2    0    0  0.00000000000E+00  0.00000000000E+00 -0.14840399756E+04  0.42068058034E+04  0.39363486150E+04 0.  0.
        2    1    3    3  502    0 -0.16543467647E+04  0.10634587074E+04 -0.65991385476E+03  0.20744382218E+04  0.25500000920E-02 0.  1.
       -2    1    3    3    0  502  0.16543467647E+04 -0.10634587074E+04 -0.82412612088E+03  0.21323675817E+04  0.25500000920E-02 0. -1.
</event>
<event>
 5   0  0.1351000E-07  0.3983490E+04  0.7818609E-02  0.8007886E-01
        3   -1    0    0  501    0  0.00000000000E+00  0.00000000000E+00  0.22528946522E+04  0.22528946545E+04  0.10100000352E+00 0. -1.
       -3   -1    0    0    0  501  0.00000000000E+00  0.00000000000E+00 -0.17608668597E+04  0.17608668626E+04  0.10100000352E+00 0.  1.
    10030    2    1    2    0    0  0.00000000000E+00  0.00000000000E+00  0.49202779255E+03  0.40137615171E+04  0.39834896972E+04 0.  0.
        1    1    3    3  502    0  0.67933246272E+03  0.79599198706E+03  0.19535757042E+04  0.22162025788E+04  0.50400001928E-02 0. -1.
       -1    1    3    3    0  502 -0.67933246272E+03 -0.79599198706E+03 -0.14615479116E+04  0.17975589382E+04  0.50400001928E-02 0.  1.
</event>
<event>
 5   0  0.1351000E-07  0.3796553E+04  0.7818609E-02  0.8046895E-01
       -1   -1    0    0    0  501  0.00000000000E+00  0.00000000000E+00  0.14669785730E+04  0.14669785730E+04  0.50400001928E-02 0. -1.
        1   -1    0    0  501    0  0.00000000000E+00  0.00000000000E+00 -0.24563778222E+04  0.24563778222E+04  0.50400001928E-02 0.  1.
    10030    2    1    2    0    0  0.00000000000E+00  0.00000000000E+00 -0.98939924918E+03  0.39233563952E+04  0.37965529799E+04 0.  0.
        4    1    3    3  502    0 -0.33001719202E+03 -0.17799165655E+04 -0.10851296647E+04  0.21105739337E+04  0.12699999809E+01 0.  1.
       -4    1    3    3    0  502  0.33001719202E+03  0.17799165655E+04  0.95730415558E+02  0.18127824615E+04  0.12699999809E+01 0. -1.
</event>
<event>
 5   0  0.1351000E-07  0.3953462E+04  0.7818609E-02  0.8014001E-01
        1   -1    0    0  501    0  0.00000000000E+00  0.00000000000E+00  0.22100300706E+04  0.22100300706E+04  0.50400001928E-02 0.  1.
       -1   -1    0    0    0  501  0.00000000000E+00  0.00000000000E+00 -0.17680595359E+04  0.17680595359E+04  0.50400001928E-02 0. -1.
    10030    2    1    2    0    0  0.00000000000E+00  0.00000000000E+00  0.44197053463E+03  0.39780896065E+04  0.39534616432E+04 0.  0.
        3    1    3    3  502    0  0.10575278144E+04 -0.38662280367E+03 -0.14138271935E+04  0.18074151748E+04  0.10100000352E+00 0. -1.
       -3    1    3    3    0  502 -0.10575278144E+04  0.38662280367E+03  0.18557977282E+04  0.21706744317E+04  0.10100000352E+00 0.  1.
</event>
<event>
 5   0  0.1351000E-07  0.4066934E+04  0.7818609E-02  0.7991178E-01
       -1   -1    0    0    0  501  0.00000000000E+00  0.00000000000E+00  0.29246228868E+04  0.29246228868E+04  0.50400001928E-02 0. -1.
        1   -1    0    0  501    0  0.00000000000E+00  0.00000000000E+00 -0.14138536143E+04  0.14138536143E+04  0.50400001928E-02 0.  1.
    10030    2    1    2    0    0  0.00000000000E+00  0.00000000000E+00  0.15107692725E+04  0.43384765012E+04  0.40669342946E+04 0.  0.
        4    1    3    3  502    0  0.15316344483E+04  0.53634882642E+03  0.20625187888E+04  0.26244160330E+04  0.12699999809E+01 0. -1.
       -4    1    3    3    0  502 -0.15316344483E+04 -0.53634882642E+03 -0.55174951636E+03  0.17140604682E+04  0.12699999809E+01 0.  1.
</event>
<event>
 5   0  0.1351000E-07  0.4013185E+04  0.7818609E-02  0.8001892E-01
        1   -1    0    0  501    0  0.00000000000E+00  0.00000000000E+00  0.28288045674E+04  0.28288045674E+04  0.50400001928E-02 0.  1.
       -1   -1    0    0    0  501  0.00000000000E+00  0.00000000000E+00 -0.14233623621E+04  0.14233623621E+04  0.50400001928E-02 0. -1.
    10030    2    1    2    0    0  0.00000000000E+00  0.00000000000E+00  0.14054422054E+04  0.42521669295E+04  0.40131852441E+04 0.  0.
        4    1    3    3  502    0 -0.81561508668E+03 -0.10662172418E+04  0.22829650698E+04  0.26483916439E+04  0.12699999809E+01 0.  1.
       -4    1    3    3    0  502  0.81561508668E+03  0.10662172418E+04 -0.87752286448E+03  0.16037752856E+04  0.12699999809E+01 0. -1.
</event>
<event>
 5   0  0.4301754E-07  0.4029273E+04  0.7818609E-02  0.7998667E-01
        2   -1    0    0  501    0  0.00000000000E+00  0.00000000000E+00  0.15340616384E+04  0.15340616385E+04  0.25500000920E-02 0.  1.
       -2   -1    0    0    0  501  0.00000000000E+00  0.00000000000E+00 -0.26457613163E+04  0.26457613163E+04  0.25500000920E-02 0. -1.
    10030    2    1    2    0    0  0.00000000000E+00  0.00000000000E+00 -0.11116996778E+04  0.41798229547E+04  0.40292733537E+04 0.  0.
        1    1    3    3  502    0  0.73227626882E+03  0.10428063677E+04 -0.21746320433E+04  0.25204559465E+04  0.50400001928E-02 0. -1.
       -1    1    3    3    0  502 -0.73227626882E+03 -0.10428063677E+04  0.10629323655E+04  0.16593670082E+04  0.50400001928E-02 0.  1.
</event>
<event>
 5   0  0.4149487E-07  0.3911836E+04  0.7818609E-02  0.8022572E-01
        2   -1    0    0  501    0  0.00000000000E+00  0.00000000000E+00  0.16065338246E+04  0.16065338246E+04  0.25500000920E-02 0. -1.
       -2   -1    0    0    0  501  0.00000000000E+00  0.00000000000E+00 -0.23812854432E+04  0.23812854432E+04  0.25500000920E-02 0.  1.
    10030    2    1    2    0    0  0.00000000000E+00  0.00000000000E+00 -0.77475161863E+03  0.39878192678E+04  0.39118361983E+04 0.  0.
        2    1    3    3  502    0 -0.31323131434E+03  0.16587553291E+03 -0.23482733823E+04  0.23748718758E+04  0.25500000920E-02 0.  1.
       -2    1    3    3    0  502  0.31323131434E+03 -0.16587553291E+03  0.15735217636E+04  0.16129473920E+04  0.25500000920E-02 0. -1.
</event>
<event>
 5   0  0.4077370E-07  0.3974037E+04  0.7818609E-02  0.8009805E-01
       -2   -1    0    0    0  501  0.00000000000E+00  0.00000000000E+00  0.20851853385E+04  0.20851853385E+04  0.25500000920E-02 0.  1.
        2   -1    0    0  501    0  0.00000000000E+00  0.00000000000E+00 -0.18934732788E+04  0.18934732788E+04  0.25500000920E-02 0. -1.
    10030    2    1    2    0    0  0.00000000000E+00  0.00000000000E+00  0.19171205967E+03  0.39786586172E+04  0.39740371008E+04 0.  0.
        3    1    3    3  502    0  0.18528751380E+04 -0.37238339166E+03 -0.51839397294E+03  0.19597316114E+04  0.10100000352E+00 0. -1.
       -3    1    3    3    0  502 -0.18528751380E+04  0.37238339166E+03  0.71010603261E+03  0.20189270059E+04  0.10100000352E+00 0.  1.
</event>
<event>
 5   0  0.4047916E-07  0.3963705E+04  0.7818609E-02  0.8011909E-01
       -2   -1    0    0    0  501  0.00000000000E+00  0.00000000000E+00  0.21769374718E+04  0.21769374718E+04  0.25500000920E-02 0. -1.
        2   -1    0    0  501    0  0.00000000000E+00  0.00000000000E+00 -0.18042501584E+04  0.18042501584E+04  0.25500000920E-02 0.  1.
    10030    2    1    2    0    0  0.00000000000E+00  0.00000000000E+00  0.37268731335E+03  0.39811876302E+04  0.39637052254E+04 0.  0.
        5    1    3    3  502    0 -0.11149253249E+04 -0.31721009676E+03  0.18009277057E+04  0.21417384100E+04  0.46999998093E+01 0. -1.
       -5    1    3    3    0  502  0.11149253249E+04  0.31721009676E+03 -0.14282403924E+04  0.18394492203E+04  0.46999998093E+01 0.  1.
</event>
<event>
 5   0  0.1368865E-07  0.4011794E+04  0.7818609E-02  0.8002172E-01
        1   -1    0    0  501    0  0.00000000000E+00  0.00000000000E+00  0.19048628072E+04  0.19048628072E+04  0.50400001928E-02 0.  1.
       -1   -1    0    0    0  501  0.00000000000E+00  0.00000000000E+00 -0.21122898993E+04  0.21122898993E+04  0.50400001928E-02 0. -1.
    10030    2    1    2    0    0  0.00000000000E+00  0.00000000000E+00 -0.20742709208E+03  0.40171527065E+04  0.40117938468E+04 0.  0.
        5    1    3    3  502    0  0.43016003582E+03  0.12673343697E+04 -0.15998399927E+04  0.20858293682E+04  0.46999998093E+01 0. -1.
       -5    1    3    3    0  502 -0.43016003582E+03 -0.12673343697E+04  0.13924129006E+04  0.19313233383E+04  0.46999998093E+01 0.  1.
</event>
<event>
 5   0  0.1421304E-07  0.4099729E+04  0.7818609E-02  0.7984725E-01
       -1   -1    0    0    0  501  0.00000000000E+00  0.00000000000E+00  0.26620269301E+04  0.26620269301E+04  0.50400001928E-02 0. -1.
        1   -1    0    0  501    0  0.00000000000E+00  0.00000000000E+00 -0.15784758771E+04  0.15784758771E+04  0.50400001928E-02 0.  1.
    10030    2    1    2    0    0  0.00000000000E+00  0.00000000000E+00  0.10835510530E+04  0.42405028072E+04  0.40997294024E+04 0.  0.
        2    1    3    3  502    0  0.15746945552E+04 -0.12892396149E+04  0.79543830867E+03  0.21850683810E+04  0.25500000920E-02 0. -1.
       -2    1    3    3    0  502 -0.15746945552E+04  0.12892396149E+04  0.28811274434E+03  0.20554344262E+04  0.25500000920E-02 0.  1.
</event>
<event>
 5   0  0.1368865E-07  0.4126999E+04  0.7818609E-02  0.7979406E-01
        1   -1    0    0  501    0  0.00000000000E+00  0.00000000000E+00  0.19422651275E+04  0.19422651275E+04  0.50400001928E-02 0. -1.
       -1   -1    0    0    0  501  0.00000000000E+00  0.00000000000E+00 -0.21923014112E+04  0.21923014112E+04  0.50400001928E-02 0.  1.
    10030    2    1    2    0    0  0.00000000000E+00  0.00000000000E+00 -0.25003628375E+03  0.41345665387E+04  0.41269991907E+04 0.  0.
        5    1    3    3  502    0 -0.66342854826E+03  0.19178195311E+04  0.24961847133E+03  0.20446272677E+04  0.46999998093E+01 0.  1.
       -5    1    3    3    0  502  0.66342854826E+03 -0.19178195311E+04 -0.49965475508E+03  0.20899392711E+04  0.46999998093E+01 0. -1.
</event>
<event>
 5   0  0.4149487E-07  0.3977988E+04  0.7818609E-02  0.8009002E-01
       -2   -1    0    0    0  501  0.00000000000E+00  0.00000000000E+00  0.13534137202E+04  0.13534137202E+04  0.25500000920E-02 0. -1.
        2   -1    0    0  501    0  0.00000000000E+00  0.00000000000E+00 -0.29230501745E+04  0.29230501745E+04  0.25500000920E-02 0.  1.
    10030    2    1    2    0    0  0.00000000000E+00  0.00000000000E+00 -0.15696364543E+04  0.42764638947E+04  0.39779875369E+04 0.  0.
        2    1    3    3  502    0 -0.72366529519E+03  0.70643517224E+03 -0.26260295522E+04  0.28140315068E+04  0.25500000920E-02 0.  1.
       -2    1    3    3    0  502  0.72366529519E+03 -0.70643517224E+03  0.10563930979E+04  0.14624323879E+04  0.25500000920E-02 0. -1.
</event>
<event>
 5   0  0.4301754E-07  0.2926243E+04  0.7818609E-02  0.8265112E-01
       -2   -1    0    0    0  501  0.00000000000E+00  0.00000000000E+00  0.93219819880E+03  0.93219819880E+03  0.25500000920E-02 0. -1.
        2   -1    0    0  501    0  0.00000000000E+00  0.00000000000E+00 -0.22964262261E+04  0.22964262261E+04  0.25500000920E-02 0.  1.
    10030    2    1    2    0    0  0.00000000000E+00  0.00000000000E+00 -0.13642280273E+04  0.32286244249E+04  0.29262429097E+04 0.  0.
        1    1    3    3  502    0 -0.12253965499E+04 -0.36261269065E+03 -0.14682269679E+04  0.19464776128E+04  0.50400001928E-02 0.  1.
       -1    1    3    3    0  502  0.12253965499E+04  0.36261269065E+03  0.10399894057E+03  0.12821468121E+04  0.50400001928E-02 0. -1.
</event>
<event>
 5   0  0.4301754E-07  0.3921965E+04  0.7818609E-02  0.8020476E-01
        2   -1    0    0  501    0  0.00000000000E+00  0.00000000000E+00  0.18769279111E+04  0.18769279111E+04  0.25500000920E-02 0. -1.
       -2   -1    0    0    0  501  0.00000000000E+00  0.00000000000E+00 -0.20488011311E+04  0.20488011311E+04  0.25500000920E-02 0.  1.
    10030    2    1    2    0    0  0.00000000000E+00  0.00000000000E+00 -0.17187322007E+03  0.39257290422E+04  0.39219648276E+04 0.  0.
        1    1    3    3  502    0  0.11680707397E+04  0.15482681232E+04  0.20404576161E+03  0.19501687381E+04  0.50400001928E-02 0.  1.
       -1    1    3    3    0  502 -0.11680707397E+04 -0.15482681232E+04 -0.37591898168E+03  0.19755603041E+04  0.50400001928E-02 0. -1.
</event>
<event>
 5   0  0.4077370E-07  0.3948564E+04  0.7818609E-02  0.8015004E-01
       -2   -1    0    0    0  501  0.00000000000E+00  0.00000000000E+00  0.15464991767E+04  0.15464991768E+04  0.25500000920E-02 0.  1.
        2   -1    0    0  501    0  0.00000000000E+00  0.00000000000E+00 -0.25203952258E+04  0.25203952258E+04  0.25500000920E-02 0. -1.
    10030    2    1    2    0    0  0.00000000000E+00  0.00000000000E+00 -0.97389604909E+03  0.40668944026E+04  0.39485638614E+04 0.  0.
        3    1    3    3  502    0 -0.16473912278E+04  0.76670607667E+03  0.30823333866E+03  0.18430257368E+04  0.10100000352E+00 0.  1.
       -3    1    3    3    0  502  0.16473912278E+04 -0.76670607667E+03 -0.12821293877E+04  0.22238686658E+04  0.10100000352E+00 0. -1.
</event>
<event>
 5   0  0.1351000E-07  0.3814086E+04  0.7818609E-02  0.8043139E-01
        1   -1    0    0  501    0  0.00000000000E+00  0.00000000000E+00  0.19912074445E+04  0.19912074445E+04  0.50400001928E-02 0.  1.
       -1   -1    0    0    0  501  0.00000000000E+00  0.00000000000E+00 -0.18264363953E+04  0.18264363953E+04  0.50400001928E-02 0. -1.
    10030    2    1    2    0    0  0.00000000000E+00  0.00000000000E+00  0.16477104917E+03  0.38176438398E+04  0.38140863898E+04 0.  0.
        4    1    3    3  502    0  0.37266493371E+03  0.12747644002E+04 -0.12874334815E+04  0.18496999787E+04  0.12699999809E+01 0.  1.
       -4    1    3    3    0  502 -0.37266493371E+03 -0.12747644002E+04  0.14522045307E+04  0.19679438612E+04  0.12699999809E+01 0. -1.
</event>
<event>
 5   0  0.4301754E-07  0.3993525E+04  0.7818609E-02  0.8005854E-01
       -2   -1    0    0    0  501  0.00000000000E+00  0.00000000000E+00  0.17305630131E+04  0.17305630132E+04  0.25500000920E-02 0.  1.
        2   -1    0    0  501    0  0.00000000000E+00  0.00000000000E+00 -0.23039100220E+04  0.23039100220E+04  0.25500000920E-02 0. -1.
    10030    2    1    2    0    0  0.00000000000E+00  0.00000000000E+00 -0.57334700887E+03  0.40344730352E+04  0.39935254950E+04 0.  0.
        1    1    3    3  502    0 -0.98935110546E+02 -0.18554022147E+04  0.45209464370E+03  0.19122487028E+04  0.50400001928E-02 0.  1.
       -1    1    3    3    0  502  0.98935110546E+02  0.18554022147E+04 -0.10254416526E+04  0.21222243324E+04  0.50400001928E-02 0. -1.
</event>
<event>
 5   0  0.1421304E-07  0.4346350E+04  0.7818609E-02  0.7938103E-01
       -1   -1    0    0    0  501  0.00000000000E+00  0.00000000000E+00  0.24758231882E+04  0.24758231882E+04  0.50400001928E-02 0. -1.
        1   -1    0    0  501    0  0.00000000000E+00  0.00000000000E+00 -0.19075228646E+04  0.19075228646E+04  0.50400001928E-02 0.  1.
    10030    2    1    2    0    0  0.00000000000E+00  0.00000000000E+00  0.56830032363E+03  0.43833460527E+04  0.43463498893E+04 0.  0.
        2    1    3    3  502    0 -0.88803873999E+03  0.16044012687E+03 -0.17096287228E+04  0.19331798178E+04  0.25500000920E-02 0.  1.
       -2    1    3    3    0  502  0.88803873999E+03 -0.16044012687E+03  0.22779290465E+04  0.24501662349E+04  0.25500000920E-02 0. -1.
</event>
<event>
 5   0  0.4047916E-07  0.4003061E+04  0.7818609E-02  0.8003929E-01
       -2   -1    0    0    0  501  0.00000000000E+00  0.00000000000E+00  0.15361518850E+04  0.15361518850E+04  0.25500000920E-02 0. -1.
        2   -1    0    0  501    0  0.00000000000E+00  0.00000000000E+00 -0.26078955840E+04  0.26078955840E+04  0.25500000920E-02 0.  1.
    10030    2    1    2    0    0  0.00000000000E+00  0.00000000000E+00 -0.10717436991E+04  0.41440474690E+04  0.40030606876E+04 0.  0.
        5    1    3    3  502    0 -0.16050697094E+04 -0.11454580961E+04 -0.89114775161E+03  0.21639060578E+04  0.46999998093E+01 0.  1.
       -5    1    3    3    0  502  0.16050697094E+04  0.11454580961E+04 -0.18059594748E+03  0.19801414112E+04  0.46999998093E+01 0. -1.
</event>
<event>
 5   0  0.4077370E-07  0.3999727E+04  0.7818609E-02  0.8004602E-01
       -2   -1    0    0    0  501  0.00000000000E+00  0.00000000000E+00  0.14892542420E+04  0.14892542420E+04  0.25500000920E-02 0. -1.
        2   -1    0    0  501    0  0.00000000000E+00  0.00000000000E+00 -0.26855407985E+04  0.26855407985E+04  0.25500000920E-02 0.  1.
    10030    2    1    2    0    0  0.00000000000E+00  0.00000000000E+00 -0.11962865565E+04  0.41747950405E+04  0.39997265038E+04 0.  0.
        3    1    3    3  502    0 -0.55839636446E+03  0.17838806877E+04 -0.13401869157E+04  0.23000299535E+04  0.10100000352E+00 0.  1.
       -3    1    3    3    0  502  0.55839636446E+03 -0.17838806877E+04  0.14390035920E+03  0.18747650870E+04  0.10100000352E+00 0. -1.
</event>
<event>
 5   0  0.1421304E-07  0.4096586E+04  0.7818609E-02  0.7985341E-01
        1   -1    0    0  501    0  0.00000000000E+00  0.00000000000E+00  0.28411209098E+04  0.28411209098E+04  0.50400001928E-02 0. -1.
       -1   -1    0    0    0  501  0.00000000000E+00  0.00000000000E+00 -0.14767072987E+04  0.14767072987E+04  0.50400001928E-02 0.  1.
    10030    2    1    2    0    0  0.00000000000E+00  0.00000000000E+00  0.13644136111E+04  0.43178282085E+04  0.40965858877E+04 0.  0.
        2    1    3    3  502    0  0.14408712201E+04  0.29237630479E+03 -0.82096694295E+03  0.16839181981E+04  0.25500000920E-02 0.  1.
       -2    1    3    3    0  502 -0.14408712201E+04 -0.29237630479E+03  0.21853805540E+04  0.26339100103E+04  0.25500000920E-02 0. -1.
</event>
<event>
 5   0  0.1421304E-07  0.3067769E+04  0.7818609E-02  0.8224639E-01
       -1   -1    0    0    0  501  0.00000000000E+00  0.00000000000E+00  0.14482567501E+04  0.14482567501E+04  0.50400001928E-02 0.  1.
        1   -1    0    0  501    0  0.00000000000E+00  0.00000000000E+00 -0.16245753679E+04  0.16245753679E+04  0.50400001928E-02 0. -1.
    10030    2    1    2    0    0  0.00000000000E+00  0.00000000000E+00 -0.17631861782E+03  0.30728321179E+04  0.30677693802E+04 0.  0.
        2    1    3    3  502    0 -0.59846778474E+03 -0.14065653471E+04 -0.21569766568E+03  0.15437341896E+04  0.25500000920E-02 0. -1.
       -2    1    3    3    0  502  0.59846778474E+03  0.14065653471E+04  0.39379047864E+02  0.15290979284E+04  0.25500000920E-02 0.  1.
</event>
<event>
 5   0  0.1368865E-07  0.3949518E+04  0.7818609E-02  0.8014809E-01
       -1   -1    0    0    0  501  0.00000000000E+00  0.00000000000E+00  0.24856743512E+04  0.24856743512E+04  0.50400001928E-02 0. -1.
        1   -1    0    0  501    0  0.00000000000E+00  0.00000000000E+00 -0.15688589478E+04  0.15688589478E+04  0.50400001928E-02 0.  1.
    10030    2    1    2    0    0  0.00000000000E+00  0.00000000000E+00  0.91681540344E+03  0.40545332990E+04  0.39495176653E+04 0.  0.
        5    1    3    3  502    0 -0.18632026170E+04 -0.62892512644E+03  0.27311028903E+03  0.19853670005E+04  0.46999998093E+01 0. -1.
       -5    1    3    3    0  502  0.18632026170E+04  0.62892512644E+03  0.64370511442E+03  0.20691662985E+04  0.46999998093E+01 0.  1.
</event>
<event>
 5   0  0.4149487E-07  0.4039313E+04  0.7818609E-02  0.7996662E-01
        2   -1    0    0  501    0  0.00000000000E+00  0.00000000000E+00  0.24840476979E+04  0.24840476979E+04  0.25500000920E-02 0. -1.
       -2   -1    0    0    0  501  0.00000000000E+00  0.00000000000E+00 -0.16420832926E+04  0.16420832926E+04  0.25500000920E-02 0.  1.
    10030    2    1    2    0    0  0.00000000000E+00  0.00000000000E+00  0.84196440527E+03  0.41261309905E+04  0.40393134183E+04 0.  0.
        2    1    3    3  502    0  0.16858876286E+04 -0.21052997966E+03 -0.69449264629E+03  0.18354454512E+04  0.25500000920E-02 0.  1.
       -2    1    3    3    0  502 -0.16858876286E+04  0.21052997966E+03  0.15364570516E+04  0.22906855393E+04  0.25500000920E-02 0. -1.
</event>
<event>
 5   0  0.4149487E-07  0.3974307E+04  0.7818609E-02  0.8009750E-01
        2   -1    0    0  501    0  0.00000000000E+00  0.00000000000E+00  0.19420273450E+04  0.19420273450E+04  0.25500000920E-02 0.  1.
       -2   -1    0    0    0  501  0.00000000000E+00  0.00000000000E+00 -0.20333286421E+04  0.20333286421E+04  0.25500000920E-02 0. -1.
    10030    2    1    2    0    0  0.00000000000E+00  0.00000000000E+00 -0.91301297132E+02  0.39753559872E+04  0.39743073985E+04 0.  0.
        2    1    3    3  502    0  0.15171158853E+04  0.12648242320E+04  0.17202771766E+03  0.19826786131E+04  0.25500000920E-02 0.  1.
       -2    1    3    3    0  502 -0.15171158853E+04 -0.12648242320E+04 -0.26332901480E+03  0.19926773741E+04  0.25500000920E-02 0. -1.
</event>
<event>
 5   0  0.1351000E-07  0.2535718E+04  0.7818609E-02  0.8390370E-01
       -1   -1    0    0    0  501  0.00000000000E+00  0.00000000000E+00  0.76684041197E+03  0.76684041199E+03  0.50400001928E-02 0.  1.
        1   -1    0    0  501    0  0.00000000000E+00  0.00000000000E+00 -0.20962206064E+04  0.20962206064E+04  0.50400001928E-02 0. -1.
    10030    2    1    2    0    0  0.00000000000E+00  0.00000000000E+00 -0.13293801944E+04  0.28630610184E+04  0.25357181811E+04 0.  0.
        3    1    3    3  502    0 -0.93506204698E+03  0.11072606929E+01 -0.16314496186E+04  0.18804175403E+04  0.10100000352E+00 0. -1.
       -3    1    3    3    0  502  0.93506204698E+03 -0.11072606929E+01  0.30206942420E+03  0.98264347805E+03  0.10100000352E+00 0.  1.
</event>
<event>
 5   0  0.4079777E-07  0.4014492E+04  0.7818609E-02  0.8001629E-01
        2   -1    0    0  501    0  0.00000000000E+00  0.00000000000E+00  0.15841859011E+04  0.15841859011E+04  0.25500000920E-02 0. -1.
       -2   -1    0    0    0  501  0.00000000000E+00  0.00000000000E+00 -0.25432851193E+04  0.25432851193E+04  0.25500000920E-02 0.  1.
    10030    2    1    2    0    0  0.00000000000E+00  0.00000000000E+00 -0.95909921821E+03  0.41274710204E+04  0.40144919621E+04 0.  0.
        4    1    3    3  502    0 -0.16203941949E+04  0.14832269156E+02 -0.16974269535E+04  0.23467333079E+04  0.12699999809E+01 0.  1.
       -4    1    3    3    0  502  0.16203941949E+04 -0.14832269156E+02  0.73832773527E+03  0.17807377125E+04  0.12699999809E+01 0. -1.
</event>
<event>
 5   0  0.1372952E-07  0.4030787E+04  0.7818609E-02  0.7998364E-01
       -1   -1    0    0    0  501  0.00000000000E+00  0.00000000000E+00  0.23708762529E+04  0.23708762529E+04  0.50400001928E-02 0.  1.
        1   -1    0    0  501    0  0.00000000000E+00  0.00000000000E+00 -0.17132109310E+04  0.17132109310E+04  0.50400001928E-02 0. -1.
    10030    2    1    2    0    0  0.00000000000E+00  0.00000000000E+00  0.65766532190E+03  0.40840871840E+04  0.40307870758E+04 0.  0.
        1    1    3    3  502    0 -0.55891099513E+03  0.46910267076E+03 -0.15746717315E+04  0.17355200599E+04  0.50400001928E-02 0. -1.
       -1    1    3    3    0  502  0.55891099513E+03 -0.46910267076E+03  0.22323370534E+04  0.23485671241E+04  0.50400001928E-02 0.  1.
</event>
<event>
 5   0  0.4149487E-07  0.3502592E+04  0.7818609E-02  0.8113176E-01
       -2   -1    0    0    0  501  0.00000000000E+00  0.00000000000E+00  0.13964445126E+04  0.13964445126E+04  0.25500000920E-02 0.  1.
        2   -1    0    0  501    0  0.00000000000E+00  0.00000000000E+00 -0.21963187966E+04  0.21963187966E+04  0.25500000920E-02 0. -1.
    10030    2    1    2    0    0  0.00000000000E+00  0.00000000000E+00 -0.79987428406E+03  0.35927633092E+04  0.35025918012E+04 0.  0.
        2    1    3    3  502    0 -0.58585732416E+03  0.10968753749E+04 -0.16648394614E+04  0.20779929799E+04  0.25500000920E-02 0. -1.
       -2    1    3    3    0  502  0.58585732416E+03 -0.10968753749E+04  0.86496517732E+03  0.15147703293E+04  0.25500000920E-02 0.  1.
</event>
<event>
 5   0  0.1351000E-07  0.3923008E+04  0.7818609E-02  0.8020261E-01
       -1   -1    0    0    0  501  0.00000000000E+00  0.00000000000E+00  0.17294905813E+04  0.17294905813E+04  0.50400001928E-02 0.  1.
        1   -1    0    0  501    0  0.00000000000E+00  0.00000000000E+00 -0.22246420780E+04  0.22246420780E+04  0.50400001928E-02 0. -1.
    10030    2    1    2    0    0  0.00000000000E+00  0.00000000000E+00 -0.49515149668E+03  0.39541326593E+04  0.39230077852E+04 0.  0.
        3    1    3    3  502    0  0.59182790810E+03  0.15240763986E+04  0.84473279950E+03  0.18402833082E+04  0.10100000352E+00 0.  1.
       -3    1    3    3    0  502 -0.59182790810E+03 -0.15240763986E+04 -0.13398842962E+04  0.21138493511E+04  0.10100000352E+00 0. -1.
</event>
<event>
 5   0  0.4301754E-07  0.3997183E+04  0.7818609E-02  0.8005115E-01
       -2   -1    0    0    0  501  0.00000000000E+00  0.00000000000E+00  0.31264450320E+04  0.31264450320E+04  0.25500000920E-02 0.  1.
        2   -1    0    0  501    0  0.00000000000E+00  0.00000000000E+00 -0.12776069265E+04  0.12776069265E+04  0.25500000920E-02 0. -1.
    10030    2    1    2    0    0  0.00000000000E+00  0.00000000000E+00  0.18488381055E+04  0.44040519585E+04  0.39971829221E+04 0.  0.
        1    1    3    3  502    0  0.19582126154E+04  0.31897258825E+02  0.13634148893E+04  0.23863181353E+04  0.50400001928E-02 0. -1.
       -1    1    3    3    0  502 -0.19582126154E+04 -0.31897258825E+02  0.48542321611E+03  0.20177338232E+04  0.50400001928E-02 0.  1.
</event>
<event>
 5   0  0.4047916E-07  0.4093166E+04  0.7818609E-02  0.7986011E-01
        2   -1    0    0  501    0  0.00000000000E+00  0.00000000000E+00  0.19821493251E+04  0.19821493251E+04  0.25500000920E-02 0. -1.
       -2   -1    0    0    0  501  0.00000000000E+00  0.00000000000E+00 -0.21131108647E+04  0.21131108647E+04  0.25500000920E-02 0.  1.
    10030    2    1    2    0    0  0.00000000000E+00  0.00000000000E+00 -0.13096153965E+03  0.40952601898E+04  0.40931656572E+04 0.  0.
        5    1    3    3  502    0 -0.12486846228E+03 -0.11446445474E+03  0.19751179841E+04  0.19823741790E+04  0.46999998093E+01 0. -1.
       -5    1    3    3    0  502  0.12486846228E+03  0.11446445474E+03 -0.21060795238E+04  0.21128860108E+04  0.46999998093E+01 0.  1.
</event>
<event>
 5   0  0.1372952E-07  0.3926471E+04  0.7818609E-02  0.8019546E-01
       -1   -1    0    0    0  501  0.00000000000E+00  0.00000000000E+00  0.15462028565E+04  0.15462028565E+04  0.50400001928E-02 0. -1.
        1   -1    0    0  501    0  0.00000000000E+00  0.00000000000E+00 -0.24927477892E+04  0.24927477892E+04  0.50400001928E-02 0.  1.
    10030    2    1    2    0    0  0.00000000000E+00  0.00000000000E+00 -0.94654493274E+03  0.40389506457E+04  0.39264710630E+04 0.  0.
        1    1    3    3  502    0  0.70362075665E+03  0.26574049989E+03  0.13921244167E+04  0.15823117816E+04  0.50400001928E-02 0. -1.
       -1    1    3    3    0  502 -0.70362075665E+03 -0.26574049989E+03 -0.23386693495E+04  0.24566388641E+04  0.50400001928E-02 0.  1.
</event>
<event>
 5   0  0.1351000E-07  0.3991130E+04  0.7818609E-02  0.8006338E-01
       -1   -1    0    0    0  501  0.00000000000E+00  0.00000000000E+00  0.17942949627E+04  0.17942949627E+04  0.50400001928E-02 0. -1.
        1   -1    0    0  501    0  0.00000000000E+00  0.00000000000E+00 -0.22194118057E+04  0.22194118057E+04  0.50400001928E-02 0.  1.
    10030    2    1    2    0    0  0.00000000000E+00  0.00000000000E+00 -0.42511684297E+03  0.40137067684E+04  0.39911298767E+04 0.  0.
        4    1    3    3  502    0 -0.23928935415E+03  0.16556316763E+04 -0.13067860800E+04  0.21227498945E+04  0.12699999809E+01 0.  1.
       -4    1    3    3    0  502  0.23928935415E+03 -0.16556316763E+04  0.88166923702E+03  0.18909568739E+04  0.12699999809E+01 0. -1.
</event>
<event>
 5   0  0.1351000E-07  0.2487974E+04  0.7818609E-02  0.8407282E-01
        1   -1    0    0  501    0  0.00000000000E+00  0.00000000000E+00  0.99715865277E+03  0.99715865279E+03  0.50400001928E-02 0.  1.
       -1   -1    0    0    0  501  0.00000000000E+00  0.00000000000E+00 -0.15519134692E+04  0.15519134692E+04  0.50400001928E-02 0. -1.
    10030    2    1    2    0    0  0.00000000000E+00  0.00000000000E+00 -0.55475481640E+03  0.25490721220E+04  0.24879742315E+04 0.  0.
        4    1    3    3  502    0  0.10064616622E+04  0.60399854555E+03  0.14471409416E+03  0.11826762458E+04  0.12699999809E+01 0.  1.
       -4    1    3    3    0  502 -0.10064616622E+04 -0.60399854555E+03 -0.69946891056E+03  0.13663958761E+04  0.12699999809E+01 0. -1.
</event>
<event>
 5   0  0.4149487E-07  0.4003010E+04  0.7818609E-02  0.8003940E-01
        2   -1    0    0  501    0  0.00000000000E+00  0.00000000000E+00  0.16755364907E+04  0.16755364907E+04  0.25500000920E-02 0.  1.
       -2   -1    0    0    0  501  0.00000000000E+00  0.00000000000E+00 -0.23908888108E+04  0.23908888108E+04  0.25500000920E-02 0. -1.
    10030    2    1    2    0    0  0.00000000000E+00  0.00000000000E+00 -0.71535232007E+03  0.40664253016E+04  0.40030095917E+04 0.  0.
        2    1    3    3  502    0  0.12549534265E+04 -0.14425735267E+04  0.24338560273E+03  0.19274758194E+04  0.25500000920E-02 0.  1.
       -2    1    3    3    0  502 -0.12549534265E+04  0.14425735267E+04 -0.95873792280E+03  0.21389494822E+04  0.25500000920E-02 0. -1.
</event>
<event>
 5   0  0.4149487E-07  0.3938600E+04  0.7818609E-02  0.8017049E-01
       -2   -1    0    0    0  501  0.00000000000E+00  0.00000000000E+00  0.14157395017E+04  0.14157395017E+04  0.25500000920E-02 0. -1.
        2   -1    0    0  501    0  0.00000000000E+00  0.00000000000E+00 -0.27393050591E+04  0.27393050591E+04  0.25500000920E-02 0.  1.
    10030    2    1    2    0    0  0.00000000000E+00  0.00000000000E+00 -0.13235655574E+04  0.41550445608E+04  0.39385999438E+04 0.  0.
        2    1    3    3  502    0  0.12557228461E+04  0.15121464546E+04 -0.78975714611E+03  0.21182877794E+04  0.25500000920E-02 0. -1.
       -2    1    3    3    0  502 -0.12557228461E+04 -0.15121464546E+04 -0.53380841134E+03  0.20367567814E+04  0.25500000920E-02 0.  1.
</event>
<event>
 5   0  0.4079777E-07  0.3353032E+04  0.7818609E-02  0.8149531E-01
       -2   -1    0    0    0  501  0.00000000000E+00  0.00000000000E+00  0.13516177710E+04  0.13516177710E+04  0.25500000920E-02 0.  1.
        2   -1    0    0  501    0  0.00000000000E+00  0.00000000000E+00 -0.20795125661E+04  0.20795125661E+04  0.25500000920E-02 0. -1.
    10030    2    1    2    0    0  0.00000000000E+00  0.00000000000E+00 -0.72789479507E+03  0.34311303371E+04  0.33530321439E+04 0.  0.
        4    1    3    3  502    0  0.94915127743E+03 -0.63919220144E+03 -0.16177407619E+04  0.19815503030E+04  0.12699999809E+01 0. -1.
       -4    1    3    3    0  502 -0.94915127743E+03  0.63919220144E+03  0.88984596680E+03  0.14495800341E+04  0.12699999809E+01 0.  1.
</event>
<event>
 5   0  0.4047916E-07  0.3952968E+04  0.7818609E-02  0.8014102E-01
        2   -1    0    0  501    0  0.00000000000E+00  0.00000000000E+00  0.13506592698E+04  0.13506592698E+04  0.25500000920E-02 0. -1.
       -2   -1    0    0    0  501  0.00000000000E+00  0.00000000000E+00 -0.28922829463E+04  0.28922829463E+04  0.25500000920E-02 0.  1.
    10030    2    1    2    0    0  0.00000000000E+00  0.00000000000E+00 -0.15416236765E+04  0.42429422160E+04  0.39529678836E+04 0.  0.
        5    1    3    3  502    0 -0.18679168157E+04 -0.64511719565E+03 -0.80763993322E+03  0.21348521677E+04  0.46999998093E+01 0.  1.
       -5    1    3    3    0  502  0.18679168157E+04  0.64511719565E+03 -0.73398374328E+03  0.21080900483E+04  0.46999998093E+01 0. -1.
</event>
<event>
 5   0  0.4149487E-07  0.3937223E+04  0.7818609E-02  0.8017332E-01
        2   -1    0    0  501    0  0.00000000000E+00  0.00000000000E+00  0.14881728908E+04  0.14881728908E+04  0.25500000920E-02 0. -1.
       -2   -1    0    0    0  501  0.00000000000E+00  0.00000000000E+00 -0.26041532865E+04  0.26041532865E+04  0.25500000920E-02 0.  1.
    10030    2    1    2    0    0  0.00000000000E+00  0.00000000000E+00 -0.11159803957E+04  0.40923261772E+04  0.39372225359E+04 0.  0.
        2    1    3    3  502    0 -0.80413299851E+03  0.17750084349E+04 -0.84854781781E+03  0.21253983679E+04  0.25500000920E-02 0.  1.
       -2    1    3    3    0  502  0.80413299851E+03 -0.17750084349E+04 -0.26743257791E+03  0.19669278093E+04  0.25500000920E-02 0. -1.
</event>
<event>
 5   0  0.4301754E-07  0.3342944E+04  0.7818609E-02  0.8152053E-01
        2   -1    0    0  501    0  0.00000000000E+00  0.00000000000E+00  0.17080750910E+04  0.17080750910E+04  0.25500000920E-02 0. -1.
       -2   -1    0    0    0  501  0.00000000000E+00  0.00000000000E+00 -0.16356536740E+04  0.16356536740E+04  0.25500000920E-02 0.  1.
    10030    2    1    2    0    0  0.00000000000E+00  0.00000000000E+00  0.72421416993E+02  0.33437287651E+04  0.33429443897E+04 0.  0.
        1    1    3    3  502    0  0.75263076480E+01  0.13267180242E+04  0.10531015705E+04  0.16938890988E+04  0.50400001928E-02 0. -1.
       -1    1    3    3    0  502 -0.75263076480E+01 -0.13267180242E+04 -0.98068015354E+03  0.16498396663E+04  0.50400001928E-02 0.  1.
</event>
<event>
 5   0  0.4079777E-07  0.3483720E+04  0.7818609E-02  0.8117659E-01
       -2   -1    0    0    0  501  0.00000000000E+00  0.00000000000E+00  0.20368754113E+04  0.20368754113E+04  0.25500000920E-02 0.  1.
        2   -1    0    0  501    0  0.00000000000E+00  0.00000000000E+00 -0.14895739842E+04  0.14895739842E+04  0.25500000920E-02 0. -1.
    10030    2    1    2    0    0  0.00000000000E+00  0.00000000000E+00  0.54730142711E+03  0.35264493955E+04  0.34837202079E+04 0.  0.
        4    1    3    3  502    0  0.84776963759E+03 -0.14099168550E+04  0.85294262284E+03  0.18531302240E+04  0.12699999809E+01 0.  1.
       -4    1    3    3    0  502 -0.84776963759E+03  0.14099168550E+04 -0.30564119573E+03  0.16733191715E+04  0.12699999809E+01 0. -1.
</event>
<event>
 5   0  0.4079777E-07  0.3287226E+04  0.7818609E-02  0.8166153E-01
       -2   -1    0    0    0  501  0.00000000000E+00  0.00000000000E+00  0.10494945954E+04  0.10494945954E+04  0.25500000920E-02 0. -1.
        2   -1    0    0  501    0  0.00000000000E+00  0.00000000000E+00 -0.25740616264E+04  0.25740616264E+04  0.25500000920E-02 0.  1.
    10030    2    1    2    0    0  0.00000000000E+00  0.00000000000E+00 -0.15245670310E+04  0.36235562217E+04  0.32872260434E+04 0.  0.
        4    1    3    3  502    0  0.56010709666E+03  0.79621526079E+02  0.93878515975E+03  0.10960742385E+04  0.12699999809E+01 0. -1.
       -4    1    3    3    0  502 -0.56010709666E+03 -0.79621526079E+02 -0.24633521908E+04  0.25274819833E+04  0.12699999809E+01 0.  1.
</event>
<event>
 5   0  0.4047916E-07  0.3952533E+04  0.7818609E-02  0.8014191E-01
       -2   -1    0    0    0  501  0.00000000000E+00  0.00000000000E+00  0.17578153221E+04  0.17578153221E+04  0.25500000920E-02 0.  1.
        2   -1    0    0  501    0  0.00000000000E+00  0.00000000000E+00 -0.22218657193E+04  0.22218657193E+04  0.25500000920E-02 0. -1.
    10030    2    1    2    0    0  0.00000000000E+00  0.00000000000E+00 -0.46405039720E+03  0.39796810414E+04  0.39525331650E+04 0.  0.
        5    1    3    3  502    0  0.77806963544E+03  0.17653179922E+04 -0.66376817453E+03  0.20401838767E+04  0.46999998093E+01 0.  1.
       -5    1    3    3    0  502 -0.77806963544E+03 -0.17653179922E+04  0.19971777732E+03  0.19394971647E+04  0.46999998093E+01 0. -1.
</event>
<event>
 5   0  0.1351000E-07  0.3890952E+04  0.7818609E-02  0.8026914E-01
       -1   -1    0    0    0  501  0.00000000000E+00  0.00000000000E+00  0.20969667004E+04  0.20969667004E+04  0.50400001928E-02 0. -1.
        1   -1    0    0  501    0  0.00000000000E+00  0.00000000000E+00 -0.18049293781E+04  0.18049293781E+04  0.50400001928E-02 0.  1.
    10030    2    1    2    0    0  0.00000000000E+00  0.00000000000E+00  0.29203732226E+03  0.39018960785E+04  0.38909519670E+04 0.  0.
        4    1    3    3  502    0  0.12996301625E+04 -0.87052396076E+03  0.13060023656E+04  0.20377669929E+04  0.12699999809E+01 0. -1.
       -4    1    3    3    0  502 -0.12996301625E+04  0.87052396076E+03 -0.10139650433E+04  0.18641290855E+04  0.12699999809E+01 0.  1.
</event>
<event>
 5   0  0.4047916E-07  0.3246959E+04  0.7818609E-02  0.8176524E-01
        2   -1    0    0  501    0  0.00000000000E+00  0.00000000000E+00  0.30806903032E+04  0.30806903033E+04  0.25500000920E-02 0. -1.
       -2   -1    0    0    0  501  0.00000000000E+00  0.00000000000E+00 -0.85555022908E+03  0.85555022908E+03  0.25500000920E-02 0.  1.
    10030    2    1    2    0    0  0.00000000000E+00  0.00000000000E+00  0.22251400742E+04  0.39362405323E+04  0.32469587584E+04 0.  0.
        5    1    3    3  502    0 -0.58785724650E+03 -0.10800395561E+04 -0.17245335929E+03  0.12417019917E+04  0.46999998093E+01 0.  1.
       -5    1    3    3    0  502  0.58785724650E+03  0.10800395561E+04  0.23975934335E+04  0.26945385407E+04  0.46999998093E+01 0. -1.
</event>
<event>
 5   0  0.4077370E-07  0.3993419E+04  0.7818609E-02  0.8005875E-01
       -2   -1    0    0    0  501  0.00000000000E+00  0.00000000000E+00  0.22372084847E+04  0.22372084847E+04  0.25500000920E-02 0. -1.
        2   -1    0    0  501    0  0.00000000000E+00  0.00000000000E+00 -0.17820639652E+04  0.17820639652E+04  0.25500000920E-02 0.  1.
    10030    2    1    2    0    0  0.00000000000E+00  0.00000000000E+00  0.45514451947E+03  0.40192724499E+04  0.39934188978E+04 0.  0.
        3    1    3    3  502    0  0.49179501082E+03  0.14171492911E+04  0.15539332783E+04  0.21598340421E+04  0.10100000352E+00 0. -1.
       -3    1    3    3    0  502 -0.49179501082E+03 -0.14171492911E+04 -0.10987887588E+04  0.18594384078E+04  0.10100000352E+00 0.  1.
</event>
<event>
 5   0  0.4047916E-07  0.3807215E+04  0.7818609E-02  0.8044608E-01
        2   -1    0    0  501    0  0.00000000000E+00  0.00000000000E+00  0.16251208131E+04  0.16251208131E+04  0.25500000920E-02 0.  1.
       -2   -1    0    0    0  501  0.00000000000E+00  0.00000000000E+00 -0.22298169807E+04  0.22298169807E+04  0.25500000920E-02 0. -1.
    10030    2    1    2    0    0  0.00000000000E+00  0.00000000000E+00 -0.60469616769E+03  0.38549377938E+04  0.38072152473E+04 0.  0.
        5    1    3    3  502    0 -0.10896792451E+04 -0.14050561548E+04 -0.99066042851E+03  0.20354394685E+04  0.46999998093E+01 0. -1.
       -5    1    3    3    0  502  0.10896792451E+04  0.14050561548E+04  0.38596426082E+03  0.18194983253E+04  0.46999998093E+01 0.  1.
</event>
<event>
 5   0  0.1372952E-07  0.3979494E+04  0.7818609E-02  0.8008696E-01
        1   -1    0    0  501    0  0.00000000000E+00  0.00000000000E+00  0.20848874340E+04  0.20848874340E+04  0.50400001928E-02 0.  1.
       -1   -1    0    0    0  501  0.00000000000E+00  0.00000000000E+00 -0.18989476859E+04  0.18989476859E+04  0.50400001928E-02 0. -1.
    10030    2    1    2    0    0  0.00000000000E+00  0.00000000000E+00  0.18593974811E+03  0.39838351198E+04  0.39794935195E+04 0.  0.
        1    1    3    3  502    0  0.67390872763E+03 -0.22288626518E+03  0.19538310598E+04  0.20787705671E+04  0.50400001928E-02 0.  1.
       -1    1    3    3    0  502 -0.67390872763E+03  0.22288626518E+03 -0.17678913116E+04  0.19050645528E+04  0.50400001928E-02 0. -1.
</event>
<event>
 5   0  0.1368865E-07  0.2918514E+04  0.7818609E-02  0.8267390E-01
       -1   -1    0    0    0  501  0.00000000000E+00  0.00000000000E+00  0.93167256466E+03  0.93167256467E+03  0.50400001928E-02 0.  1.
        1   -1    0    0  501    0  0.00000000000E+00  0.00000000000E+00 -0.22855999523E+04  0.22855999523E+04  0.50400001928E-02 0. -1.
    10030    2    1    2    0    0  0.00000000000E+00  0.00000000000E+00 -0.13539273876E+04  0.32172725169E+04  0.29185138474E+04 0.  0.
        5    1    3    3  502    0  0.44481823903E+03 -0.11591732178E+04  0.16824528928E+03  0.12529462806E+04  0.46999998093E+01 0.  1.
       -5    1    3    3    0  502 -0.44481823903E+03  0.11591732178E+04 -0.15221726769E+04  0.19643262364E+04  0.46999998093E+01 0. -1.
</event>
<event>
 5   0  0.1368865E-07  0.4080150E+04  0.7818609E-02  0.7988570E-01
        1   -1    0    0  501    0  0.00000000000E+00  0.00000000000E+00  0.23872631966E+04  0.23872631966E+04  0.50400001928E-02 0. -1.
       -1   -1    0    0    0  501  0.00000000000E+00  0.00000000000E+00 -0.17433792221E+04  0.17433792221E+04  0.50400001928E-02 0.  1.
    10030    2    1    2    0    0  0.00000000000E+00  0.00000000000E+00  0.64388397453E+03  0.41306424186E+04  0.40801495338E+04 0.  0.
        5    1    3    3  502    0 -0.17077115393E+04 -0.62764776498E+03 -0.61233423292E+03  0.19196863601E+04  0.46999998093E+01 0.  1.
       -5    1    3    3    0  502  0.17077115393E+04  0.62764776498E+03  0.12562182075E+04  0.22109560586E+04  0.46999998093E+01 0. -1.
</event>
<event>
 5   0  0.4301754E-07  0.4015299E+04  0.7818609E-02  0.8001467E-01
       -2   -1    0    0    0  501  0.00000000000E+00  0.00000000000E+00  0.17575545564E+04  0.17575545564E+04  0.25500000920E-02 0.  1.
        2   -1    0    0  501    0  0.00000000000E+00  0.00000000000E+00 -0.22933317180E+04  0.22933317180E+04  0.25500000920E-02 0. -1.
    10030    2    1    2    0    0  0.00000000000E+00  0.00000000000E+00 -0.53577716162E+03  0.40508862744E+04  0.40152985494E+04 0.  0.
        1    1    3    3  502    0  0.10975946265E+04 -0.62290546432E+03 -0.18431145499E+04  0.22337852237E+04  0.50400001928E-02 0. -1.
       -1    1    3    3    0  502 -0.10975946265E+04  0.62290546432E+03  0.13073373883E+04  0.18171010507E+04  0.50400001928E-02 0.  1.
</event>
<event>
 5   0  0.4301754E-07  0.3922483E+04  0.7818609E-02  0.8020369E-01
        2   -1    0    0  501    0  0.00000000000E+00  0.00000000000E+00  0.26025445276E+04  0.26025445276E+04  0.25500000920E-02 0. -1.
       -2   -1    0    0    0  501  0.00000000000E+00  0.00000000000E+00 -0.14779642486E+04  0.14779642487E+04  0.25500000920E-02 0.  1.
    10030    2    1    2    0    0  0.00000000000E+00  0.00000000000E+00  0.11245802789E+04  0.40805087762E+04  0.39224827685E+04 0.  0.
        1    1    3    3  502    0  0.31321150839E+03 -0.16220788937E+04 -0.53728234326E+03  0.17372143514E+04  0.50400001928E-02 0.  1.
       -1    1    3    3    0  502 -0.31321150839E+03  0.16220788937E+04  0.16618626222E+04  0.23432944248E+04  0.50400001928E-02 0. -1.
</event>
<event>
 5   0  0.1351000E-07  0.3827553E+04  0.7818609E-02  0.8040268E-01
       -1   -1    0    0    0  501  0.00000000000E+00  0.00000000000E+00  0.13849627337E+04  0.13849627337E+04  0.50400001928E-02 0. -1.
        1   -1    0    0  501    0  0.00000000000E+00  0.00000000000E+00 -0.26445041953E+04  0.26445041953E+04  0.50400001928E-02 0.  1.
    10030    2    1    2    0    0  0.00000000000E+00  0.00000000000E+00 -0.12595414616E+04  0.40294669290E+04  0.38275526173E+04 0.  0.
        4    1    3    3  502    0 -0.34793906241E+03 -0.15514267958E+04 -0.17511138545E+04  0.23652458727E+04  0.12699999809E+01 0.  1.
       -4    1    3    3    0  502  0.34793906241E+03  0.15514267958E+04  0.49157239290E+03  0.16642210563E+04  0.12699999809E+01 0. -1.
</event>
<event>
 5   0  0.4149487E-07  0.2971394E+04  0.7818609E-02  0.8251947E-01
        2   -1    0    0  501    0  0.00000000000E+00  0.00000000000E+00  0.25070552409E+04  0.25070552409E+04  0.25500000920E-02 0.  1.
       -2   -1    0    0    0  501  0.00000000000E+00  0.00000000000E+00 -0.88043350938E+03  0.88043350939E+03  0.25500000920E-02 0. -1.
    10030    2    1    2    0    0  0.00000000000E+00  0.00000000000E+00  0.16266217315E+04  0.33874887502E+04  0.29713939112E+04 0.  0.
        2    1    3    3  502    0  0.12425478007E+04 -0.16822611510E+03  0.17218184593E+04  0.21299962135E+04  0.25500000920E-02 0.  1.
       -2    1    3    3    0  502 -0.12425478007E+04  0.16822611510E+03 -0.95196727789E+02  0.12574925367E+04  0.25500000920E-02 0. -1.
</event>
<event>
 5   0  0.1351000E-07  0.4022049E+04  0.7818609E-02  0.8000113E-01
       -3   -1    0    0    0  501  0.00000000000E+00  0.00000000000E+00  0.20224956342E+04  0.20224956368E+04  0.10100000352E+00 0.  1.
        3   -1    0    0  501    0  0.00000000000E+00  0.00000000000E+00 -0.19996181983E+04  0.19996182009E+04  0.10100000352E+00 0. -1.
    10030    2    1    2    0    0  0.00000000000E+00  0.00000000000E+00  0.22877435916E+02  0.40221138376E+04  0.40220487747E+04 0.  0.
        5    1    3    3  502    0  0.36494424016E+03  0.18913657004E+04 -0.56628031684E+03  0.20077709029E+04  0.46999998093E+01 0.  1.
       -5    1    3    3    0  502 -0.36494424016E+03 -0.18913657004E+04  0.58915775276E+03  0.20143429348E+04  0.46999998093E+01 0. -1.
</event>
<event>
 5   0  0.4047916E-07  0.3944797E+04  0.7818609E-02  0.8015776E-01
        2   -1    0    0  501    0  0.00000000000E+00  0.00000000000E+00  0.13593932277E+04  0.13593932277E+04  0.25500000920E-02 0.  1.
       -2   -1    0    0    0  501  0.00000000000E+00  0.00000000000E+00 -0.28618328539E+04  0.28618328539E+04  0.25500000920E-02 0. -1.
    10030    2    1    2    0    0  0.00000000000E+00  0.00000000000E+00 -0.15024396262E+04  0.42212260817E+04  0.39447971814E+04 0.  0.
        5    1    3    3  502    0 -0.19476192327E+04 -0.25352302315E+03 -0.55730442304E+03  0.20415937179E+04  0.46999998093E+01 0.  1.
       -5    1    3    3    0  502  0.19476192327E+04  0.25352302315E+03 -0.94513520317E+03  0.21796323638E+04  0.46999998093E+01 0. -1.
</event>
<event>
 5   0  0.4047916E-07  0.2673852E+04  0.7818609E-02  0.8343539E-01
        2   -1    0    0  501    0  0.00000000000E+00  0.00000000000E+00  0.14261204256E+04  0.14261204256E+04  0.25500000920E-02 0. -1.
       -2   -1    0    0    0  501  0.00000000000E+00  0.00000000000E+00 -0.12533102576E+04  0.12533102576E+04  0.25500000920E-02 0.  1.
    10030    2    1    2    0    0  0.00000000000E+00  0.00000000000E+00  0.17281016798E+03  0.26794306833E+04  0.26738521710E+04 0.  0.
        5    1    3    3  502    0  0.95737384776E+03 -0.28727593217E+03  0.97609585462E+03  0.13970960429E+04  0.46999998093E+01 0. -1.
       -5    1    3    3    0  502 -0.95737384776E+03  0.28727593217E+03 -0.80328568664E+03  0.12823346404E+04  0.46999998093E+01 0.  1.
</event>
<event>
 5   0  0.1372952E-07  0.4217630E+04  0.7818609E-02  0.7962027E-01
       -1   -1    0    0    0  501  0.00000000000E+00  0.00000000000E+00  0.22103320868E+04  0.22103320868E+04  0.50400001928E-02 0.  1.
        1   -1    0    0  501    0  0.00000000000E+00  0.00000000000E+00 -0.20119608161E+04  0.20119608161E+04  0.50400001928E-02 0. -1.
    10030    2    1    2    0    0  0.00000000000E+00  0.00000000000E+00  0.19837127071E+03  0.42222929030E+04  0.42176304008E+04 0.  0.
        1    1    3    3  502    0  0.10438642744E+04 -0.57202910636E+03  0.18418660553E+04  0.21930208589E+04  0.50400001928E-02 0.  1.
       -1    1    3    3    0  502 -0.10438642744E+04  0.57202910636E+03 -0.16434947846E+04  0.20292720441E+04  0.50400001928E-02 0. -1.
</event>
<event>
 5   0  0.1351000E-07  0.3978925E+04  0.7818609E-02  0.8008812E-01
        1   -1    0    0  501    0  0.00000000000E+00  0.00000000000E+00  0.12861914793E+04  0.12861914793E+04  0.50400001928E-02 0. -1.
       -1   -1    0    0    0  501  0.00000000000E+00  0.00000000000E+00 -0.30772721457E+04  0.30772721457E+04  0.50400001928E-02 0.  1.
    10030    2    1    2    0    0  0.00000000000E+00  0.00000000000E+00 -0.17910806664E+04  0.43634636250E+04  0.39789250876E+04 0.  0.
        4    1    3    3  502    0 -0.49209957460E+03  0.15799265414E+04  0.31555853689E+03  0.16846093525E+04  0.12699999809E+01 0. -1.
       -4    1    3    3    0  502  0.49209957460E+03 -0.15799265414E+04 -0.21066392033E+04  0.26788542725E+04  0.12699999809E+01 0.  1.
</event>
<event>
 5   0  0.4077370E-07  0.3863958E+04  0.7818609E-02  0.8032567E-01
       -2   -1    0    0    0  501  0.00000000000E+00  0.00000000000E+00  0.16490356833E+04  0.16490356833E+04  0.25500000920E-02 0. -1.
        2   -1    0    0  501    0  0.00000000000E+00  0.00000000000E+00 -0.22634701343E+04  0.22634701343E+04  0.25500000920E-02 0.  1.
    10030    2    1    2    0    0  0.00000000000E+00  0.00000000000E+00 -0.61443445102E+03  0.39125058176E+04  0.38639580844E+04 0.  0.
        3    1    3    3  502    0  0.44701280927E+03 -0.16020004395E+04 -0.13025823806E+04  0.21125687511E+04  0.10100000352E+00 0.  1.
       -3    1    3    3    0  502 -0.44701280927E+03  0.16020004395E+04  0.68814792955E+03  0.17999370664E+04  0.10100000352E+00 0. -1.
</event>
<event>
 5   0  0.4301754E-07  0.4027332E+04  0.7818609E-02  0.7999055E-01
       -2   -1    0    0    0  501  0.00000000000E+00  0.00000000000E+00  0.18498795782E+04  0.18498795783E+04  0.25500000920E-02 0. -1.
        2   -1    0    0  501    0  0.00000000000E+00  0.00000000000E+00 -0.21919535701E+04  0.21919535701E+04  0.25500000920E-02 0.  1.
    10030    2    1    2    0    0  0.00000000000E+00  0.00000000000E+00 -0.34207399188E+03  0.40418331484E+04  0.40273316952E+04 0.  0.
        1    1    3    3  502    0 -0.20135638626E+04 -0.65534346950E+01 -0.15179062706E+03  0.20192876890E+04  0.50400001928E-02 0. -1.
       -1    1    3    3    0  502  0.20135638626E+04  0.65534346950E+01 -0.19028336483E+03  0.20225454594E+04  0.50400001928E-02 0.  1.
</event>
<event>
 5   0  0.4047916E-07  0.3766682E+04  0.7818609E-02  0.8053343E-01
        2   -1    0    0  501    0  0.00000000000E+00  0.00000000000E+00  0.15372145314E+04  0.15372145314E+04  0.25500000920E-02 0. -1.
       -2   -1    0    0    0  501  0.00000000000E+00  0.00000000000E+00 -0.23074032610E+04  0.23074032610E+04  0.25500000920E-02 0.  1.
    10030    2    1    2    0    0  0.00000000000E+00  0.00000000000E+00 -0.77018872960E+03  0.38446177924E+04  0.37666822657E+04 0.  0.
        5    1    3    3  502    0 -0.90762818398E+03 -0.11617611357E+04  0.81110725408E+03  0.16826749313E+04  0.46999998093E+01 0. -1.
       -5    1    3    3    0  502  0.90762818398E+03  0.11617611357E+04 -0.15812959837E+04  0.21619428611E+04  0.46999998093E+01 0.  1.
</event>
<event>
 5   0  0.4047916E-07  0.4037733E+04  0.7818609E-02  0.7996978E-01
       -2   -1    0    0    0  501  0.00000000000E+00  0.00000000000E+00  0.15318880680E+04  0.15318880680E+04  0.25500000920E-02 0.  1.
        2   -1    0    0  501    0  0.00000000000E+00  0.00000000000E+00 -0.26606526800E+04  0.26606526800E+04  0.25500000920E-02 0. -1.
    10030    2    1    2    0    0  0.00000000000E+00  0.00000000000E+00 -0.11287646120E+04  0.41925407480E+04  0.40377330737E+04 0.  0.
        5    1    3    3  502    0  0.19605612878E+04 -0.47743382430E+03 -0.63051393304E+03  0.21140751003E+04  0.46999998093E+01 0.  1.
       -5    1    3    3    0  502 -0.19605612878E+04  0.47743382430E+03 -0.49825067901E+03  0.20784656478E+04  0.46999998093E+01 0. -1.
</event>
<event>
 5   0  0.4077370E-07  0.3972232E+04  0.7818609E-02  0.8010172E-01
        2   -1    0    0  501    0  0.00000000000E+00  0.00000000000E+00  0.26832598647E+04  0.26832598647E+04  0.25500000920E-02 0.  1.
       -2   -1    0    0    0  501  0.00000000000E+00  0.00000000000E+00 -0.14700987901E+04  0.14700987901E+04  0.25500000920E-02 0. -1.
    10030    2    1    2    0    0  0.00000000000E+00  0.00000000000E+00  0.12131610747E+04  0.41533586548E+04  0.39722321587E+04 0.  0.
        3    1    3    3  502    0 -0.15946770245E+04  0.11383979544E+04  0.94654043284E+03  0.21759787490E+04  0.10100000352E+00 0. -1.
       -3    1    3    3    0  502  0.15946770245E+04 -0.11383979544E+04  0.26662064185E+03  0.19773799058E+04  0.10100000352E+00 0.  1.
</event>
<event>
 5   0  0.4079777E-07  0.2588797E+04  0.7818609E-02  0.8372017E-01
        2   -1    0    0  501    0  0.00000000000E+00  0.00000000000E+00  0.22047237296E+04  0.22047237296E+04  0.25500000920E-02 0. -1.
       -2   -1    0    0    0  501  0.00000000000E+00  0.00000000000E+00 -0.75994415527E+03  0.75994415528E+03  0.25500000920E-02 0.  1.
    10030    2    1    2    0    0  0.00000000000E+00  0.00000000000E+00  0.14447795744E+04  0.29646678849E+04  0.25887965639E+04 0.  0.
        4    1    3    3  502    0  0.91845191645E+02 -0.91011442532E+02  0.21973087467E+04  0.22011101661E+04  0.12699999809E+01 0. -1.
       -4    1    3    3    0  502 -0.91845191645E+02  0.91011442532E+02 -0.75252917234E+03  0.76355771885E+03  0.12699999809E+01 0.  1.
</event>
<event>
 5   0  0.1351000E-07  0.3852150E+04  0.7818609E-02  0.8035055E-01
       -3   -1    0    0    0  501  0.00000000000E+00  0.00000000000E+00  0.13700134627E+04  0.13700134664E+04  0.10100000352E+00 0. -1.
        3   -1    0    0  501    0  0.00000000000E+00  0.00000000000E+00 -0.27078315593E+04  0.27078315612E+04  0.10100000352E+00 0.  1.
    10030    2    1    2    0    0  0.00000000000E+00  0.00000000000E+00 -0.13378180966E+04  0.40778450277E+04  0.38521504137E+04 0.  0.
        4    1    3    3  502    0 -0.17835645667E+04  0.55565042103E+03 -0.17248358084E+03  0.18760602742E+04  0.12699999809E+01 0. -1.
       -4    1    3    3    0  502  0.17835645667E+04 -0.55565042103E+03 -0.11653345158E+04  0.22017847534E+04  0.12699999809E+01 0.  1.
</event>
<event>
 5   0  0.4077370E-07  0.3943495E+04  0.7818609E-02  0.8016043E-01
       -2   -1    0    0    0  501  0.00000000000E+00  0.00000000000E+00  0.14356318511E+04  0.14356318511E+04  0.25500000920E-02 0. -1.
        2   -1    0    0  501    0  0.00000000000E+00  0.00000000000E+00 -0.27080675969E+04  0.27080675969E+04  0.25500000920E-02 0.  1.
    10030    2    1    2    0    0  0.00000000000E+00  0.00000000000E+00 -0.12724357458E+04  0.41436994480E+04  0.39434949459E+04 0.  0.
        3    1    3    3  502    0 -0.12396914374E+04  0.68371418527E+02 -0.22457392399E+04  0.25660970860E+04  0.10100000352E+00 0.  1.
       -3    1    3    3    0  502  0.12396914374E+04 -0.68371418527E+02  0.97330349408E+03  0.15776023620E+04  0.10100000352E+00 0. -1.
</event>
<event>
 5   0  0.4079777E-07  0.3950682E+04  0.7818609E-02  0.8014570E-01
       -2   -1    0    0    0  501  0.00000000000E+00  0.00000000000E+00  0.22426487759E+04  0.22426487759E+04  0.25500000920E-02 0. -1.
        2   -1    0    0  501    0  0.00000000000E+00  0.00000000000E+00 -0.17398946567E+04  0.17398946567E+04  0.25500000920E-02 0.  1.
    10030    2    1    2    0    0  0.00000000000E+00  0.00000000000E+00  0.50275411922E+03  0.39825434326E+04  0.39506822814E+04 0.  0.
        4    1    3    3  502    0 -0.84661781372E+03  0.77084768935E+03  0.18740178333E+04  0.21961130060E+04  0.12699999809E+01 0. -1.
       -4    1    3    3    0  502  0.84661781372E+03 -0.77084768935E+03 -0.13712637141E+04  0.17864304266E+04  0.12699999809E+01 0.  1.
</event>
<event>
 5   0  0.4301754E-07  0.4011355E+04  0.7818609E-02  0.8002260E-01
       -2   -1    0    0    0  501  0.00000000000E+00  0.00000000000E+00  0.23212459505E+04  0.23212459505E+04  0.25500000920E-02 0. -1.
        2   -1    0    0  501    0  0.00000000000E+00  0.00000000000E+00 -0.17330100860E+04  0.17330100860E+04  0.25500000920E-02 0.  1.
    10030    2    1    2    0    0  0.00000000000E+00  0.00000000000E+00  0.58823586450E+03  0.40542560365E+04  0.40113552045E+04 0.  0.
        1    1    3    3  502    0  0.15696144504E+04 -0.21171491370E+03  0.15378188729E+04  0.22075777706E+04  0.50400001928E-02 0. -1.
       -1    1    3    3    0  502 -0.15696144504E+04  0.21171491370E+03 -0.94958300835E+03  0.18466782658E+04  0.50400001928E-02 0.  1.
</event>
<event>
 5   0  0.1351000E-07  0.3571820E+04  0.7818609E-02  0.8096977E-01
        1   -1    0    0  501    0  0.00000000000E+00  0.00000000000E+00  0.19885717467E+04  0.19885717467E+04  0.50400001928E-02 0. -1.
       -1   -1    0    0    0  501  0.00000000000E+00  0.00000000000E+00 -0.16039021002E+04  0.16039021002E+04  0.50400001928E-02 0.  1.
    10030    2    1    2    0    0  0.00000000000E+00  0.00000000000E+00  0.38466964643E+03  0.35924738469E+04  0.35718199288E+04 0.  0.
        4    1    3    3  502    0  0.14769998811E+04 -0.50527238441E+03 -0.68023230613E+03  0.17028054599E+04  0.12699999809E+01 0.  1.
       -4    1    3    3    0  502 -0.14769998811E+04  0.50527238441E+03  0.10649019526E+04  0.18896683870E+04  0.12699999809E+01 0. -1.
</event>
<event>
 5   0  0.4077370E-07  0.2547084E+04  0.7818609E-02  0.8386401E-01
       -2   -1    0    0    0  501  0.00000000000E+00  0.00000000000E+00  0.15183813015E+04  0.15183813015E+04  0.25500000920E-02 0.  1.
        2   -1    0    0  501    0  0.00000000000E+00  0.00000000000E+00 -0.10681831503E+04  0.10681831503E+04  0.25500000920E-02 0. -1.
    10030    2    1    2    0    0  0.00000000000E+00  0.00000000000E+00  0.45019815120E+03  0.25865644519E+04  0.25470840756E+04 0.  0.
        3    1    3    3  502    0  0.82505357869E+03  0.63422937839E+03  0.97060973786E+03  0.14230402614E+04  0.10100000352E+00 0.  1.
       -3    1    3    3    0  502 -0.82505357869E+03 -0.63422937839E+03 -0.52041158666E+03  0.11635241905E+04  0.10100000352E+00 0. -1.
</event>
<event>
 5   0  0.4047916E-07  0.3988372E+04  0.7818609E-02  0.8006896E-01
       -2   -1    0    0    0  501  0.00000000000E+00  0.00000000000E+00  0.19562662971E+04  0.19562662971E+04  0.25500000920E-02 0.  1.
        2   -1    0    0  501    0  0.00000000000E+00  0.00000000000E+00 -0.20328405663E+04  0.20328405663E+04  0.25500000920E-02 0. -1.
    10030    2    1    2    0    0  0.00000000000E+00  0.00000000000E+00 -0.76574269170E+02  0.39891068634E+04  0.39883718419E+04 0.  0.
        5    1    3    3  502    0  0.44791425486E+03 -0.15824537710E+04 -0.11663106930E+04  0.20162067949E+04  0.46999998093E+01 0. -1.
       -5    1    3    3    0  502 -0.44791425486E+03  0.15824537710E+04  0.10897364238E+04  0.19729000686E+04  0.46999998093E+01 0.  1.
</event>
<event>
 5   0  0.1351000E-07  0.4099689E+04  0.7818609E-02  0.7984733E-01
       -1   -1    0    0    0  501  0.00000000000E+00  0.00000000000E+00  0.23958212324E+04  0.23958212324E+04  0.50400001928E-02 0. -1.
        1   -1    0    0  501    0  0.00000000000E+00  0.00000000000E+00 -0.17538300726E+04  0.17538300726E+04  0.50400001928E-02 0.  1.
    10030    2    1    2    0    0  0.00000000000E+00  0.00000000000E+00  0.64199115972E+03  0.41496513050E+04  0.40996894156E+04 0.  0.
        3    1    3    3  502    0 -0.43005019639E+03  0.13951007564E+04 -0.11355035294E+04  0.18494911645E+04  0.10100000352E+00 0.  1.
       -3    1    3    3    0  502  0.43005019639E+03 -0.13951007564E+04  0.17774946891E+04  0.23001601405E+04  0.10100000352E+00 0. -1.
</event>
<event>
 5   0  0.1351000E-07  0.3120001E+04  0.7818609E-02  0.8210270E-01
       -1   -1    0    0    0  501  0.00000000000E+00  0.00000000000E+00  0.10436716901E+04  0.10436716901E+04  0.50400001928E-02 0.  1.
        1   -1    0    0  501    0  0.00000000000E+00  0.00000000000E+00 -0.23317699725E+04  0.23317699725E+04  0.50400001928E-02 0. -1.
    10030    2    1    2    0    0  0.00000000000E+00  0.00000000000E+00 -0.12880982825E+04  0.33754416626E+04  0.31200014795E+04 0.  0.
        4    1    3    3  502    0 -0.24022757011E+03  0.31640701033E+03  0.98802827475E+03  0.10649057077E+04  0.12699999809E+01 0.  1.
       -4    1    3    3    0  502  0.24022757011E+03 -0.31640701033E+03 -0.22761265572E+04  0.23105359549E+04  0.12699999809E+01 0. -1.
</event>
<event>
 5   0  0.4079777E-07  0.4022043E+04  0.7818609E-02  0.8000114E-01
       -2   -1    0    0    0  501  0.00000000000E+00  0.00000000000E+00  0.28222149795E+04  0.28222149795E+04  0.25500000920E-02 0. -1.
        2   -1    0    0  501    0  0.00000000000E+00  0.00000000000E+00 -0.14329908614E+04  0.14329908614E+04  0.25500000920E-02 0.  1.
    10030    2    1    2    0    0  0.00000000000E+00  0.00000000000E+00  0.13892241181E+04  0.42552058409E+04  0.40220433983E+04 0.  0.
        4    1    3    3  502    0  0.19546677995E+04  0.46872641475E+03  0.75962353193E+03  0.21488276295E+04  0.12699999809E+01 0. -1.
       -4    1    3    3    0  502 -0.19546677995E+04 -0.46872641475E+03  0.62960058614E+03  0.21063782113E+04  0.12699999809E+01 0.  1.
</event>
<event>
 5   0  0.1351000E-07  0.2889487E+04  0.7818609E-02  0.8276012E-01
        1   -1    0    0  501    0  0.00000000000E+00  0.00000000000E+00  0.18813394584E+04  0.18813394584E+04  0.50400001928E-02 0. -1.
       -1   -1    0    0    0  501  0.00000000000E+00  0.00000000000E+00 -0.11094668597E+04  0.11094668598E+04  0.50400001928E-02 0.  1.
    10030    2    1    2    0    0  0.00000000000E+00  0.00000000000E+00  0.77187259864E+03  0.29908063181E+04  0.28894870002E+04 0.  0.
        3    1    3    3  502    0 -0.41871301242E+03 -0.13735922703E+04  0.55027206029E+03  0.15378152237E+04  0.10100000352E+00 0. -1.
       -3    1    3    3    0  502  0.41871301242E+03  0.13735922703E+04  0.22160053836E+03  0.14529910944E+04  0.10100000352E+00 0.  1.
</event>
<event>
 5   0  0.4047916E-07  0.2845320E+04  0.7818609E-02  0.8289335E-01
        2   -1    0    0  501    0  0.00000000000E+00  0.00000000000E+00  0.17026431928E+04  0.17026431928E+04  0.25500000920E-02 0.  1.
       -2   -1    0    0    0  501  0.00000000000E+00  0.00000000000E+00 -0.11887171732E+04  0.11887171732E+04  0.25500000920E-02 0. -1.
    10030    2    1    2    0    0  0.00000000000E+00  0.00000000000E+00  0.51392601961E+03  0.28913603661E+04  0.28453198085E+04 0.  0.
        5    1    3    3  502    0  0.57037238868E+03 -0.12506296162E+04 -0.11576915455E+03  0.13794287535E+04  0.46999998093E+01 0.  1.
       -5    1    3    3    0  502 -0.57037238868E+03  0.12506296162E+04  0.62969517416E+03  0.15119316126E+04  0.46999998093E+01 0. -1.
</event>
<event>
 5   0  0.4149487E-07  0.3940592E+04  0.7818609E-02  0.8016639E-01
       -2   -1    0    0    0  501  0.00000000000E+00  0.00000000000E+00  0.23873335827E+04  0.23873335827E+04  0.25500000920E-02 0. -1.
        2   -1    0    0  501    0  0.00000000000E+00  0.00000000000E+00 -0.16261100580E+04  0.16261100580E+04  0.25500000920E-02 0.  1.
    10030    2    1    2    0    0  0.00000000000E+00  0.00000000000E+00  0.76122352468E+03  0.40134436408E+04  0.39405924178E+04 0.  0.
        2    1    3    3  502    0  0.60988648854E+03 -0.51371174488E+03  0.22156439244E+04  0.23547694760E+04  0.25500000920E-02 0. -1.
       -2    1    3    3    0  502 -0.60988648854E+03  0.51371174488E+03 -0.14544203997E+04  0.16586741647E+04  0.25500000920E-02 0.  1.
</event>
<event>
 5   0  0.4047916E-07  0.4407071E+04  0.7818609E-02  0.7927111E-01
       -2   -1    0    0    0  501  0.00000000000E+00  0.00000000000E+00  0.20576224274E+04  0.20576224274E+04  0.25500000920E-02 0.  1.
        2   -1    0    0  501    0  0.00000000000E+00  0.00000000000E+00 -0.23597957185E+04  0.23597957185E+04  0.25500000920E-02 0. -1.
    10030    2    1    2    0    0  0.00000000000E+00  0.00000000000E+00 -0.30217329112E+03  0.44174181458E+04  0.44070709522E+04 0.  0.
        5    1    3    3  502    0 -0.49380408846E+03 -0.12436441496E+04 -0.19059264658E+04  0.23287488125E+04  0.46999998093E+01 0. -1.
       -5    1    3    3    0  502  0.49380408846E+03  0.12436441496E+04  0.16037531747E+04  0.20886693333E+04  0.46999998093E+01 0.  1.
</event>
<event>
 5   0  0.1368865E-07  0.4073208E+04  0.7818609E-02  0.7989939E-01
       -1   -1    0    0    0  501  0.00000000000E+00  0.00000000000E+00  0.23506028033E+04  0.23506028033E+04  0.50400001928E-02 0. -1.
        1   -1    0    0  501    0  0.00000000000E+00  0.00000000000E+00 -0.17645499036E+04  0.17645499036E+04  0.50400001928E-02 0.  1.
    10030    2    1    2    0    0  0.00000000000E+00  0.00000000000E+00  0.58605289976E+03  0.41151527069E+04  0.40732080477E+04 0.  0.
        5    1    3    3  502    0 -0.33522866142E+02  0.18105855506E+04 -0.64844418764E+03  0.19234983164E+04  0.46999998093E+01 0. -1.
       -5    1    3    3    0  502  0.33522866142E+02 -0.18105855506E+04  0.12344970874E+04  0.21916543905E+04  0.46999998093E+01 0.  1.
</event>
<event>
 5   0  0.1351000E-07  0.3973130E+04  0.7818609E-02  0.8009989E-01
        1   -1    0    0  501    0  0.00000000000E+00  0.00000000000E+00  0.28310692458E+04  0.28310692458E+04  0.50400001928E-02 0.  1.
       -1   -1    0    0    0  501  0.00000000000E+00  0.00000000000E+00 -0.13939751747E+04  0.13939751748E+04  0.50400001928E-02 0. -1.
    10030    2    1    2    0    0  0.00000000000E+00  0.00000000000E+00  0.14370940710E+04  0.42250444205E+04  0.39731298728E+04 0.  0.
        4    1    3    3  502    0  0.74324864921E+03 -0.12820766325E+04 -0.68832537543E+03  0.16339928034E+04  0.12699999809E+01 0. -1.
       -4    1    3    3    0  502 -0.74324864921E+03  0.12820766325E+04  0.21254194464E+04  0.25910516171E+04  0.12699999809E+01 0.  1.
</event>
<event>
 5   0  0.4385550E-07  0.2611537E+04  0.7818609E-02  0.8364293E-01
       -2   -1    0    0    0  501  0.00000000000E+00  0.00000000000E+00  0.11018407062E+04  0.11018407062E+04  0.25500000920E-02 0. -1.
        2   -1    0    0  501    0  0.00000000000E+00  0.00000000000E+00 -0.15474394554E+04  0.15474394554E+04  0.25500000920E-02 0.  1.
    10030    2    1    2    0    0  0.00000000000E+00  0.00000000000E+00 -0.44559874915E+03  0.26492801616E+04  0.26115373115E+04 0.  0.
        3    1    3    3  502    0 -0.54865547630E+03 -0.26631544331E+03  0.94848021998E+03  0.11276353510E+04  0.10100000352E+00 0. -1.
       -3    1    3    3    0  502  0.54865547630E+03  0.26631544331E+03 -0.13940789691E+04  0.15216448105E+04  0.10100000352E+00 0.  1.
</event>
<event>
 5   0  0.1421304E-07  0.3072730E+04  0.7818609E-02  0.8223262E-01
        1   -1    0    0  501    0  0.00000000000E+00  0.00000000000E+00  0.25605068716E+04  0.25605068716E+04  0.50400001928E-02 0. -1.
       -1   -1    0    0    0  501  0.00000000000E+00  0.00000000000E+00 -0.92185549754E+03  0.92185549756E+03  0.50400001928E-02 0.  1.
    10030    2    1    2    0    0  0.00000000000E+00  0.00000000000E+00  0.16386513740E+04  0.34823623692E+04  0.30727299498E+04 0.  0.
        2    1    3    3  502    0 -0.11770343571E+04 -0.71284643675E+03  0.44967849111E+02  0.13768013755E+04  0.25500000920E-02 0.  1.
       -2    1    3    3    0  502  0.11770343571E+04  0.71284643675E+03  0.15936835249E+04  0.21055609936E+04  0.25500000920E-02 0. -1.
</event>
<event>
 5   0  0.4079777E-07  0.3915694E+04  0.7818609E-02  0.8021773E-01
       -2   -1    0    0    0  501  0.00000000000E+00  0.00000000000E+00  0.19501101195E+04  0.19501101195E+04  0.25500000920E-02 0.  1.
        2   -1    0    0  501    0  0.00000000000E+00  0.00000000000E+00 -0.19656149847E+04  0.19656149847E+04  0.25500000920E-02 0. -1.
    10030    2    1    2    0    0  0.00000000000E+00  0.00000000000E+00 -0.15504865215E+02  0.39157251043E+04  0.39156944073E+04 0.  0.
        4    1    3    3  502    0 -0.81613549076E+03 -0.64782439748E+03 -0.16652968656E+04  0.19644258328E+04  0.12699999809E+01 0. -1.
       -4    1    3    3    0  502  0.81613549076E+03  0.64782439748E+03  0.16497920004E+04  0.19512992714E+04  0.12699999809E+01 0.  1.
</event>
<event>
 5   0  0.1351000E-07  0.3940571E+04  0.7818609E-02  0.8016644E-01
       -1   -1    0    0    0  501  0.00000000000E+00  0.00000000000E+00  0.14605420564E+04  0.14605420564E+04  0.50400001928E-02 0. -1.
        1   -1    0    0  501    0  0.00000000000E+00  0.00000000000E+00 -0.26579337678E+04  0.26579337678E+04  0.50400001928E-02 0.  1.
    10030    2    1    2    0    0  0.00000000000E+00  0.00000000000E+00 -0.11973917114E+04  0.41184758242E+04  0.39405705429E+04 0.  0.
        4    1    3    3  502    0  0.14306613166E+04 -0.13546910204E+04 -0.60553932626E+03  0.20612275595E+04  0.12699999809E+01 0. -1.
       -4    1    3    3    0  502 -0.14306613166E+04  0.13546910204E+04 -0.59185238518E+03  0.20572482647E+04  0.12699999809E+01 0.  1.
</event>
<event>
 5   0  0.1372952E-07  0.3232195E+04  0.7818609E-02  0.8180366E-01
       -1   -1    0    0    0  501  0.00000000000E+00  0.00000000000E+00  0.15559661321E+04  0.15559661321E+04  0.50400001928E-02 0. -1.
        1   -1    0    0  501    0  0.00000000000E+00  0.00000000000E+00 -0.16785526432E+04  0.16785526432E+04  0.50400001928E-02 0.  1.
    10030    2    1    2    0    0  0.00000000000E+00  0.00000000000E+00 -0.12258651104E+03  0.32345187753E+04  0.32321949593E+04 0.  0.
        1    1    3    3  502    0  0.28123581162E+03 -0.83694313301E+03  0.12932691019E+04  0.15659222074E+04  0.50400001928E-02 0. -1.
       -1    1    3    3    0  502 -0.28123581162E+03  0.83694313301E+03 -0.14158556130E+04  0.16685965679E+04  0.50400001928E-02 0.  1.
</event>
<event>
 5   0  0.1368865E-07  0.4001165E+04  0.7818609E-02  0.8004312E-01
        1   -1    0    0  501    0  0.00000000000E+00  0.00000000000E+00  0.28546977628E+04  0.28546977628E+04  0.50400001928E-02 0. -1.
       -1   -1    0    0    0  501  0.00000000000E+00  0.00000000000E+00 -0.14020154868E+04  0.14020154868E+04  0.50400001928E-02 0.  1.
    10030    2    1    2    0    0  0.00000000000E+00  0.00000000000E+00  0.14526822760E+04  0.42567132496E+04  0.40011650671E+04 0.  0.
        5    1    3    3  502    0  0.12825576743E+04  0.13484598335E+04  0.15074048266E+04  0.23949090821E+04  0.46999998093E+01 0. -1.
       -5    1    3    3    0  502 -0.12825576743E+04 -0.13484598335E+04 -0.54722550581E+02  0.18618041675E+04  0.46999998093E+01 0.  1.
</event>
<event>
 5   0  0.1351000E-07  0.3560738E+04  0.7818609E-02  0.8099545E-01
       -1   -1    0    0    0  501  0.00000000000E+00  0.00000000000E+00  0.29135431435E+04  0.29135431435E+04  0.50400001928E-02 0.  1.
        1   -1    0    0  501    0  0.00000000000E+00  0.00000000000E+00 -0.10879240446E+04  0.10879240446E+04  0.50400001928E-02 0. -1.
    10030    2    1    2    0    0  0.00000000000E+00  0.00000000000E+00  0.18256190989E+04  0.40014671882E+04  0.35607379240E+04 0.  0.
        3    1    3    3  502    0  0.62921922439E+03  0.11452673516E+04 -0.44605642415E+03  0.13807680771E+04  0.10100000352E+00 0. -1.
       -3    1    3    3    0  502 -0.62921922439E+03 -0.11452673516E+04  0.22716755230E+04  0.26206991111E+04  0.10100000352E+00 0.  1.
</event>
<event>
 5   0  0.4149487E-07  0.4089618E+04  0.7818609E-02  0.7986708E-01
        2   -1    0    0  501    0  0.00000000000E+00  0.00000000000E+00  0.21451050410E+04  0.21451050410E+04  0.25500000920E-02 0. -1.
       -2   -1    0    0    0  501  0.00000000000E+00  0.00000000000E+00 -0.19492024869E+04  0.19492024869E+04  0.25500000920E-02 0.  1.
    10030    2    1    2    0    0  0.00000000000E+00  0.00000000000E+00  0.19590255408E+03  0.40943075279E+04  0.40896181145E+04 0.  0.
        2    1    3    3  502    0  0.40895136603E+03  0.10536120643E+03  0.21009707723E+04  0.21429933247E+04  0.25500000920E-02 0. -1.
       -2    1    3    3    0  502 -0.40895136603E+03 -0.10536120643E+03 -0.19050682182E+04  0.19513142032E+04  0.25500000920E-02 0.  1.
</event>
<event>
 5   0  0.1351000E-07  0.3669957E+04  0.7818609E-02  0.8074653E-01
       -1   -1    0    0    0  501  0.00000000000E+00  0.00000000000E+00  0.14418575633E+04  0.14418575633E+04  0.50400001928E-02 0.  1.
        1   -1    0    0  501    0  0.00000000000E+00  0.00000000000E+00 -0.23352830981E+04  0.23352830981E+04  0.50400001928E-02 0. -1.
    10030    2    1    2    0    0  0.00000000000E+00  0.00000000000E+00 -0.89342553484E+03  0.37771406614E+04  0.36699567286E+04 0.  0.
        4    1    3    3  502    0  0.16792399217E+04 -0.72620756190E+03 -0.30145304374E+03  0.18542113385E+04  0.12699999809E+01 0.  1.
       -4    1    3    3    0  502 -0.16792399217E+04  0.72620756190E+03 -0.59197249110E+03  0.19229293228E+04  0.12699999809E+01 0. -1.
</event>
<event>
 5   0  0.4077370E-07  0.4007225E+04  0.7818609E-02  0.8003091E-01
        2   -1    0    0  501    0  0.00000000000E+00  0.00000000000E+00  0.20190365896E+04  0.20190365896E+04  0.25500000920E-02 0. -1.
       -2   -1    0    0    0  501  0.00000000000E+00  0.00000000000E+00 -0.19883059517E+04  0.19883059517E+04  0.25500000920E-02 0.  1.
    10030    2    1    2    0    0  0.00000000000E+00  0.00000000000E+00  0.30730637904E+02  0.40073425413E+04  0.40072247093E+04 0.  0.
        3    1    3    3  502    0 -0.13988668778E+04 -0.70635433274E+03 -0.12331494549E+04  0.19940969318E+04  0.10100000352E+00 0.  1.
       -3    1    3    3    0  502  0.13988668778E+04  0.70635433274E+03  0.12638800928E+04  0.20132456095E+04  0.10100000352E+00 0. -1.
</event>
<event>
 5   0  0.4079777E-07  0.2640242E+04  0.7818609E-02  0.8354659E-01
       -2   -1    0    0    0  501  0.00000000000E+00  0.00000000000E+00  0.76552166329E+03  0.76552166330E+03  0.25500000920E-02 0.  1.
        2   -1    0    0  501    0  0.00000000000E+00  0.00000000000E+00 -0.22765125216E+04  0.22765125216E+04  0.25500000920E-02 0. -1.
    10030    2    1    2    0    0  0.00000000000E+00  0.00000000000E+00 -0.15109908583E+04  0.30420341849E+04  0.26402421495E+04 0.  0.
        4    1    3    3  502    0  0.10557197623E+04  0.10614265128E+03  0.14946663998E+03  0.10715187205E+04  0.12699999809E+01 0.  1.
       -4    1    3    3    0  502 -0.10557197623E+04 -0.10614265128E+03 -0.16604574982E+04  0.19705154644E+04  0.12699999809E+01 0. -1.
</event>
<event>
 5   0  0.1372952E-07  0.3943738E+04  0.7818609E-02  0.8015993E-01
        1   -1    0    0  501    0  0.00000000000E+00  0.00000000000E+00  0.13424661310E+04  0.13424661310E+04  0.50400001928E-02 0.  1.
       -1   -1    0    0    0  501  0.00000000000E+00  0.00000000000E+00 -0.28963621121E+04  0.28963621121E+04  0.50400001928E-02 0. -1.
    10030    2    1    2    0    0  0.00000000000E+00  0.00000000000E+00 -0.15538959811E+04  0.42388282430E+04  0.39437383475E+04 0.  0.
        1    1    3    3  502    0 -0.11165976767E+04  0.93833559989E+03 -0.22032710165E+04  0.26422844740E+04  0.50400001928E-02 0. -1.
       -1    1    3    3    0  502  0.11165976767E+04 -0.93833559989E+03  0.64937503536E+03  0.15965437690E+04  0.50400001928E-02 0.  1.
</event>
<event>
 5   0  0.4047916E-07  0.3979978E+04  0.7818609E-02  0.8008598E-01
        2   -1    0    0  501    0  0.00000000000E+00  0.00000000000E+00  0.23280299840E+04  0.23280299840E+04  0.25500000920E-02 0.  1.
       -2   -1    0    0    0  501  0.00000000000E+00  0.00000000000E+00 -0.17010332330E+04  0.17010332330E+04  0.25500000920E-02 0. -1.
    10030    2    1    2    0    0  0.00000000000E+00  0.00000000000E+00  0.62699675105E+03  0.40290632170E+04  0.39799780754E+04 0.  0.
        5    1    3    3  502    0 -0.15876578920E+04  0.68797745938E+02 -0.89903976919E+03  0.18258382482E+04  0.46999998093E+01 0. -1.
       -5    1    3    3    0  502  0.15876578920E+04 -0.68797745938E+02  0.15260365202E+04  0.22032249688E+04  0.46999998093E+01 0.  1.
</event>
<event>
 5   0  0.4301754E-07  0.3964476E+04  0.7818609E-02  0.8011751E-01
       -2   -1    0    0    0  501  0.00000000000E+00  0.00000000000E+00  0.26290766130E+04  0.26290766130E+04  0.25500000920E-02 0. -1.
        2   -1    0    0  501    0  0.00000000000E+00  0.00000000000E+00 -0.14945431378E+04  0.14945431378E+04  0.25500000920E-02 0.  1.
    10030    2    1    2    0    0  0.00000000000E+00  0.00000000000E+00  0.11345334752E+04  0.41236197508E+04  0.39644764652E+04 0.  0.
        1    1    3    3  502    0  0.11887639239E+04  0.93916450450E+03 -0.76235853675E+03  0.16959894374E+04  0.50400001928E-02 0.  1.
       -1    1    3    3    0  502 -0.11887639239E+04 -0.93916450450E+03  0.18968920119E+04  0.24276303134E+04  0.50400001928E-02 0. -1.
</event>
<event>
 5   0  0.4077370E-07  0.3975728E+04  0.7818609E-02  0.8009461E-01
        2   -1    0    0  501    0  0.00000000000E+00  0.00000000000E+00  0.18490561919E+04  0.18490561919E+04  0.25500000920E-02 0. -1.
       -2   -1    0    0    0  501  0.00000000000E+00  0.00000000000E+00 -0.21370919110E+04  0.21370919110E+04  0.25500000920E-02 0.  1.
    10030    2    1    2    0    0  0.00000000000E+00  0.00000000000E+00 -0.28803571906E+03  0.39861481029E+04  0.39757278733E+04 0.  0.
        3    1    3    3  502    0  0.98411129446E+03 -0.15098481692E+04  0.69692146119E+03  0.19323084814E+04  0.10100000352E+00 0. -1.
       -3    1    3    3    0  502 -0.98411129446E+03  0.15098481692E+04 -0.98495718025E+03  0.20538396215E+04  0.10100000352E+00 0.  1.
</event>
<event>
 5   0  0.1372952E-07  0.3976622E+04  0.7818609E-02  0.8009279E-01
        1   -1    0    0  501    0  0.00000000000E+00  0.00000000000E+00  0.13910536181E+04  0.13910536181E+04  0.50400001928E-02 0. -1.
       -1   -1    0    0    0  501  0.00000000000E+00  0.00000000000E+00 -0.28420043469E+04  0.28420043469E+04  0.50400001928E-02 0.  1.
    10030    2    1    2    0    0  0.00000000000E+00  0.00000000000E+00 -0.14509507288E+04  0.42330579650E+04  0.39766218978E+04 0.  0.
        1    1    3    3  502    0 -0.40776996500E+03  0.22412530236E+03 -0.27832320578E+04  0.28218591714E+04  0.50400001928E-02 0.  1.
       -1    1    3    3    0  502  0.40776996500E+03 -0.22412530236E+03  0.13322813290E+04  0.14111987936E+04  0.50400001928E-02 0. -1.
</event>
<event>
 5   0  0.1421304E-07  0.3995702E+04  0.7818609E-02  0.8005414E-01
        1   -1    0    0  501    0  0.00000000000E+00  0.00000000000E+00  0.13564800122E+04  0.13564800122E+04  0.50400001928E-02 0.  1.
       -1   -1    0    0    0  501  0.00000000000E+00  0.00000000000E+00 -0.29424755369E+04  0.29424755369E+04  0.50400001928E-02 0. -1.
    10030    2    1    2    0    0  0.00000000000E+00  0.00000000000E+00 -0.15859955247E+04  0.42989555492E+04  0.39957023174E+04 0.  0.
        2    1    3    3  502    0  0.76193548097E+03  0.17907374428E+04 -0.30690877118E+03  0.19701470149E+04  0.25500000920E-02 0. -1.
       -2    1    3    3    0  502 -0.76193548097E+03 -0.17907374428E+04 -0.12790867536E+04  0.23288085343E+04  0.25500000920E-02 0.  1.
</event>
<event>
 5   0  0.4301754E-07  0.3787062E+04  0.7818609E-02  0.8048937E-01
       -2   -1    0    0    0  501  0.00000000000E+00  0.00000000000E+00  0.17545917040E+04  0.17545917040E+04  0.25500000920E-02 0.  1.
        2   -1    0    0  501    0  0.00000000000E+00  0.00000000000E+00 -0.20434728041E+04  0.20434728041E+04  0.25500000920E-02 0. -1.
    10030    2    1    2    0    0  0.00000000000E+00  0.00000000000E+00 -0.28888110004E+03  0.37980645081E+04  0.37870624127E+04 0.  0.
        1    1    3    3  502    0  0.18062769865E+04 -0.24296119451E+03  0.37066011776E+03  0.18598536547E+04  0.50400001928E-02 0.  1.
       -1    1    3    3    0  502 -0.18062769865E+04  0.24296119451E+03 -0.65954121780E+03  0.19382108534E+04  0.50400001928E-02 0. -1.
</event>
<event>
 5   0  0.4077370E-07  0.3996986E+04  0.7818609E-02  0.8005155E-01
        2   -1    0    0  501    0  0.00000000000E+00  0.00000000000E+00  0.27260620938E+04  0.27260620938E+04  0.25500000920E-02 0. -1.
       -2   -1    0    0    0  501  0.00000000000E+00  0.00000000000E+00 -0.14651079268E+04  0.14651079268E+04  0.25500000920E-02 0.  1.
    10030    2    1    2    0    0  0.00000000000E+00  0.00000000000E+00  0.12609541670E+04  0.41911700206E+04  0.39969864561E+04 0.  0.
        3    1    3    3  502    0  0.17527907165E+04 -0.90203927785E+03  0.97511636447E+03  0.21992730820E+04  0.10100000352E+00 0. -1.
       -3    1    3    3    0  502 -0.17527907165E+04  0.90203927785E+03  0.28583780253E+03  0.19918969386E+04  0.10100000352E+00 0.  1.
</event>
<event>
 5   0  0.1368865E-07  0.2616806E+04  0.7818609E-02  0.8362515E-01
       -1   -1    0    0    0  501  0.00000000000E+00  0.00000000000E+00  0.98812080488E+03  0.98812080489E+03  0.50400001928E-02 0.  1.
        1   -1    0    0  501    0  0.00000000000E+00  0.00000000000E+00 -0.17324984753E+04  0.17324984754E+04  0.50400001928E-02 0. -1.
    10030    2    1    2    0    0  0.00000000000E+00  0.00000000000E+00 -0.74437767047E+03  0.27206192802E+04  0.26168055242E+04 0.  0.
        5    1    3    3  502    0  0.62861098893E+03 -0.10639314453E+04 -0.81911936697E+03  0.14825925007E+04  0.46999998093E+01 0. -1.
       -5    1    3    3    0  502 -0.62861098893E+03  0.10639314453E+04  0.74741696502E+02  0.12380267796E+04  0.46999998093E+01 0.  1.
</event>
<event>
 5   0  0.4077370E-07  0.3915712E+04  0.7818609E-02  0.8021769E-01
       -2   -1    0    0    0  501  0.00000000000E+00  0.00000000000E+00  0.32244575462E+04  0.32244575462E+04  0.25500000920E-02 0. -1.
        2   -1    0    0  501    0  0.00000000000E+00  0.00000000000E+00 -0.11887889814E+04  0.11887889814E+04  0.25500000920E-02 0.  1.
    10030    2    1    2    0    0  0.00000000000E+00  0.00000000000E+00  0.20356685647E+04  0.44132465276E+04  0.39157117371E+04 0.  0.
        3    1    3    3  502    0 -0.52278001403E+03  0.72567594688E+03  0.29807642478E+04  0.31120507763E+04  0.10100000352E+00 0. -1.
       -3    1    3    3    0  502  0.52278001403E+03 -0.72567594688E+03 -0.94509568307E+03  0.13011957513E+04  0.10100000352E+00 0.  1.
</event>
<event>
 5   0  0.1351000E-07  0.4006771E+04  0.7818609E-02  0.8003182E-01
        1   -1    0    0  501    0  0.00000000000E+00  0.00000000000E+00  0.17013621903E+04  0.17013621903E+04  0.50400001928E-02 0. -1.
       -1   -1    0    0    0  501  0.00000000000E+00  0.00000000000E+00 -0.23590237867E+04  0.23590237867E+04  0.50400001928E-02 0.  1.
    10030    2    1    2    0    0  0.00000000000E+00  0.00000000000E+00 -0.65766159644E+03  0.40603859771E+04  0.40067712072E+04 0.  0.
        4    1    3    3  502    0  0.18868123999E+04 -0.61392152206E+03 -0.48375702516E+02  0.19847676159E+04  0.12699999809E+01 0.  1.
       -4    1    3    3    0  502 -0.18868123999E+04  0.61392152206E+03 -0.60928589393E+03  0.20756183611E+04  0.12699999809E+01 0. -1.
</event>
<event>
 5   0  0.1351000E-07  0.3998348E+04  0.7818609E-02  0.8004880E-01
        1   -1    0    0  501    0  0.00000000000E+00  0.00000000000E+00  0.15570977062E+04  0.15570977062E+04  0.50400001928E-02 0.  1.
       -1   -1    0    0    0  501  0.00000000000E+00  0.00000000000E+00 -0.25667609276E+04  0.25667609276E+04  0.50400001928E-02 0. -1.
    10030    2    1    2    0    0  0.00000000000E+00  0.00000000000E+00 -0.10096632214E+04  0.41238586338E+04  0.39983484354E+04 0.  0.
        4    1    3    3  502    0  0.15244421414E+03  0.19928750631E+04 -0.45980714321E+03  0.20509057700E+04  0.12699999809E+01 0.  1.
       -4    1    3    3    0  502 -0.15244421414E+03 -0.19928750631E+04 -0.54985607821E+03  0.20729528638E+04  0.12699999809E+01 0. -1.
</event>
<event>
 5   0  0.4348658E-07  0.2576484E+04  0.7818609E-02  0.8376233E-01
        2   -1    0    0  501    0  0.00000000000E+00  0.00000000000E+00  0.20336665958E+04  0.20336665958E+04  0.25500000920E-02 0. -1.
       -2   -1    0    0    0  501  0.00000000000E+00  0.00000000000E+00 -0.81604679909E+03  0.81604679910E+03  0.25500000920E-02 0.  1.
    10030    2    1    2    0    0  0.00000000000E+00  0.00000000000E+00  0.12176197968E+04  0.28497133949E+04  0.25764837403E+04 0.  0.
        3    1    3    3  502    0 -0.59493280793E+03  0.27745809370E+03 -0.61717730688E+03  0.90101935498E+03  0.10100000352E+00 0.  1.
       -3    1    3    3    0  502  0.59493280793E+03 -0.27745809370E+03  0.18347971036E+04  0.19486940400E+04  0.10100000352E+00 0. -1.
</event>
<event>
 5   0  0.1351000E-07  0.3902767E+04  0.7818609E-02  0.8024454E-01
        1   -1    0    0  501    0  0.00000000000E+00  0.00000000000E+00  0.18460287732E+04  0.18460287732E+04  0.50400001928E-02 0. -1.
       -1   -1    0    0    0  501  0.00000000000E+00  0.00000000000E+00 -0.20627510876E+04  0.20627510876E+04  0.50400001928E-02 0.  1.
    10030    2    1    2    0    0  0.00000000000E+00  0.00000000000E+00 -0.21672231438E+03  0.39087798608E+04  0.39027671515E+04 0.  0.
        3    1    3    3  502    0 -0.15054041276E+04 -0.93822326603E+03  0.70615272000E+03  0.19092292054E+04  0.10100000352E+00 0. -1.
       -3    1    3    3    0  502  0.15054041276E+04  0.93822326603E+03 -0.92287503438E+03  0.19995506554E+04  0.10100000352E+00 0.  1.
</event>
<event>
 5   0  0.1372952E-07  0.4002748E+04  0.7818609E-02  0.8003992E-01
        1   -1    0    0  501    0  0.00000000000E+00  0.00000000000E+00  0.14133840639E+04  0.14133840639E+04  0.50400001928E-02 0.  1.
       -1   -1    0    0    0  501  0.00000000000E+00  0.00000000000E+00 -0.28339774415E+04  0.28339774416E+04  0.50400001928E-02 0. -1.
    10030    2    1    2    0    0  0.00000000000E+00  0.00000000000E+00 -0.14205933777E+04  0.42473615055E+04  0.40027483325E+04 0.  0.
        1    1    3    3  502    0  0.11609189737E+04 -0.11544081480E+04  0.51118370464E+03  0.17151384246E+04  0.50400001928E-02 0.  1.
       -1    1    3    3    0  502 -0.11609189737E+04  0.11544081480E+04 -0.19317770823E+04  0.25322230809E+04  0.50400001928E-02 0. -1.
</event>
<event>
 5   0  0.1351000E-07  0.4006793E+04  0.7818609E-02  0.8003178E-01
        1   -1    0    0  501    0  0.00000000000E+00  0.00000000000E+00  0.28021992788E+04  0.28021992788E+04  0.50400001928E-02 0. -1.
       -1   -1    0    0    0  501  0.00000000000E+00  0.00000000000E+00 -0.14323026952E+04  0.14323026952E+04  0.50400001928E-02 0.  1.
    10030    2    1    2    0    0  0.00000000000E+00  0.00000000000E+00  0.13698965836E+04  0.42345019740E+04  0.40067930216E+04 0.  0.
        4    1    3    3  502    0  0.18232357188E+04  0.30826043326E+03 -0.12982843539E+03  0.18536639438E+04  0.12699999809E+01 0.  1.
       -4    1    3    3    0  502 -0.18232357188E+04 -0.30826043326E+03  0.14997250189E+04  0.23808380302E+04  0.12699999809E+01 0. -1.
</event>
<event>
 5   0  0.4149487E-07  0.4036177E+04  0.7818609E-02  0.7997288E-01
       -2   -1    0    0    0  501  0.00000000000E+00  0.00000000000E+00  0.17110772941E+04  0.17110772941E+04  0.25500000920E-02 0.  1.
        2   -1    0    0  501    0  0.00000000000E+00  0.00000000000E+00 -0.23801850542E+04  0.23801850542E+04  0.25500000920E-02 0. -1.
    10030    2    1    2    0    0  0.00000000000E+00  0.00000000000E+00 -0.66910776018E+03  0.40912623483E+04  0.40361767067E+04 0.  0.
        2    1    3    3  502    0  0.17235581600E+04 -0.89526956192E+03 -0.89023296611E+03  0.21365100172E+04  0.25500000920E-02 0. -1.
       -2    1    3    3    0  502 -0.17235581600E+04  0.89526956192E+03  0.22112520592E+03  0.19547523312E+04  0.25500000920E-02 0.  1.
</event>
<event>
 5   0  0.4149487E-07  0.4103307E+04  0.7818609E-02  0.7984024E-01
        2   -1    0    0  501    0  0.00000000000E+00  0.00000000000E+00  0.15000369438E+04  0.15000369438E+04  0.25500000920E-02 0. -1.
       -2   -1    0    0    0  501  0.00000000000E+00  0.00000000000E+00 -0.28061189870E+04  0.28061189870E+04  0.25500000920E-02 0.  1.
    10030    2    1    2    0    0  0.00000000000E+00  0.00000000000E+00 -0.13060820432E+04  0.43061559308E+04  0.41033070317E+04 0.  0.
        2    1    3    3  502    0  0.35867160570E+03  0.19823222754E+04 -0.10608857570E+04  0.22767796366E+04  0.25500000920E-02 0. -1.
       -2    1    3    3    0  502 -0.35867160570E+03 -0.19823222754E+04 -0.24519628622E+03  0.20293762941E+04  0.25500000920E-02 0.  1.
</event>
<event>
 5   0  0.4149487E-07  0.3605788E+04  0.7818609E-02  0.8089167E-01
        2   -1    0    0  501    0  0.00000000000E+00  0.00000000000E+00  0.22708888720E+04  0.22708888720E+04  0.25500000920E-02 0.  1.
       -2   -1    0    0    0  501  0.00000000000E+00  0.00000000000E+00 -0.14313453818E+04  0.14313453818E+04  0.25500000920E-02 0. -1.
    10030    2    1    2    0    0  0.00000000000E+00  0.00000000000E+00  0.83954349019E+03  0.37022342538E+04  0.36057877362E+04 0.  0.
        2    1    3    3  502    0 -0.67009355773E+03 -0.16636533552E+04  0.60814129960E+03  0.18938330715E+04  0.25500000920E-02 0.  1.
       -2    1    3    3    0  502  0.67009355773E+03  0.16636533552E+04  0.23140219059E+03  0.18084011823E+04  0.25500000920E-02 0. -1.
</event>
<event>
 5   0  0.1421304E-07  0.4031709E+04  0.7818609E-02  0.7998180E-01
        1   -1    0    0  501    0  0.00000000000E+00  0.00000000000E+00  0.20204042867E+04  0.20204042867E+04  0.50400001928E-02 0. -1.
       -1   -1    0    0    0  501  0.00000000000E+00  0.00000000000E+00 -0.20113151722E+04  0.20113151722E+04  0.50400001928E-02 0.  1.
    10030    2    1    2    0    0  0.00000000000E+00  0.00000000000E+00  0.90891144492E+01  0.40317194589E+04  0.40317092136E+04 0.  0.
        2    1    3    3  502    0 -0.48915523662E+03  0.59155502021E+03  0.18685395322E+04  0.20200619225E+04  0.25500000920E-02 0. -1.
       -2    1    3    3    0  502  0.48915523662E+03 -0.59155502021E+03 -0.18594504178E+04  0.20116575363E+04  0.25500000920E-02 0.  1.
</event>
<event>
 5   0  0.1827567E-07  0.2564004E+04  0.7818609E-02  0.8380532E-01
        1   -1    0    0  501    0  0.00000000000E+00  0.00000000000E+00  0.15092539248E+04  0.15092539248E+04  0.50400001928E-02 0.  1.
       -1   -1    0    0    0  501  0.00000000000E+00  0.00000000000E+00 -0.10889680584E+04  0.10889680585E+04  0.50400001928E-02 0. -1.
    10030    2    1    2    0    0  0.00000000000E+00  0.00000000000E+00  0.42028586635E+03  0.25982219833E+04  0.25640041468E+04 0.  0.
        4    1    3    3  502    0 -0.22799320599E+03  0.49415881971E+03 -0.96610362471E+03  0.11088424900E+04  0.12699999809E+01 0. -1.
       -4    1    3    3    0  502  0.22799320599E+03 -0.49415881971E+03  0.13863894911E+04  0.14893794932E+04  0.12699999809E+01 0.  1.
</event>
<event>
 5   0  0.1351000E-07  0.4072340E+04  0.7818609E-02  0.7990110E-01
        1   -1    0    0  501    0  0.00000000000E+00  0.00000000000E+00  0.14238588526E+04  0.14238588526E+04  0.50400001928E-02 0. -1.
       -1   -1    0    0    0  501  0.00000000000E+00  0.00000000000E+00 -0.29117967532E+04  0.29117967532E+04  0.50400001928E-02 0.  1.
    10030    2    1    2    0    0  0.00000000000E+00  0.00000000000E+00 -0.14879379006E+04  0.43356556059E+04  0.40723396637E+04 0.  0.
        3    1    3    3  502    0 -0.64174665414E+01  0.55254538757E+03  0.13425031548E+04  0.14517790191E+04  0.10100000352E+00 0. -1.
       -3    1    3    3    0  502  0.64174665414E+01 -0.55254538757E+03 -0.28304410555E+04  0.28838765868E+04  0.10100000352E+00 0.  1.
</event>
<event>
 5   0  0.4047916E-07  0.3849414E+04  0.7818609E-02  0.8035633E-01
        2   -1    0    0  501    0  0.00000000000E+00  0.00000000000E+00  0.13332602390E+04  0.13332602390E+04  0.25500000920E-02 0. -1.
       -2   -1    0    0    0  501  0.00000000000E+00  0.00000000000E+00 -0.27785248794E+04  0.27785248794E+04  0.25500000920E-02 0.  1.
    10030    2    1    2    0    0  0.00000000000E+00  0.00000000000E+00 -0.14452646404E+04  0.41117851184E+04  0.38494138488E+04 0.  0.
        5    1    3    3  502    0  0.41324237996E+02  0.44329228113E+03 -0.27227603561E+04  0.27589240269E+04  0.46999998093E+01 0.  1.
       -5    1    3    3    0  502 -0.41324237996E+02 -0.44329228113E+03  0.12774957158E+04  0.13528610915E+04  0.46999998093E+01 0. -1.
</event>
<event>
 5   0  0.1351000E-07  0.3218623E+04  0.7818609E-02  0.8183916E-01
       -1   -1    0    0    0  501  0.00000000000E+00  0.00000000000E+00  0.11505098062E+04  0.11505098063E+04  0.50400001928E-02 0. -1.
        1   -1    0    0  501    0  0.00000000000E+00  0.00000000000E+00 -0.22510743887E+04  0.22510743887E+04  0.50400001928E-02 0.  1.
    10030    2    1    2    0    0  0.00000000000E+00  0.00000000000E+00 -0.11005645825E+04  0.34015841950E+04  0.32186227855E+04 0.  0.
        4    1    3    3  502    0  0.91396310159E+02  0.89533020138E+03 -0.19602540700E+04  0.21569810121E+04  0.12699999809E+01 0.  1.
       -4    1    3    3    0  502 -0.91396310159E+02 -0.89533020138E+03  0.85968948747E+03  0.12446031829E+04  0.12699999809E+01 0. -1.
</event>
<event>
 5   0  0.4077370E-07  0.3965326E+04  0.7818609E-02  0.8011578E-01
        2   -1    0    0  501    0  0.00000000000E+00  0.00000000000E+00  0.14169953919E+04  0.14169953919E+04  0.25500000920E-02 0. -1.
       -2   -1    0    0    0  501  0.00000000000E+00  0.00000000000E+00 -0.27741456813E+04  0.27741456813E+04  0.25500000920E-02 0.  1.
    10030    2    1    2    0    0  0.00000000000E+00  0.00000000000E+00 -0.13571502894E+04  0.41911410733E+04  0.39653255337E+04 0.  0.
        3    1    3    3  502    0 -0.82542745443E+03  0.14520910178E+04  0.45045700569E+03  0.17299740838E+04  0.10100000352E+00 0. -1.
       -3    1    3    3    0  502  0.82542745443E+03 -0.14520910178E+04 -0.18076072951E+04  0.24611669894E+04  0.10100000352E+00 0.  1.
</event>
<event>
 5   0  0.1351000E-07  0.3941747E+04  0.7818609E-02  0.8016402E-01
        1   -1    0    0  501    0  0.00000000000E+00  0.00000000000E+00  0.18561718013E+04  0.18561718013E+04  0.50400001928E-02 0. -1.
       -1   -1    0    0    0  501  0.00000000000E+00  0.00000000000E+00 -0.20926633596E+04  0.20926633596E+04  0.50400001928E-02 0.  1.
    10030    2    1    2    0    0  0.00000000000E+00  0.00000000000E+00 -0.23649155827E+03  0.39488351609E+04  0.39417471850E+04 0.  0.
        4    1    3    3  502    0  0.15274379780E+04 -0.10351380581E+04  0.57564937405E+03  0.19328609341E+04  0.12699999809E+01 0. -1.
       -4    1    3    3    0  502 -0.15274379780E+04  0.10351380581E+04 -0.81214093232E+03  0.20159742267E+04  0.12699999809E+01 0.  1.
</event>
<event>
 5   0  0.1368865E-07  0.3981660E+04  0.7818609E-02  0.8008257E-01
       -1   -1    0    0    0  501  0.00000000000E+00  0.00000000000E+00  0.22025611828E+04  0.22025611828E+04  0.50400001928E-02 0.  1.
        1   -1    0    0  501    0  0.00000000000E+00  0.00000000000E+00 -0.17994521792E+04  0.17994521792E+04  0.50400001928E-02 0. -1.
    10030    2    1    2    0    0  0.00000000000E+00  0.00000000000E+00  0.40310900360E+03  0.40020133621E+04  0.39816597144E+04 0.  0.
        5    1    3    3  502    0 -0.59756215122E+03  0.98024234271E+03 -0.14332363178E+04  0.18363398399E+04  0.46999998093E+01 0. -1.
       -5    1    3    3    0  502  0.59756215122E+03 -0.98024234271E+03  0.18363453214E+04  0.21656735221E+04  0.46999998093E+01 0.  1.
</event>
<event>
 5   0  0.1351000E-07  0.4063710E+04  0.7818609E-02  0.7991816E-01
        1   -1    0    0  501    0  0.00000000000E+00  0.00000000000E+00  0.22895740539E+04  0.22895740539E+04  0.50400001928E-02 0.  1.
       -1   -1    0    0    0  501  0.00000000000E+00  0.00000000000E+00 -0.18031450887E+04  0.18031450887E+04  0.50400001928E-02 0. -1.
    10030    2    1    2    0    0  0.00000000000E+00  0.00000000000E+00  0.48642896524E+03  0.40927191426E+04  0.40637097389E+04 0.  0.
        3    1    3    3  502    0  0.46050187940E+03 -0.74688657357E+03 -0.16024980084E+04  0.18269924499E+04  0.10100000352E+00 0. -1.
       -3    1    3    3    0  502 -0.46050187940E+03  0.74688657357E+03  0.20889269737E+04  0.22657266927E+04  0.10100000352E+00 0.  1.
</event>
<event>
 5   0  0.1351000E-07  0.3974412E+04  0.7818609E-02  0.8009728E-01
       -1   -1    0    0    0  501  0.00000000000E+00  0.00000000000E+00  0.28272023126E+04  0.28272023126E+04  0.50400001928E-02 0.  1.
        1   -1    0    0  501    0  0.00000000000E+00  0.00000000000E+00 -0.13967829948E+04  0.13967829948E+04  0.50400001928E-02 0. -1.
    10030    2    1    2    0    0  0.00000000000E+00  0.00000000000E+00  0.14304193178E+04  0.42239853074E+04  0.39744122147E+04 0.  0.
        3    1    3    3  502    0 -0.23308794491E+03  0.73163341690E+02  0.28111817923E+04  0.28217770897E+04  0.10100000352E+00 0.  1.
       -3    1    3    3    0  502  0.23308794491E+03 -0.73163341690E+02 -0.13807624745E+04  0.14022082177E+04  0.10100000352E+00 0. -1.
</event>
<event>
 5   0  0.4079777E-07  0.3975834E+04  0.7818609E-02  0.8009439E-01
        2   -1    0    0  501    0  0.00000000000E+00  0.00000000000E+00  0.15096213724E+04  0.15096213724E+04  0.25500000920E-02 0.  1.
       -2   -1    0    0    0  501  0.00000000000E+00  0.00000000000E+00 -0.26177518253E+04  0.26177518253E+04  0.25500000920E-02 0. -1.
    10030    2    1    2    0    0  0.00000000000E+00  0.00000000000E+00 -0.11081304529E+04  0.41273731978E+04  0.39758340525E+04 0.  0.
        4    1    3    3  502    0 -0.15626126893E+04  0.96860544287E+03 -0.13391009638E+04  0.22744555227E+04  0.12699999809E+01 0. -1.
       -4    1    3    3    0  502  0.15626126893E+04 -0.96860544287E+03  0.23097051094E+03  0.18529176750E+04  0.12699999809E+01 0.  1.
</event>
<event>
 5   0  0.4149487E-07  0.3928656E+04  0.7818609E-02  0.8019096E-01
        2   -1    0    0  501    0  0.00000000000E+00  0.00000000000E+00  0.16843441340E+04  0.16843441340E+04  0.25500000920E-02 0. -1.
       -2   -1    0    0    0  501  0.00000000000E+00  0.00000000000E+00 -0.22908529422E+04  0.22908529422E+04  0.25500000920E-02 0.  1.
    10030    2    1    2    0    0  0.00000000000E+00  0.00000000000E+00 -0.60650880823E+03  0.39751970762E+04  0.39286561138E+04 0.  0.
        2    1    3    3  502    0  0.19170288551E+04  0.33560895192E+03 -0.57277756933E+03  0.20287205682E+04  0.25500000920E-02 0.  1.
       -2    1    3    3    0  502 -0.19170288551E+04 -0.33560895192E+03 -0.33731238905E+02  0.19464765080E+04  0.25500000920E-02 0. -1.
</event>
<event>
 5   0  0.1351000E-07  0.4032077E+04  0.7818609E-02  0.7998107E-01
        1   -1    0    0  501    0  0.00000000000E+00  0.00000000000E+00  0.14655133656E+04  0.14655133656E+04  0.50400001928E-02 0. -1.
       -1   -1    0    0    0  501  0.00000000000E+00  0.00000000000E+00 -0.27733701846E+04  0.27733701846E+04  0.50400001928E-02 0.  1.
    10030    2    1    2    0    0  0.00000000000E+00  0.00000000000E+00 -0.13078568190E+04  0.42388835502E+04  0.40320769205E+04 0.  0.
        3    1    3    3  502    0 -0.10641627094E+04 -0.10570549506E+04 -0.20700924549E+04  0.25563822529E+04  0.10100000352E+00 0.  1.
       -3    1    3    3    0  502  0.10641627094E+04  0.10570549506E+04  0.76223563590E+03  0.16825012973E+04  0.10100000352E+00 0. -1.
</event>
<event>
 5   0  0.4077370E-07  0.3777092E+04  0.7818609E-02  0.8051089E-01
        2   -1    0    0  501    0  0.00000000000E+00  0.00000000000E+00  0.30062166760E+04  0.30062166760E+04  0.25500000920E-02 0. -1.
       -2   -1    0    0    0  501  0.00000000000E+00  0.00000000000E+00 -0.11864103675E+04  0.11864103675E+04  0.25500000920E-02 0.  1.
    10030    2    1    2    0    0  0.00000000000E+00  0.00000000000E+00  0.18198063085E+04  0.41926270436E+04  0.37770923375E+04 0.  0.
        3    1    3    3  502    0  0.17683997715E+04  0.61491182584E+03  0.63518340218E+03  0.19770716401E+04  0.10100000352E+00 0. -1.
       -3    1    3    3    0  502 -0.17683997715E+04 -0.61491182584E+03  0.11846229063E+04  0.22155554035E+04  0.10100000352E+00 0.  1.
</event>
<event>
 5   0  0.1372952E-07  0.3973684E+04  0.7818609E-02  0.8009876E-01
        1   -1    0    0  501    0  0.00000000000E+00  0.00000000000E+00  0.22883079019E+04  0.22883079019E+04  0.50400001928E-02 0. -1.
       -1   -1    0    0    0  501  0.00000000000E+00  0.00000000000E+00 -0.17250915840E+04  0.17250915840E+04  0.50400001928E-02 0.  1.
    10030    2    1    2    0    0  0.00000000000E+00  0.00000000000E+00  0.56321631789E+03  0.40133994858E+04  0.39736837836E+04 0.  0.
        1    1    3    3  502    0 -0.71249112696E+03  0.51471252918E+03 -0.15180448232E+04  0.17541472797E+04  0.50400001928E-02 0.  1.
       -1    1    3    3    0  502  0.71249112696E+03 -0.51471252918E+03  0.20812611411E+04  0.22592522061E+04  0.50400001928E-02 0. -1.
</event>
<event>
 5   0  0.1351000E-07  0.3963840E+04  0.7818609E-02  0.8011881E-01
        1   -1    0    0  501    0  0.00000000000E+00  0.00000000000E+00  0.17801178969E+04  0.17801178969E+04  0.50400001928E-02 0. -1.
       -1   -1    0    0    0  501  0.00000000000E+00  0.00000000000E+00 -0.22065998064E+04  0.22065998064E+04  0.50400001928E-02 0.  1.
    10030    2    1    2    0    0  0.00000000000E+00  0.00000000000E+00 -0.42648190950E+03  0.39867177033E+04  0.39638404644E+04 0.  0.
        4    1    3    3  502    0 -0.55011599610E+03 -0.16432882255E+04  0.75406987676E+03  0.18898801002E+04  0.12699999809E+01 0. -1.
       -4    1    3    3    0  502  0.55011599610E+03  0.16432882255E+04 -0.11805517863E+04  0.20968376032E+04  0.12699999809E+01 0.  1.
</event>
<event>
 5   0  0.1368865E-07  0.4022779E+04  0.7818609E-02  0.7999967E-01
       -1   -1    0    0    0  501  0.00000000000E+00  0.00000000000E+00  0.25827222369E+04  0.25827222369E+04  0.50400001928E-02 0. -1.
        1   -1    0    0  501    0  0.00000000000E+00  0.00000000000E+00 -0.15664430116E+04  0.15664430116E+04  0.50400001928E-02 0.  1.
    10030    2    1    2    0    0  0.00000000000E+00  0.00000000000E+00  0.10162792253E+04  0.41491652485E+04  0.40227787406E+04 0.  0.
        5    1    3    3  502    0  0.20101257399E+04  0.43632416054E+02  0.56608134033E+03  0.20887746293E+04  0.46999998093E+01 0. -1.
       -5    1    3    3    0  502 -0.20101257399E+04 -0.43632416054E+02  0.45019788499E+03  0.20603906192E+04  0.46999998093E+01 0.  1.
</event>
<event>
 5   0  0.4077370E-07  0.4028205E+04  0.7818609E-02  0.7998881E-01
       -2   -1    0    0    0  501  0.00000000000E+00  0.00000000000E+00  0.14454229040E+04  0.14454229040E+04  0.25500000920E-02 0.  1.
        2   -1    0    0  501    0  0.00000000000E+00  0.00000000000E+00 -0.28065205696E+04  0.28065205696E+04  0.25500000920E-02 0. -1.
    10030    2    1    2    0    0  0.00000000000E+00  0.00000000000E+00 -0.13610976657E+04  0.42519434736E+04  0.40282051148E+04 0.  0.
        3    1    3    3  502    0  0.14047004876E+04  0.14029230479E+04 -0.32223504748E+03  0.20112712334E+04  0.10100000352E+00 0. -1.
       -3    1    3    3    0  502 -0.14047004876E+04 -0.14029230479E+04 -0.10388626182E+04  0.22406722402E+04  0.10100000352E+00 0.  1.
</event>
<event>
 5   0  0.1372952E-07  0.3975112E+04  0.7818609E-02  0.8009586E-01
       -1   -1    0    0    0  501  0.00000000000E+00  0.00000000000E+00  0.19511696359E+04  0.19511696359E+04  0.50400001928E-02 0. -1.
        1   -1    0    0  501    0  0.00000000000E+00  0.00000000000E+00 -0.20246208634E+04  0.20246208634E+04  0.50400001928E-02 0.  1.
    10030    2    1    2    0    0  0.00000000000E+00  0.00000000000E+00 -0.73451227543E+02  0.39757904993E+04  0.39751119496E+04 0.  0.
        1    1    3    3  502    0  0.63243791700E+03 -0.87791244732E+03 -0.17042446772E+04  0.20187020344E+04  0.50400001928E-02 0.  1.
       -1    1    3    3    0  502 -0.63243791700E+03  0.87791244732E+03  0.16307934497E+04  0.19570884649E+04  0.50400001928E-02 0. -1.
</event>
<event>
 5   0  0.4301754E-07  0.3912343E+04  0.7818609E-02  0.8022467E-01
        2   -1    0    0  501    0  0.00000000000E+00  0.00000000000E+00  0.20161803566E+04  0.20161803566E+04  0.25500000920E-02 0.  1.
       -2   -1    0    0    0  501  0.00000000000E+00  0.00000000000E+00 -0.18979489219E+04  0.18979489219E+04  0.25500000920E-02 0. -1.
    10030    2    1    2    0    0  0.00000000000E+00  0.00000000000E+00  0.11823143471E+03  0.39141292786E+04  0.39123432029E+04 0.  0.
        1    1    3    3  502    0 -0.16276362360E+04 -0.18771283387E+03 -0.10100964240E+04  0.19247676770E+04  0.50400001928E-02 0. -1.
       -1    1    3    3    0  502  0.16276362360E+04  0.18771283387E+03  0.11283278587E+04  0.19893616015E+04  0.50400001928E-02 0.  1.
</event>
<event>
 5   0  0.1351000E-07  0.3963237E+04  0.7818609E-02  0.8012004E-01
        1   -1    0    0  501    0  0.00000000000E+00  0.00000000000E+00  0.18969195887E+04  0.18969195887E+04  0.50400001928E-02 0. -1.
       -1   -1    0    0    0  501  0.00000000000E+00  0.00000000000E+00 -0.20700990475E+04  0.20700990476E+04  0.50400001928E-02 0.  1.
    10030    2    1    2    0    0  0.00000000000E+00  0.00000000000E+00 -0.17317945889E+03  0.39670186362E+04  0.39632367750E+04 0.  0.
        4    1    3    3  502    0 -0.19057146400E+04  0.54196546418E+03 -0.12316180037E+03  0.19851058650E+04  0.12699999809E+01 0. -1.
       -4    1    3    3    0  502  0.19057146400E+04 -0.54196546418E+03 -0.50017658522E+02  0.19819127712E+04  0.12699999809E+01 0.  1.
</event>
<event>
 5   0  0.1368865E-07  0.3782402E+04  0.7818609E-02  0.8049942E-01
       -1   -1    0    0    0  501  0.00000000000E+00  0.00000000000E+00  0.22256964672E+04  0.22256964672E+04  0.50400001928E-02 0. -1.
        1   -1    0    0  501    0  0.00000000000E+00  0.00000000000E+00 -0.16069759667E+04  0.16069759667E+04  0.50400001928E-02 0.  1.
    10030    2    1    2    0    0  0.00000000000E+00  0.00000000000E+00  0.61872050048E+03  0.38326724339E+04  0.37824017407E+04 0.  0.
        5    1    3    3  502    0  0.76292121813E+03  0.16498045429E+04 -0.21980147485E+03  0.18309119567E+04  0.46999998093E+01 0.  1.
       -5    1    3    3    0  502 -0.76292121813E+03 -0.16498045429E+04  0.83852197533E+03  0.20017604772E+04  0.46999998093E+01 0. -1.
</event>
<event>
 5   0  0.1421304E-07  0.4012161E+04  0.7818609E-02  0.8002098E-01
        1   -1    0    0  501    0  0.00000000000E+00  0.00000000000E+00  0.37903601779E+04  0.37903601779E+04  0.50400001928E-02 0. -1.
       -1   -1    0    0    0  501  0.00000000000E+00  0.00000000000E+00 -0.10617350234E+04  0.10617350234E+04  0.50400001928E-02 0.  1.
    10030    2    1    2    0    0  0.00000000000E+00  0.00000000000E+00  0.27286251545E+04  0.48520952013E+04  0.40121605911E+04 0.  0.
        2    1    3    3  502    0 -0.11110777704E+04  0.16051092011E+04  0.80553554526E+03  0.21118136457E+04  0.25500000920E-02 0.  1.
       -2    1    3    3    0  502  0.11110777704E+04 -0.16051092011E+04  0.19230896092E+04  0.27402815557E+04  0.25500000920E-02 0. -1.
</event>
<event>
 5   0  0.1421304E-07  0.3309259E+04  0.7818609E-02  0.8160543E-01
        1   -1    0    0  501    0  0.00000000000E+00  0.00000000000E+00  0.22268673986E+04  0.22268673986E+04  0.50400001928E-02 0.  1.
       -1   -1    0    0    0  501  0.00000000000E+00  0.00000000000E+00 -0.12294398675E+04  0.12294398676E+04  0.50400001928E-02 0. -1.
    10030    2    1    2    0    0  0.00000000000E+00  0.00000000000E+00  0.99742753107E+03  0.34563072662E+04  0.33092594698E+04 0.  0.
        2    1    3    3  502    0 -0.17346700729E+03  0.16015965850E+04  0.10431374796E+03  0.16143369480E+04  0.25500000920E-02 0. -1.
       -2    1    3    3    0  502  0.17346700729E+03 -0.16015965850E+04  0.89311378311E+03  0.18419703182E+04  0.25500000920E-02 0.  1.
</event>
<event>
 5   0  0.1368865E-07  0.4025654E+04  0.7818609E-02  0.7999391E-01
       -1   -1    0    0    0  501  0.00000000000E+00  0.00000000000E+00  0.19429899779E+04  0.19429899779E+04  0.50400001928E-02 0. -1.
        1   -1    0    0  501    0  0.00000000000E+00  0.00000000000E+00 -0.20851740194E+04  0.20851740194E+04  0.50400001928E-02 0.  1.
    10030    2    1    2    0    0  0.00000000000E+00  0.00000000000E+00 -0.14218404149E+03  0.40281639974E+04  0.40256538460E+04 0.  0.
        5    1    3    3  502    0  0.42962582351E+03 -0.19605210258E+04 -0.22359798393E+03  0.20194650750E+04  0.46999998093E+01 0.  1.
       -5    1    3    3    0  502 -0.42962582351E+03  0.19605210258E+04  0.81413942440E+02  0.20086989224E+04  0.46999998093E+01 0. -1.
</event>
<event>
 5   0  0.4149487E-07  0.4007944E+04  0.7818609E-02  0.8002946E-01
        2   -1    0    0  501    0  0.00000000000E+00  0.00000000000E+00  0.26254155882E+04  0.26254155882E+04  0.25500000920E-02 0. -1.
       -2   -1    0    0    0  501  0.00000000000E+00  0.00000000000E+00 -0.15296259219E+04  0.15296259219E+04  0.25500000920E-02 0.  1.
    10030    2    1    2    0    0  0.00000000000E+00  0.00000000000E+00  0.10957896662E+04  0.41550415101E+04  0.40079439814E+04 0.  0.
        2    1    3    3  502    0 -0.12859987332E+04  0.29381573130E+03  0.21118315596E+04  0.24899704741E+04  0.25500000920E-02 0. -1.
       -2    1    3    3    0  502  0.12859987332E+04 -0.29381573130E+03 -0.10160418934E+04  0.16650710360E+04  0.25500000920E-02 0.  1.
</event>
<event>
 5   0  0.1372952E-07  0.3941784E+04  0.7818609E-02  0.8016395E-01
        1   -1    0    0  501    0  0.00000000000E+00  0.00000000000E+00  0.29638820080E+04  0.29638820080E+04  0.50400001928E-02 0.  1.
       -1   -1    0    0    0  501  0.00000000000E+00  0.00000000000E+00 -0.13105835126E+04  0.13105835126E+04  0.50400001928E-02 0. -1.
    10030    2    1    2    0    0  0.00000000000E+00  0.00000000000E+00  0.16532984955E+04  0.42744655206E+04  0.39417838058E+04 0.  0.
        1    1    3    3  502    0  0.17372064047E+03  0.18290451852E+04  0.16001758638E+04  0.24364211347E+04  0.50400001928E-02 0.  1.
       -1    1    3    3    0  502 -0.17372064047E+03 -0.18290451852E+04  0.53122631722E+02  0.18380443859E+04  0.50400001928E-02 0. -1.
</event>
<event>
 5   0  0.1372952E-07  0.3753717E+04  0.7818609E-02  0.8056161E-01
       -1   -1    0    0    0  501  0.00000000000E+00  0.00000000000E+00  0.15753524888E+04  0.15753524888E+04  0.50400001928E-02 0.  1.
        1   -1    0    0  501    0  0.00000000000E+00  0.00000000000E+00 -0.22360697328E+04  0.22360697328E+04  0.50400001928E-02 0. -1.
    10030    2    1    2    0    0  0.00000000000E+00  0.00000000000E+00 -0.66071724393E+03  0.38114222216E+04  0.37537171011E+04 0.  0.
        1    1    3    3  502    0 -0.12743051228E+04  0.13220182451E+04 -0.72493545821E+03  0.19741117509E+04  0.50400001928E-02 0. -1.
       -1    1    3    3    0  502  0.12743051228E+04 -0.13220182451E+04  0.64218214276E+02  0.18373104707E+04  0.50400001928E-02 0.  1.
</event>
<event>
 5   0  0.1372952E-07  0.4087245E+04  0.7818609E-02  0.7987174E-01
       -1   -1    0    0    0  501  0.00000000000E+00  0.00000000000E+00  0.20083710139E+04  0.20083710139E+04  0.50400001928E-02 0. -1.
        1   -1    0    0  501    0  0.00000000000E+00  0.00000000000E+00 -0.20794929220E+04  0.20794929220E+04  0.50400001928E-02 0.  1.
    10030    2    1    2    0    0  0.00000000000E+00  0.00000000000E+00 -0.71121908098E+02  0.40878639358E+04  0.40872451886E+04 0.  0.
        1    1    3    3  502    0 -0.93968804607E+03  0.16681610626E+04  0.67912286757E+03  0.20314976800E+04  0.50400001928E-02 0. -1.
       -1    1    3    3    0  502  0.93968804607E+03 -0.16681610626E+04 -0.75024477566E+03  0.20563662558E+04  0.50400001928E-02 0.  1.
</event>
<event>
 5   0  0.4079777E-07  0.3939330E+04  0.7818609E-02  0.8016899E-01
       -2   -1    0    0    0  501  0.00000000000E+00  0.00000000000E+00  0.28893989376E+04  0.28893989376E+04  0.25500000920E-02 0. -1.
        2   -1    0    0  501    0  0.00000000000E+00  0.00000000000E+00 -0.13426942152E+04  0.13426942152E+04  0.25500000920E-02 0.  1.
    10030    2    1    2    0    0  0.00000000000E+00  0.00000000000E+00  0.15467047224E+04  0.42320931528E+04  0.39393295059E+04 0.  0.
        4    1    3    3  502    0 -0.18051855978E+04 -0.32483073326E+03  0.15445957537E+04  0.23979131975E+04  0.12699999809E+01 0. -1.
       -4    1    3    3    0  502  0.18051855978E+04  0.32483073326E+03  0.21089687092E+01  0.18341799553E+04  0.12699999809E+01 0.  1.
</event>
<event>
 5   0  0.1351000E-07  0.3912196E+04  0.7818609E-02  0.8022497E-01
       -1   -1    0    0    0  501  0.00000000000E+00  0.00000000000E+00  0.30673776430E+04  0.30673776430E+04  0.50400001928E-02 0.  1.
        1   -1    0    0  501    0  0.00000000000E+00  0.00000000000E+00 -0.12474235782E+04  0.12474235782E+04  0.50400001928E-02 0. -1.
    10030    2    1    2    0    0  0.00000000000E+00  0.00000000000E+00  0.18199540648E+04  0.43148012212E+04  0.39121959026E+04 0.  0.
        3    1    3    3  502    0  0.56103380383E+03  0.96158615336E+03 -0.86393081157E+03  0.14091782417E+04  0.10100000352E+00 0. -1.
       -3    1    3    3    0  502 -0.56103380383E+03 -0.96158615336E+03  0.26838848763E+04  0.29056229795E+04  0.10100000352E+00 0.  1.
</event>
<event>
 5   0  0.4079777E-07  0.3868938E+04  0.7818609E-02  0.8031521E-01
        2   -1    0    0  501    0  0.00000000000E+00  0.00000000000E+00  0.15748175063E+04  0.15748175063E+04  0.25500000920E-02 0.  1.
       -2   -1    0    0    0  501  0.00000000000E+00  0.00000000000E+00 -0.23762568732E+04  0.23762568732E+04  0.25500000920E-02 0. -1.
    10030    2    1    2    0    0  0.00000000000E+00  0.00000000000E+00 -0.80143936696E+03  0.39510743795E+04  0.38689383161E+04 0.  0.
        4    1    3    3  502    0  0.13462732338E+03 -0.99361076811E+03  0.12887232893E+04  0.16328491063E+04  0.12699999809E+01 0.  1.
       -4    1    3    3    0  502 -0.13462732338E+03  0.99361076811E+03 -0.20901626563E+04  0.23182252732E+04  0.12699999809E+01 0. -1.
</event>
<event>
 5   0  0.4077370E-07  0.3952909E+04  0.7818609E-02  0.8014114E-01
       -2   -1    0    0    0  501  0.00000000000E+00  0.00000000000E+00  0.32371892738E+04  0.32371892738E+04  0.25500000920E-02 0. -1.
        2   -1    0    0  501    0  0.00000000000E+00  0.00000000000E+00 -0.12067171410E+04  0.12067171410E+04  0.25500000920E-02 0.  1.
    10030    2    1    2    0    0  0.00000000000E+00  0.00000000000E+00  0.20304721328E+04  0.44439064149E+04  0.39529086939E+04 0.  0.
        3    1    3    3  502    0  0.18016373131E+04  0.70086591589E+03  0.14777528703E+04  0.24332824736E+04  0.10100000352E+00 0.  1.
       -3    1    3    3    0  502 -0.18016373131E+04 -0.70086591589E+03  0.55271926245E+03  0.20106239413E+04  0.10100000352E+00 0. -1.
</event>
<event>
 5   0  0.4301754E-07  0.4033449E+04  0.7818609E-02  0.7997833E-01
        2   -1    0    0  501    0  0.00000000000E+00  0.00000000000E+00  0.24900814305E+04  0.24900814305E+04  0.25500000920E-02 0.  1.
       -2   -1    0    0    0  501  0.00000000000E+00  0.00000000000E+00 -0.16333511908E+04  0.16333511908E+04  0.25500000920E-02 0. -1.
    10030    2    1    2    0    0  0.00000000000E+00  0.00000000000E+00  0.85673023967E+03  0.41234326213E+04  0.40334488814E+04 0.  0.
        1    1    3    3  502    0  0.12909406689E+04  0.80327141616E+03  0.17828400543E+04  0.23431370932E+04  0.50400001928E-02 0.  1.
       -1    1    3    3    0  502 -0.12909406689E+04 -0.80327141616E+03 -0.92610981460E+03  0.17802955281E+04  0.50400001928E-02 0. -1.
</event>
<event>
 5   0  0.4079777E-07  0.4035920E+04  0.7818609E-02  0.7997339E-01
       -2   -1    0    0    0  501  0.00000000000E+00  0.00000000000E+00  0.28647415644E+04  0.28647415644E+04  0.25500000920E-02 0.  1.
        2   -1    0    0  501    0  0.00000000000E+00  0.00000000000E+00 -0.14214762767E+04  0.14214762767E+04  0.25500000920E-02 0. -1.
    10030    2    1    2    0    0  0.00000000000E+00  0.00000000000E+00  0.14432652877E+04  0.42862178411E+04  0.40359198073E+04 0.  0.
        4    1    3    3  502    0  0.20178370515E+04  0.21622530075E+02  0.71614915068E+03  0.21412625059E+04  0.12699999809E+01 0. -1.
       -4    1    3    3    0  502 -0.20178370515E+04 -0.21622530075E+02  0.72711613703E+03  0.21449553352E+04  0.12699999809E+01 0.  1.
</event>
<event>
 5   0  0.1351000E-07  0.2469254E+04  0.7818609E-02  0.8414022E-01
        1   -1    0    0  501    0  0.00000000000E+00  0.00000000000E+00  0.10316080212E+04  0.10316080212E+04  0.50400001928E-02 0.  1.
       -1   -1    0    0    0  501  0.00000000000E+00  0.00000000000E+00 -0.14775992631E+04  0.14775992631E+04  0.50400001928E-02 0. -1.
    10030    2    1    2    0    0  0.00000000000E+00  0.00000000000E+00 -0.44599124183E+03  0.25092072843E+04  0.24692535325E+04 0.  0.
        3    1    3    3  502    0  0.61424552099E+03  0.83186961459E+03 -0.90844580673E+03  0.13764368528E+04  0.10100000352E+00 0. -1.
       -3    1    3    3    0  502 -0.61424552099E+03 -0.83186961459E+03  0.46245456490E+03  0.11327704315E+04  0.10100000352E+00 0.  1.
</event>
<event>
 5   0  0.4077370E-07  0.2672065E+04  0.7818609E-02  0.8344126E-01
       -2   -1    0    0    0  501  0.00000000000E+00  0.00000000000E+00  0.89899742491E+03  0.89899742491E+03  0.25500000920E-02 0. -1.
        2   -1    0    0  501    0  0.00000000000E+00  0.00000000000E+00 -0.19855260697E+04  0.19855260697E+04  0.25500000920E-02 0.  1.
    10030    2    1    2    0    0  0.00000000000E+00  0.00000000000E+00 -0.10865286448E+04  0.28845234946E+04  0.26720649870E+04 0.  0.
        3    1    3    3  502    0  0.13043627198E+03 -0.93086409947E+03  0.48168074273E+03  0.10561902958E+04  0.10100000352E+00 0. -1.
       -3    1    3    3    0  502 -0.13043627198E+03  0.93086409947E+03 -0.15682093875E+04  0.18283331989E+04  0.10100000352E+00 0.  1.
</event>
<event>
 5   0  0.1351000E-07  0.4074001E+04  0.7818609E-02  0.7989782E-01
       -1   -1    0    0    0  501  0.00000000000E+00  0.00000000000E+00  0.26371872327E+04  0.26371872327E+04  0.50400001928E-02 0.  1.
        1   -1    0    0  501    0  0.00000000000E+00  0.00000000000E+00 -0.15734081568E+04  0.15734081569E+04  0.50400001928E-02 0. -1.
    10030    2    1    2    0    0  0.00000000000E+00  0.00000000000E+00  0.10637790759E+04  0.42105953896E+04  0.40740014252E+04 0.  0.
        3    1    3    3  502    0  0.11065616427E+04  0.61463732009E+02 -0.12345415266E+04  0.16590205697E+04  0.10100000352E+00 0. -1.
       -3    1    3    3    0  502 -0.11065616427E+04 -0.61463732009E+02  0.22983206025E+04  0.25515748199E+04  0.10100000352E+00 0.  1.
</event>
<event>
 5   0  0.4079777E-07  0.4070720E+04  0.7818609E-02  0.7990430E-01
       -2   -1    0    0    0  501  0.00000000000E+00  0.00000000000E+00  0.19834809911E+04  0.19834809911E+04  0.25500000920E-02 0. -1.
        2   -1    0    0  501    0  0.00000000000E+00  0.00000000000E+00 -0.20885957754E+04  0.20885957754E+04  0.25500000920E-02 0.  1.
    10030    2    1    2    0    0  0.00000000000E+00  0.00000000000E+00 -0.10511478427E+03  0.40720767665E+04  0.40707198472E+04 0.  0.
        4    1    3    3  502    0  0.82754538977E+03  0.10577201345E+04 -0.15824739961E+04  0.20755309722E+04  0.12699999809E+01 0.  1.
       -4    1    3    3    0  502 -0.82754538977E+03 -0.10577201345E+04  0.14773592119E+04  0.19965457943E+04  0.12699999809E+01 0. -1.
</event>
<event>
 5   0  0.4149487E-07  0.3992245E+04  0.7818609E-02  0.8006113E-01
       -2   -1    0    0    0  501  0.00000000000E+00  0.00000000000E+00  0.20813740941E+04  0.20813740941E+04  0.25500000920E-02 0. -1.
        2   -1    0    0  501    0  0.00000000000E+00  0.00000000000E+00 -0.19143631046E+04  0.19143631046E+04  0.25500000920E-02 0.  1.
    10030    2    1    2    0    0  0.00000000000E+00  0.00000000000E+00  0.16701098949E+03  0.39957371986E+04  0.39922453695E+04 0.  0.
        2    1    3    3  502    0  0.94468228173E+03 -0.17538141882E+04 -0.43951687321E+02  0.19925412344E+04  0.25500000920E-02 0.  1.
       -2    1    3    3    0  502 -0.94468228173E+03  0.17538141882E+04  0.21096267681E+03  0.20031959642E+04  0.25500000920E-02 0. -1.
</event>
<event>
 5   0  0.4301754E-07  0.3353330E+04  0.7818609E-02  0.8149457E-01
       -2   -1    0    0    0  501  0.00000000000E+00  0.00000000000E+00  0.13562838119E+04  0.13562838119E+04  0.25500000920E-02 0.  1.
        2   -1    0    0  501    0  0.00000000000E+00  0.00000000000E+00 -0.20727267569E+04  0.20727267569E+04  0.25500000920E-02 0. -1.
    10030    2    1    2    0    0  0.00000000000E+00  0.00000000000E+00 -0.71644294500E+03  0.34290105688E+04  0.33533301340E+04 0.  0.
        1    1    3    3  502    0  0.12327705900E+04  0.12586102039E+03  0.79671160205E+03  0.14731984594E+04  0.50400001928E-02 0.  1.
       -1    1    3    3    0  502 -0.12327705900E+04 -0.12586102039E+03 -0.15131545470E+04  0.19558121094E+04  0.50400001928E-02 0. -1.
</event>
<event>
 5   0  0.4301754E-07  0.4002370E+04  0.7818609E-02  0.8004069E-01
        2   -1    0    0  501    0  0.00000000000E+00  0.00000000000E+00  0.24102467376E+04  0.24102467376E+04  0.25500000920E-02 0. -1.
       -2   -1    0    0    0  501  0.00000000000E+00  0.00000000000E+00 -0.16615485362E+04  0.16615485362E+04  0.25500000920E-02 0.  1.
    10030    2    1    2    0    0  0.00000000000E+00  0.00000000000E+00  0.74869820147E+03  0.40717952738E+04  0.40023702671E+04 0.  0.
        1    1    3    3  502    0  0.95910106334E+03 -0.16876964432E+03  0.21529258955E+04  0.23629320671E+04  0.50400001928E-02 0. -1.
       -1    1    3    3    0  502 -0.95910106334E+03  0.16876964432E+03 -0.14042276940E+04  0.17088632067E+04  0.50400001928E-02 0.  1.
</event>
<event>
 5   0  0.4149487E-07  0.3847435E+04  0.7818609E-02  0.8036051E-01
        2   -1    0    0  501    0  0.00000000000E+00  0.00000000000E+00  0.20463326981E+04  0.20463326981E+04  0.25500000920E-02 0. -1.
       -2   -1    0    0    0  501  0.00000000000E+00  0.00000000000E+00 -0.18084490881E+04  0.18084490881E+04  0.25500000920E-02 0.  1.
    10030    2    1    2    0    0  0.00000000000E+00  0.00000000000E+00  0.23788361003E+03  0.38547817863E+04  0.38474347308E+04 0.  0.
        2    1    3    3  502    0 -0.10004967880E+04  0.14734129767E+04 -0.60959796982E+03  0.18824317537E+04  0.25500000920E-02 0.  1.
       -2    1    3    3    0  502  0.10004967880E+04 -0.14734129767E+04  0.84748157985E+03  0.19723500325E+04  0.25500000920E-02 0. -1.
</event>
<event>
 5   0  0.1421304E-07  0.3071339E+04  0.7818609E-02  0.8223648E-01
        1   -1    0    0  501    0  0.00000000000E+00  0.00000000000E+00  0.18415105294E+04  0.18415105294E+04  0.50400001928E-02 0. -1.
       -1   -1    0    0    0  501  0.00000000000E+00  0.00000000000E+00 -0.12806226281E+04  0.12806226281E+04  0.50400001928E-02 0.  1.
    10030    2    1    2    0    0  0.00000000000E+00  0.00000000000E+00  0.56088790130E+03  0.31221331575E+04  0.30713385055E+04 0.  0.
        2    1    3    3  502    0 -0.86705537938E+03 -0.95836958069E+03 -0.56274545783E+03  0.14095884983E+04  0.25500000920E-02 0.  1.
       -2    1    3    3    0  502  0.86705537938E+03  0.95836958069E+03  0.11236333591E+04  0.17125446592E+04  0.25500000920E-02 0. -1.
</event>
<event>
 5   0  0.1421304E-07  0.3910323E+04  0.7818609E-02  0.8022886E-01
        1   -1    0    0  501    0  0.00000000000E+00  0.00000000000E+00  0.14091090502E+04  0.14091090502E+04  0.50400001928E-02 0.  1.
       -1   -1    0    0    0  501  0.00000000000E+00  0.00000000000E+00 -0.27128180033E+04  0.27128180033E+04  0.50400001928E-02 0. -1.
    10030    2    1    2    0    0  0.00000000000E+00  0.00000000000E+00 -0.13037089531E+04  0.41219270535E+04  0.39103229534E+04 0.  0.
        2    1    3    3  502    0  0.20821881462E+03 -0.43996032965E+03  0.13442204730E+04  0.14296324165E+04  0.25500000920E-02 0.  1.
       -2    1    3    3    0  502 -0.20821881462E+03  0.43996032965E+03 -0.26479294261E+04  0.26922946369E+04  0.25500000920E-02 0. -1.
</event>
<event>
 5   0  0.1351000E-07  0.3968497E+04  0.7818609E-02  0.8010932E-01
       -1   -1    0    0    0  501  0.00000000000E+00  0.00000000000E+00  0.18875632466E+04  0.18875632466E+04  0.50400001928E-02 0.  1.
        1   -1    0    0  501    0  0.00000000000E+00  0.00000000000E+00 -0.20858861537E+04  0.20858861537E+04  0.50400001928E-02 0. -1.
    10030    2    1    2    0    0  0.00000000000E+00  0.00000000000E+00 -0.19832290715E+03  0.39734494003E+04  0.39684969650E+04 0.  0.
        4    1    3    3  502    0  0.82878564161E+03 -0.16709313879E+04 -0.77701672234E+03  0.20205578295E+04  0.12699999809E+01 0. -1.
       -4    1    3    3    0  502 -0.82878564161E+03  0.16709313879E+04  0.57869381519E+03  0.19528915708E+04  0.12699999809E+01 0.  1.
</event>
<event>
 5   0  0.1368865E-07  0.3995678E+04  0.7818609E-02  0.8005419E-01
        1   -1    0    0  501    0  0.00000000000E+00  0.00000000000E+00  0.24032989548E+04  0.24032989548E+04  0.50400001928E-02 0.  1.
       -1   -1    0    0    0  501  0.00000000000E+00  0.00000000000E+00 -0.16607839977E+04  0.16607839977E+04  0.50400001928E-02 0. -1.
    10030    2    1    2    0    0  0.00000000000E+00  0.00000000000E+00  0.74251495715E+03  0.40640829525E+04  0.39956778879E+04 0.  0.
        5    1    3    3  502    0  0.33493206267E+03  0.50752602502E+03  0.23068810736E+04  0.23856832418E+04  0.46999998093E+01 0.  1.
       -5    1    3    3    0  502 -0.33493206267E+03 -0.50752602502E+03 -0.15643661164E+04  0.16783997107E+04  0.46999998093E+01 0. -1.
</event>
<event>
 5   0  0.1368865E-07  0.4022419E+04  0.7818609E-02  0.8000039E-01
       -1   -1    0    0    0  501  0.00000000000E+00  0.00000000000E+00  0.24899342565E+04  0.24899342565E+04  0.50400001928E-02 0.  1.
        1   -1    0    0  501    0  0.00000000000E+00  0.00000000000E+00 -0.16245266212E+04  0.16245266212E+04  0.50400001928E-02 0. -1.
    10030    2    1    2    0    0  0.00000000000E+00  0.00000000000E+00  0.86540763538E+03  0.41144608777E+04  0.40224194136E+04 0.  0.
        5    1    3    3  502    0  0.12463520546E+04  0.11050892841E+04  0.15855816416E+04  0.22997188963E+04  0.46999998093E+01 0.  1.
       -5    1    3    3    0  502 -0.12463520546E+04 -0.11050892841E+04 -0.72017400618E+03  0.18147419814E+04  0.46999998093E+01 0. -1.
</event>
<event>
 5   0  0.4077370E-07  0.3759492E+04  0.7818609E-02  0.8054904E-01
        2   -1    0    0  501    0  0.00000000000E+00  0.00000000000E+00  0.19570903497E+04  0.19570903497E+04  0.25500000920E-02 0.  1.
       -2   -1    0    0    0  501  0.00000000000E+00  0.00000000000E+00 -0.18054581726E+04  0.18054581726E+04  0.25500000920E-02 0. -1.
    10030    2    1    2    0    0  0.00000000000E+00  0.00000000000E+00  0.15163217711E+03  0.37625485223E+04  0.37594918627E+04 0.  0.
        3    1    3    3  502    0 -0.22367139228E+03  0.10279679155E+04  0.16348688436E+04  0.19441046970E+04  0.10100000352E+00 0.  1.
       -3    1    3    3    0  502  0.22367139228E+03 -0.10279679155E+04 -0.14832366665E+04  0.18184438253E+04  0.10100000352E+00 0. -1.
</event>
<event>
 5   0  0.4077370E-07  0.3763324E+04  0.7818609E-02  0.8054072E-01
        2   -1    0    0  501    0  0.00000000000E+00  0.00000000000E+00  0.19667616663E+04  0.19667616663E+04  0.25500000920E-02 0.  1.
       -2   -1    0    0    0  501  0.00000000000E+00  0.00000000000E+00 -0.18002445251E+04  0.18002445251E+04  0.25500000920E-02 0. -1.
    10030    2    1    2    0    0  0.00000000000E+00  0.00000000000E+00  0.16651714118E+03  0.37670061914E+04  0.37633240211E+04 0.  0.
        3    1    3    3  502    0 -0.59875679755E+03 -0.61766861318E+03 -0.15918864507E+04  0.18094548075E+04  0.10100000352E+00 0. -1.
       -3    1    3    3    0  502  0.59875679755E+03  0.61766861318E+03  0.17584035919E+04  0.19575513839E+04  0.10100000352E+00 0.  1.
</event>
<event>
 5   0  0.1368865E-07  0.3990674E+04  0.7818609E-02  0.8006430E-01
        1   -1    0    0  501    0  0.00000000000E+00  0.00000000000E+00  0.25667957753E+04  0.25667957753E+04  0.50400001928E-02 0. -1.
       -1   -1    0    0    0  501  0.00000000000E+00  0.00000000000E+00 -0.15511052048E+04  0.15511052048E+04  0.50400001928E-02 0.  1.
    10030    2    1    2    0    0  0.00000000000E+00  0.00000000000E+00  0.10156905705E+04  0.41179009801E+04  0.39906742722E+04 0.  0.
        5    1    3    3  502    0 -0.17159195343E+04 -0.60921071363E+03  0.13498441603E+04  0.22666316174E+04  0.46999998093E+01 0. -1.
       -5    1    3    3    0  502  0.17159195343E+04  0.60921071363E+03 -0.33415358977E+03  0.18512693627E+04  0.46999998093E+01 0.  1.
</event>
<event>
 5   0  0.4301754E-07  0.3267860E+04  0.7818609E-02  0.8171122E-01
        2   -1    0    0  501    0  0.00000000000E+00  0.00000000000E+00  0.20057958686E+04  0.20057958686E+04  0.25500000920E-02 0. -1.
       -2   -1    0    0    0  501  0.00000000000E+00  0.00000000000E+00 -0.13310060507E+04  0.13310060507E+04  0.25500000920E-02 0.  1.
    10030    2    1    2    0    0  0.00000000000E+00  0.00000000000E+00  0.67478981791E+03  0.33368019194E+04  0.32678595060E+04 0.  0.
        1    1    3    3  502    0 -0.98956227231E+03  0.34695812833E+03 -0.94208215518E+03  0.14096567741E+04  0.50400001928E-02 0.  1.
       -1    1    3    3    0  502  0.98956227231E+03 -0.34695812833E+03  0.16168719731E+04  0.19271451453E+04  0.50400001928E-02 0. -1.
</event>
<event>
 5   0  0.1421304E-07  0.2590366E+04  0.7818609E-02  0.8371481E-01
       -1   -1    0    0    0  501  0.00000000000E+00  0.00000000000E+00  0.71600154771E+03  0.71600154773E+03  0.50400001928E-02 0. -1.
        1   -1    0    0  501    0  0.00000000000E+00  0.00000000000E+00 -0.23428697647E+04  0.23428697647E+04  0.50400001928E-02 0.  1.
    10030    2    1    2    0    0  0.00000000000E+00  0.00000000000E+00 -0.16268682170E+04  0.30588713124E+04  0.25903655168E+04 0.  0.
        2    1    3    3  502    0  0.11801344610E+04  0.29894320945E+03 -0.29142511955E+03  0.12518038939E+04  0.25500000920E-02 0.  1.
       -2    1    3    3    0  502 -0.11801344610E+04 -0.29894320945E+03 -0.13354430974E+04  0.18070674185E+04  0.25500000920E-02 0. -1.
</event>
<event>
 5   0  0.4077370E-07  0.4082391E+04  0.7818609E-02  0.7988129E-01
        2   -1    0    0  501    0  0.00000000000E+00  0.00000000000E+00  0.19460168004E+04  0.19460168004E+04  0.25500000920E-02 0. -1.
       -2   -1    0    0    0  501  0.00000000000E+00  0.00000000000E+00 -0.21410295887E+04  0.21410295887E+04  0.25500000920E-02 0.  1.
    10030    2    1    2    0    0  0.00000000000E+00  0.00000000000E+00 -0.19501278828E+03  0.40870463891E+04  0.40823912355E+04 0.  0.
        3    1    3    3  502    0 -0.12731449576E+04  0.37691026842E+03  0.14545904787E+04  0.19694651316E+04  0.10100000352E+00 0. -1.
       -3    1    3    3    0  502  0.12731449576E+04 -0.37691026842E+03 -0.16496032670E+04  0.21175812575E+04  0.10100000352E+00 0.  1.
</event>
<event>
 5   0  0.4079777E-07  0.2954141E+04  0.7818609E-02  0.8256949E-01
       -2   -1    0    0    0  501  0.00000000000E+00  0.00000000000E+00  0.93195593323E+03  0.93195593323E+03  0.25500000920E-02 0.  1.
        2   -1    0    0  501    0  0.00000000000E+00  0.00000000000E+00 -0.23410306441E+04  0.23410306441E+04  0.25500000920E-02 0. -1.
    10030    2    1    2    0    0  0.00000000000E+00  0.00000000000E+00 -0.14090747108E+04  0.32729865773E+04  0.29541410925E+04 0.  0.
        4    1    3    3  502    0 -0.10516962618E+04 -0.74837047296E+03 -0.15001005161E+04  0.19789963525E+04  0.12699999809E+01 0. -1.
       -4    1    3    3    0  502  0.10516962618E+04  0.74837047296E+03  0.91025805229E+02  0.12939902248E+04  0.12699999809E+01 0.  1.
</event>
<event>
 5   0  0.4047916E-07  0.4050277E+04  0.7818609E-02  0.7994480E-01
       -2   -1    0    0    0  501  0.00000000000E+00  0.00000000000E+00  0.18644477364E+04  0.18644477364E+04  0.25500000920E-02 0. -1.
        2   -1    0    0  501    0  0.00000000000E+00  0.00000000000E+00 -0.21996783102E+04  0.21996783102E+04  0.25500000920E-02 0.  1.
    10030    2    1    2    0    0  0.00000000000E+00  0.00000000000E+00 -0.33523057375E+03  0.40641260466E+04  0.40502766554E+04 0.  0.
        5    1    3    3  502    0 -0.13999140768E+04 -0.27647580872E+01  0.13007394302E+04  0.19109453738E+04  0.46999998093E+01 0. -1.
       -5    1    3    3    0  502  0.13999140768E+04  0.27647580872E+01 -0.16359700039E+04  0.21531806729E+04  0.46999998093E+01 0.  1.
</event>
<event>
 5   0  0.1372952E-07  0.3556032E+04  0.7818609E-02  0.8100638E-01
       -1   -1    0    0    0  501  0.00000000000E+00  0.00000000000E+00  0.17988236528E+04  0.17988236528E+04  0.50400001928E-02 0.  1.
        1   -1    0    0  501    0  0.00000000000E+00  0.00000000000E+00 -0.17574491618E+04  0.17574491618E+04  0.50400001928E-02 0. -1.
    10030    2    1    2    0    0  0.00000000000E+00  0.00000000000E+00  0.41374491010E+02  0.35562728145E+04  0.35560321263E+04 0.  0.
        1    1    3    3  502    0  0.75350235993E+03  0.15245870957E+04 -0.49820190059E+03  0.17720995323E+04  0.50400001928E-02 0. -1.
       -1    1    3    3    0  502 -0.75350235993E+03 -0.15245870957E+04  0.53957639160E+03  0.17841732822E+04  0.50400001928E-02 0.  1.
</event>
<event>
 5   0  0.1351000E-07  0.4025321E+04  0.7818609E-02  0.7999458E-01
       -1   -1    0    0    0  501  0.00000000000E+00  0.00000000000E+00  0.14678665970E+04  0.14678665970E+04  0.50400001928E-02 0. -1.
        1   -1    0    0  501    0  0.00000000000E+00  0.00000000000E+00 -0.27596527612E+04  0.27596527612E+04  0.50400001928E-02 0.  1.
    10030    2    1    2    0    0  0.00000000000E+00  0.00000000000E+00 -0.12917861641E+04  0.42275193582E+04  0.40253209102E+04 0.  0.
        3    1    3    3  502    0 -0.10057363540E+04 -0.84373683000E+02  0.11828909065E+04  0.15549454778E+04  0.10100000352E+00 0. -1.
       -3    1    3    3    0  502  0.10057363540E+04  0.84373683000E+02 -0.24746770706E+04  0.26725738804E+04  0.10100000352E+00 0.  1.
</event>
<event>
 5   0  0.1351000E-07  0.4025129E+04  0.7818609E-02  0.7999496E-01
        1   -1    0    0  501    0  0.00000000000E+00  0.00000000000E+00  0.20039913063E+04  0.20039913063E+04  0.50400001928E-02 0. -1.
       -1   -1    0    0    0  501  0.00000000000E+00  0.00000000000E+00 -0.20211739838E+04  0.20211739838E+04  0.50400001928E-02 0.  1.
    10030    2    1    2    0    0  0.00000000000E+00  0.00000000000E+00 -0.17182677512E+02  0.40251652902E+04  0.40251286152E+04 0.  0.
        4    1    3    3  502    0  0.54862376930E+03 -0.17046591678E+04 -0.92705632606E+03  0.20165034003E+04  0.12699999809E+01 0.  1.
       -4    1    3    3    0  502 -0.54862376930E+03  0.17046591678E+04  0.90987364855E+03  0.20086618899E+04  0.12699999809E+01 0. -1.
</event>
<event>
 5   0  0.1368865E-07  0.3908495E+04  0.7818609E-02  0.8023265E-01
       -1   -1    0    0    0  501  0.00000000000E+00  0.00000000000E+00  0.19206455042E+04  0.19206455042E+04  0.50400001928E-02 0.  1.
        1   -1    0    0  501    0  0.00000000000E+00  0.00000000000E+00 -0.19884377484E+04  0.19884377484E+04  0.50400001928E-02 0. -1.
    10030    2    1    2    0    0  0.00000000000E+00  0.00000000000E+00 -0.67792244236E+02  0.39090832527E+04  0.39084953739E+04 0.  0.
        5    1    3    3  502    0  0.87147184468E+02  0.15717905776E+04  0.11242684146E+04  0.19344564636E+04  0.46999998093E+01 0.  1.
       -5    1    3    3    0  502 -0.87147184468E+02 -0.15717905776E+04 -0.11920606588E+04  0.19746267890E+04  0.46999998093E+01 0. -1.
</event>
<event>
 5   0  0.4077370E-07  0.3998172E+04  0.7818609E-02  0.8004915E-01
       -2   -1    0    0    0  501  0.00000000000E+00  0.00000000000E+00  0.19708732815E+04  0.19708732815E+04  0.25500000920E-02 0.  1.
        2   -1    0    0  501    0  0.00000000000E+00  0.00000000000E+00 -0.20277024936E+04  0.20277024936E+04  0.25500000920E-02 0. -1.
    10030    2    1    2    0    0  0.00000000000E+00  0.00000000000E+00 -0.56829212126E+02  0.39985757751E+04  0.39981719160E+04 0.  0.
        3    1    3    3  502    0  0.15660509602E+04  0.54627205272E+03  0.10876801505E+04  0.19834255432E+04  0.10100000352E+00 0.  1.
       -3    1    3    3    0  502 -0.15660509602E+04 -0.54627205272E+03 -0.11445093627E+04  0.20151502318E+04  0.10100000352E+00 0. -1.
</event>
<event>
 5   0  0.1421304E-07  0.3966536E+04  0.7818609E-02  0.8011331E-01
        1   -1    0    0  501    0  0.00000000000E+00  0.00000000000E+00  0.23609846746E+04  0.23609846746E+04  0.50400001928E-02 0.  1.
       -1   -1    0    0    0  501  0.00000000000E+00  0.00000000000E+00 -0.16659798693E+04  0.16659798693E+04  0.50400001928E-02 0. -1.
    10030    2    1    2    0    0  0.00000000000E+00  0.00000000000E+00  0.69500480533E+03  0.40269645439E+04  0.39665364941E+04 0.  0.
        2    1    3    3  502    0  0.14469362298E+04 -0.11032961038E+04 -0.45348232655E+03  0.18752421088E+04  0.25500000920E-02 0. -1.
       -2    1    3    3    0  502 -0.14469362298E+04  0.11032961038E+04  0.11484871319E+04  0.21517224352E+04  0.25500000920E-02 0.  1.
</event>
<event>
 5   0  0.1351000E-07  0.3886906E+04  0.7818609E-02  0.8027758E-01
       -1   -1    0    0    0  501  0.00000000000E+00  0.00000000000E+00  0.24449297374E+04  0.24449297374E+04  0.50400001928E-02 0.  1.
        1   -1    0    0  501    0  0.00000000000E+00  0.00000000000E+00 -0.15448333837E+04  0.15448333837E+04  0.50400001928E-02 0. -1.
    10030    2    1    2    0    0  0.00000000000E+00  0.00000000000E+00  0.90009635367E+03  0.39897631211E+04  0.38869057509E+04 0.  0.
        4    1    3    3  502    0  0.15448664191E+04 -0.11246023779E+04  0.86175236892E+02  0.19127912969E+04  0.12699999809E+01 0. -1.
       -4    1    3    3    0  502 -0.15448664191E+04  0.11246023779E+04  0.81392111678E+03  0.20769718242E+04  0.12699999809E+01 0.  1.
</event>
<event>
 5   0  0.1351000E-07  0.2955628E+04  0.7818609E-02  0.8256516E-01
       -1   -1    0    0    0  501  0.00000000000E+00  0.00000000000E+00  0.15188965091E+04  0.15188965091E+04  0.50400001928E-02 0.  1.
        1   -1    0    0  501    0  0.00000000000E+00  0.00000000000E+00 -0.14378424894E+04  0.14378424894E+04  0.50400001928E-02 0. -1.
    10030    2    1    2    0    0  0.00000000000E+00  0.00000000000E+00  0.81054019766E+02  0.29567389985E+04  0.29556278100E+04 0.  0.
        3    1    3    3  502    0 -0.85906963983E+03  0.72607458730E+03  0.99940131081E+03  0.15046554232E+04  0.10100000352E+00 0.  1.
       -3    1    3    3    0  502  0.85906963983E+03 -0.72607458730E+03 -0.91834729105E+03  0.14520835753E+04  0.10100000352E+00 0. -1.
</event>
<event>
 5   0  0.1351000E-07  0.2890006E+04  0.7818609E-02  0.8275857E-01
        1   -1    0    0  501    0  0.00000000000E+00  0.00000000000E+00  0.19439816985E+04  0.19439816985E+04  0.50400001928E-02 0.  1.
       -1   -1    0    0    0  501  0.00000000000E+00  0.00000000000E+00 -0.10741013649E+04  0.10741013649E+04  0.50400001928E-02 0. -1.
    10030    2    1    2    0    0  0.00000000000E+00  0.00000000000E+00  0.86988033357E+03  0.30180830634E+04  0.28900058102E+04 0.  0.
        4    1    3    3  502    0 -0.51817223758E+03  0.76264853857E+03  0.15968559300E+04  0.18439321396E+04  0.12699999809E+01 0.  1.
       -4    1    3    3    0  502  0.51817223758E+03 -0.76264853857E+03 -0.72697559648E+03  0.11741509238E+04  0.12699999809E+01 0. -1.
</event>
<event>
 5   0  0.4149487E-07  0.3928950E+04  0.7818609E-02  0.8019035E-01
       -2   -1    0    0    0  501  0.00000000000E+00  0.00000000000E+00  0.22103097177E+04  0.22103097177E+04  0.25500000920E-02 0.  1.
        2   -1    0    0  501    0  0.00000000000E+00  0.00000000000E+00 -0.17459821211E+04  0.17459821211E+04  0.25500000920E-02 0. -1.
    10030    2    1    2    0    0  0.00000000000E+00  0.00000000000E+00  0.46432759661E+03  0.39562918388E+04  0.39289496048E+04 0.  0.
        2    1    3    3  502    0  0.11488100656E+04 -0.15807345034E+04  0.29079549469E+02  0.19543110697E+04  0.25500000920E-02 0. -1.
       -2    1    3    3    0  502 -0.11488100656E+04  0.15807345034E+04  0.43524804714E+03  0.20019807690E+04  0.25500000920E-02 0.  1.
</event>
<event>
 5   0  0.4047916E-07  0.3701712E+04  0.7818609E-02  0.8067583E-01
       -2   -1    0    0    0  501  0.00000000000E+00  0.00000000000E+00  0.12314331648E+04  0.12314331648E+04  0.25500000920E-02 0. -1.
        2   -1    0    0  501    0  0.00000000000E+00  0.00000000000E+00 -0.27818544915E+04  0.27818544915E+04  0.25500000920E-02 0.  1.
    10030    2    1    2    0    0  0.00000000000E+00  0.00000000000E+00 -0.15504213268E+04  0.40132876563E+04  0.37017119717E+04 0.  0.
        5    1    3    3  502    0  0.87661929583E+03 -0.53795035568E+02 -0.25415408526E+04  0.26890160451E+04  0.46999998093E+01 0.  1.
       -5    1    3    3    0  502 -0.87661929583E+03  0.53795035568E+02  0.99111952581E+03  0.13242716112E+04  0.46999998093E+01 0. -1.
</event>
<event>
 5   0  0.4077370E-07  0.3999318E+04  0.7818609E-02  0.8004684E-01
       -2   -1    0    0    0  501  0.00000000000E+00  0.00000000000E+00  0.24451408128E+04  0.24451408128E+04  0.25500000920E-02 0. -1.
        2   -1    0    0  501    0  0.00000000000E+00  0.00000000000E+00 -0.16353401778E+04  0.16353401778E+04  0.25500000920E-02 0.  1.
    10030    2    1    2    0    0  0.00000000000E+00  0.00000000000E+00  0.80980063501E+03  0.40804809906E+04  0.39993184477E+04 0.  0.
        3    1    3    3  502    0 -0.11627905927E+04  0.16167672348E+04  0.58917217478E+03  0.20768105632E+04  0.10100000352E+00 0.  1.
       -3    1    3    3    0  502  0.11627905927E+04 -0.16167672348E+04  0.22062846022E+03  0.20036704274E+04  0.10100000352E+00 0. -1.
</event>
<event>
 5   0  0.4047916E-07  0.2794104E+04  0.7818609E-02  0.8305101E-01
       -2   -1    0    0    0  501  0.00000000000E+00  0.00000000000E+00  0.16428213610E+04  0.16428213610E+04  0.25500000920E-02 0. -1.
        2   -1    0    0  501    0  0.00000000000E+00  0.00000000000E+00 -0.11880500434E+04  0.11880500434E+04  0.25500000920E-02 0.  1.
    10030    2    1    2    0    0  0.00000000000E+00  0.00000000000E+00  0.45477131763E+03  0.28308714044E+04  0.27941037842E+04 0.  0.
        5    1    3    3  502    0 -0.12570821885E+03  0.11158466938E+04  0.10694759192E+04  0.15507150712E+04  0.46999998093E+01 0. -1.
       -5    1    3    3    0  502  0.12570821885E+03 -0.11158466938E+04 -0.61470460153E+03  0.12801563332E+04  0.46999998093E+01 0.  1.
</event>
<event>
 5   0  0.1351000E-07  0.3979135E+04  0.7818609E-02  0.8008769E-01
        1   -1    0    0  501    0  0.00000000000E+00  0.00000000000E+00  0.19172247773E+04  0.19172247774E+04  0.50400001928E-02 0.  1.
       -1   -1    0    0    0  501  0.00000000000E+00  0.00000000000E+00 -0.20646397814E+04  0.20646397814E+04  0.50400001928E-02 0. -1.
    10030    2    1    2    0    0  0.00000000000E+00  0.00000000000E+00 -0.14741500404E+03  0.39818645588E+04  0.39791348533E+04 0.  0.
        4    1    3    3  502    0  0.13719105347E+04  0.22774845628E+03 -0.14974867911E+04  0.20436428692E+04  0.12699999809E+01 0. -1.
       -4    1    3    3    0  502 -0.13719105347E+04 -0.22774845628E+03  0.13500717871E+04  0.19382216895E+04  0.12699999809E+01 0.  1.
</event>
<event>
 5   0  0.1368865E-07  0.4017374E+04  0.7818609E-02  0.8001051E-01
        1   -1    0    0  501    0  0.00000000000E+00  0.00000000000E+00  0.30672942250E+04  0.30672942250E+04  0.50400001928E-02 0.  1.
       -1   -1    0    0    0  501  0.00000000000E+00  0.00000000000E+00 -0.13154339465E+04  0.13154339465E+04  0.50400001928E-02 0. -1.
    10030    2    1    2    0    0  0.00000000000E+00  0.00000000000E+00  0.17518602785E+04  0.43827281715E+04  0.40173737429E+04 0.  0.
        5    1    3    3  502    0  0.51944169466E+03 -0.19378351372E+04  0.98379662830E+03  0.22344803846E+04  0.46999998093E+01 0. -1.
       -5    1    3    3    0  502 -0.51944169466E+03  0.19378351372E+04  0.76806365015E+03  0.21482477869E+04  0.46999998093E+01 0.  1.
</event>
<event>
 5   0  0.1351000E-07  0.3645623E+04  0.7818609E-02  0.8080120E-01
       -1   -1    0    0    0  501  0.00000000000E+00  0.00000000000E+00  0.14940656244E+04  0.14940656244E+04  0.50400001928E-02 0. -1.
        1   -1    0    0  501    0  0.00000000000E+00  0.00000000000E+00 -0.22238932312E+04  0.22238932312E+04  0.50400001928E-02 0.  1.
    10030    2    1    2    0    0  0.00000000000E+00  0.00000000000E+00 -0.72982760680E+03  0.37179588555E+04  0.36456233645E+04 0.  0.
        3    1    3    3  502    0 -0.34641761399E+03 -0.94063905300E+03 -0.19175656307E+04  0.21637617590E+04  0.10100000352E+00 0.  1.
       -3    1    3    3    0  502  0.34641761399E+03  0.94063905300E+03  0.11877380239E+04  0.15541970966E+04  0.10100000352E+00 0. -1.
</event>
<event>
 5   0  0.1368865E-07  0.3977324E+04  0.7818609E-02  0.8009137E-01
        1   -1    0    0  501    0  0.00000000000E+00  0.00000000000E+00  0.20114891329E+04  0.20114891329E+04  0.50400001928E-02 0.  1.
       -1   -1    0    0    0  501  0.00000000000E+00  0.00000000000E+00 -0.19660942520E+04  0.19660942520E+04  0.50400001928E-02 0. -1.
    10030    2    1    2    0    0  0.00000000000E+00  0.00000000000E+00  0.45394880987E+02  0.39775833849E+04  0.39773243379E+04 0.  0.
        5    1    3    3  502    0 -0.30212665461E+03  0.85949502430E+03  0.17905068104E+04  0.20089671327E+04  0.46999998093E+01 0.  1.
       -5    1    3    3    0  502  0.30212665461E+03 -0.85949502430E+03 -0.17451119294E+04  0.19686162522E+04  0.46999998093E+01 0. -1.
</event>
<event>
 5   0  0.4149487E-07  0.3954013E+04  0.7818609E-02  0.8013888E-01
        2   -1    0    0  501    0  0.00000000000E+00  0.00000000000E+00  0.18198584890E+04  0.18198584890E+04  0.25500000920E-02 0. -1.
       -2   -1    0    0    0  501  0.00000000000E+00  0.00000000000E+00 -0.21477245915E+04  0.21477245915E+04  0.25500000920E-02 0.  1.
    10030    2    1    2    0    0  0.00000000000E+00  0.00000000000E+00 -0.32786610242E+03  0.39675830805E+04  0.39540130652E+04 0.  0.
        2    1    3    3  502    0  0.26230223986E+03  0.19081745431E+04 -0.61113316867E+03  0.20207464714E+04  0.25500000920E-02 0.  1.
       -2    1    3    3    0  502 -0.26230223986E+03 -0.19081745431E+04  0.28326706624E+03  0.19468366091E+04  0.25500000920E-02 0. -1.
</event>
<event>
 5   0  0.4077370E-07  0.3985389E+04  0.7818609E-02  0.8007501E-01
        2   -1    0    0  501    0  0.00000000000E+00  0.00000000000E+00  0.26681898893E+04  0.26681898893E+04  0.25500000920E-02 0. -1.
       -2   -1    0    0    0  501  0.00000000000E+00  0.00000000000E+00 -0.14882113407E+04  0.14882113407E+04  0.25500000920E-02 0.  1.
    10030    2    1    2    0    0  0.00000000000E+00  0.00000000000E+00  0.11799785486E+04  0.41564012300E+04  0.39853885394E+04 0.  0.
        3    1    3    3  502    0  0.19471293608E+04  0.20031382039E+03  0.97936226947E+03  0.21887413824E+04  0.10100000352E+00 0. -1.
       -3    1    3    3    0  502 -0.19471293608E+04 -0.20031382039E+03  0.20061627917E+03  0.19676598476E+04  0.10100000352E+00 0.  1.
</event>
<event>
 5   0  0.4077370E-07  0.4085238E+04  0.7818609E-02  0.7987569E-01
       -2   -1    0    0    0  501  0.00000000000E+00  0.00000000000E+00  0.13046315549E+04  0.13046315549E+04  0.25500000920E-02 0.  1.
        2   -1    0    0  501    0  0.00000000000E+00  0.00000000000E+00 -0.31980613872E+04  0.31980613872E+04  0.25500000920E-02 0. -1.
    10030    2    1    2    0    0  0.00000000000E+00  0.00000000000E+00 -0.18934298322E+04  0.45026929421E+04  0.40852377166E+04 0.  0.
        3    1    3    3  502    0 -0.10284591943E+04  0.66337063564E+01 -0.28918533887E+04  0.30692976970E+04  0.10100000352E+00 0. -1.
       -3    1    3    3    0  502  0.10284591943E+04 -0.66337063564E+01  0.99842355650E+03  0.14333952452E+04  0.10100000352E+00 0.  1.
</event>
<event>
 5   0  0.1421304E-07  0.3943390E+04  0.7818609E-02  0.8016065E-01
        1   -1    0    0  501    0  0.00000000000E+00  0.00000000000E+00  0.20477772930E+04  0.20477772930E+04  0.50400001928E-02 0. -1.
       -1   -1    0    0    0  501  0.00000000000E+00  0.00000000000E+00 -0.18984395550E+04  0.18984395550E+04  0.50400001928E-02 0.  1.
    10030    2    1    2    0    0  0.00000000000E+00  0.00000000000E+00  0.14933773792E+03  0.39462168480E+04  0.39433901217E+04 0.  0.
        2    1    3    3  502    0 -0.18417090335E+04 -0.28788654233E+03  0.71763280799E+03  0.19974402800E+04  0.25500000920E-02 0. -1.
       -2    1    3    3    0  502  0.18417090335E+04  0.28788654233E+03 -0.56829507006E+03  0.19487765680E+04  0.25500000920E-02 0.  1.
</event>
<event>
 5   0  0.4079777E-07  0.4011707E+04  0.7818609E-02  0.8002189E-01
       -2   -1    0    0    0  501  0.00000000000E+00  0.00000000000E+00  0.21616961080E+04  0.21616961080E+04  0.25500000920E-02 0.  1.
        2   -1    0    0  501    0  0.00000000000E+00  0.00000000000E+00 -0.18612457443E+04  0.18612457443E+04  0.25500000920E-02 0. -1.
    10030    2    1    2    0    0  0.00000000000E+00  0.00000000000E+00  0.30045036367E+03  0.40229418524E+04  0.40117067099E+04 0.  0.
        4    1    3    3  502    0 -0.11457263794E+04  0.14874441864E+04 -0.55763194681E+03  0.19586051529E+04  0.12699999809E+01 0. -1.
       -4    1    3    3    0  502  0.11457263794E+04 -0.14874441864E+04  0.85808231048E+03  0.20643366994E+04  0.12699999809E+01 0.  1.
</event>
<event>
 5   0  0.4077370E-07  0.4031565E+04  0.7818609E-02  0.7998209E-01
        2   -1    0    0  501    0  0.00000000000E+00  0.00000000000E+00  0.14448172431E+04  0.14448172432E+04  0.25500000920E-02 0.  1.
       -2   -1    0    0    0  501  0.00000000000E+00  0.00000000000E+00 -0.28123831621E+04  0.28123831621E+04  0.25500000920E-02 0. -1.
    10030    2    1    2    0    0  0.00000000000E+00  0.00000000000E+00 -0.13675659190E+04  0.42572004053E+04  0.40315652975E+04 0.  0.
        3    1    3    3  502    0 -0.42177097609E+03  0.16443525230E+03 -0.27580125865E+04  0.27949173773E+04  0.10100000352E+00 0. -1.
       -3    1    3    3    0  502  0.42177097609E+03 -0.16443525230E+03  0.13904466675E+04  0.14622830280E+04  0.10100000352E+00 0.  1.
</event>
<event>
 5   0  0.4077370E-07  0.3612169E+04  0.7818609E-02  0.8087710E-01
        2   -1    0    0  501    0  0.00000000000E+00  0.00000000000E+00  0.25961574081E+04  0.25961574081E+04  0.25500000920E-02 0.  1.
       -2   -1    0    0    0  501  0.00000000000E+00  0.00000000000E+00 -0.12564494875E+04  0.12564494875E+04  0.25500000920E-02 0. -1.
    10030    2    1    2    0    0  0.00000000000E+00  0.00000000000E+00  0.13397079206E+04  0.38526068957E+04  0.36121686810E+04 0.  0.
        3    1    3    3  502    0 -0.12370475056E+04 -0.13139829682E+04  0.74604319770E+03  0.19527975407E+04  0.10100000352E+00 0.  1.
       -3    1    3    3    0  502  0.12370475056E+04  0.13139829682E+04  0.59366472289E+03  0.18998093550E+04  0.10100000352E+00 0. -1.
</event>
<event>
 5   0  0.4077370E-07  0.4005845E+04  0.7818609E-02  0.8003369E-01
        2   -1    0    0  501    0  0.00000000000E+00  0.00000000000E+00  0.25551385108E+04  0.25551385108E+04  0.25500000920E-02 0.  1.
       -2   -1    0    0    0  501  0.00000000000E+00  0.00000000000E+00 -0.15700509097E+04  0.15700509097E+04  0.25500000920E-02 0. -1.
    10030    2    1    2    0    0  0.00000000000E+00  0.00000000000E+00  0.98508760106E+03  0.41251894205E+04  0.40058445018E+04 0.  0.
        3    1    3    3  502    0  0.45185828398E+03  0.13360153805E+04  0.19570902445E+04  0.24123256913E+04  0.10100000352E+00 0.  1.
       -3    1    3    3    0  502 -0.45185828398E+03 -0.13360153805E+04 -0.97200264339E+03  0.17128637292E+04  0.10100000352E+00 0. -1.
</event>
<event>
 5   0  0.4047916E-07  0.2654070E+04  0.7818609E-02  0.8350063E-01
       -2   -1    0    0    0  501  0.00000000000E+00  0.00000000000E+00  0.10286850192E+04  0.10286850192E+04  0.25500000920E-02 0.  1.
        2   -1    0    0  501    0  0.00000000000E+00  0.00000000000E+00 -0.17119159704E+04  0.17119159704E+04  0.25500000920E-02 0. -1.
    10030    2    1    2    0    0  0.00000000000E+00  0.00000000000E+00 -0.68323095120E+03  0.27406009896E+04  0.26540703177E+04 0.  0.
        5    1    3    3  502    0  0.92096189733E+03  0.93392557695E+03 -0.54971104650E+03  0.14221786541E+04  0.46999998093E+01 0. -1.
       -5    1    3    3    0  502 -0.92096189733E+03 -0.93392557695E+03 -0.13351990470E+03  0.13184223354E+04  0.46999998093E+01 0.  1.
</event>
<event>
 5   0  0.1351000E-07  0.3742733E+04  0.7818609E-02  0.8058557E-01
        1   -1    0    0  501    0  0.00000000000E+00  0.00000000000E+00  0.19852652241E+04  0.19852652241E+04  0.50400001928E-02 0.  1.
       -1   -1    0    0    0  501  0.00000000000E+00  0.00000000000E+00 -0.17640019236E+04  0.17640019236E+04  0.50400001928E-02 0. -1.
    10030    2    1    2    0    0  0.00000000000E+00  0.00000000000E+00  0.22126330055E+03  0.37492671477E+04  0.37427325174E+04 0.  0.
        3    1    3    3  502    0  0.16876122878E+04  0.65669618188E+03  0.58339477623E+03  0.19025337275E+04  0.10100000352E+00 0.  1.
       -3    1    3    3    0  502 -0.16876122878E+04 -0.65669618188E+03 -0.36213147568E+03  0.18467334202E+04  0.10100000352E+00 0. -1.
</event>
<event>
 5   0  0.1421304E-07  0.4475830E+04  0.7818609E-02  0.7914882E-01
        1   -1    0    0  501    0  0.00000000000E+00  0.00000000000E+00  0.20078158067E+04  0.20078158067E+04  0.50400001928E-02 0. -1.
       -1   -1    0    0    0  501  0.00000000000E+00  0.00000000000E+00 -0.24943840204E+04  0.24943840204E+04  0.50400001928E-02 0.  1.
    10030    2    1    2    0    0  0.00000000000E+00  0.00000000000E+00 -0.48656821372E+03  0.45021998271E+04  0.44758300523E+04 0.  0.
        2    1    3    3  502    0 -0.29402613069E+03 -0.12312020605E+04 -0.20996798094E+04  0.24517269794E+04  0.25500000920E-02 0.  1.
       -2    1    3    3    0  502  0.29402613069E+03  0.12312020605E+04  0.16131115957E+04  0.20504728478E+04  0.25500000920E-02 0. -1.
</event>
<event>
 5   0  0.1351000E-07  0.4014700E+04  0.7818609E-02  0.8001588E-01
        1   -1    0    0  501    0  0.00000000000E+00  0.00000000000E+00  0.15264556002E+04  0.15264556002E+04  0.50400001928E-02 0. -1.
       -1   -1    0    0    0  501  0.00000000000E+00  0.00000000000E+00 -0.26397452984E+04  0.26397452985E+04  0.50400001928E-02 0.  1.
    10030    2    1    2    0    0  0.00000000000E+00  0.00000000000E+00 -0.11132896982E+04  0.41662008987E+04  0.40146999858E+04 0.  0.
        4    1    3    3  502    0  0.15554527255E+04 -0.12226246679E+04 -0.90887672772E+03  0.21772236401E+04  0.12699999809E+01 0. -1.
       -4    1    3    3    0  502 -0.15554527255E+04  0.12226246679E+04 -0.20441297053E+03  0.19889772586E+04  0.12699999809E+01 0.  1.
</event>
<event>
 5   0  0.4077370E-07  0.4000520E+04  0.7818609E-02  0.8004442E-01
        2   -1    0    0  501    0  0.00000000000E+00  0.00000000000E+00  0.25368917318E+04  0.25368917318E+04  0.25500000920E-02 0.  1.
       -2   -1    0    0    0  501  0.00000000000E+00  0.00000000000E+00 -0.15771429468E+04  0.15771429468E+04  0.25500000920E-02 0. -1.
    10030    2    1    2    0    0  0.00000000000E+00  0.00000000000E+00  0.95974878495E+03  0.41140346786E+04  0.40005204170E+04 0.  0.
        3    1    3    3  502    0 -0.28632019744E+03 -0.28710302894E+03  0.24941858059E+04  0.25269290154E+04  0.10100000352E+00 0.  1.
       -3    1    3    3    0  502  0.28632019744E+03  0.28710302894E+03 -0.15344370209E+04  0.15871056632E+04  0.10100000352E+00 0. -1.
</event>
<event>
 5   0  0.4077370E-07  0.3933701E+04  0.7818609E-02  0.8018056E-01
        2   -1    0    0  501    0  0.00000000000E+00  0.00000000000E+00  0.21366347875E+04  0.21366347875E+04  0.25500000920E-02 0. -1.
       -2   -1    0    0    0  501  0.00000000000E+00  0.00000000000E+00 -0.18105581546E+04  0.18105581546E+04  0.25500000920E-02 0.  1.
    10030    2    1    2    0    0  0.00000000000E+00  0.00000000000E+00  0.32607663285E+03  0.39471929421E+04  0.39337013297E+04 0.  0.
        3    1    3    3  502    0 -0.30033278808E+03 -0.11206036819E+04  0.17567391138E+04  0.21052516998E+04  0.10100000352E+00 0. -1.
       -3    1    3    3    0  502  0.30033278808E+03  0.11206036819E+04 -0.14306624809E+04  0.18419412423E+04  0.10100000352E+00 0.  1.
</event>
<event>
 5   0  0.4301754E-07  0.4000619E+04  0.7818609E-02  0.8004422E-01
        2   -1    0    0  501    0  0.00000000000E+00  0.00000000000E+00  0.29358734155E+04  0.29358734155E+04  0.25500000920E-02 0. -1.
       -2   -1    0    0    0  501  0.00000000000E+00  0.00000000000E+00 -0.13628782866E+04  0.13628782866E+04  0.25500000920E-02 0.  1.
    10030    2    1    2    0    0  0.00000000000E+00  0.00000000000E+00  0.15729951289E+04  0.42987517021E+04  0.40006190173E+04 0.  0.
        1    1    3    3  502    0  0.33358526258E+03 -0.73647953855E+03 -0.11794826783E+04  0.14299862330E+04  0.50400001928E-02 0.  1.
       -1    1    3    3    0  502 -0.33358526258E+03  0.73647953855E+03  0.27524778071E+04  0.28687654692E+04  0.50400001928E-02 0. -1.
</event>
<event>
 5   0  0.1372952E-07  0.3666097E+04  0.7818609E-02  0.8075517E-01
        1   -1    0    0  501    0  0.00000000000E+00  0.00000000000E+00  0.16435325224E+04  0.16435325224E+04  0.50400001928E-02 0. -1.
       -1   -1    0    0    0  501  0.00000000000E+00  0.00000000000E+00 -0.20444176434E+04  0.20444176434E+04  0.50400001928E-02 0.  1.
    10030    2    1    2    0    0  0.00000000000E+00  0.00000000000E+00 -0.40088512101E+03  0.36879501658E+04  0.36660970452E+04 0.  0.
        1    1    3    3  502    0  0.28602442192E+03 -0.15717406992E+04 -0.11046262947E+04  0.19422610655E+04  0.50400001928E-02 0.  1.
       -1    1    3    3    0  502 -0.28602442192E+03  0.15717406992E+04  0.70374117368E+03  0.17456891003E+04  0.50400001928E-02 0. -1.
</event>
<event>
 5   0  0.4149487E-07  0.3965477E+04  0.7818609E-02  0.8011547E-01
       -2   -1    0    0    0  501  0.00000000000E+00  0.00000000000E+00  0.20850106761E+04  0.20850106761E+04  0.25500000920E-02 0. -1.
        2   -1    0    0  501    0  0.00000000000E+00  0.00000000000E+00 -0.18854828674E+04  0.18854828674E+04  0.25500000920E-02 0.  1.
    10030    2    1    2    0    0  0.00000000000E+00  0.00000000000E+00  0.19952780864E+03  0.39704935435E+04  0.39654769741E+04 0.  0.
        2    1    3    3  502    0 -0.67394835000E+03 -0.18062315702E+03  0.19580268352E+04  0.20786294020E+04  0.25500000920E-02 0. -1.
       -2    1    3    3    0  502  0.67394835000E+03  0.18062315702E+03 -0.17584990266E+04  0.18918641415E+04  0.25500000920E-02 0.  1.
</event>
<event>
 5   0  0.4077370E-07  0.4041236E+04  0.7818609E-02  0.7996279E-01
       -2   -1    0    0    0  501  0.00000000000E+00  0.00000000000E+00  0.18803641177E+04  0.18803641177E+04  0.25500000920E-02 0. -1.
        2   -1    0    0  501    0  0.00000000000E+00  0.00000000000E+00 -0.21713335617E+04  0.21713335617E+04  0.25500000920E-02 0.  1.
    10030    2    1    2    0    0  0.00000000000E+00  0.00000000000E+00 -0.29096944394E+03  0.40516976794E+04  0.40412363044E+04 0.  0.
        3    1    3    3  502    0 -0.55011630592E+03  0.13507871906E+04  0.12565786894E+04  0.19251607718E+04  0.10100000352E+00 0. -1.
       -3    1    3    3    0  502  0.55011630592E+03 -0.13507871906E+04 -0.15475481333E+04  0.21265369076E+04  0.10100000352E+00 0.  1.
</event>
<event>
 5   0  0.1510379E-07  0.2620289E+04  0.7818609E-02  0.8361342E-01
       -1   -1    0    0    0  501  0.00000000000E+00  0.00000000000E+00  0.10358826873E+04  0.10358826873E+04  0.50400001928E-02 0.  1.
        1   -1    0    0  501    0  0.00000000000E+00  0.00000000000E+00 -0.16570197910E+04  0.16570197910E+04  0.50400001928E-02 0. -1.
    10030    2    1    2    0    0  0.00000000000E+00  0.00000000000E+00 -0.62113710376E+03  0.26929024783E+04  0.26202886208E+04 0.  0.
        1    1    3    3  502    0  0.43841216320E+03  0.52631597701E+03  0.83719057603E+03  0.10817124355E+04  0.50400001928E-02 0.  1.
       -1    1    3    3    0  502 -0.43841216320E+03 -0.52631597701E+03 -0.14583276798E+04  0.16111900428E+04  0.50400001928E-02 0. -1.
</event>
<event>
 5   0  0.4079777E-07  0.4019666E+04  0.7818609E-02  0.8000591E-01
        2   -1    0    0  501    0  0.00000000000E+00  0.00000000000E+00  0.19322384796E+04  0.19322384796E+04  0.25500000920E-02 0. -1.
       -2   -1    0    0    0  501  0.00000000000E+00  0.00000000000E+00 -0.20905430809E+04  0.20905430809E+04  0.25500000920E-02 0.  1.
    10030    2    1    2    0    0  0.00000000000E+00  0.00000000000E+00 -0.15830460127E+03  0.40227815605E+04  0.40196655504E+04 0.  0.
        4    1    3    3  502    0 -0.20559216011E+02 -0.18976021321E+04  0.58325930782E+03  0.19853235420E+04  0.12699999809E+01 0. -1.
       -4    1    3    3    0  502  0.20559216011E+02  0.18976021321E+04 -0.74156390909E+03  0.20374580186E+04  0.12699999809E+01 0.  1.
</event>
<event>
 5   0  0.1351000E-07  0.3993002E+04  0.7818609E-02  0.8005960E-01
        3   -1    0    0  501    0  0.00000000000E+00  0.00000000000E+00  0.14228267753E+04  0.14228267789E+04  0.10100000352E+00 0. -1.
       -3   -1    0    0    0  501  0.00000000000E+00  0.00000000000E+00 -0.28014765038E+04  0.28014765056E+04  0.10100000352E+00 0.  1.
    10030    2    1    2    0    0  0.00000000000E+00  0.00000000000E+00 -0.13786497285E+04  0.42243032846E+04  0.39930017739E+04 0.  0.
        2    1    3    3  502    0  0.10435496057E+04 -0.16694069504E+04 -0.33829010095E+03  0.19975874293E+04  0.25500000920E-02 0.  1.
       -2    1    3    3    0  502 -0.10435496057E+04  0.16694069504E+04 -0.10403596275E+04  0.22267158552E+04  0.25500000920E-02 0. -1.
</event>
<event>
 5   0  0.4047916E-07  0.4146999E+04  0.7818609E-02  0.7975531E-01
       -2   -1    0    0    0  501  0.00000000000E+00  0.00000000000E+00  0.29858938706E+04  0.29858938706E+04  0.25500000920E-02 0.  1.
        2   -1    0    0  501    0  0.00000000000E+00  0.00000000000E+00 -0.14399039787E+04  0.14399039787E+04  0.25500000920E-02 0. -1.
    10030    2    1    2    0    0  0.00000000000E+00  0.00000000000E+00  0.15459898919E+04  0.44257978493E+04  0.41469991388E+04 0.  0.
        5    1    3    3  502    0 -0.30616664909E+03  0.17097895801E+04 -0.43550230538E+03  0.17907548054E+04  0.46999998093E+01 0. -1.
       -5    1    3    3    0  502  0.30616664909E+03 -0.17097895801E+04  0.19814921973E+04  0.26350430439E+04  0.46999998093E+01 0.  1.
</event>
<event>
 5   0  0.4079777E-07  0.4006512E+04  0.7818609E-02  0.8003234E-01
        2   -1    0    0  501    0  0.00000000000E+00  0.00000000000E+00  0.22673208448E+04  0.22673208448E+04  0.25500000920E-02 0.  1.
       -2   -1    0    0    0  501  0.00000000000E+00  0.00000000000E+00 -0.17699455658E+04  0.17699455658E+04  0.25500000920E-02 0. -1.
    10030    2    1    2    0    0  0.00000000000E+00  0.00000000000E+00  0.49737527897E+03  0.40372664105E+04  0.40065119370E+04 0.  0.
        4    1    3    3  502    0  0.66013850930E+03 -0.10354652646E+04 -0.13462003250E+04  0.18221493061E+04  0.12699999809E+01 0. -1.
       -4    1    3    3    0  502 -0.66013850930E+03  0.10354652646E+04  0.18435756040E+04  0.22151171044E+04  0.12699999809E+01 0.  1.
</event>
<event>
 5   0  0.4077370E-07  0.4070855E+04  0.7818609E-02  0.7990404E-01
        2   -1    0    0  501    0  0.00000000000E+00  0.00000000000E+00  0.28599757626E+04  0.28599757626E+04  0.25500000920E-02 0.  1.
       -2   -1    0    0    0  501  0.00000000000E+00  0.00000000000E+00 -0.14486012023E+04  0.14486012023E+04  0.25500000920E-02 0. -1.
    10030    2    1    2    0    0  0.00000000000E+00  0.00000000000E+00  0.14113745603E+04  0.43085769650E+04  0.40708546171E+04 0.  0.
        3    1    3    3  502    0 -0.15643033127E+04  0.97612912311E+03 -0.20667932345E+03  0.18554215887E+04  0.10100000352E+00 0.  1.
       -3    1    3    3    0  502  0.15643033127E+04 -0.97612912311E+03  0.16180538837E+04  0.24531553762E+04  0.10100000352E+00 0. -1.
</event>
<event>
 5   0  0.4077370E-07  0.3977356E+04  0.7818609E-02  0.8009130E-01
        2   -1    0    0  501    0  0.00000000000E+00  0.00000000000E+00  0.32370246565E+04  0.32370246565E+04  0.25500000920E-02 0.  1.
       -2   -1    0    0    0  501  0.00000000000E+00  0.00000000000E+00 -0.12217514787E+04  0.12217514787E+04  0.25500000920E-02 0. -1.
    10030    2    1    2    0    0  0.00000000000E+00  0.00000000000E+00  0.20152731778E+04  0.44587761351E+04  0.39773557349E+04 0.  0.
        3    1    3    3  502    0  0.17381131547E+04 -0.86864514740E+03  0.14822722965E+04  0.24439134400E+04  0.10100000352E+00 0.  1.
       -3    1    3    3    0  502 -0.17381131547E+04  0.86864514740E+03  0.53300088127E+03  0.20148626952E+04  0.10100000352E+00 0. -1.
</event>
<event>
 5   0  0.4149487E-07  0.3154104E+04  0.7818609E-02  0.8201044E-01
       -2   -1    0    0    0  501  0.00000000000E+00  0.00000000000E+00  0.11365859032E+04  0.11365859032E+04  0.25500000920E-02 0.  1.
        2   -1    0    0  501    0  0.00000000000E+00  0.00000000000E+00 -0.21882135455E+04  0.21882135455E+04  0.25500000920E-02 0. -1.
    10030    2    1    2    0    0  0.00000000000E+00  0.00000000000E+00 -0.10516276423E+04  0.33247994487E+04  0.31541037833E+04 0.  0.
        2    1    3    3  502    0  0.78512755622E+03 -0.90073631142E+03  0.55913053484E+03  0.13192339206E+04  0.25500000920E-02 0.  1.
       -2    1    3    3    0  502 -0.78512755622E+03  0.90073631142E+03 -0.16107581771E+04  0.20055655281E+04  0.25500000920E-02 0. -1.
</event>
<event>
 5   0  0.4077370E-07  0.2646094E+04  0.7818609E-02  0.8352711E-01
       -2   -1    0    0    0  501  0.00000000000E+00  0.00000000000E+00  0.20206783943E+04  0.20206783943E+04  0.25500000920E-02 0.  1.
        2   -1    0    0  501    0  0.00000000000E+00  0.00000000000E+00 -0.86627019454E+03  0.86627019455E+03  0.25500000920E-02 0. -1.
    10030    2    1    2    0    0  0.00000000000E+00  0.00000000000E+00  0.11544081998E+04  0.28869485889E+04  0.26460940768E+04 0.  0.
        3    1    3    3  502    0 -0.50613539965E+03  0.11867813773E+04  0.25756913911E+03  0.13156614123E+04  0.10100000352E+00 0. -1.
       -3    1    3    3    0  502  0.50613539965E+03 -0.11867813773E+04  0.89683906066E+03  0.15712871765E+04  0.10100000352E+00 0.  1.
</event>
<event>
 5   0  0.1368865E-07  0.3998455E+04  0.7818609E-02  0.8004858E-01
       -1   -1    0    0    0  501  0.00000000000E+00  0.00000000000E+00  0.15586661243E+04  0.15586661243E+04  0.50400001928E-02 0.  1.
        1   -1    0    0  501    0  0.00000000000E+00  0.00000000000E+00 -0.25643146735E+04  0.25643146736E+04  0.50400001928E-02 0. -1.
    10030    2    1    2    0    0  0.00000000000E+00  0.00000000000E+00 -0.10056485492E+04  0.41229807979E+04  0.39984549085E+04 0.  0.
        5    1    3    3  502    0 -0.74143633094E+03  0.85902913049E+03 -0.22000593674E+04  0.24754680749E+04  0.46999998093E+01 0. -1.
       -5    1    3    3    0  502  0.74143633094E+03 -0.85902913049E+03  0.11944108182E+04  0.16475127230E+04  0.46999998093E+01 0.  1.
</event>
<event>
 5   0  0.4301754E-07  0.3815876E+04  0.7818609E-02  0.8042757E-01
       -2   -1    0    0    0  501  0.00000000000E+00  0.00000000000E+00  0.25231380020E+04  0.25231380020E+04  0.25500000920E-02 0. -1.
        2   -1    0    0  501    0  0.00000000000E+00  0.00000000000E+00 -0.14427379225E+04  0.14427379225E+04  0.25500000920E-02 0.  1.
    10030    2    1    2    0    0  0.00000000000E+00  0.00000000000E+00  0.10804000795E+04  0.39658759245E+04  0.38158757208E+04 0.  0.
        1    1    3    3  502    0 -0.16832488080E+04  0.63933548433E+03 -0.11559558736E+03  0.18042834453E+04  0.50400001928E-02 0.  1.
       -1    1    3    3    0  502  0.16832488080E+04 -0.63933548433E+03  0.11959956668E+04  0.21615924792E+04  0.50400001928E-02 0. -1.
</event>
<event>
 5   0  0.1351000E-07  0.3363303E+04  0.7818609E-02  0.8146972E-01
        1   -1    0    0  501    0  0.00000000000E+00  0.00000000000E+00  0.13022833174E+04  0.13022833174E+04  0.50400001928E-02 0.  1.
       -1   -1    0    0    0  501  0.00000000000E+00  0.00000000000E+00 -0.21715331961E+04  0.21715331961E+04  0.50400001928E-02 0. -1.
    10030    2    1    2    0    0  0.00000000000E+00  0.00000000000E+00 -0.86924987864E+03  0.34738165135E+04  0.33633028139E+04 0.  0.
        3    1    3    3  502    0 -0.34525637726E+03 -0.14208134434E+04 -0.12926058181E+04  0.19516000149E+04  0.10100000352E+00 0. -1.
       -3    1    3    3    0  502  0.34525637726E+03  0.14208134434E+04  0.42335593945E+03  0.15222164986E+04  0.10100000352E+00 0.  1.
</event>
<event>
 5   0  0.4079777E-07  0.4005792E+04  0.7818609E-02  0.8003379E-01
       -2   -1    0    0    0  501  0.00000000000E+00  0.00000000000E+00  0.21037695478E+04  0.21037695478E+04  0.25500000920E-02 0.  1.
        2   -1    0    0  501    0  0.00000000000E+00  0.00000000000E+00 -0.19068596707E+04  0.19068596707E+04  0.25500000920E-02 0. -1.
    10030    2    1    2    0    0  0.00000000000E+00  0.00000000000E+00  0.19690987717E+03  0.40106292185E+04  0.40057924595E+04 0.  0.
        4    1    3    3  502    0  0.57897854909E+03 -0.90252496328E+03  0.17921902680E+04  0.20884719388E+04  0.12699999809E+01 0.  1.
       -4    1    3    3    0  502 -0.57897854909E+03  0.90252496328E+03 -0.15952803908E+04  0.19221572797E+04  0.12699999809E+01 0. -1.
</event>
<event>
 5   0  0.4079777E-07  0.2825021E+04  0.7818609E-02  0.8295542E-01
       -2   -1    0    0    0  501  0.00000000000E+00  0.00000000000E+00  0.15001079641E+04  0.15001079641E+04  0.25500000920E-02 0. -1.
        2   -1    0    0  501    0  0.00000000000E+00  0.00000000000E+00 -0.13300286807E+04  0.13300286807E+04  0.25500000920E-02 0.  1.
    10030    2    1    2    0    0  0.00000000000E+00  0.00000000000E+00  0.17007928339E+03  0.28301366449E+04  0.28250214983E+04 0.  0.
        4    1    3    3  502    0  0.17769598980E+03  0.96727140507E+03 -0.93069715120E+03  0.13540268225E+04  0.12699999809E+01 0.  1.
       -4    1    3    3    0  502 -0.17769598980E+03 -0.96727140507E+03  0.11007764346E+04  0.14761098224E+04  0.12699999809E+01 0. -1.
</event>
<event>
 5   0  0.4079777E-07  0.4130000E+04  0.7818609E-02  0.7978823E-01
       -2   -1    0    0    0  501  0.00000000000E+00  0.00000000000E+00  0.27943628238E+04  0.27943628238E+04  0.25500000920E-02 0.  1.
        2   -1    0    0  501    0  0.00000000000E+00  0.00000000000E+00 -0.15260094549E+04  0.15260094549E+04  0.25500000920E-02 0. -1.
    10030    2    1    2    0    0  0.00000000000E+00  0.00000000000E+00  0.12683533689E+04  0.43203722787E+04  0.41299995591E+04 0.  0.
        4    1    3    3  502    0 -0.14180420779E+03  0.44781107380E+03  0.27377330183E+04  0.27777377276E+04  0.12699999809E+01 0.  1.
       -4    1    3    3    0  502  0.14180420779E+03 -0.44781107380E+03 -0.14693796494E+04  0.15426345511E+04  0.12699999809E+01 0. -1.
</event>
<event>
 5   0  0.4301754E-07  0.2598947E+04  0.7818609E-02  0.8368559E-01
       -2   -1    0    0    0  501  0.00000000000E+00  0.00000000000E+00  0.57842766464E+03  0.57842766464E+03  0.25500000920E-02 0.  1.
        2   -1    0    0  501    0  0.00000000000E+00  0.00000000000E+00 -0.29193484880E+04  0.29193484880E+04  0.25500000920E-02 0. -1.
    10030    2    1    2    0    0  0.00000000000E+00  0.00000000000E+00 -0.23409208234E+04  0.34977761527E+04  0.25989474240E+04 0.  0.
        1    1    3    3  502    0  0.44909620637E+03  0.26291306533E+03  0.43206623056E+03  0.67638148267E+03  0.50400001928E-02 0.  1.
       -1    1    3    3    0  502 -0.44909620637E+03 -0.26291306533E+03 -0.27729870539E+04  0.28213946700E+04  0.50400001928E-02 0. -1.
</event>
<event>
 5   0  0.1351000E-07  0.3796655E+04  0.7818609E-02  0.8046873E-01
        1   -1    0    0  501    0  0.00000000000E+00  0.00000000000E+00  0.27312551213E+04  0.27312551213E+04  0.50400001928E-02 0. -1.
       -1   -1    0    0    0  501  0.00000000000E+00  0.00000000000E+00 -0.13194106947E+04  0.13194106947E+04  0.50400001928E-02 0.  1.
    10030    2    1    2    0    0  0.00000000000E+00  0.00000000000E+00  0.14118444266E+04  0.40506658161E+04  0.37966549578E+04 0.  0.
        4    1    3    3  502    0  0.89355512815E+03 -0.83346332794E+03  0.22558892470E+04  0.25655681230E+04  0.12699999809E+01 0. -1.
       -4    1    3    3    0  502 -0.89355512815E+03  0.83346332794E+03 -0.84404482043E+03  0.14850976930E+04  0.12699999809E+01 0.  1.
</event>
<event>
 5   0  0.1474154E-07  0.2454702E+04  0.7818609E-02  0.8419303E-01
       -1   -1    0    0    0  501  0.00000000000E+00  0.00000000000E+00  0.87072378925E+03  0.87072378927E+03  0.50400001928E-02 0.  1.
        1   -1    0    0  501    0  0.00000000000E+00  0.00000000000E+00 -0.17300439375E+04  0.17300439375E+04  0.50400001928E-02 0. -1.
    10030    2    1    2    0    0  0.00000000000E+00  0.00000000000E+00 -0.85932014826E+03  0.26007677268E+04  0.24547019476E+04 0.  0.
        5    1    3    3  502    0  0.62600108582E+03  0.74527696908E+03 -0.12218501000E+04  0.15621315172E+04  0.46999998093E+01 0. -1.
       -5    1    3    3    0  502 -0.62600108582E+03 -0.74527696908E+03  0.36252995171E+03  0.10386362096E+04  0.46999998093E+01 0.  1.
</event>
<event>
 5   0  0.4079777E-07  0.3401378E+04  0.7818609E-02  0.8137568E-01
       -2   -1    0    0    0  501  0.00000000000E+00  0.00000000000E+00  0.99769726434E+03  0.99769726435E+03  0.25500000920E-02 0.  1.
        2   -1    0    0  501    0  0.00000000000E+00  0.00000000000E+00 -0.28990193046E+04  0.28990193046E+04  0.25500000920E-02 0. -1.
    10030    2    1    2    0    0  0.00000000000E+00  0.00000000000E+00 -0.19013220402E+04  0.38967165689E+04  0.34013783262E+04 0.  0.
        4    1    3    3  502    0  0.13908654296E+04  0.22941744917E+03 -0.20406368616E+04  0.24801893925E+04  0.12699999809E+01 0. -1.
       -4    1    3    3    0  502 -0.13908654296E+04 -0.22941744917E+03  0.13931482132E+03  0.14165271764E+04  0.12699999809E+01 0.  1.
</event>
<event>
 5   0  0.4301754E-07  0.3973940E+04  0.7818609E-02  0.8009824E-01
       -2   -1    0    0    0  501  0.00000000000E+00  0.00000000000E+00  0.22017548202E+04  0.22017548202E+04  0.25500000920E-02 0. -1.
        2   -1    0    0  501    0  0.00000000000E+00  0.00000000000E+00 -0.17931373516E+04  0.17931373516E+04  0.25500000920E-02 0.  1.
    10030    2    1    2    0    0  0.00000000000E+00  0.00000000000E+00  0.40861746862E+03  0.39948921718E+04  0.39739395100E+04 0.  0.
        1    1    3    3  502    0 -0.13550876901E+04 -0.14332050930E+04  0.44580298257E+03  0.20221473204E+04  0.50400001928E-02 0. -1.
       -1    1    3    3    0  502  0.13550876901E+04  0.14332050930E+04 -0.37185513952E+02  0.19727448514E+04  0.50400001928E-02 0.  1.
</event>
<event>
 5   0  0.4149487E-07  0.4070960E+04  0.7818609E-02  0.7990383E-01
       -2   -1    0    0    0  501  0.00000000000E+00  0.00000000000E+00  0.22280284727E+04  0.22280284727E+04  0.25500000920E-02 0. -1.
        2   -1    0    0  501    0  0.00000000000E+00  0.00000000000E+00 -0.18595715618E+04  0.18595715618E+04  0.25500000920E-02 0.  1.
    10030    2    1    2    0    0  0.00000000000E+00  0.00000000000E+00  0.36845691089E+03  0.40876000345E+04  0.40709597820E+04 0.  0.
        2    1    3    3  502    0 -0.68969448535E+03 -0.90694409078E+03 -0.15093646552E+04  0.18911392675E+04  0.25500000920E-02 0.  1.
       -2    1    3    3    0  502  0.68969448535E+03  0.90694409078E+03  0.18778215661E+04  0.21964607670E+04  0.25500000920E-02 0. -1.
</event>
<event>
 5   0  0.4047916E-07  0.3874021E+04  0.7818609E-02  0.8030454E-01
       -2   -1    0    0    0  501  0.00000000000E+00  0.00000000000E+00  0.19976376214E+04  0.19976376214E+04  0.25500000920E-02 0.  1.
        2   -1    0    0  501    0  0.00000000000E+00  0.00000000000E+00 -0.18782230507E+04  0.18782230507E+04  0.25500000920E-02 0. -1.
    10030    2    1    2    0    0  0.00000000000E+00  0.00000000000E+00  0.11941457066E+03  0.38758606721E+04  0.38740206646E+04 0.  0.
        5    1    3    3  502    0 -0.93397953033E+03 -0.16696707210E+04  0.36295000474E+03  0.19472731897E+04  0.46999998093E+01 0.  1.
       -5    1    3    3    0  502  0.93397953033E+03  0.16696707210E+04 -0.24353543408E+03  0.19285874824E+04  0.46999998093E+01 0. -1.
</event>
<event>
 5   0  0.4149487E-07  0.3945554E+04  0.7818609E-02  0.8015621E-01
       -2   -1    0    0    0  501  0.00000000000E+00  0.00000000000E+00  0.14756020867E+04  0.14756020867E+04  0.25500000920E-02 0. -1.
        2   -1    0    0  501    0  0.00000000000E+00  0.00000000000E+00 -0.26374652573E+04  0.26374652573E+04  0.25500000920E-02 0.  1.
    10030    2    1    2    0    0  0.00000000000E+00  0.00000000000E+00 -0.11618631706E+04  0.41130673439E+04  0.39455540737E+04 0.  0.
        2    1    3    3  502    0 -0.47329851383E+03 -0.48244520773E+03 -0.25130179034E+04  0.26023112505E+04  0.25500000920E-02 0.  1.
       -2    1    3    3    0  502  0.47329851383E+03  0.48244520773E+03  0.13511547328E+04  0.15107560934E+04  0.25500000920E-02 0. -1.
</event>
<event>
 5   0  0.1351000E-07  0.4019485E+04  0.7818609E-02  0.8000627E-01
        1   -1    0    0  501    0  0.00000000000E+00  0.00000000000E+00  0.26002693216E+04  0.26002693216E+04  0.50400001928E-02 0.  1.
       -1   -1    0    0    0  501  0.00000000000E+00  0.00000000000E+00 -0.15533253979E+04  0.15533253979E+04  0.50400001928E-02 0. -1.
    10030    2    1    2    0    0  0.00000000000E+00  0.00000000000E+00  0.10469439236E+04  0.41535947195E+04  0.40194847325E+04 0.  0.
        3    1    3    3  502    0  0.74841115860E+03 -0.15867090653E+04 -0.48969981118E+03  0.18214200052E+04  0.10100000352E+00 0. -1.
       -3    1    3    3    0  502 -0.74841115860E+03  0.15867090653E+04  0.15366437348E+04  0.23321747143E+04  0.10100000352E+00 0.  1.
</event>
<event>
 5   0  0.4301754E-07  0.2666368E+04  0.7818609E-02  0.8346000E-01
        2   -1    0    0  501    0  0.00000000000E+00  0.00000000000E+00  0.23695523993E+04  0.23695523993E+04  0.25500000920E-02 0. -1.
       -2   -1    0    0    0  501  0.00000000000E+00  0.00000000000E+00 -0.75009101047E+03  0.75009101047E+03  0.25500000920E-02 0.  1.
    10030    2    1    2    0    0  0.00000000000E+00  0.00000000000E+00  0.16194613888E+04  0.31196434097E+04  0.26663682818E+04 0.  0.
        1    1    3    3  502    0  0.10009181447E+04 -0.78435871836E+03  0.34125788279E+03  0.13166292850E+04  0.50400001928E-02 0.  1.
       -1    1    3    3    0  502 -0.10009181447E+04  0.78435871836E+03  0.12782035060E+04  0.18030141248E+04  0.50400001928E-02 0. -1.
</event>
<event>
 5   0  0.1421304E-07  0.3572759E+04  0.7818609E-02  0.8096760E-01
        1   -1    0    0  501    0  0.00000000000E+00  0.00000000000E+00  0.24341117400E+04  0.24341117400E+04  0.50400001928E-02 0.  1.
       -1   -1    0    0    0  501  0.00000000000E+00  0.00000000000E+00 -0.13110131077E+04  0.13110131078E+04  0.50400001928E-02 0. -1.
    10030    2    1    2    0    0  0.00000000000E+00  0.00000000000E+00  0.11230986322E+04  0.37451248478E+04  0.35727593800E+04 0.  0.
        2    1    3    3  502    0  0.17301864740E+04  0.20896342197E+03  0.97283189963E+03  0.19958990083E+04  0.25500000920E-02 0.  1.
       -2    1    3    3    0  502 -0.17301864740E+04 -0.20896342197E+03  0.15026673261E+03  0.17492258394E+04  0.25500000920E-02 0. -1.
</event>
<event>
 5   0  0.1351000E-07  0.4025080E+04  0.7818609E-02  0.7999506E-01
        1   -1    0    0  501    0  0.00000000000E+00  0.00000000000E+00  0.17150613309E+04  0.17150613309E+04  0.50400001928E-02 0. -1.
       -1   -1    0    0    0  501  0.00000000000E+00  0.00000000000E+00 -0.23616165647E+04  0.23616165648E+04  0.50400001928E-02 0.  1.
    10030    2    1    2    0    0  0.00000000000E+00  0.00000000000E+00 -0.64655523386E+03  0.40766778956E+04  0.40250799985E+04 0.  0.
        4    1    3    3  502    0 -0.19737288736E+04 -0.16354571902E+03  0.39026853821E+02  0.19808779814E+04  0.12699999809E+01 0.  1.
       -4    1    3    3    0  502  0.19737288736E+04  0.16354571902E+03 -0.68558208768E+03  0.20957999143E+04  0.12699999809E+01 0. -1.
</event>
<event>
 5   0  0.4077370E-07  0.4015781E+04  0.7818609E-02  0.8001371E-01
        2   -1    0    0  501    0  0.00000000000E+00  0.00000000000E+00  0.16175264078E+04  0.16175264078E+04  0.25500000920E-02 0. -1.
       -2   -1    0    0    0  501  0.00000000000E+00  0.00000000000E+00 -0.24924626377E+04  0.24924626377E+04  0.25500000920E-02 0.  1.
    10030    2    1    2    0    0  0.00000000000E+00  0.00000000000E+00 -0.87493622995E+03  0.41099890455E+04  0.40157809387E+04 0.  0.
        3    1    3    3  502    0  0.11267726498E+04  0.13193294600E+04 -0.14718091409E+04  0.22751854838E+04  0.10100000352E+00 0. -1.
       -3    1    3    3    0  502 -0.11267726498E+04 -0.13193294600E+04  0.59687291093E+03  0.18348035618E+04  0.10100000352E+00 0.  1.
</event>
<event>
 5   0  0.4047916E-07  0.3979223E+04  0.7818609E-02  0.8008751E-01
        2   -1    0    0  501    0  0.00000000000E+00  0.00000000000E+00  0.23217304729E+04  0.23217304729E+04  0.25500000920E-02 0.  1.
       -2   -1    0    0    0  501  0.00000000000E+00  0.00000000000E+00 -0.17050017428E+04  0.17050017428E+04  0.25500000920E-02 0. -1.
    10030    2    1    2    0    0  0.00000000000E+00  0.00000000000E+00  0.61672873012E+03  0.40267322157E+04  0.39792232923E+04 0.  0.
        5    1    3    3  502    0 -0.57810761429E+03 -0.18953048344E+04  0.12693750457E+03  0.19855790211E+04  0.46999998093E+01 0. -1.
       -5    1    3    3    0  502  0.57810761429E+03  0.18953048344E+04  0.48979122555E+03  0.20411531945E+04  0.46999998093E+01 0.  1.
</event>
<event>
 5   0  0.4047916E-07  0.3900028E+04  0.7818609E-02  0.8025023E-01
        2   -1    0    0  501    0  0.00000000000E+00  0.00000000000E+00  0.16256983685E+04  0.16256983685E+04  0.25500000920E-02 0. -1.
       -2   -1    0    0    0  501  0.00000000000E+00  0.00000000000E+00 -0.23390288405E+04  0.23390288405E+04  0.25500000920E-02 0.  1.
    10030    2    1    2    0    0  0.00000000000E+00  0.00000000000E+00 -0.71333047199E+03  0.39647272091E+04  0.39000283948E+04 0.  0.
        5    1    3    3  502    0  0.28094741904E+03 -0.18462691483E+04  0.21379633962E+03  0.18797266251E+04  0.46999998093E+01 0. -1.
       -5    1    3    3    0  502 -0.28094741904E+03  0.18462691483E+04 -0.92712681160E+03  0.20850005840E+04  0.46999998093E+01 0.  1.
</event>
<event>
 5   0  0.4301754E-07  0.3970987E+04  0.7818609E-02  0.8010425E-01
        2   -1    0    0  501    0  0.00000000000E+00  0.00000000000E+00  0.13135570748E+04  0.13135570748E+04  0.25500000920E-02 0.  1.
       -2   -1    0    0    0  501  0.00000000000E+00  0.00000000000E+00 -0.30011515936E+04  0.30011515936E+04  0.25500000920E-02 0. -1.
    10030    2    1    2    0    0  0.00000000000E+00  0.00000000000E+00 -0.16875945188E+04  0.43147086683E+04  0.39709867329E+04 0.  0.
        1    1    3    3  502    0 -0.32624766067E+03 -0.13371374967E+02 -0.29717788211E+04  0.29896631401E+04  0.50400001928E-02 0. -1.
       -1    1    3    3    0  502  0.32624766067E+03  0.13371374967E+02  0.12841843023E+04  0.13250455283E+04  0.50400001928E-02 0.  1.
</event>
<event>
 5   0  0.1351000E-07  0.3931670E+04  0.7818609E-02  0.8018475E-01
        1   -1    0    0  501    0  0.00000000000E+00  0.00000000000E+00  0.17780836217E+04  0.17780836217E+04  0.50400001928E-02 0. -1.
       -1   -1    0    0    0  501  0.00000000000E+00  0.00000000000E+00 -0.21734110360E+04  0.21734110360E+04  0.50400001928E-02 0.  1.
    10030    2    1    2    0    0  0.00000000000E+00  0.00000000000E+00 -0.39532741425E+03  0.39514946578E+04  0.39316696537E+04 0.  0.
        4    1    3    3  502    0  0.14863453944E+03 -0.19570743062E+04 -0.86322031514E+02  0.19646081472E+04  0.12699999809E+01 0. -1.
       -4    1    3    3    0  502 -0.14863453944E+03  0.19570743062E+04 -0.30900538274E+03  0.19868865105E+04  0.12699999809E+01 0.  1.
</event>
<event>
 5   0  0.1351000E-07  0.3852280E+04  0.7818609E-02  0.8035028E-01
        3   -1    0    0  501    0  0.00000000000E+00  0.00000000000E+00  0.18649164751E+04  0.18649164778E+04  0.10100000352E+00 0. -1.
       -3   -1    0    0    0  501  0.00000000000E+00  0.00000000000E+00 -0.19893737226E+04  0.19893737251E+04  0.10100000352E+00 0.  1.
    10030    2    1    2    0    0  0.00000000000E+00  0.00000000000E+00 -0.12445724752E+03  0.38542902029E+04  0.38522802808E+04 0.  0.
        2    1    3    3  502    0 -0.62622284918E+03  0.58375112541E+03  0.16640977674E+04  0.18714010294E+04  0.25500000920E-02 0. -1.
       -2    1    3    3    0  502  0.62622284918E+03 -0.58375112541E+03 -0.17885550149E+04  0.19828891736E+04  0.25500000920E-02 0.  1.
</event>
<event>
 5   0  0.4047916E-07  0.3832583E+04  0.7818609E-02  0.8039199E-01
        2   -1    0    0  501    0  0.00000000000E+00  0.00000000000E+00  0.23084334216E+04  0.23084334216E+04  0.25500000920E-02 0.  1.
       -2   -1    0    0    0  501  0.00000000000E+00  0.00000000000E+00 -0.15907638800E+04  0.15907638800E+04  0.25500000920E-02 0. -1.
    10030    2    1    2    0    0  0.00000000000E+00  0.00000000000E+00  0.71766954166E+03  0.38991973016E+04  0.38325826835E+04 0.  0.
        5    1    3    3  502    0 -0.76239747375E+03 -0.64175680186E+03 -0.13063942989E+04  0.16431037261E+04  0.46999998093E+01 0. -1.
       -5    1    3    3    0  502  0.76239747375E+03  0.64175680186E+03  0.20240638405E+04  0.22560935755E+04  0.46999998093E+01 0.  1.
</event>
<event>
 5   0  0.4149487E-07  0.4106137E+04  0.7818609E-02  0.7983471E-01
        2   -1    0    0  501    0  0.00000000000E+00  0.00000000000E+00  0.24477814231E+04  0.24477814231E+04  0.25500000920E-02 0.  1.
       -2   -1    0    0    0  501  0.00000000000E+00  0.00000000000E+00 -0.17220046988E+04  0.17220046988E+04  0.25500000920E-02 0. -1.
    10030    2    1    2    0    0  0.00000000000E+00  0.00000000000E+00  0.72577672430E+03  0.41697861219E+04  0.41061374123E+04 0.  0.
        2    1    3    3  502    0  0.44376772938E+03  0.54655922791E+03 -0.15955898657E+04  0.17440079721E+04  0.25500000920E-02 0. -1.
       -2    1    3    3    0  502 -0.44376772938E+03 -0.54655922791E+03  0.23213665900E+04  0.24257781498E+04  0.25500000920E-02 0.  1.
</event>
<event>
 5   0  0.4077370E-07  0.3125304E+04  0.7818609E-02  0.8208828E-01
       -2   -1    0    0    0  501  0.00000000000E+00  0.00000000000E+00  0.99127717324E+03  0.99127717325E+03  0.25500000920E-02 0.  1.
        2   -1    0    0  501    0  0.00000000000E+00  0.00000000000E+00 -0.24633682931E+04  0.24633682931E+04  0.25500000920E-02 0. -1.
    10030    2    1    2    0    0  0.00000000000E+00  0.00000000000E+00 -0.14720911199E+04  0.34546454664E+04  0.31253036705E+04 0.  0.
        3    1    3    3  502    0  0.12649208813E+04  0.31508094129E+03 -0.16885847679E+04  0.21332180770E+04  0.10100000352E+00 0. -1.
       -3    1    3    3    0  502 -0.12649208813E+04 -0.31508094129E+03  0.21649364806E+03  0.13214273893E+04  0.10100000352E+00 0.  1.
</event>
<event>
 5   0  0.1372952E-07  0.3400330E+04  0.7818609E-02  0.8137825E-01
       -1   -1    0    0    0  501  0.00000000000E+00  0.00000000000E+00  0.17023504481E+04  0.17023504481E+04  0.50400001928E-02 0.  1.
        1   -1    0    0  501    0  0.00000000000E+00  0.00000000000E+00 -0.16979823626E+04  0.16979823627E+04  0.50400001928E-02 0. -1.
    10030    2    1    2    0    0  0.00000000000E+00  0.00000000000E+00  0.43680854799E+01  0.34003328108E+04  0.34003300052E+04 0.  0.
        1    1    3    3  502    0  0.15332087296E+04 -0.38305640670E+03 -0.62479320197E+03  0.16993609871E+04  0.50400001928E-02 0. -1.
       -1    1    3    3    0  502 -0.15332087296E+04  0.38305640670E+03  0.62916128745E+03  0.17009718237E+04  0.50400001928E-02 0.  1.
</event>
<event>
 5   0  0.4077370E-07  0.2735640E+04  0.7818609E-02  0.8323533E-01
       -2   -1    0    0    0  501  0.00000000000E+00  0.00000000000E+00  0.10403484583E+04  0.10403484583E+04  0.25500000920E-02 0.  1.
        2   -1    0    0  501    0  0.00000000000E+00  0.00000000000E+00 -0.17983705885E+04  0.17983705885E+04  0.25500000920E-02 0. -1.
    10030    2    1    2    0    0  0.00000000000E+00  0.00000000000E+00 -0.75802213024E+03  0.28387190468E+04  0.27356403778E+04 0.  0.
        3    1    3    3  502    0  0.17695968017E+03 -0.13031285007E+04  0.11291014585E+02  0.13151372989E+04  0.10100000352E+00 0.  1.
       -3    1    3    3    0  502 -0.17695968017E+03  0.13031285007E+04 -0.76931314482E+03  0.15235817479E+04  0.10100000352E+00 0. -1.
</event>
<event>
 5   0  0.4047916E-07  0.3824557E+04  0.7818609E-02  0.8040905E-01
        2   -1    0    0  501    0  0.00000000000E+00  0.00000000000E+00  0.26858521500E+04  0.26858521500E+04  0.25500000920E-02 0.  1.
       -2   -1    0    0    0  501  0.00000000000E+00  0.00000000000E+00 -0.13615080732E+04  0.13615080732E+04  0.25500000920E-02 0. -1.
    10030    2    1    2    0    0  0.00000000000E+00  0.00000000000E+00  0.13243440768E+04  0.40473602232E+04  0.38245571695E+04 0.  0.
        5    1    3    3  502    0  0.13757087192E+03  0.11979164991E+04 -0.90849422358E+03  0.15097395563E+04  0.46999998093E+01 0. -1.
       -5    1    3    3    0  502 -0.13757087192E+03 -0.11979164991E+04  0.22328383004E+04  0.25376206669E+04  0.46999998093E+01 0.  1.
</event>
<event>
 5   0  0.1372952E-07  0.3998702E+04  0.7818609E-02  0.8004808E-01
        1   -1    0    0  501    0  0.00000000000E+00  0.00000000000E+00  0.18058847747E+04  0.18058847747E+04  0.50400001928E-02 0.  1.
       -1   -1    0    0    0  501  0.00000000000E+00  0.00000000000E+00 -0.22135439374E+04  0.22135439374E+04  0.50400001928E-02 0. -1.
    10030    2    1    2    0    0  0.00000000000E+00  0.00000000000E+00 -0.40765916278E+03  0.40194287121E+04  0.39987024369E+04 0.  0.
        1    1    3    3  502    0  0.11683116129E+04 -0.13821865788E+04 -0.10579476543E+04  0.20963408603E+04  0.50400001928E-02 0. -1.
       -1    1    3    3    0  502 -0.11683116129E+04  0.13821865788E+04  0.65028849151E+03  0.19230878518E+04  0.50400001928E-02 0.  1.
</event>
<event>
 5   0  0.1421304E-07  0.2568837E+04  0.7818609E-02  0.8378864E-01
       -1   -1    0    0    0  501  0.00000000000E+00  0.00000000000E+00  0.14603191416E+04  0.14603191416E+04  0.50400001928E-02 0. -1.
        1   -1    0    0  501    0  0.00000000000E+00  0.00000000000E+00 -0.11297053330E+04  0.11297053330E+04  0.50400001928E-02 0.  1.
    10030    2    1    2    0    0  0.00000000000E+00  0.00000000000E+00  0.33061380860E+03  0.25900244746E+04  0.25688365632E+04 0.  0.
        2    1    3    3  502    0 -0.93724873770E+02  0.70563527968E+03 -0.91263467638E+03  0.11574141663E+04  0.25500000920E-02 0.  1.
       -2    1    3    3    0  502  0.93724873770E+02 -0.70563527968E+03  0.12432484850E+04  0.14326103083E+04  0.25500000920E-02 0. -1.
</event>
<event>
 5   0  0.4079777E-07  0.4055539E+04  0.7818609E-02  0.7993435E-01
        2   -1    0    0  501    0  0.00000000000E+00  0.00000000000E+00  0.16079558530E+04  0.16079558530E+04  0.25500000920E-02 0. -1.
       -2   -1    0    0    0  501  0.00000000000E+00  0.00000000000E+00 -0.25571904759E+04  0.25571904759E+04  0.25500000920E-02 0.  1.
    10030    2    1    2    0    0  0.00000000000E+00  0.00000000000E+00 -0.94923462298E+03  0.41651463289E+04  0.40555391222E+04 0.  0.
        4    1    3    3  502    0 -0.53720545904E+03  0.13100597423E+04 -0.19653991575E+04  0.24223215507E+04  0.12699999809E+01 0.  1.
       -4    1    3    3    0  502  0.53720545904E+03 -0.13100597423E+04  0.10161645345E+04  0.17428247782E+04  0.12699999809E+01 0. -1.
</event>
<event>
 5   0  0.4079777E-07  0.3937379E+04  0.7818609E-02  0.8017300E-01
       -2   -1    0    0    0  501  0.00000000000E+00  0.00000000000E+00  0.17944054094E+04  0.17944054094E+04  0.25500000920E-02 0.  1.
        2   -1    0    0  501    0  0.00000000000E+00  0.00000000000E+00 -0.21599012223E+04  0.21599012223E+04  0.25500000920E-02 0. -1.
    10030    2    1    2    0    0  0.00000000000E+00  0.00000000000E+00 -0.36549581296E+03  0.39543066317E+04  0.39373790455E+04 0.  0.
        4    1    3    3  502    0 -0.50095649111E+03 -0.39106492235E+02  0.17289192284E+04  0.18004582847E+04  0.12699999809E+01 0.  1.
       -4    1    3    3    0  502  0.50095649111E+03  0.39106492235E+02 -0.20944150413E+04  0.21538483470E+04  0.12699999809E+01 0. -1.
</event>
<event>
 5   0  0.4149487E-07  0.3879329E+04  0.7818609E-02  0.8029342E-01
        2   -1    0    0  501    0  0.00000000000E+00  0.00000000000E+00  0.20629593917E+04  0.20629593917E+04  0.25500000920E-02 0. -1.
       -2   -1    0    0    0  501  0.00000000000E+00  0.00000000000E+00 -0.18237383771E+04  0.18237383771E+04  0.25500000920E-02 0.  1.
    10030    2    1    2    0    0  0.00000000000E+00  0.00000000000E+00  0.23922101462E+03  0.38866977688E+04  0.38793289177E+04 0.  0.
        2    1    3    3  502    0 -0.99761490742E+03 -0.46242282261E+01  0.17862128575E+04  0.20459260151E+04  0.25500000920E-02 0. -1.
       -2    1    3    3    0  502  0.99761490742E+03  0.46242282261E+01 -0.15469918429E+04  0.18407717536E+04  0.25500000920E-02 0.  1.
</event>
<event>
 5   0  0.4301754E-07  0.2731207E+04  0.7818609E-02  0.8324950E-01
       -2   -1    0    0    0  501  0.00000000000E+00  0.00000000000E+00  0.24110194158E+04  0.24110194158E+04  0.25500000920E-02 0. -1.
        2   -1    0    0  501    0  0.00000000000E+00  0.00000000000E+00 -0.77347898256E+03  0.77347898256E+03  0.25500000920E-02 0.  1.
    10030    2    1    2    0    0  0.00000000000E+00  0.00000000000E+00  0.16375404332E+04  0.31844983984E+04  0.27312069454E+04 0.  0.
        1    1    3    3  502    0  0.10718596266E+04 -0.62713044856E+02  0.18026539126E+04  0.20981842421E+04  0.50400001928E-02 0. -1.
       -1    1    3    3    0  502 -0.10718596266E+04  0.62713044856E+02 -0.16511347932E+03  0.10863141563E+04  0.50400001928E-02 0.  1.
</event>
<event>
 5   0  0.4079777E-07  0.3950433E+04  0.7818609E-02  0.8014621E-01
        2   -1    0    0  501    0  0.00000000000E+00  0.00000000000E+00  0.23344760441E+04  0.23344760441E+04  0.25500000920E-02 0.  1.
       -2   -1    0    0    0  501  0.00000000000E+00  0.00000000000E+00 -0.16712447422E+04  0.16712447422E+04  0.25500000920E-02 0. -1.
    10030    2    1    2    0    0  0.00000000000E+00  0.00000000000E+00  0.66323130190E+03  0.40057207864E+04  0.39504333001E+04 0.  0.
        4    1    3    3  502    0 -0.17887996960E+04  0.50002432026E+03 -0.34983937983E+03  0.18900311843E+04  0.12699999809E+01 0. -1.
       -4    1    3    3    0  502  0.17887996960E+04 -0.50002432026E+03  0.10130706817E+04  0.21156896021E+04  0.12699999809E+01 0.  1.
</event>
<event>
 5   0  0.4077370E-07  0.3179070E+04  0.7818609E-02  0.8194367E-01
       -2   -1    0    0    0  501  0.00000000000E+00  0.00000000000E+00  0.19046922760E+04  0.19046922760E+04  0.25500000920E-02 0.  1.
        2   -1    0    0  501    0  0.00000000000E+00  0.00000000000E+00 -0.13265243875E+04  0.13265243875E+04  0.25500000920E-02 0. -1.
    10030    2    1    2    0    0  0.00000000000E+00  0.00000000000E+00  0.57816788843E+03  0.32312166635E+04  0.31790695210E+04 0.  0.
        3    1    3    3  502    0  0.51060407997E+03  0.14823519360E+04  0.22994001552E+02  0.15679963402E+04  0.10100000352E+00 0. -1.
       -3    1    3    3    0  502 -0.51060407997E+03 -0.14823519360E+04  0.55517388688E+03  0.16632203232E+04  0.10100000352E+00 0.  1.
</event>
<event>
 5   0  0.1351000E-07  0.2581864E+04  0.7818609E-02  0.8374388E-01
       -1   -1    0    0    0  501  0.00000000000E+00  0.00000000000E+00  0.11055612705E+04  0.11055612705E+04  0.50400001928E-02 0.  1.
        1   -1    0    0  501    0  0.00000000000E+00  0.00000000000E+00 -0.15073836702E+04  0.15073836702E+04  0.50400001928E-02 0. -1.
    10030    2    1    2    0    0  0.00000000000E+00  0.00000000000E+00 -0.40182239972E+03  0.26129449407E+04  0.25818636723E+04 0.  0.
        3    1    3    3  502    0  0.10924914226E+04  0.83301719660E+02 -0.89179196503E+03  0.14127170998E+04  0.10100000352E+00 0. -1.
       -3    1    3    3    0  502 -0.10924914226E+04 -0.83301719660E+02  0.48996956531E+03  0.12002278409E+04  0.10100000352E+00 0.  1.
</event>
<event>
 5   0  0.1351000E-07  0.3595971E+04  0.7818609E-02  0.8091415E-01
       -1   -1    0    0    0  501  0.00000000000E+00  0.00000000000E+00  0.15268596736E+04  0.15268596736E+04  0.50400001928E-02 0.  1.
        1   -1    0    0  501    0  0.00000000000E+00  0.00000000000E+00 -0.21172555098E+04  0.21172555098E+04  0.50400001928E-02 0. -1.
    10030    2    1    2    0    0  0.00000000000E+00  0.00000000000E+00 -0.59039583617E+03  0.36441151834E+04  0.35959711103E+04 0.  0.
        3    1    3    3  502    0  0.14686764998E+03 -0.10498520727E+04  0.11764822114E+04  0.15836255507E+04  0.10100000352E+00 0.  1.
       -3    1    3    3    0  502 -0.14686764998E+03  0.10498520727E+04 -0.17668780475E+04  0.20604896326E+04  0.10100000352E+00 0. -1.
</event>
<event>
 5   0  0.1351000E-07  0.3898150E+04  0.7818609E-02  0.8025414E-01
        1   -1    0    0  501    0  0.00000000000E+00  0.00000000000E+00  0.16626803944E+04  0.16626803944E+04  0.50400001928E-02 0.  1.
       -1   -1    0    0    0  501  0.00000000000E+00  0.00000000000E+00 -0.22848009767E+04  0.22848009767E+04  0.50400001928E-02 0. -1.
    10030    2    1    2    0    0  0.00000000000E+00  0.00000000000E+00 -0.62212058230E+03  0.39474813712E+04  0.38981502225E+04 0.  0.
        4    1    3    3  502    0  0.47900278776E+03 -0.47864614872E+03  0.15397302399E+04  0.16820572615E+04  0.12699999809E+01 0.  1.
       -4    1    3    3    0  502 -0.47900278776E+03  0.47864614872E+03 -0.21618508222E+04  0.22654241097E+04  0.12699999809E+01 0. -1.
</event>
<event>
 5   0  0.1372952E-07  0.3105058E+04  0.7818609E-02  0.8214351E-01
       -1   -1    0    0    0  501  0.00000000000E+00  0.00000000000E+00  0.93133264909E+03  0.93133264910E+03  0.50400001928E-02 0.  1.
        1   -1    0    0  501    0  0.00000000000E+00  0.00000000000E+00 -0.25880608280E+04  0.25880608280E+04  0.50400001928E-02 0. -1.
    10030    2    1    2    0    0  0.00000000000E+00  0.00000000000E+00 -0.16567281789E+04  0.35193934771E+04  0.31050575176E+04 0.  0.
        1    1    3    3  502    0  0.88595939628E+03 -0.11993433679E+04 -0.33822936387E+03  0.15289694793E+04  0.50400001928E-02 0.  1.
       -1    1    3    3    0  502 -0.88595939628E+03  0.11993433679E+04 -0.13184988150E+04  0.19904239978E+04  0.50400001928E-02 0. -1.
</event>
<event>
 5   0  0.4301754E-07  0.2753920E+04  0.7818609E-02  0.8317719E-01
        2   -1    0    0  501    0  0.00000000000E+00  0.00000000000E+00  0.16019163666E+04  0.16019163666E+04  0.25500000920E-02 0.  1.
       -2   -1    0    0    0  501  0.00000000000E+00  0.00000000000E+00 -0.11835942761E+04  0.11835942761E+04  0.25500000920E-02 0. -1.
    10030    2    1    2    0    0  0.00000000000E+00  0.00000000000E+00  0.41832209056E+03  0.27855106427E+04  0.27539201458E+04 0.  0.
        1    1    3    3  502    0 -0.70786952062E+03 -0.27108061004E+03  0.13718931995E+04  0.15673719744E+04  0.50400001928E-02 0.  1.
       -1    1    3    3    0  502  0.70786952062E+03  0.27108061004E+03 -0.95357110893E+03  0.12181386683E+04  0.50400001928E-02 0. -1.
</event>
<event>
 5   0  0.4079777E-07  0.4000622E+04  0.7818609E-02  0.8004421E-01
       -2   -1    0    0    0  501  0.00000000000E+00  0.00000000000E+00  0.14923881175E+04  0.14923881175E+04  0.25500000920E-02 0.  1.
        2   -1    0    0  501    0  0.00000000000E+00  0.00000000000E+00 -0.26811018896E+04  0.26811018896E+04  0.25500000920E-02 0. -1.
    10030    2    1    2    0    0  0.00000000000E+00  0.00000000000E+00 -0.11887137721E+04  0.41734900071E+04  0.40006222525E+04 0.  0.
        4    1    3    3  502    0  0.16351812997E+04 -0.86636299181E+03 -0.13866750611E+04  0.23124169292E+04  0.12699999809E+01 0. -1.
       -4    1    3    3    0  502 -0.16351812997E+04  0.86636299181E+03  0.19796128900E+03  0.18610730779E+04  0.12699999809E+01 0.  1.
</event>
<event>
 5   0  0.4149487E-07  0.3761329E+04  0.7818609E-02  0.8054505E-01
        2   -1    0    0  501    0  0.00000000000E+00  0.00000000000E+00  0.14341842683E+04  0.14341842683E+04  0.25500000920E-02 0.  1.
       -2   -1    0    0    0  501  0.00000000000E+00  0.00000000000E+00 -0.24661404340E+04  0.24661404340E+04  0.25500000920E-02 0. -1.
    10030    2    1    2    0    0  0.00000000000E+00  0.00000000000E+00 -0.10319561657E+04  0.39003247024E+04  0.37613294532E+04 0.  0.
        2    1    3    3  502    0  0.20727265407E+03  0.32395231786E+03  0.13929726020E+04  0.14450881382E+04  0.25500000920E-02 0.  1.
       -2    1    3    3    0  502 -0.20727265407E+03 -0.32395231786E+03 -0.24249287677E+04  0.24552365641E+04  0.25500000920E-02 0. -1.
</event>
<event>
 5   0  0.1368865E-07  0.3920778E+04  0.7818609E-02  0.8020722E-01
        1   -1    0    0  501    0  0.00000000000E+00  0.00000000000E+00  0.15980510258E+04  0.15980510258E+04  0.50400001928E-02 0. -1.
       -1   -1    0    0    0  501  0.00000000000E+00  0.00000000000E+00 -0.24048820325E+04  0.24048820325E+04  0.50400001928E-02 0.  1.
    10030    2    1    2    0    0  0.00000000000E+00  0.00000000000E+00 -0.80683100665E+03  0.40029330583E+04  0.39207775755E+04 0.  0.
        5    1    3    3  502    0 -0.12608907654E+04  0.53237337335E+03  0.10295015994E+04  0.17126478226E+04  0.46999998093E+01 0. -1.
       -5    1    3    3    0  502  0.12608907654E+04 -0.53237337335E+03 -0.18363326061E+04  0.22902852358E+04  0.46999998093E+01 0.  1.
</event>
<event>
 5   0  0.1351000E-07  0.2948475E+04  0.7818609E-02  0.8258599E-01
        1   -1    0    0  501    0  0.00000000000E+00  0.00000000000E+00  0.14696319398E+04  0.14696319398E+04  0.50400001928E-02 0.  1.
       -1   -1    0    0    0  501  0.00000000000E+00  0.00000000000E+00 -0.14788572837E+04  0.14788572837E+04  0.50400001928E-02 0. -1.
    10030    2    1    2    0    0  0.00000000000E+00  0.00000000000E+00 -0.92253438815E+01  0.29484892234E+04  0.29484747911E+04 0.  0.
        3    1    3    3  502    0  0.33547288845E+03  0.88624341865E+03  0.11247317920E+04  0.14707110763E+04  0.10100000352E+00 0.  1.
       -3    1    3    3    0  502 -0.33547288845E+03 -0.88624341865E+03 -0.11339571358E+04  0.14777781471E+04  0.10100000352E+00 0. -1.
</event>
<event>
 5   0  0.4301754E-07  0.3346936E+04  0.7818609E-02  0.8151054E-01
        2   -1    0    0  501    0  0.00000000000E+00  0.00000000000E+00  0.17987240393E+04  0.17987240393E+04  0.25500000920E-02 0. -1.
       -2   -1    0    0    0  501  0.00000000000E+00  0.00000000000E+00 -0.15569342469E+04  0.15569342469E+04  0.25500000920E-02 0.  1.
    10030    2    1    2    0    0  0.00000000000E+00  0.00000000000E+00  0.24178979243E+03  0.33556582862E+04  0.33469359466E+04 0.  0.
        1    1    3    3  502    0 -0.13460409058E+04  0.80979271234E+03  0.69937748503E+03  0.17195113328E+04  0.50400001928E-02 0. -1.
       -1    1    3    3    0  502  0.13460409058E+04 -0.80979271234E+03 -0.45758769261E+03  0.16361469535E+04  0.50400001928E-02 0.  1.
</event>
<event>
 5   0  0.1351000E-07  0.4009005E+04  0.7818609E-02  0.8002732E-01
        1   -1    0    0  501    0  0.00000000000E+00  0.00000000000E+00  0.18283053213E+04  0.18283053213E+04  0.50400001928E-02 0.  1.
       -1   -1    0    0    0  501  0.00000000000E+00  0.00000000000E+00 -0.21976803482E+04  0.21976803482E+04  0.50400001928E-02 0. -1.
    10030    2    1    2    0    0  0.00000000000E+00  0.00000000000E+00 -0.36937502687E+03  0.40259856696E+04  0.40090052009E+04 0.  0.
        4    1    3    3  502    0  0.50438178555E+03  0.54132158142E+03 -0.20555325888E+04  0.21846386146E+04  0.12699999809E+01 0. -1.
       -4    1    3    3    0  502 -0.50438178555E+03 -0.54132158142E+03  0.16861575619E+04  0.18413470549E+04  0.12699999809E+01 0.  1.
</event>
<event>
 5   0  0.1351000E-07  0.3718357E+04  0.7818609E-02  0.8063906E-01
       -1   -1    0    0    0  501  0.00000000000E+00  0.00000000000E+00  0.21764603389E+04  0.21764603389E+04  0.50400001928E-02 0. -1.
        1   -1    0    0  501    0  0.00000000000E+00  0.00000000000E+00 -0.15881499576E+04  0.15881499576E+04  0.50400001928E-02 0.  1.
    10030    2    1    2    0    0  0.00000000000E+00  0.00000000000E+00  0.58831038133E+03  0.37646102965E+04  0.37183573766E+04 0.  0.
        3    1    3    3  502    0 -0.12096868762E+04  0.99664399255E+03 -0.71823518238E+03  0.17240949434E+04  0.10100000352E+00 0.  1.
       -3    1    3    3    0  502  0.12096868762E+04 -0.99664399255E+03  0.13065455637E+04  0.20405153532E+04  0.10100000352E+00 0. -1.
</event>
<event>
 5   0  0.1372952E-07  0.2500160E+04  0.7818609E-02  0.8402928E-01
        1   -1    0    0  501    0  0.00000000000E+00  0.00000000000E+00  0.10272133982E+04  0.10272133982E+04  0.50400001928E-02 0. -1.
       -1   -1    0    0    0  501  0.00000000000E+00  0.00000000000E+00 -0.15213003796E+04  0.15213003796E+04  0.50400001928E-02 0.  1.
    10030    2    1    2    0    0  0.00000000000E+00  0.00000000000E+00 -0.49408698138E+03  0.25485137777E+04  0.25001601009E+04 0.  0.
        1    1    3    3  502    0  0.89923197884E+02  0.12374335198E+04 -0.40288002739E+03  0.13044693228E+04  0.50400001928E-02 0. -1.
       -1    1    3    3    0  502 -0.89923197884E+02 -0.12374335198E+04 -0.91206953992E+02  0.12440444550E+04  0.50400001928E-02 0.  1.
</event>
<event>
 5   0  0.1368865E-07  0.3937610E+04  0.7818609E-02  0.8017252E-01
        1   -1    0    0  501    0  0.00000000000E+00  0.00000000000E+00  0.14188091056E+04  0.14188091056E+04  0.50400001928E-02 0.  1.
       -1   -1    0    0    0  501  0.00000000000E+00  0.00000000000E+00 -0.27320048428E+04  0.27320048428E+04  0.50400001928E-02 0. -1.
    10030    2    1    2    0    0  0.00000000000E+00  0.00000000000E+00 -0.13131957371E+04  0.41508139484E+04  0.39376101115E+04 0.  0.
        5    1    3    3  502    0  0.17239863226E+04  0.50425821727E+03 -0.15063241865E+04  0.23442354479E+04  0.46999998093E+01 0. -1.
       -5    1    3    3    0  502 -0.17239863226E+04 -0.50425821727E+03  0.19312844938E+03  0.18065785005E+04  0.46999998093E+01 0.  1.
</event>
<event>
 5   0  0.1351000E-07  0.3938483E+04  0.7818609E-02  0.8017073E-01
       -1   -1    0    0    0  501  0.00000000000E+00  0.00000000000E+00  0.19622228724E+04  0.19622228724E+04  0.50400001928E-02 0.  1.
        1   -1    0    0  501    0  0.00000000000E+00  0.00000000000E+00 -0.19762856922E+04  0.19762856922E+04  0.50400001928E-02 0. -1.
    10030    2    1    2    0    0  0.00000000000E+00  0.00000000000E+00 -0.14062819766E+02  0.39385085646E+04  0.39384834582E+04 0.  0.
        3    1    3    3  502    0  0.17578850268E+04 -0.49101550272E+03 -0.74639867686E+03  0.19718942635E+04  0.10100000352E+00 0. -1.
       -3    1    3    3    0  502 -0.17578850268E+04  0.49101550272E+03  0.73233585709E+03  0.19666143011E+04  0.10100000352E+00 0.  1.
</event>
<event>
 5   0  0.4079777E-07  0.3922271E+04  0.7818609E-02  0.8020413E-01
        2   -1    0    0  501    0  0.00000000000E+00  0.00000000000E+00  0.20769959302E+04  0.20769959302E+04  0.25500000920E-02 0. -1.
       -2   -1    0    0    0  501  0.00000000000E+00  0.00000000000E+00 -0.18517383625E+04  0.18517383625E+04  0.25500000920E-02 0.  1.
    10030    2    1    2    0    0  0.00000000000E+00  0.00000000000E+00  0.22525756770E+03  0.39287342926E+04  0.39222713025E+04 0.  0.
        4    1    3    3  502    0  0.10872663503E+04  0.13359984811E+04  0.10517297212E+04  0.20182113560E+04  0.12699999809E+01 0. -1.
       -4    1    3    3    0  502 -0.10872663503E+04 -0.13359984811E+04 -0.82647215348E+03  0.19105229366E+04  0.12699999809E+01 0.  1.
</event>
<event>
 5   0  0.4301754E-07  0.3499866E+04  0.7818609E-02  0.8113822E-01
        2   -1    0    0  501    0  0.00000000000E+00  0.00000000000E+00  0.18925339849E+04  0.18925339849E+04  0.25500000920E-02 0.  1.
       -2   -1    0    0    0  501  0.00000000000E+00  0.00000000000E+00 -0.16180768368E+04  0.16180768368E+04  0.25500000920E-02 0. -1.
    10030    2    1    2    0    0  0.00000000000E+00  0.00000000000E+00  0.27445714807E+03  0.35106108217E+04  0.34998659424E+04 0.  0.
        1    1    3    3  502    0 -0.10171565707E+04  0.10604569041E+04 -0.81599894227E+03  0.16807827369E+04  0.50400001928E-02 0. -1.
       -1    1    3    3    0  502  0.10171565707E+04 -0.10604569041E+04  0.10904560903E+04  0.18298280848E+04  0.50400001928E-02 0.  1.
</event>
<event>
 5   0  0.1351000E-07  0.2566972E+04  0.7818609E-02  0.8379507E-01
        1   -1    0    0  501    0  0.00000000000E+00  0.00000000000E+00  0.23390917376E+04  0.23390917376E+04  0.50400001928E-02 0.  1.
       -1   -1    0    0    0  501  0.00000000000E+00  0.00000000000E+00 -0.70426326430E+03  0.70426326432E+03  0.50400001928E-02 0. -1.
    10030    2    1    2    0    0  0.00000000000E+00  0.00000000000E+00  0.16348284733E+04  0.30433550019E+04  0.25669720549E+04 0.  0.
        4    1    3    3  502    0 -0.83858764884E+03  0.25113738517E+03 -0.29541413051E+03  0.92388871214E+03  0.12699999809E+01 0. -1.
       -4    1    3    3    0  502  0.83858764884E+03 -0.25113738517E+03  0.19302426038E+04  0.21194662898E+04  0.12699999809E+01 0.  1.
</event>
<event>
 5   0  0.4047916E-07  0.3732625E+04  0.7818609E-02  0.8060770E-01
        2   -1    0    0  501    0  0.00000000000E+00  0.00000000000E+00  0.27493421638E+04  0.27493421638E+04  0.25500000920E-02 0.  1.
       -2   -1    0    0    0  501  0.00000000000E+00  0.00000000000E+00 -0.12668933246E+04  0.12668933246E+04  0.25500000920E-02 0. -1.
    10030    2    1    2    0    0  0.00000000000E+00  0.00000000000E+00  0.14824488392E+04  0.40162354884E+04  0.37326254751E+04 0.  0.
        5    1    3    3  502    0 -0.13405258380E+04 -0.12712398933E+04  0.45646364546E+03  0.19030085492E+04  0.46999998093E+01 0. -1.
       -5    1    3    3    0  502  0.13405258380E+04  0.12712398933E+04  0.10259851938E+04  0.21132269392E+04  0.46999998093E+01 0.  1.
</event>
<event>
 5   0  0.1351000E-07  0.4030110E+04  0.7818609E-02  0.7998500E-01
        1   -1    0    0  501    0  0.00000000000E+00  0.00000000000E+00  0.21159301146E+04  0.21159301146E+04  0.50400001928E-02 0.  1.
       -1   -1    0    0    0  501  0.00000000000E+00  0.00000000000E+00 -0.19189889519E+04  0.19189889519E+04  0.50400001928E-02 0. -1.
    10030    2    1    2    0    0  0.00000000000E+00  0.00000000000E+00  0.19694116263E+03  0.40349190665E+04  0.40301099305E+04 0.  0.
        4    1    3    3  502    0 -0.67668356932E+03 -0.52791885697E+03  0.19237879129E+04  0.21065518078E+04  0.12699999809E+01 0.  1.
       -4    1    3    3    0  502  0.67668356932E+03  0.52791885697E+03 -0.17268467502E+04  0.19283672587E+04  0.12699999809E+01 0. -1.
</event>
<event>
 5   0  0.1372952E-07  0.4024258E+04  0.7818609E-02  0.7999671E-01
       -1   -1    0    0    0  501  0.00000000000E+00  0.00000000000E+00  0.30512989280E+04  0.30512989280E+04  0.50400001928E-02 0. -1.
        1   -1    0    0  501    0  0.00000000000E+00  0.00000000000E+00 -0.13268655641E+04  0.13268655641E+04  0.50400001928E-02 0.  1.
    10030    2    1    2    0    0  0.00000000000E+00  0.00000000000E+00  0.17244333639E+04  0.43781644920E+04  0.40242581792E+04 0.  0.
        1    1    3    3  502    0  0.88179230680E+03 -0.16132579439E+04  0.17517422615E+04  0.25394408473E+04  0.50400001928E-02 0. -1.
       -1    1    3    3    0  502 -0.88179230680E+03  0.16132579439E+04 -0.27308897601E+02  0.18387236448E+04  0.50400001928E-02 0.  1.
</event>
<event>
 5   0  0.1372952E-07  0.3643352E+04  0.7818609E-02  0.8080633E-01
        1   -1    0    0  501    0  0.00000000000E+00  0.00000000000E+00  0.17208393132E+04  0.17208393133E+04  0.50400001928E-02 0. -1.
       -1   -1    0    0    0  501  0.00000000000E+00  0.00000000000E+00 -0.19284211733E+04  0.19284211733E+04  0.50400001928E-02 0.  1.
    10030    2    1    2    0    0  0.00000000000E+00  0.00000000000E+00 -0.20758186007E+03  0.36492604866E+04  0.36433517357E+04 0.  0.
        1    1    3    3  502    0 -0.98939738041E+02 -0.92462517328E+03  0.14652048242E+04  0.17353806382E+04  0.50400001928E-02 0. -1.
       -1    1    3    3    0  502  0.98939738041E+02  0.92462517328E+03 -0.16727866842E+04  0.19138798483E+04  0.50400001928E-02 0.  1.
</event>
<event>
 5   0  0.1351000E-07  0.3984808E+04  0.7818609E-02  0.8007618E-01
       -1   -1    0    0    0  501  0.00000000000E+00  0.00000000000E+00  0.20441368383E+04  0.20441368383E+04  0.50400001928E-02 0.  1.
        1   -1    0    0  501    0  0.00000000000E+00  0.00000000000E+00 -0.19419808885E+04  0.19419808885E+04  0.50400001928E-02 0. -1.
    10030    2    1    2    0    0  0.00000000000E+00  0.00000000000E+00  0.10215594977E+03  0.39861177268E+04  0.39848084890E+04 0.  0.
        3    1    3    3  502    0  0.76994678813E+03  0.15889537731E+04 -0.87230846734E+03  0.19693943795E+04  0.10100000352E+00 0. -1.
       -3    1    3    3    0  502 -0.76994678813E+03 -0.15889537731E+04  0.97446441712E+03  0.20167233474E+04  0.10100000352E+00 0.  1.
</event>
<event>
 5   0  0.4047916E-07  0.3845803E+04  0.7818609E-02  0.8036397E-01
       -2   -1    0    0    0  501  0.00000000000E+00  0.00000000000E+00  0.13616236952E+04  0.13616236952E+04  0.25500000920E-02 0. -1.
        2   -1    0    0  501    0  0.00000000000E+00  0.00000000000E+00 -0.27155442524E+04  0.27155442524E+04  0.25500000920E-02 0.  1.
    10030    2    1    2    0    0  0.00000000000E+00  0.00000000000E+00 -0.13539205572E+04  0.40771679477E+04  0.38458025948E+04 0.  0.
        5    1    3    3  502    0 -0.23937982680E+03  0.97756943369E+03 -0.24140009995E+04  0.26154096457E+04  0.46999998093E+01 0.  1.
       -5    1    3    3    0  502  0.23937982680E+03 -0.97756943369E+03  0.10600804423E+04  0.14617583019E+04  0.46999998093E+01 0. -1.
</event>
<event>
 5   0  0.4301754E-07  0.3739604E+04  0.7818609E-02  0.8059241E-01
        2   -1    0    0  501    0  0.00000000000E+00  0.00000000000E+00  0.17751456368E+04  0.17751456368E+04  0.25500000920E-02 0.  1.
       -2   -1    0    0    0  501  0.00000000000E+00  0.00000000000E+00 -0.19695054065E+04  0.19695054065E+04  0.25500000920E-02 0. -1.
    10030    2    1    2    0    0  0.00000000000E+00  0.00000000000E+00 -0.19435976967E+03  0.37446510433E+04  0.37396036843E+04 0.  0.
        1    1    3    3  502    0  0.17668099071E+03  0.12233655022E+04  0.13076818482E+04  0.17994085530E+04  0.50400001928E-02 0.  1.
       -1    1    3    3    0  502 -0.17668099071E+03 -0.12233655022E+04 -0.15020416178E+04  0.19452424903E+04  0.50400001928E-02 0. -1.
</event>
<event>
 5   0  0.1351000E-07  0.2935602E+04  0.7818609E-02  0.8262363E-01
        1   -1    0    0  501    0  0.00000000000E+00  0.00000000000E+00  0.14607092926E+04  0.14607092926E+04  0.50400001928E-02 0. -1.
       -1   -1    0    0    0  501  0.00000000000E+00  0.00000000000E+00 -0.14749274407E+04  0.14749274407E+04  0.50400001928E-02 0.  1.
    10030    2    1    2    0    0  0.00000000000E+00  0.00000000000E+00 -0.14218148124E+02  0.29356367333E+04  0.29356023018E+04 0.  0.
        4    1    3    3  502    0  0.49289126159E+03 -0.65332787178E+03  0.12113712619E+04  0.14619169097E+04  0.12699999809E+01 0. -1.
       -4    1    3    3    0  502 -0.49289126159E+03  0.65332787178E+03 -0.12255894100E+04  0.14737198236E+04  0.12699999809E+01 0.  1.
</event>
<event>
 5   0  0.1351000E-07  0.4104372E+04  0.7818609E-02  0.7983816E-01
       -1   -1    0    0    0  501  0.00000000000E+00  0.00000000000E+00  0.30698553678E+04  0.30698553678E+04  0.50400001928E-02 0. -1.
        1   -1    0    0  501    0  0.00000000000E+00  0.00000000000E+00 -0.13718777855E+04  0.13718777855E+04  0.50400001928E-02 0.  1.
    10030    2    1    2    0    0  0.00000000000E+00  0.00000000000E+00  0.16979775823E+04  0.44417331533E+04  0.41043715152E+04 0.  0.
        3    1    3    3  502    0  0.13330279166E+04  0.15535665864E+04  0.10055664958E+04  0.22807228137E+04  0.10100000352E+00 0. -1.
       -3    1    3    3    0  502 -0.13330279166E+04 -0.15535665864E+04  0.69241108647E+03  0.21610103396E+04  0.10100000352E+00 0.  1.
</event>
<event>
 5   0  0.4047916E-07  0.4016876E+04  0.7818609E-02  0.8001151E-01
       -2   -1    0    0    0  501  0.00000000000E+00  0.00000000000E+00  0.20107229653E+04  0.20107229653E+04  0.25500000920E-02 0.  1.
        2   -1    0    0  501    0  0.00000000000E+00  0.00000000000E+00 -0.20061552492E+04  0.20061552492E+04  0.25500000920E-02 0. -1.
    10030    2    1    2    0    0  0.00000000000E+00  0.00000000000E+00  0.45677160603E+01  0.40168782145E+04  0.40168756174E+04 0.  0.
        5    1    3    3  502    0  0.48014241290E+02 -0.68113381461E+02 -0.20044200933E+04  0.20061572223E+04  0.46999998093E+01 0. -1.
       -5    1    3    3    0  502 -0.48014241290E+02  0.68113381461E+02  0.20089878094E+04  0.20107209922E+04  0.46999998093E+01 0.  1.
</event>
<event>
 5   0  0.1351000E-07  0.3914385E+04  0.7818609E-02  0.8022044E-01
       -1   -1    0    0    0  501  0.00000000000E+00  0.00000000000E+00  0.15355951159E+04  0.15355951159E+04  0.50400001928E-02 0. -1.
        1   -1    0    0  501    0  0.00000000000E+00  0.00000000000E+00 -0.24945388244E+04  0.24945388244E+04  0.50400001928E-02 0.  1.
    10030    2    1    2    0    0  0.00000000000E+00  0.00000000000E+00 -0.95894370850E+03  0.40301339403E+04  0.39143845673E+04 0.  0.
        3    1    3    3  502    0  0.11499366567E+04 -0.62682704794E+03 -0.19768985929E+04  0.23713697559E+04  0.10100000352E+00 0.  1.
       -3    1    3    3    0  502 -0.11499366567E+04  0.62682704794E+03  0.10179548844E+04  0.16587641844E+04  0.10100000352E+00 0. -1.
</event>
<event>
 5   0  0.1351000E-07  0.3989097E+04  0.7818609E-02  0.8006750E-01
        1   -1    0    0  501    0  0.00000000000E+00  0.00000000000E+00  0.16555192941E+04  0.16555192941E+04  0.50400001928E-02 0. -1.
       -1   -1    0    0    0  501  0.00000000000E+00  0.00000000000E+00 -0.24030062139E+04  0.24030062139E+04  0.50400001928E-02 0.  1.
    10030    2    1    2    0    0  0.00000000000E+00  0.00000000000E+00 -0.74748691978E+03  0.40585255080E+04  0.39890967153E+04 0.  0.
        3    1    3    3  502    0  0.21625264887E+03 -0.15216290913E+04  0.91964270440E+03  0.17910508127E+04  0.10100000352E+00 0. -1.
       -3    1    3    3    0  502 -0.21625264887E+03  0.15216290913E+04 -0.16671296242E+04  0.22674746953E+04  0.10100000352E+00 0.  1.
</event>
<event>
 5   0  0.4079777E-07  0.3938574E+04  0.7818609E-02  0.8017054E-01
        2   -1    0    0  501    0  0.00000000000E+00  0.00000000000E+00  0.21350547114E+04  0.21350547114E+04  0.25500000920E-02 0.  1.
       -2   -1    0    0    0  501  0.00000000000E+00  0.00000000000E+00 -0.18163896782E+04  0.18163896782E+04  0.25500000920E-02 0. -1.
    10030    2    1    2    0    0  0.00000000000E+00  0.00000000000E+00  0.31866503313E+03  0.39514443896E+04  0.39385740263E+04 0.  0.
        4    1    3    3  502    0  0.88306071449E+03  0.71139134511E+03  0.17746297273E+04  0.21059881655E+04  0.12699999809E+01 0.  1.
       -4    1    3    3    0  502 -0.88306071449E+03 -0.71139134511E+03 -0.14559646942E+04  0.18454562241E+04  0.12699999809E+01 0. -1.
</event>
<event>
 5   0  0.4149487E-07  0.4017617E+04  0.7818609E-02  0.8001002E-01
        2   -1    0    0  501    0  0.00000000000E+00  0.00000000000E+00  0.26208417549E+04  0.26208417549E+04  0.25500000920E-02 0.  1.
       -2   -1    0    0    0  501  0.00000000000E+00  0.00000000000E+00 -0.15397007627E+04  0.15397007627E+04  0.25500000920E-02 0. -1.
    10030    2    1    2    0    0  0.00000000000E+00  0.00000000000E+00  0.10811409922E+04  0.41605425177E+04  0.40176172287E+04 0.  0.
        2    1    3    3  502    0 -0.42314458945E+03 -0.13634270945E+04 -0.92297430679E+03  0.16999606927E+04  0.25500000920E-02 0. -1.
       -2    1    3    3    0  502  0.42314458945E+03  0.13634270945E+04  0.20041152990E+04  0.24605818250E+04  0.25500000920E-02 0.  1.
</event>
<event>
 5   0  0.1421304E-07  0.2818039E+04  0.7818609E-02  0.8297690E-01
       -1   -1    0    0    0  501  0.00000000000E+00  0.00000000000E+00  0.11481818351E+04  0.11481818351E+04  0.50400001928E-02 0.  1.
        1   -1    0    0  501    0  0.00000000000E+00  0.00000000000E+00 -0.17291124651E+04  0.17291124651E+04  0.50400001928E-02 0. -1.
    10030    2    1    2    0    0  0.00000000000E+00  0.00000000000E+00 -0.58093062997E+03  0.28772943002E+04  0.28180386962E+04 0.  0.
        2    1    3    3  502    0 -0.39923071057E+03  0.40284081349E+03  0.10264895136E+04  0.11727517226E+04  0.25500000920E-02 0.  1.
       -2    1    3    3    0  502  0.39923071057E+03 -0.40284081349E+03 -0.16074201435E+04  0.17045425777E+04  0.25500000920E-02 0. -1.
</event>
<event>
 5   0  0.4149487E-07  0.3977276E+04  0.7818609E-02  0.8009146E-01
       -2   -1    0    0    0  501  0.00000000000E+00  0.00000000000E+00  0.18579110990E+04  0.18579110990E+04  0.25500000920E-02 0.  1.
        2   -1    0    0  501    0  0.00000000000E+00  0.00000000000E+00 -0.21285634404E+04  0.21285634404E+04  0.25500000920E-02 0. -1.
    10030    2    1    2    0    0  0.00000000000E+00  0.00000000000E+00 -0.27065234135E+03  0.39864745394E+04  0.39772762745E+04 0.  0.
        2    1    3    3  502    0  0.14746119316E+04 -0.10160037302E+04 -0.10021601977E+04  0.20520889334E+04  0.25500000920E-02 0.  1.
       -2    1    3    3    0  502 -0.14746119316E+04  0.10160037302E+04  0.73150785637E+03  0.19343856060E+04  0.25500000920E-02 0. -1.
</event>
<event>
 5   0  0.1421304E-07  0.2741475E+04  0.7818609E-02  0.8321672E-01
        1   -1    0    0  501    0  0.00000000000E+00  0.00000000000E+00  0.20308429282E+04  0.20308429282E+04  0.50400001928E-02 0. -1.
       -1   -1    0    0    0  501  0.00000000000E+00  0.00000000000E+00 -0.92519268702E+03  0.92519268704E+03  0.50400001928E-02 0.  1.
    10030    2    1    2    0    0  0.00000000000E+00  0.00000000000E+00  0.11056502412E+04  0.29560356153E+04  0.27414748043E+04 0.  0.
        2    1    3    3  502    0 -0.88588270367E+03  0.85277137681E+03 -0.10031663646E+03  0.12337222594E+04  0.25500000920E-02 0. -1.
       -2    1    3    3    0  502  0.88588270367E+03 -0.85277137681E+03  0.12059668776E+04  0.17223133559E+04  0.25500000920E-02 0.  1.
</event>
<event>
 5   0  0.1372952E-07  0.3994683E+04  0.7818609E-02  0.8005620E-01
        1   -1    0    0  501    0  0.00000000000E+00  0.00000000000E+00  0.19219363612E+04  0.19219363612E+04  0.50400001928E-02 0.  1.
       -1   -1    0    0    0  501  0.00000000000E+00  0.00000000000E+00 -0.20757046681E+04  0.20757046681E+04  0.50400001928E-02 0. -1.
    10030    2    1    2    0    0  0.00000000000E+00  0.00000000000E+00 -0.15376830697E+03  0.39976410293E+04  0.39946826040E+04 0.  0.
        1    1    3    3  502    0  0.76767764477E+03 -0.41586216076E+03 -0.18746282031E+04  0.20679703100E+04  0.50400001928E-02 0. -1.
       -1    1    3    3    0  502 -0.76767764477E+03  0.41586216076E+03  0.17208598961E+04  0.19296707194E+04  0.50400001928E-02 0.  1.
</event>
<event>
 5   0  0.4149487E-07  0.3959433E+04  0.7818609E-02  0.8012781E-01
       -2   -1    0    0    0  501  0.00000000000E+00  0.00000000000E+00  0.13908948321E+04  0.13908948321E+04  0.25500000920E-02 0. -1.
        2   -1    0    0  501    0  0.00000000000E+00  0.00000000000E+00 -0.28178100981E+04  0.28178100981E+04  0.25500000920E-02 0.  1.
    10030    2    1    2    0    0  0.00000000000E+00  0.00000000000E+00 -0.14269152660E+04  0.42087049302E+04  0.39594330419E+04 0.  0.
        2    1    3    3  502    0  0.16309522503E+04  0.10424256108E+04 -0.11550915543E+04  0.22540836044E+04  0.25500000920E-02 0.  1.
       -2    1    3    3    0  502 -0.16309522503E+04 -0.10424256108E+04 -0.27182371173E+03  0.19546213258E+04  0.25500000920E-02 0. -1.
</event>
<event>
 5   0  0.4079777E-07  0.2960400E+04  0.7818609E-02  0.8255130E-01
       -2   -1    0    0    0  501  0.00000000000E+00  0.00000000000E+00  0.12134273038E+04  0.12134273038E+04  0.25500000920E-02 0. -1.
        2   -1    0    0  501    0  0.00000000000E+00  0.00000000000E+00 -0.18056230888E+04  0.18056230888E+04  0.25500000920E-02 0.  1.
    10030    2    1    2    0    0  0.00000000000E+00  0.00000000000E+00 -0.59219578499E+03  0.30190503926E+04  0.29604002137E+04 0.  0.
        4    1    3    3  502    0 -0.11791102736E+04  0.40024490008E+03  0.52006599588E+03  0.13494322029E+04  0.12699999809E+01 0. -1.
       -4    1    3    3    0  502  0.11791102736E+04 -0.40024490008E+03 -0.11122617809E+04  0.16696181897E+04  0.12699999809E+01 0.  1.
</event>
<event>
 5   0  0.4301754E-07  0.3812794E+04  0.7818609E-02  0.8043415E-01
        2   -1    0    0  501    0  0.00000000000E+00  0.00000000000E+00  0.12661323662E+04  0.12661323662E+04  0.25500000920E-02 0.  1.
       -2   -1    0    0    0  501  0.00000000000E+00  0.00000000000E+00 -0.28704348114E+04  0.28704348114E+04  0.25500000920E-02 0. -1.
    10030    2    1    2    0    0  0.00000000000E+00  0.00000000000E+00 -0.16043024452E+04  0.41365671777E+04  0.38127944712E+04 0.  0.
        1    1    3    3  502    0 -0.15913199054E+04  0.51513022131E+03  0.19023232413E+03  0.16834032564E+04  0.50400001928E-02 0.  1.
       -1    1    3    3    0  502  0.15913199054E+04 -0.51513022131E+03 -0.17945347693E+04  0.24531639213E+04  0.50400001928E-02 0. -1.
</event>
<event>
 5   0  0.4301754E-07  0.2755038E+04  0.7818609E-02  0.8317365E-01
       -2   -1    0    0    0  501  0.00000000000E+00  0.00000000000E+00  0.82880563256E+03  0.82880563256E+03  0.25500000920E-02 0.  1.
        2   -1    0    0  501    0  0.00000000000E+00  0.00000000000E+00 -0.22895095302E+04  0.22895095302E+04  0.25500000920E-02 0. -1.
    10030    2    1    2    0    0  0.00000000000E+00  0.00000000000E+00 -0.14607038976E+04  0.31183151627E+04  0.27550378541E+04 0.  0.
        1    1    3    3  502    0  0.22740203698E+02 -0.11304247568E+04  0.16028620971E+03  0.11419583691E+04  0.50400001928E-02 0.  1.
       -1    1    3    3    0  502 -0.22740203698E+02  0.11304247568E+04 -0.16209901073E+04  0.19763567936E+04  0.50400001928E-02 0. -1.
</event>
<event>
 5   0  0.1421304E-07  0.3921859E+04  0.7818609E-02  0.8020498E-01
        1   -1    0    0  501    0  0.00000000000E+00  0.00000000000E+00  0.18347266913E+04  0.18347266913E+04  0.50400001928E-02 0.  1.
       -1   -1    0    0    0  501  0.00000000000E+00  0.00000000000E+00 -0.20958137284E+04  0.20958137284E+04  0.50400001928E-02 0. -1.
    10030    2    1    2    0    0  0.00000000000E+00  0.00000000000E+00 -0.26108703714E+03  0.39305404197E+04  0.39218594505E+04 0.  0.
        2    1    3    3  502    0 -0.16928256807E+04 -0.60208531265E+03 -0.91782662742E+03  0.20175656686E+04  0.25500000920E-02 0. -1.
       -2    1    3    3    0  502  0.16928256807E+04  0.60208531265E+03  0.65673959028E+03  0.19129747511E+04  0.25500000920E-02 0.  1.
</event>
<event>
 5   0  0.4047916E-07  0.4107798E+04  0.7818609E-02  0.7983146E-01
       -2   -1    0    0    0  501  0.00000000000E+00  0.00000000000E+00  0.28413831075E+04  0.28413831075E+04  0.25500000920E-02 0. -1.
        2   -1    0    0  501    0  0.00000000000E+00  0.00000000000E+00 -0.14846648920E+04  0.14846648920E+04  0.25500000920E-02 0.  1.
    10030    2    1    2    0    0  0.00000000000E+00  0.00000000000E+00  0.13567182155E+04  0.43260479995E+04  0.41077983127E+04 0.  0.
        5    1    3    3  502    0  0.11392787664E+04  0.89471822790E+03  0.22117413976E+04  0.26439173426E+04  0.46999998093E+01 0.  1.
       -5    1    3    3    0  502 -0.11392787664E+04 -0.89471822790E+03 -0.85502318213E+03  0.16821306569E+04  0.46999998093E+01 0. -1.
</event>
<event>
 5   0  0.4301754E-07  0.3803244E+04  0.7818609E-02  0.8045459E-01
       -2   -1    0    0    0  501  0.00000000000E+00  0.00000000000E+00  0.12452850148E+04  0.12452850148E+04  0.25500000920E-02 0. -1.
        2   -1    0    0  501    0  0.00000000000E+00  0.00000000000E+00 -0.29038860957E+04  0.29038860957E+04  0.25500000920E-02 0.  1.
    10030    2    1    2    0    0  0.00000000000E+00  0.00000000000E+00 -0.16586010809E+04  0.41491711104E+04  0.38032437942E+04 0.  0.
        1    1    3    3  502    0 -0.54724901225E+03  0.14389162541E+04 -0.20471730159E+04  0.25614212509E+04  0.50400001928E-02 0.  1.
       -1    1    3    3    0  502  0.54724901225E+03 -0.14389162541E+04  0.38857193501E+03  0.15877498595E+04  0.50400001928E-02 0. -1.
</event>
<event>
 5   0  0.4047916E-07  0.3096636E+04  0.7818609E-02  0.8216662E-01
        2   -1    0    0  501    0  0.00000000000E+00  0.00000000000E+00  0.10659972477E+04  0.10659972477E+04  0.25500000920E-02 0.  1.
       -2   -1    0    0    0  501  0.00000000000E+00  0.00000000000E+00 -0.22488698374E+04  0.22488698374E+04  0.25500000920E-02 0. -1.
    10030    2    1    2    0    0  0.00000000000E+00  0.00000000000E+00 -0.11828725897E+04  0.33148670850E+04  0.30966362764E+04 0.  0.
        5    1    3    3  502    0  0.14254842635E+03 -0.41775012744E+03 -0.21800823593E+04  0.22243238088E+04  0.46999998093E+01 0. -1.
       -5    1    3    3    0  502 -0.14254842635E+03  0.41775012744E+03  0.99720976962E+03  0.10905432763E+04  0.46999998093E+01 0.  1.
</event>
<event>
 5   0  0.4079777E-07  0.4025977E+04  0.7818609E-02  0.7999327E-01
        2   -1    0    0  501    0  0.00000000000E+00  0.00000000000E+00  0.23141685392E+04  0.23141685392E+04  0.25500000920E-02 0.  1.
       -2   -1    0    0    0  501  0.00000000000E+00  0.00000000000E+00 -0.17510058419E+04  0.17510058419E+04  0.25500000920E-02 0. -1.
    10030    2    1    2    0    0  0.00000000000E+00  0.00000000000E+00  0.56316269728E+03  0.40651743810E+04  0.40259769652E+04 0.  0.
        4    1    3    3  502    0 -0.40930385346E+03  0.79043280634E+03 -0.15414908226E+04  0.17800306837E+04  0.12699999809E+01 0. -1.
       -4    1    3    3    0  502  0.40930385346E+03 -0.79043280634E+03  0.21046535199E+04  0.22851436973E+04  0.12699999809E+01 0.  1.
</event>
<event>
 5   0  0.1372952E-07  0.3510625E+04  0.7818609E-02  0.8111277E-01
       -1   -1    0    0    0  501  0.00000000000E+00  0.00000000000E+00  0.14639372666E+04  0.14639372666E+04  0.50400001928E-02 0.  1.
        1   -1    0    0  501    0  0.00000000000E+00  0.00000000000E+00 -0.21046816634E+04  0.21046816634E+04  0.50400001928E-02 0. -1.
    10030    2    1    2    0    0  0.00000000000E+00  0.00000000000E+00 -0.64074439684E+03  0.35686189301E+04  0.35106249708E+04 0.  0.
        1    1    3    3  502    0  0.33691818839E+02  0.36031028054E+03  0.14256057898E+04  0.14708196711E+04  0.50400001928E-02 0.  1.
       -1    1    3    3    0  502 -0.33691818839E+02 -0.36031028054E+03 -0.20663501867E+04  0.20977992590E+04  0.50400001928E-02 0. -1.
</event>
<event>
 5   0  0.4077370E-07  0.2626300E+04  0.7818609E-02  0.8359322E-01
       -2   -1    0    0    0  501  0.00000000000E+00  0.00000000000E+00  0.81069710614E+03  0.81069710615E+03  0.25500000920E-02 0. -1.
        2   -1    0    0  501    0  0.00000000000E+00  0.00000000000E+00 -0.21270122562E+04  0.21270122562E+04  0.25500000920E-02 0.  1.
    10030    2    1    2    0    0  0.00000000000E+00  0.00000000000E+00 -0.13163151501E+04  0.29377093624E+04  0.26262998160E+04 0.  0.
        3    1    3    3  502    0 -0.13097256812E+04 -0.60826690731E+02 -0.73944812391E+03  0.15052789723E+04  0.10100000352E+00 0. -1.
       -3    1    3    3    0  502  0.13097256812E+04  0.60826690731E+02 -0.57686702616E+03  0.14324303901E+04  0.10100000352E+00 0.  1.
</event>
<event>
 5   0  0.4301754E-07  0.3675464E+04  0.7818609E-02  0.8073421E-01
       -2   -1    0    0    0  501  0.00000000000E+00  0.00000000000E+00  0.14719454140E+04  0.14719454140E+04  0.25500000920E-02 0. -1.
        2   -1    0    0  501    0  0.00000000000E+00  0.00000000000E+00 -0.22944185481E+04  0.22944185481E+04  0.25500000920E-02 0.  1.
    10030    2    1    2    0    0  0.00000000000E+00  0.00000000000E+00 -0.82247313411E+03  0.37663639620E+04  0.36754639759E+04 0.  0.
        1    1    3    3  502    0  0.81222963138E+03 -0.14257045304E+04  0.43682305504E+03  0.16979884463E+04  0.50400001928E-02 0. -1.
       -1    1    3    3    0  502 -0.81222963138E+03  0.14257045304E+04 -0.12592961892E+04  0.20683755158E+04  0.50400001928E-02 0.  1.
</event>
<event>
 5   0  0.1351000E-07  0.3757664E+04  0.7818609E-02  0.8055302E-01
       -1   -1    0    0    0  501  0.00000000000E+00  0.00000000000E+00  0.16046908465E+04  0.16046908465E+04  0.50400001928E-02 0.  1.
        1   -1    0    0  501    0  0.00000000000E+00  0.00000000000E+00 -0.21998067988E+04  0.21998067988E+04  0.50400001928E-02 0. -1.
    10030    2    1    2    0    0  0.00000000000E+00  0.00000000000E+00 -0.59511595222E+03  0.38044976453E+04  0.37576640798E+04 0.  0.
        4    1    3    3  502    0 -0.94194213433E+03  0.89802339898E+03 -0.16695514205E+04  0.21168619625E+04  0.12699999809E+01 0. -1.
       -4    1    3    3    0  502  0.94194213433E+03 -0.89802339898E+03  0.10744354683E+04  0.16876356828E+04  0.12699999809E+01 0.  1.
</event>
<event>
 5   0  0.4077370E-07  0.3913607E+04  0.7818609E-02  0.8022205E-01
       -2   -1    0    0    0  501  0.00000000000E+00  0.00000000000E+00  0.13422221743E+04  0.13422221743E+04  0.25500000920E-02 0. -1.
        2   -1    0    0  501    0  0.00000000000E+00  0.00000000000E+00 -0.28527907197E+04  0.28527907197E+04  0.25500000920E-02 0.  1.
    10030    2    1    2    0    0  0.00000000000E+00  0.00000000000E+00 -0.15105685454E+04  0.41950128940E+04  0.39136065017E+04 0.  0.
        3    1    3    3  502    0 -0.66165825999E+03 -0.99339938453E+03 -0.24174088199E+04  0.26960154678E+04  0.10100000352E+00 0.  1.
       -3    1    3    3    0  502  0.66165825999E+03  0.99339938453E+03  0.90684027444E+03  0.14989974262E+04  0.10100000352E+00 0. -1.
</event>
<event>
 5   0  0.4301754E-07  0.3854363E+04  0.7818609E-02  0.8034588E-01
        2   -1    0    0  501    0  0.00000000000E+00  0.00000000000E+00  0.25222530774E+04  0.25222530774E+04  0.25500000920E-02 0.  1.
       -2   -1    0    0    0  501  0.00000000000E+00  0.00000000000E+00 -0.14725044060E+04  0.14725044060E+04  0.25500000920E-02 0. -1.
    10030    2    1    2    0    0  0.00000000000E+00  0.00000000000E+00  0.10497486714E+04  0.39947574835E+04  0.38543631223E+04 0.  0.
        1    1    3    3  502    0 -0.99274044424E+03 -0.45703595068E+03 -0.11202727760E+04  0.15650643893E+04  0.50400001928E-02 0. -1.
       -1    1    3    3    0  502  0.99274044424E+03  0.45703595068E+03  0.21700214474E+04  0.24296930942E+04  0.50400001928E-02 0.  1.
</event>
<event>
 5   0  0.1421304E-07  0.3883963E+04  0.7818609E-02  0.8028373E-01
       -1   -1    0    0    0  501  0.00000000000E+00  0.00000000000E+00  0.17408489289E+04  0.17408489289E+04  0.50400001928E-02 0. -1.
        1   -1    0    0  501    0  0.00000000000E+00  0.00000000000E+00 -0.21663521419E+04  0.21663521419E+04  0.50400001928E-02 0.  1.
    10030    2    1    2    0    0  0.00000000000E+00  0.00000000000E+00 -0.42550321308E+03  0.39072010708E+04  0.38839628247E+04 0.  0.
        2    1    3    3  502    0  0.10686687462E+04  0.34682944062E+03 -0.18061946671E+04  0.21271301618E+04  0.25500000920E-02 0.  1.
       -2    1    3    3    0  502 -0.10686687462E+04 -0.34682944062E+03  0.13806914540E+04  0.17800709090E+04  0.25500000920E-02 0. -1.
</event>
<event>
 5   0  0.4047916E-07  0.3993221E+04  0.7818609E-02  0.8005916E-01
        2   -1    0    0  501    0  0.00000000000E+00  0.00000000000E+00  0.15253186901E+04  0.15253186901E+04  0.25500000920E-02 0.  1.
       -2   -1    0    0    0  501  0.00000000000E+00  0.00000000000E+00 -0.26135215700E+04  0.26135215700E+04  0.25500000920E-02 0. -1.
    10030    2    1    2    0    0  0.00000000000E+00  0.00000000000E+00 -0.10882028800E+04  0.41388402601E+04  0.39932209043E+04 0.  0.
        5    1    3    3  502    0 -0.36274761488E+03 -0.19616753750E+04 -0.45942079125E+03  0.20471555052E+04  0.46999998093E+01 0.  1.
       -5    1    3    3    0  502  0.36274761488E+03  0.19616753750E+04 -0.62878208874E+03  0.20916847549E+04  0.46999998093E+01 0. -1.
</event>
<event>
 5   0  0.1372952E-07  0.3532194E+04  0.7818609E-02  0.8106203E-01
        1   -1    0    0  501    0  0.00000000000E+00  0.00000000000E+00  0.19707486081E+04  0.19707486081E+04  0.50400001928E-02 0.  1.
       -1   -1    0    0    0  501  0.00000000000E+00  0.00000000000E+00 -0.15826970405E+04  0.15826970405E+04  0.50400001928E-02 0. -1.
    10030    2    1    2    0    0  0.00000000000E+00  0.00000000000E+00  0.38805156760E+03  0.35534456485E+04  0.35321936467E+04 0.  0.
        1    1    3    3  502    0  0.16619292537E+04  0.58337976723E+03  0.32425421200E+03  0.17909443295E+04  0.50400001928E-02 0. -1.
       -1    1    3    3    0  502 -0.16619292537E+04 -0.58337976723E+03  0.63797355595E+02  0.17625013191E+04  0.50400001928E-02 0.  1.
</event>
<event>
 5   0  0.4301754E-07  0.4329800E+04  0.7818609E-02  0.7941131E-01
       -2   -1    0    0    0  501  0.00000000000E+00  0.00000000000E+00  0.20245861874E+04  0.20245861874E+04  0.25500000920E-02 0.  1.
        2   -1    0    0  501    0  0.00000000000E+00  0.00000000000E+00 -0.23149383806E+04  0.23149383806E+04  0.25500000920E-02 0. -1.
    10030    2    1    2    0    0  0.00000000000E+00  0.00000000000E+00 -0.29035219321E+03  0.43395245680E+04  0.43298001201E+04 0.  0.
        1    1    3    3  502    0  0.46022440144E+03 -0.17618606619E+04  0.10282791837E+04  0.20912478502E+04  0.50400001928E-02 0.  1.
       -1    1    3    3    0  502 -0.46022440144E+03  0.17618606619E+04 -0.13186313769E+04  0.22482767177E+04  0.50400001928E-02 0. -1.
</event>
<event>
 5   0  0.4149487E-07  0.3976003E+04  0.7818609E-02  0.8009405E-01
       -2   -1    0    0    0  501  0.00000000000E+00  0.00000000000E+00  0.18923201629E+04  0.18923201629E+04  0.25500000920E-02 0. -1.
        2   -1    0    0  501    0  0.00000000000E+00  0.00000000000E+00 -0.20885207273E+04  0.20885207273E+04  0.25500000920E-02 0.  1.
    10030    2    1    2    0    0  0.00000000000E+00  0.00000000000E+00 -0.19620056444E+03  0.39808408903E+04  0.39760029593E+04 0.  0.
        2    1    3    3  502    0  0.96135449798E+03 -0.43559987857E+03  0.15886454914E+04  0.19072871369E+04  0.25500000920E-02 0. -1.
       -2    1    3    3    0  502 -0.96135449798E+03  0.43559987857E+03 -0.17848460559E+04  0.20735537534E+04  0.25500000920E-02 0.  1.
</event>
<event>
 5   0  0.1368865E-07  0.4025062E+04  0.7818609E-02  0.7999510E-01
        1   -1    0    0  501    0  0.00000000000E+00  0.00000000000E+00  0.15346229253E+04  0.15346229253E+04  0.50400001928E-02 0. -1.
       -1   -1    0    0    0  501  0.00000000000E+00  0.00000000000E+00 -0.26392679952E+04  0.26392679952E+04  0.50400001928E-02 0.  1.
    10030    2    1    2    0    0  0.00000000000E+00  0.00000000000E+00 -0.11046450699E+04  0.41738909205E+04  0.40250620723E+04 0.  0.
        5    1    3    3  502    0 -0.57070051195E+03  0.23712038948E+03  0.14337858467E+04  0.15613100582E+04  0.46999998093E+01 0. -1.
       -5    1    3    3    0  502  0.57070051195E+03 -0.23712038948E+03 -0.25384309166E+04  0.26125808623E+04  0.46999998093E+01 0.  1.
</event>
<event>
 5   0  0.1351000E-07  0.4041480E+04  0.7818609E-02  0.7996231E-01
        1   -1    0    0  501    0  0.00000000000E+00  0.00000000000E+00  0.22087702248E+04  0.22087702248E+04  0.50400001928E-02 0. -1.
       -1   -1    0    0    0  501  0.00000000000E+00  0.00000000000E+00 -0.18487169552E+04  0.18487169552E+04  0.50400001928E-02 0.  1.
    10030    2    1    2    0    0  0.00000000000E+00  0.00000000000E+00  0.36005326961E+03  0.40574871799E+04  0.40414804043E+04 0.  0.
        3    1    3    3  502    0 -0.16441075342E+04  0.58223667011E+03 -0.84445692800E+03  0.19378329746E+04  0.10100000352E+00 0.  1.
       -3    1    3    3    0  502  0.16441075342E+04 -0.58223667011E+03  0.12045101976E+04  0.21196542053E+04  0.10100000352E+00 0. -1.
</event>
<event>
 5   0  0.4301754E-07  0.3898296E+04  0.7818609E-02  0.8025384E-01
        2   -1    0    0  501    0  0.00000000000E+00  0.00000000000E+00  0.15884903392E+04  0.15884903392E+04  0.25500000920E-02 0. -1.
       -2   -1    0    0    0  501  0.00000000000E+00  0.00000000000E+00 -0.23916913459E+04  0.23916913459E+04  0.25500000920E-02 0.  1.
    10030    2    1    2    0    0  0.00000000000E+00  0.00000000000E+00 -0.80320100673E+03  0.39801816852E+04  0.38982963445E+04 0.  0.
        1    1    3    3  502    0  0.59291984794E+03 -0.96083718665E+02 -0.22948409593E+04  0.23721469296E+04  0.50400001928E-02 0.  1.
       -1    1    3    3    0  502 -0.59291984794E+03  0.96083718665E+02  0.14916399526E+04  0.16080347556E+04  0.50400001928E-02 0. -1.
</event>
<event>
 5   0  0.4047916E-07  0.3938877E+04  0.7818609E-02  0.8016992E-01
       -2   -1    0    0    0  501  0.00000000000E+00  0.00000000000E+00  0.27549627439E+04  0.27549627439E+04  0.25500000920E-02 0.  1.
        2   -1    0    0  501    0  0.00000000000E+00  0.00000000000E+00 -0.14078914496E+04  0.14078914496E+04  0.25500000920E-02 0. -1.
    10030    2    1    2    0    0  0.00000000000E+00  0.00000000000E+00  0.13470712944E+04  0.41628541935E+04  0.39388772467E+04 0.  0.
        5    1    3    3  502    0 -0.10544635675E+04  0.14196305284E+04 -0.24260204046E+03  0.17849711741E+04  0.46999998093E+01 0. -1.
       -5    1    3    3    0  502  0.10544635675E+04 -0.14196305284E+04  0.15896733348E+04  0.23778830194E+04  0.46999998093E+01 0.  1.
</event>
<event>
 5   0  0.1368865E-07  0.3904416E+04  0.7818609E-02  0.8024111E-01
       -1   -1    0    0    0  501  0.00000000000E+00  0.00000000000E+00  0.23312347852E+04  0.23312347852E+04  0.50400001928E-02 0. -1.
        1   -1    0    0  501    0  0.00000000000E+00  0.00000000000E+00 -0.16348054597E+04  0.16348054597E+04  0.50400001928E-02 0.  1.
    10030    2    1    2    0    0  0.00000000000E+00  0.00000000000E+00  0.69642932548E+03  0.39660402448E+04  0.39044156308E+04 0.  0.
        5    1    3    3  502    0  0.18663283954E+04  0.24065903713E+03  0.87602608499E+03  0.20757028311E+04  0.46999998093E+01 0.  1.
       -5    1    3    3    0  502 -0.18663283954E+04 -0.24065903713E+03 -0.17959675951E+03  0.18903374137E+04  0.46999998093E+01 0. -1.
</event>
<event>
 5   0  0.4301754E-07  0.3992278E+04  0.7818609E-02  0.8006106E-01
        2   -1    0    0  501    0  0.00000000000E+00  0.00000000000E+00  0.14454409812E+04  0.14454409812E+04  0.25500000920E-02 0.  1.
       -2   -1    0    0    0  501  0.00000000000E+00  0.00000000000E+00 -0.27566470738E+04  0.27566470738E+04  0.25500000920E-02 0. -1.
    10030    2    1    2    0    0  0.00000000000E+00  0.00000000000E+00 -0.13112060926E+04  0.42020880549E+04  0.39922778716E+04 0.  0.
        1    1    3    3  502    0  0.79039480507E+03  0.17009758383E+04  0.63321311540E+02  0.18767131744E+04  0.50400001928E-02 0. -1.
       -1    1    3    3    0  502 -0.79039480507E+03 -0.17009758383E+04 -0.13745274041E+04  0.23253748806E+04  0.50400001928E-02 0.  1.
</event>
<event>
 5   0  0.1372952E-07  0.4096980E+04  0.7818609E-02  0.7985263E-01
        1   -1    0    0  501    0  0.00000000000E+00  0.00000000000E+00  0.16891970091E+04  0.16891970091E+04  0.50400001928E-02 0.  1.
       -1   -1    0    0    0  501  0.00000000000E+00  0.00000000000E+00 -0.24842051219E+04  0.24842051219E+04  0.50400001928E-02 0. -1.
    10030    2    1    2    0    0  0.00000000000E+00  0.00000000000E+00 -0.79500811286E+03  0.41734021310E+04  0.40969802840E+04 0.  0.
        1    1    3    3  502    0  0.93550423045E+03  0.17311895092E+04  0.18243676956E+03  0.19762258112E+04  0.50400001928E-02 0.  1.
       -1    1    3    3    0  502 -0.93550423045E+03 -0.17311895092E+04 -0.97744488243E+03  0.21971763198E+04  0.50400001928E-02 0. -1.
</event>
<event>
 5   0  0.4077370E-07  0.3995730E+04  0.7818609E-02  0.8005409E-01
        2   -1    0    0  501    0  0.00000000000E+00  0.00000000000E+00  0.21005249749E+04  0.21005249749E+04  0.25500000920E-02 0.  1.
       -2   -1    0    0    0  501  0.00000000000E+00  0.00000000000E+00 -0.19002222688E+04  0.19002222688E+04  0.25500000920E-02 0. -1.
    10030    2    1    2    0    0  0.00000000000E+00  0.00000000000E+00  0.20030270607E+03  0.40007472436E+04  0.39957298874E+04 0.  0.
        3    1    3    3  502    0  0.18249420064E+04  0.12957165841E+03  0.90381867925E+03  0.20406102902E+04  0.10100000352E+00 0. -1.
       -3    1    3    3    0  502 -0.18249420064E+04 -0.12957165841E+03 -0.70351597317E+03  0.19601369534E+04  0.10100000352E+00 0.  1.
</event>
<event>
 5   0  0.4079777E-07  0.3354493E+04  0.7818609E-02  0.8149167E-01
       -2   -1    0    0    0  501  0.00000000000E+00  0.00000000000E+00  0.22155327030E+04  0.22155327030E+04  0.25500000920E-02 0.  1.
        2   -1    0    0  501    0  0.00000000000E+00  0.00000000000E+00 -0.12697421131E+04  0.12697421131E+04  0.25500000920E-02 0. -1.
    10030    2    1    2    0    0  0.00000000000E+00  0.00000000000E+00  0.94579058990E+03  0.34852748161E+04  0.33544926149E+04 0.  0.
        4    1    3    3  502    0  0.52628881446E+03 -0.21202045124E+03  0.21127913230E+04  0.21876520234E+04  0.12699999809E+01 0.  1.
       -4    1    3    3    0  502 -0.52628881446E+03  0.21202045124E+03 -0.11670007331E+04  0.12976227927E+04  0.12699999809E+01 0. -1.
</event>
<event>
 5   0  0.4149487E-07  0.3520559E+04  0.7818609E-02  0.8108935E-01
        2   -1    0    0  501    0  0.00000000000E+00  0.00000000000E+00  0.21082410486E+04  0.21082410486E+04  0.25500000920E-02 0. -1.
       -2   -1    0    0    0  501  0.00000000000E+00  0.00000000000E+00 -0.14697488023E+04  0.14697488023E+04  0.25500000920E-02 0.  1.
    10030    2    1    2    0    0  0.00000000000E+00  0.00000000000E+00  0.63849224627E+03  0.35779898509E+04  0.35205594760E+04 0.  0.
        2    1    3    3  502    0  0.17412436518E+04 -0.12795572546E+03  0.54714197794E+03  0.18296629380E+04  0.25500000920E-02 0. -1.
       -2    1    3    3    0  502 -0.17412436518E+04  0.12795572546E+03  0.91350268330E+02  0.17483269129E+04  0.25500000920E-02 0.  1.
</event>
<event>
 5   0  0.4149487E-07  0.4040680E+04  0.7818609E-02  0.7996390E-01
        2   -1    0    0  501    0  0.00000000000E+00  0.00000000000E+00  0.14018217876E+04  0.14018217876E+04  0.25500000920E-02 0.  1.
       -2   -1    0    0    0  501  0.00000000000E+00  0.00000000000E+00 -0.29117632228E+04  0.29117632228E+04  0.25500000920E-02 0. -1.
    10030    2    1    2    0    0  0.00000000000E+00  0.00000000000E+00 -0.15099414352E+04  0.43135850105E+04  0.40406797083E+04 0.  0.
        2    1    3    3  502    0  0.16844777382E+04 -0.18162212835E+02 -0.19456376333E+04  0.25735774549E+04  0.25500000920E-02 0. -1.
       -2    1    3    3    0  502 -0.16844777382E+04  0.18162212835E+02  0.43569619811E+03  0.17400075555E+04  0.25500000920E-02 0.  1.
</event>
<event>
 5   0  0.4301754E-07  0.3861035E+04  0.7818609E-02  0.8033182E-01
       -2   -1    0    0    0  501  0.00000000000E+00  0.00000000000E+00  0.31475966431E+04  0.31475966431E+04  0.25500000920E-02 0.  1.
        2   -1    0    0  501    0  0.00000000000E+00  0.00000000000E+00 -0.11840453090E+04  0.11840453090E+04  0.25500000920E-02 0. -1.
    10030    2    1    2    0    0  0.00000000000E+00  0.00000000000E+00  0.19635513341E+04  0.43316419522E+04  0.38610345971E+04 0.  0.
        1    1    3    3  502    0 -0.28628336383E+03  0.18786592830E+04  0.60037032405E+03  0.19929283459E+04  0.50400001928E-02 0. -1.
       -1    1    3    3    0  502  0.28628336383E+03 -0.18786592830E+04  0.13631810100E+04  0.23387136062E+04  0.50400001928E-02 0.  1.
</event>
<event>
 5   0  0.1368865E-07  0.3960394E+04  0.7818609E-02  0.8012584E-01
        1   -1    0    0  501    0  0.00000000000E+00  0.00000000000E+00  0.18111103031E+04  0.18111103031E+04  0.50400001928E-02 0. -1.
       -1   -1    0    0    0  501  0.00000000000E+00  0.00000000000E+00 -0.21650695317E+04  0.21650695317E+04  0.50400001928E-02 0.  1.
    10030    2    1    2    0    0  0.00000000000E+00  0.00000000000E+00 -0.35395922856E+03  0.39761798348E+04  0.39603937864E+04 0.  0.
        5    1    3    3  502    0  0.11143670704E+04 -0.13734659859E+04 -0.10709979061E+04  0.20676753582E+04  0.46999998093E+01 0. -1.
       -5    1    3    3    0  502 -0.11143670704E+04  0.13734659859E+04  0.71703867750E+03  0.19085044766E+04  0.46999998093E+01 0.  1.
</event>
<event>
 5   0  0.1372952E-07  0.3405891E+04  0.7818609E-02  0.8136462E-01
       -1   -1    0    0    0  501  0.00000000000E+00  0.00000000000E+00  0.14805442316E+04  0.14805442316E+04  0.50400001928E-02 0.  1.
        1   -1    0    0  501    0  0.00000000000E+00  0.00000000000E+00 -0.19587554188E+04  0.19587554188E+04  0.50400001928E-02 0. -1.
    10030    2    1    2    0    0  0.00000000000E+00  0.00000000000E+00 -0.47821118716E+03  0.34392996504E+04  0.34058913878E+04 0.  0.
        1    1    3    3  502    0 -0.33437740719E+03  0.14650815825E+04  0.56984639964E+03  0.16071705613E+04  0.50400001928E-02 0.  1.
       -1    1    3    3    0  502  0.33437740719E+03 -0.14650815825E+04 -0.10480575868E+04  0.18321290891E+04  0.50400001928E-02 0. -1.
</event>
<event>
 5   0  0.4301754E-07  0.3618320E+04  0.7818609E-02  0.8086308E-01
        2   -1    0    0  501    0  0.00000000000E+00  0.00000000000E+00  0.17750079671E+04  0.17750079671E+04  0.25500000920E-02 0. -1.
       -2   -1    0    0    0  501  0.00000000000E+00  0.00000000000E+00 -0.18439690725E+04  0.18439690725E+04  0.25500000920E-02 0.  1.
    10030    2    1    2    0    0  0.00000000000E+00  0.00000000000E+00 -0.68961105390E+02  0.36189770397E+04  0.36183199388E+04 0.  0.
        1    1    3    3  502    0  0.57567784655E+03 -0.16456260158E+04 -0.51785894487E+03  0.18186994952E+04  0.50400001928E-02 0.  1.
       -1    1    3    3    0  502 -0.57567784655E+03  0.16456260158E+04  0.44889783948E+03  0.18002775445E+04  0.50400001928E-02 0. -1.
</event>
<event>
 5   0  0.1738868E-07  0.2479902E+04  0.7818609E-02  0.8410181E-01
        1   -1    0    0  501    0  0.00000000000E+00  0.00000000000E+00  0.11756786955E+04  0.11756786956E+04  0.50400001928E-02 0.  1.
       -1   -1    0    0    0  501  0.00000000000E+00  0.00000000000E+00 -0.13077368807E+04  0.13077368807E+04  0.50400001928E-02 0. -1.
    10030    2    1    2    0    0  0.00000000000E+00  0.00000000000E+00 -0.13205818513E+03  0.24834155762E+04  0.24799019255E+04 0.  0.
        2    1    3    3  502    0  0.61644630324E+03 -0.39834882710E+03  0.93478199669E+03  0.11884886260E+04  0.25500000920E-02 0.  1.
       -2    1    3    3    0  502 -0.61644630324E+03  0.39834882710E+03 -0.10668401818E+04  0.12949269502E+04  0.25500000920E-02 0. -1.
</event>
<event>
 5   0  0.1351000E-07  0.2493016E+04  0.7818609E-02  0.8405478E-01
       -1   -1    0    0    0  501  0.00000000000E+00  0.00000000000E+00  0.81265133496E+03  0.81265133498E+03  0.50400001928E-02 0.  1.
        1   -1    0    0  501    0  0.00000000000E+00  0.00000000000E+00 -0.19119918039E+04  0.19119918039E+04  0.50400001928E-02 0. -1.
    10030    2    1    2    0    0  0.00000000000E+00  0.00000000000E+00 -0.10993404690E+04  0.27246431389E+04  0.24930163994E+04 0.  0.
        3    1    3    3  502    0  0.72876354242E+03 -0.81980972997E+03  0.97456661404E+02  0.11012184639E+04  0.10100000352E+00 0.  1.
       -3    1    3    3    0  502 -0.72876354242E+03  0.81980972997E+03 -0.11967971304E+04  0.16234246750E+04  0.10100000352E+00 0. -1.
</event>
<event>
 5   0  0.1352692E-07  0.2494179E+04  0.7818609E-02  0.8405062E-01
       -1   -1    0    0    0  501  0.00000000000E+00  0.00000000000E+00  0.83419438330E+03  0.83419438331E+03  0.50400001928E-02 0. -1.
        1   -1    0    0  501    0  0.00000000000E+00  0.00000000000E+00 -0.18643517900E+04  0.18643517900E+04  0.50400001928E-02 0.  1.
    10030    2    1    2    0    0  0.00000000000E+00  0.00000000000E+00 -0.10301574067E+04  0.26985461733E+04  0.24941786558E+04 0.  0.
        4    1    3    3  502    0  0.94735910369E+03 -0.28938262220E+03  0.30462654108E+03  0.10363544354E+04  0.12699999809E+01 0. -1.
       -4    1    3    3    0  502 -0.94735910369E+03  0.28938262220E+03 -0.13347839477E+04  0.16621917379E+04  0.12699999809E+01 0.  1.
</event>
<event>
 5   0  0.4301754E-07  0.3994604E+04  0.7818609E-02  0.8005636E-01
       -2   -1    0    0    0  501  0.00000000000E+00  0.00000000000E+00  0.22979434212E+04  0.22979434212E+04  0.25500000920E-02 0.  1.
        2   -1    0    0  501    0  0.00000000000E+00  0.00000000000E+00 -0.17359934686E+04  0.17359934686E+04  0.25500000920E-02 0. -1.
    10030    2    1    2    0    0  0.00000000000E+00  0.00000000000E+00  0.56194995267E+03  0.40339368898E+04  0.39946037452E+04 0.  0.
        1    1    3    3  502    0 -0.14651871615E+03 -0.16935343793E+04  0.13399609435E+04  0.21644911083E+04  0.50400001928E-02 0. -1.
       -1    1    3    3    0  502  0.14651871615E+03  0.16935343793E+04 -0.77801099081E+03  0.18694457815E+04  0.50400001928E-02 0.  1.
</event>
<event>
 5   0  0.1421304E-07  0.4038464E+04  0.7818609E-02  0.7996832E-01
       -1   -1    0    0    0  501  0.00000000000E+00  0.00000000000E+00  0.28803608637E+04  0.28803608637E+04  0.50400001928E-02 0.  1.
        1   -1    0    0  501    0  0.00000000000E+00  0.00000000000E+00 -0.14155512480E+04  0.14155512480E+04  0.50400001928E-02 0. -1.
    10030    2    1    2    0    0  0.00000000000E+00  0.00000000000E+00  0.14648096157E+04  0.42959121118E+04  0.40384642702E+04 0.  0.
        2    1    3    3  502    0 -0.13812986901E+04 -0.13323292215E+04  0.14002927712E+04  0.23756908618E+04  0.25500000920E-02 0.  1.
       -2    1    3    3    0  502  0.13812986901E+04  0.13323292215E+04  0.64516844498E+02  0.19202212500E+04  0.25500000920E-02 0. -1.
</event>
<event>
 5   0  0.1368865E-07  0.3902716E+04  0.7818609E-02  0.8024465E-01
        1   -1    0    0  501    0  0.00000000000E+00  0.00000000000E+00  0.12488826713E+04  0.12488826713E+04  0.50400001928E-02 0.  1.
       -1   -1    0    0    0  501  0.00000000000E+00  0.00000000000E+00 -0.30489634622E+04  0.30489634622E+04  0.50400001928E-02 0. -1.
    10030    2    1    2    0    0  0.00000000000E+00  0.00000000000E+00 -0.18000807909E+04  0.42978461336E+04  0.39027157895E+04 0.  0.
        5    1    3    3  502    0  0.17939841952E+04 -0.74408392766E+03 -0.69186326608E+03  0.20617315667E+04  0.46999998093E+01 0. -1.
       -5    1    3    3    0  502 -0.17939841952E+04  0.74408392766E+03 -0.11082175248E+04  0.22361145669E+04  0.46999998093E+01 0.  1.
</event>
<event>
 5   0  0.1368865E-07  0.3978630E+04  0.7818609E-02  0.8008871E-01
       -1   -1    0    0    0  501  0.00000000000E+00  0.00000000000E+00  0.14290147506E+04  0.14290147506E+04  0.50400001928E-02 0. -1.
        1   -1    0    0  501    0  0.00000000000E+00  0.00000000000E+00 -0.27693031883E+04  0.27693031883E+04  0.50400001928E-02 0.  1.
    10030    2    1    2    0    0  0.00000000000E+00  0.00000000000E+00 -0.13402884378E+04  0.41983179389E+04  0.39786304703E+04 0.  0.
        5    1    3    3  502    0  0.15429245286E+04 -0.89300778875E+03  0.26136426455E+03  0.18017803363E+04  0.46999998093E+01 0. -1.
       -5    1    3    3    0  502 -0.15429245286E+04  0.89300778875E+03 -0.16016527023E+04  0.23965376025E+04  0.46999998093E+01 0.  1.
</event>
<event>
 5   0  0.4301754E-07  0.3966427E+04  0.7818609E-02  0.8011354E-01
        2   -1    0    0  501    0  0.00000000000E+00  0.00000000000E+00  0.27994538115E+04  0.27994538115E+04  0.25500000920E-02 0. -1.
       -2   -1    0    0    0  501  0.00000000000E+00  0.00000000000E+00 -0.14049652744E+04  0.14049652744E+04  0.25500000920E-02 0.  1.
    10030    2    1    2    0    0  0.00000000000E+00  0.00000000000E+00  0.13944885371E+04  0.42044190858E+04  0.39664268012E+04 0.  0.
        1    1    3    3  502    0 -0.24273872768E+03  0.14075180055E+04  0.21557027250E+04  0.25859395322E+04  0.50400001928E-02 0. -1.
       -1    1    3    3    0  502  0.24273872768E+03 -0.14075180055E+04 -0.76121418785E+03  0.16184795536E+04  0.50400001928E-02 0.  1.
</event>
<event>
 5   0  0.1368865E-07  0.3995307E+04  0.7818609E-02  0.8005494E-01
        1   -1    0    0  501    0  0.00000000000E+00  0.00000000000E+00  0.22615736349E+04  0.22615736349E+04  0.50400001928E-02 0. -1.
       -1   -1    0    0    0  501  0.00000000000E+00  0.00000000000E+00 -0.17645317703E+04  0.17645317703E+04  0.50400001928E-02 0.  1.
    10030    2    1    2    0    0  0.00000000000E+00  0.00000000000E+00  0.49704186455E+03  0.40261054052E+04  0.39953065113E+04 0.  0.
        5    1    3    3  502    0 -0.30930641511E+03 -0.11784927707E+04  0.18437849509E+04  0.22099956344E+04  0.46999998093E+01 0. -1.
       -5    1    3    3    0  502  0.30930641511E+03  0.11784927707E+04 -0.13467430864E+04  0.18161097708E+04  0.46999998093E+01 0.  1.
</event>
<event>
 5   0  0.4149487E-07  0.4005056E+04  0.7818609E-02  0.8003527E-01
       -2   -1    0    0    0  501  0.00000000000E+00  0.00000000000E+00  0.26029425071E+04  0.26029425071E+04  0.25500000920E-02 0.  1.
        2   -1    0    0  501    0  0.00000000000E+00  0.00000000000E+00 -0.15406093012E+04  0.15406093012E+04  0.25500000920E-02 0. -1.
    10030    2    1    2    0    0  0.00000000000E+00  0.00000000000E+00  0.10623332059E+04  0.41435518083E+04  0.40050555237E+04 0.  0.
        2    1    3    3  502    0 -0.15689434873E+04 -0.12065598711E+04  0.21609136018E+03  0.19909961992E+04  0.25500000920E-02 0. -1.
       -2    1    3    3    0  502  0.15689434873E+04  0.12065598711E+04  0.84624184575E+03  0.21525556092E+04  0.25500000920E-02 0.  1.
</event>
<event>
 5   0  0.1421304E-07  0.3871093E+04  0.7818609E-02  0.8031068E-01
        1   -1    0    0  501    0  0.00000000000E+00  0.00000000000E+00  0.30311295334E+04  0.30311295334E+04  0.50400001928E-02 0. -1.
       -1   -1    0    0    0  501  0.00000000000E+00  0.00000000000E+00 -0.12359554402E+04  0.12359554402E+04  0.50400001928E-02 0.  1.
    10030    2    1    2    0    0  0.00000000000E+00  0.00000000000E+00  0.17951740931E+04  0.42670849736E+04  0.38710934046E+04 0.  0.
        2    1    3    3  502    0 -0.38454904033E+03  0.92893915409E+03  0.27207218777E+04  0.29005402001E+04  0.25500000920E-02 0. -1.
       -2    1    3    3    0  502  0.38454904033E+03 -0.92893915409E+03 -0.92554778458E+03  0.13665447735E+04  0.25500000920E-02 0.  1.
</event>
<event>
 5   0  0.4047916E-07  0.3972634E+04  0.7818609E-02  0.8010090E-01
       -2   -1    0    0    0  501  0.00000000000E+00  0.00000000000E+00  0.14243588121E+04  0.14243588121E+04  0.25500000920E-02 0. -1.
        2   -1    0    0  501    0  0.00000000000E+00  0.00000000000E+00 -0.27699872991E+04  0.27699872991E+04  0.25500000920E-02 0.  1.
    10030    2    1    2    0    0  0.00000000000E+00  0.00000000000E+00 -0.13456284870E+04  0.41943461112E+04  0.39726342992E+04 0.  0.
        5    1    3    3  502    0  0.11573892272E+04  0.15789219453E+04 -0.10275559511E+04  0.22109811522E+04  0.46999998093E+01 0. -1.
       -5    1    3    3    0  502 -0.11573892272E+04 -0.15789219453E+04 -0.31807253598E+03  0.19833649591E+04  0.46999998093E+01 0.  1.
</event>
<event>
 5   0  0.4079777E-07  0.4002165E+04  0.7818609E-02  0.8004110E-01
       -2   -1    0    0    0  501  0.00000000000E+00  0.00000000000E+00  0.19942145428E+04  0.19942145428E+04  0.25500000920E-02 0.  1.
        2   -1    0    0  501    0  0.00000000000E+00  0.00000000000E+00 -0.20079743518E+04  0.20079743518E+04  0.25500000920E-02 0. -1.
    10030    2    1    2    0    0  0.00000000000E+00  0.00000000000E+00 -0.13759808995E+02  0.40021888946E+04  0.40021652409E+04 0.  0.
        4    1    3    3  502    0 -0.31714568942E+03  0.15134465586E+04  0.12632567953E+04  0.19967276273E+04  0.12699999809E+01 0.  1.
       -4    1    3    3    0  502  0.31714568942E+03 -0.15134465586E+04 -0.12770166043E+04  0.20054612673E+04  0.12699999809E+01 0. -1.
</event>
<event>
 5   0  0.4079777E-07  0.2791329E+04  0.7818609E-02  0.8305965E-01
       -2   -1    0    0    0  501  0.00000000000E+00  0.00000000000E+00  0.82192660607E+03  0.82192660607E+03  0.25500000920E-02 0.  1.
        2   -1    0    0  501    0  0.00000000000E+00  0.00000000000E+00 -0.23698953218E+04  0.23698953218E+04  0.25500000920E-02 0. -1.
    10030    2    1    2    0    0  0.00000000000E+00  0.00000000000E+00 -0.15479687157E+04  0.31918219279E+04  0.27913294457E+04 0.  0.
        4    1    3    3  502    0 -0.48583008137E+03 -0.85027654291E+02 -0.22669199475E+04  0.23199543597E+04  0.12699999809E+01 0. -1.
       -4    1    3    3    0  502  0.48583008137E+03  0.85027654291E+02  0.71895123173E+03  0.87186756819E+03  0.12699999809E+01 0.  1.
</event>
<event>
 5   0  0.1368865E-07  0.3996685E+04  0.7818609E-02  0.8005216E-01
        1   -1    0    0  501    0  0.00000000000E+00  0.00000000000E+00  0.21325781834E+04  0.21325781834E+04  0.50400001928E-02 0.  1.
       -1   -1    0    0    0  501  0.00000000000E+00  0.00000000000E+00 -0.18725566811E+04  0.18725566812E+04  0.50400001928E-02 0. -1.
    10030    2    1    2    0    0  0.00000000000E+00  0.00000000000E+00  0.26002150224E+03  0.40051348645E+04  0.39966853894E+04 0.  0.
        5    1    3    3  502    0  0.35533261089E+03 -0.53573319015E+03 -0.17660993627E+04  0.18794681068E+04  0.46999998093E+01 0. -1.
       -5    1    3    3    0  502 -0.35533261089E+03  0.53573319015E+03  0.20261208650E+04  0.21256667577E+04  0.46999998093E+01 0.  1.
</event>
<event>
 5   0  0.1351000E-07  0.3965792E+04  0.7818609E-02  0.8011483E-01
       -3   -1    0    0    0  501  0.00000000000E+00  0.00000000000E+00  0.20844470812E+04  0.20844470836E+04  0.10100000352E+00 0. -1.
        3   -1    0    0  501    0  0.00000000000E+00  0.00000000000E+00 -0.18862926276E+04  0.18862926303E+04  0.10100000352E+00 0.  1.
    10030    2    1    2    0    0  0.00000000000E+00  0.00000000000E+00  0.19815445360E+03  0.39707397139E+04  0.39657923153E+04 0.  0.
        4    1    3    3  502    0  0.12658831695E+04 -0.15511675406E+03  0.16193106575E+04  0.20612350726E+04  0.12699999809E+01 0. -1.
       -4    1    3    3    0  502 -0.12658831695E+04  0.15511675406E+03 -0.14211562039E+04  0.19095046412E+04  0.12699999809E+01 0.  1.
</event>
<event>
 5   0  0.1368865E-07  0.3960592E+04  0.7818609E-02  0.8012544E-01
        1   -1    0    0  501    0  0.00000000000E+00  0.00000000000E+00  0.31097764764E+04  0.31097764764E+04  0.50400001928E-02 0.  1.
       -1   -1    0    0    0  501  0.00000000000E+00  0.00000000000E+00 -0.12610461640E+04  0.12610461640E+04  0.50400001928E-02 0. -1.
    10030    2    1    2    0    0  0.00000000000E+00  0.00000000000E+00  0.18487303124E+04  0.43708226404E+04  0.39605917217E+04 0.  0.
        5    1    3    3  502    0 -0.90444033920E+03  0.17301992752E+04  0.12902936908E+04  0.23401884022E+04  0.46999998093E+01 0.  1.
       -5    1    3    3    0  502  0.90444033920E+03 -0.17301992752E+04  0.55843662161E+03  0.20306342382E+04  0.46999998093E+01 0. -1.
</event>
<event>
 5   0  0.4079777E-07  0.4021171E+04  0.7818609E-02  0.8000289E-01
        2   -1    0    0  501    0  0.00000000000E+00  0.00000000000E+00  0.16138568026E+04  0.16138568026E+04  0.25500000920E-02 0. -1.
       -2   -1    0    0    0  501  0.00000000000E+00  0.00000000000E+00 -0.25048409235E+04  0.25048409235E+04  0.25500000920E-02 0.  1.
    10030    2    1    2    0    0  0.00000000000E+00  0.00000000000E+00 -0.89098412091E+03  0.41186977261E+04  0.40211712541E+04 0.  0.
        4    1    3    3  502    0  0.17707529065E+04  0.93946139518E+03 -0.60515530958E+03  0.20938882804E+04  0.12699999809E+01 0.  1.
       -4    1    3    3    0  502 -0.17707529065E+04 -0.93946139518E+03 -0.28582881133E+03  0.20248094457E+04  0.12699999809E+01 0. -1.
</event>
<event>
 5   0  0.4047916E-07  0.3972900E+04  0.7818609E-02  0.8010036E-01
        2   -1    0    0  501    0  0.00000000000E+00  0.00000000000E+00  0.21935893600E+04  0.21935893600E+04  0.25500000920E-02 0. -1.
       -2   -1    0    0    0  501  0.00000000000E+00  0.00000000000E+00 -0.17988710760E+04  0.17988710760E+04  0.25500000920E-02 0.  1.
    10030    2    1    2    0    0  0.00000000000E+00  0.00000000000E+00  0.39471828394E+03  0.39924604360E+04  0.39729004278E+04 0.  0.
        5    1    3    3  502    0  0.56494223325E+03  0.77858907684E+03 -0.15491854195E+04  0.18235564788E+04  0.46999998093E+01 0.  1.
       -5    1    3    3    0  502 -0.56494223325E+03 -0.77858907684E+03  0.19439037034E+04  0.21689039572E+04  0.46999998093E+01 0. -1.
</event>
<event>
 5   0  0.1351000E-07  0.3973108E+04  0.7818609E-02  0.8009994E-01
       -1   -1    0    0    0  501  0.00000000000E+00  0.00000000000E+00  0.16264845020E+04  0.16264845020E+04  0.50400001928E-02 0. -1.
        1   -1    0    0  501    0  0.00000000000E+00  0.00000000000E+00 -0.24263351708E+04  0.24263351708E+04  0.50400001928E-02 0.  1.
    10030    2    1    2    0    0  0.00000000000E+00  0.00000000000E+00 -0.79985066884E+03  0.40528196728E+04  0.39731078777E+04 0.  0.
        3    1    3    3  502    0 -0.82351423806E+03  0.64432344699E+03 -0.21229162800E+04  0.23664534533E+04  0.10100000352E+00 0.  1.
       -3    1    3    3    0  502  0.82351423806E+03 -0.64432344699E+03  0.13230656112E+04  0.16863662195E+04  0.10100000352E+00 0. -1.
</event>
<event>
 5   0  0.4079777E-07  0.3149342E+04  0.7818609E-02  0.8202325E-01
        2   -1    0    0  501    0  0.00000000000E+00  0.00000000000E+00  0.17382114338E+04  0.17382114338E+04  0.25500000920E-02 0. -1.
       -2   -1    0    0    0  501  0.00000000000E+00  0.00000000000E+00 -0.14265176271E+04  0.14265176271E+04  0.25500000920E-02 0.  1.
    10030    2    1    2    0    0  0.00000000000E+00  0.00000000000E+00  0.31169380669E+03  0.31647290610E+04  0.31493423123E+04 0.  0.
        4    1    3    3  502    0  0.27478428550E+03 -0.10035580295E+04 -0.10318550998E+04  0.14653878947E+04  0.12699999809E+01 0.  1.
       -4    1    3    3    0  502 -0.27478428550E+03  0.10035580295E+04  0.13435489065E+04  0.16993411662E+04  0.12699999809E+01 0. -1.
</event>
<event>
 5   0  0.4301754E-07  0.2963093E+04  0.7818609E-02  0.8254349E-01
       -2   -1    0    0    0  501  0.00000000000E+00  0.00000000000E+00  0.13924669418E+04  0.13924669418E+04  0.25500000920E-02 0. -1.
        2   -1    0    0  501    0  0.00000000000E+00  0.00000000000E+00 -0.15763246098E+04  0.15763246098E+04  0.25500000920E-02 0.  1.
    10030    2    1    2    0    0  0.00000000000E+00  0.00000000000E+00 -0.18385766797E+03  0.29687915516E+04  0.29630929170E+04 0.  0.
        1    1    3    3  502    0  0.15284330063E+03  0.13422434925E+04 -0.70137594876E+03  0.15221389192E+04  0.50400001928E-02 0. -1.
       -1    1    3    3    0  502 -0.15284330063E+03 -0.13422434925E+04  0.51751828078E+03  0.14466526324E+04  0.50400001928E-02 0.  1.
</event>
<event>
 5   0  0.1351000E-07  0.4020433E+04  0.7818609E-02  0.8000437E-01
       -1   -1    0    0    0  501  0.00000000000E+00  0.00000000000E+00  0.22639597257E+04  0.22639597258E+04  0.50400001928E-02 0.  1.
        1   -1    0    0  501    0  0.00000000000E+00  0.00000000000E+00 -0.17849122204E+04  0.17849122204E+04  0.50400001928E-02 0. -1.
    10030    2    1    2    0    0  0.00000000000E+00  0.00000000000E+00  0.47904750531E+03  0.40488719462E+04  0.40204325046E+04 0.  0.
        3    1    3    3  502    0  0.16800574374E+04  0.59649956632E+02  0.13495082717E+04  0.21557652228E+04  0.10100000352E+00 0.  1.
       -3    1    3    3    0  502 -0.16800574374E+04 -0.59649956632E+02 -0.87046076636E+03  0.18931067234E+04  0.10100000352E+00 0. -1.
</event>
<event>
 5   0  0.4077370E-07  0.3760823E+04  0.7818609E-02  0.8054615E-01
        2   -1    0    0  501    0  0.00000000000E+00  0.00000000000E+00  0.19507191591E+04  0.19507191591E+04  0.25500000920E-02 0. -1.
       -2   -1    0    0    0  501  0.00000000000E+00  0.00000000000E+00 -0.18126376994E+04  0.18126376994E+04  0.25500000920E-02 0.  1.
    10030    2    1    2    0    0  0.00000000000E+00  0.00000000000E+00  0.13808145971E+03  0.37633568585E+04  0.37608228295E+04 0.  0.
        3    1    3    3  502    0 -0.64378469546E+03 -0.11972509105E+04 -0.12310954979E+04  0.18339750849E+04  0.10100000352E+00 0.  1.
       -3    1    3    3    0  502  0.64378469546E+03  0.11972509105E+04  0.13691769576E+04  0.19293817736E+04  0.10100000352E+00 0. -1.
</event>
<event>
 5   0  0.1351000E-07  0.3590760E+04  0.7818609E-02  0.8092612E-01
       -1   -1    0    0    0  501  0.00000000000E+00  0.00000000000E+00  0.17098863292E+04  0.17098863292E+04  0.50400001928E-02 0.  1.
        1   -1    0    0  501    0  0.00000000000E+00  0.00000000000E+00 -0.18851482441E+04  0.18851482441E+04  0.50400001928E-02 0. -1.
    10030    2    1    2    0    0  0.00000000000E+00  0.00000000000E+00 -0.17526191487E+03  0.35950345732E+04  0.35907599257E+04 0.  0.
        3    1    3    3  502    0 -0.81580600357E+03 -0.25618862484E+03  0.14929241487E+04  0.17204634756E+04  0.10100000352E+00 0.  1.
       -3    1    3    3    0  502  0.81580600357E+03  0.25618862484E+03 -0.16681860636E+04  0.18745710976E+04  0.10100000352E+00 0. -1.
</event>
<event>
 5   0  0.1368865E-07  0.3971878E+04  0.7818609E-02  0.8010244E-01
       -1   -1    0    0    0  501  0.00000000000E+00  0.00000000000E+00  0.27836238811E+04  0.27836238811E+04  0.50400001928E-02 0.  1.
        1   -1    0    0  501    0  0.00000000000E+00  0.00000000000E+00 -0.14168414441E+04  0.14168414441E+04  0.50400001928E-02 0. -1.
    10030    2    1    2    0    0  0.00000000000E+00  0.00000000000E+00  0.13667824370E+04  0.42004653251E+04  0.39718779837E+04 0.  0.
        5    1    3    3  502    0  0.16693008990E+04 -0.43841485104E+03  0.17223560069E+04  0.24382996898E+04  0.46999998093E+01 0.  1.
       -5    1    3    3    0  502 -0.16693008990E+04  0.43841485104E+03 -0.35557356986E+03  0.17621656354E+04  0.46999998093E+01 0. -1.
</event>
<event>
 5   0  0.1372952E-07  0.2906576E+04  0.7818609E-02  0.8270924E-01
        1   -1    0    0  501    0  0.00000000000E+00  0.00000000000E+00  0.16873291471E+04  0.16873291471E+04  0.50400001928E-02 0.  1.
       -1   -1    0    0    0  501  0.00000000000E+00  0.00000000000E+00 -0.12517094772E+04  0.12517094772E+04  0.50400001928E-02 0. -1.
    10030    2    1    2    0    0  0.00000000000E+00  0.00000000000E+00  0.43561966984E+03  0.29390386243E+04  0.29065759131E+04 0.  0.
        1    1    3    3  502    0  0.18999076265E+03  0.99769697231E+03  0.12689147975E+04  0.16253124320E+04  0.50400001928E-02 0.  1.
       -1    1    3    3    0  502 -0.18999076265E+03 -0.99769697231E+03 -0.83329512766E+03  0.13137261923E+04  0.50400001928E-02 0. -1.
</event>
<event>
 5   0  0.1372952E-07  0.2560173E+04  0.7818609E-02  0.8381857E-01
        1   -1    0    0  501    0  0.00000000000E+00  0.00000000000E+00  0.99897435070E+03  0.99897435071E+03  0.50400001928E-02 0. -1.
       -1   -1    0    0    0  501  0.00000000000E+00  0.00000000000E+00 -0.16403035253E+04  0.16403035253E+04  0.50400001928E-02 0.  1.
    10030    2    1    2    0    0  0.00000000000E+00  0.00000000000E+00 -0.64132917461E+03  0.26392778760E+04  0.25601727670E+04 0.  0.
        1    1    3    3  502    0 -0.76418757992E+03  0.97231998905E+03 -0.66137973643E+03  0.14024307378E+04  0.50400001928E-02 0.  1.
       -1    1    3    3    0  502  0.76418757992E+03 -0.97231998905E+03  0.20050561824E+02  0.12368471383E+04  0.50400001928E-02 0. -1.
</event>
<event>
 5   0  0.4077370E-07  0.3876639E+04  0.7818609E-02  0.8029906E-01
       -2   -1    0    0    0  501  0.00000000000E+00  0.00000000000E+00  0.15447309996E+04  0.15447309996E+04  0.25500000920E-02 0. -1.
        2   -1    0    0  501    0  0.00000000000E+00  0.00000000000E+00 -0.24321917910E+04  0.24321917910E+04  0.25500000920E-02 0.  1.
    10030    2    1    2    0    0  0.00000000000E+00  0.00000000000E+00 -0.88746079144E+03  0.39769227906E+04  0.38766387794E+04 0.  0.
        3    1    3    3  502    0  0.67715108230E+03 -0.73343978804E+03  0.12607605902E+04  0.16080997441E+04  0.10100000352E+00 0. -1.
       -3    1    3    3    0  502 -0.67715108230E+03  0.73343978804E+03 -0.21482213816E+04  0.23688230465E+04  0.10100000352E+00 0.  1.
</event>
<event>
 5   0  0.1372952E-07  0.3989081E+04  0.7818609E-02  0.8006753E-01
       -1   -1    0    0    0  501  0.00000000000E+00  0.00000000000E+00  0.15367719262E+04  0.15367719262E+04  0.50400001928E-02 0. -1.
        1   -1    0    0  501    0  0.00000000000E+00  0.00000000000E+00 -0.25886670659E+04  0.25886670659E+04  0.50400001928E-02 0.  1.
    10030    2    1    2    0    0  0.00000000000E+00  0.00000000000E+00 -0.10518951397E+04  0.41254389922E+04  0.39890805323E+04 0.  0.
        1    1    3    3  502    0  0.19758949945E+03 -0.78811941941E+02  0.15250063922E+04  0.15397718756E+04  0.50400001928E-02 0. -1.
       -1    1    3    3    0  502 -0.19758949945E+03  0.78811941941E+02 -0.25769015319E+04  0.25856671166E+04  0.50400001928E-02 0.  1.
</event>
<event>
 5   0  0.1421304E-07  0.3026006E+04  0.7818609E-02  0.8236344E-01
        1   -1    0    0  501    0  0.00000000000E+00  0.00000000000E+00  0.12891503245E+04  0.12891503245E+04  0.50400001928E-02 0. -1.
       -1   -1    0    0    0  501  0.00000000000E+00  0.00000000000E+00 -0.17757258192E+04  0.17757258192E+04  0.50400001928E-02 0.  1.
    10030    2    1    2    0    0  0.00000000000E+00  0.00000000000E+00 -0.48657549470E+03  0.30648761437E+04  0.30260056286E+04 0.  0.
        2    1    3    3  502    0  0.99693752545E+03 -0.93107497871E+03  0.41963681665E+03  0.14271930856E+04  0.25500000920E-02 0.  1.
       -2    1    3    3    0  502 -0.99693752545E+03  0.93107497871E+03 -0.90621231135E+03  0.16376830581E+04  0.25500000920E-02 0. -1.
</event>
<event>
 5   0  0.1368865E-07  0.2931551E+04  0.7818609E-02  0.8263551E-01
        1   -1    0    0  501    0  0.00000000000E+00  0.00000000000E+00  0.17634749382E+04  0.17634749382E+04  0.50400001928E-02 0.  1.
       -1   -1    0    0    0  501  0.00000000000E+00  0.00000000000E+00 -0.12183322117E+04  0.12183322117E+04  0.50400001928E-02 0. -1.
    10030    2    1    2    0    0  0.00000000000E+00  0.00000000000E+00  0.54514272646E+03  0.29818071499E+04  0.29315513447E+04 0.  0.
        5    1    3    3  502    0  0.10456381757E+04 -0.29568393151E+03 -0.72800383976E+03  0.13079754824E+04  0.46999998093E+01 0. -1.
       -5    1    3    3    0  502 -0.10456381757E+04  0.29568393151E+03  0.12731465662E+04  0.16738316675E+04  0.46999998093E+01 0.  1.
</event>
<event>
 5   0  0.4079777E-07  0.3362337E+04  0.7818609E-02  0.8147212E-01
       -2   -1    0    0    0  501  0.00000000000E+00  0.00000000000E+00  0.21277767470E+04  0.21277767470E+04  0.25500000920E-02 0.  1.
        2   -1    0    0  501    0  0.00000000000E+00  0.00000000000E+00 -0.13283006574E+04  0.13283006574E+04  0.25500000920E-02 0. -1.
    10030    2    1    2    0    0  0.00000000000E+00  0.00000000000E+00  0.79947608959E+03  0.34560774044E+04  0.33623368373E+04 0.  0.
        4    1    3    3  502    0 -0.54849331064E+03  0.72057129596E+03  0.18556516484E+04  0.20648274886E+04  0.12699999809E+01 0.  1.
       -4    1    3    3    0  502  0.54849331064E+03 -0.72057129596E+03 -0.10561755588E+04  0.13912499158E+04  0.12699999809E+01 0. -1.
</event>
<event>
 5   0  0.4077370E-07  0.4017820E+04  0.7818609E-02  0.8000961E-01
       -2   -1    0    0    0  501  0.00000000000E+00  0.00000000000E+00  0.19165432086E+04  0.19165432086E+04  0.25500000920E-02 0. -1.
        2   -1    0    0  501    0  0.00000000000E+00  0.00000000000E+00 -0.21057279603E+04  0.21057279603E+04  0.25500000920E-02 0.  1.
    10030    2    1    2    0    0  0.00000000000E+00  0.00000000000E+00 -0.18918475175E+03  0.40222711689E+04  0.40178196184E+04 0.  0.
        3    1    3    3  502    0 -0.82827378863E+03 -0.17537241879E+04  0.42956447390E+03  0.19864822283E+04  0.10100000352E+00 0. -1.
       -3    1    3    3    0  502  0.82827378863E+03  0.17537241879E+04 -0.61874922565E+03  0.20357889406E+04  0.10100000352E+00 0.  1.
</event>
<event>
 5   0  0.1351000E-07  0.3205329E+04  0.7818609E-02  0.8187411E-01
        1   -1    0    0  501    0  0.00000000000E+00  0.00000000000E+00  0.18682476542E+04  0.18682476542E+04  0.50400001928E-02 0.  1.
       -1   -1    0    0    0  501  0.00000000000E+00  0.00000000000E+00 -0.13748354644E+04  0.13748354644E+04  0.50400001928E-02 0. -1.
    10030    2    1    2    0    0  0.00000000000E+00  0.00000000000E+00  0.49341218983E+03  0.32430831186E+04  0.32053287702E+04 0.  0.
        4    1    3    3  502    0 -0.16783266535E+03  0.10121127681E+04  0.14924646411E+04  0.18110749230E+04  0.12699999809E+01 0.  1.
       -4    1    3    3    0  502  0.16783266535E+03 -0.10121127681E+04 -0.99905245126E+03  0.14320081956E+04  0.12699999809E+01 0. -1.
</event>
<event>
 5   0  0.1421304E-07  0.3994929E+04  0.7818609E-02  0.8005570E-01
        1   -1    0    0  501    0  0.00000000000E+00  0.00000000000E+00  0.16476197450E+04  0.16476197450E+04  0.50400001928E-02 0. -1.
       -1   -1    0    0    0  501  0.00000000000E+00  0.00000000000E+00 -0.24215934782E+04  0.24215934782E+04  0.50400001928E-02 0.  1.
    10030    2    1    2    0    0  0.00000000000E+00  0.00000000000E+00 -0.77397373322E+03  0.40692132232E+04  0.39949294006E+04 0.  0.
        2    1    3    3  502    0  0.59748483932E+02  0.13145790126E+04  0.11436788796E+04  0.17434704590E+04  0.25500000920E-02 0. -1.
       -2    1    3    3    0  502 -0.59748483932E+02 -0.13145790126E+04 -0.19176526129E+04  0.23257427642E+04  0.25500000920E-02 0.  1.
</event>
<event>
 5   0  0.1351000E-07  0.4098549E+04  0.7818609E-02  0.7984956E-01
        1   -1    0    0  501    0  0.00000000000E+00  0.00000000000E+00  0.23460269282E+04  0.23460269282E+04  0.50400001928E-02 0. -1.
       -1   -1    0    0    0  501  0.00000000000E+00  0.00000000000E+00 -0.17900584502E+04  0.17900584502E+04  0.50400001928E-02 0.  1.
    10030    2    1    2    0    0  0.00000000000E+00  0.00000000000E+00  0.55596847802E+03  0.41360853783E+04  0.40985486832E+04 0.  0.
        4    1    3    3  502    0 -0.57901608528E+03  0.19273824449E+04  0.66812680510E+03  0.21204852644E+04  0.12699999809E+01 0. -1.
       -4    1    3    3    0  502  0.57901608528E+03 -0.19273824449E+04 -0.11215832708E+03  0.20156001139E+04  0.12699999809E+01 0.  1.
</event>
<event>
 5   0  0.1372952E-07  0.3630564E+04  0.7818609E-02  0.8083526E-01
       -1   -1    0    0    0  501  0.00000000000E+00  0.00000000000E+00  0.28749013300E+04  0.28749013300E+04  0.50400001928E-02 0.  1.
        1   -1    0    0  501    0  0.00000000000E+00  0.00000000000E+00 -0.11462125521E+04  0.11462125521E+04  0.50400001928E-02 0. -1.
    10030    2    1    2    0    0  0.00000000000E+00  0.00000000000E+00  0.17286887779E+04  0.40211138822E+04  0.36305635874E+04 0.  0.
        1    1    3    3  502    0  0.46082115020E+03  0.17125450470E+04  0.43526698365E+03  0.18260952926E+04  0.50400001928E-02 0.  1.
       -1    1    3    3    0  502 -0.46082115020E+03 -0.17125450470E+04  0.12934217942E+04  0.21950185895E+04  0.50400001928E-02 0. -1.
</event>
<event>
 5   0  0.1351000E-07  0.3749642E+04  0.7818609E-02  0.8057049E-01
        1   -1    0    0  501    0  0.00000000000E+00  0.00000000000E+00  0.15658004377E+04  0.15658004377E+04  0.50400001928E-02 0.  1.
       -1   -1    0    0    0  501  0.00000000000E+00  0.00000000000E+00 -0.22448289516E+04  0.22448289516E+04  0.50400001928E-02 0. -1.
    10030    2    1    2    0    0  0.00000000000E+00  0.00000000000E+00 -0.67902851392E+03  0.38106293894E+04  0.37496421990E+04 0.  0.
        4    1    3    3  502    0  0.29517136253E+03  0.17637608633E+04 -0.91167587701E+03  0.20072700451E+04  0.12699999809E+01 0. -1.
       -4    1    3    3    0  502 -0.29517136253E+03 -0.17637608633E+04  0.23264736309E+03  0.18033593443E+04  0.12699999809E+01 0.  1.
</event>
<event>
 5   0  0.4079777E-07  0.3995357E+04  0.7818609E-02  0.8005484E-01
       -2   -1    0    0    0  501  0.00000000000E+00  0.00000000000E+00  0.18529882965E+04  0.18529882965E+04  0.25500000920E-02 0.  1.
        2   -1    0    0  501    0  0.00000000000E+00  0.00000000000E+00 -0.21536665234E+04  0.21536665234E+04  0.25500000920E-02 0. -1.
    10030    2    1    2    0    0  0.00000000000E+00  0.00000000000E+00 -0.30067822690E+03  0.40066548198E+04  0.39953567361E+04 0.  0.
        4    1    3    3  502    0 -0.63888519532E+03  0.24867247596E+03  0.17313210134E+04  0.18621187818E+04  0.12699999809E+01 0.  1.
       -4    1    3    3    0  502  0.63888519532E+03 -0.24867247596E+03 -0.20319992403E+04  0.21445360381E+04  0.12699999809E+01 0. -1.
</event>
<event>
 5   0  0.4079777E-07  0.2806195E+04  0.7818609E-02  0.8301348E-01
       -2   -1    0    0    0  501  0.00000000000E+00  0.00000000000E+00  0.15009225304E+04  0.15009225304E+04  0.25500000920E-02 0.  1.
        2   -1    0    0  501    0  0.00000000000E+00  0.00000000000E+00 -0.13116484686E+04  0.13116484686E+04  0.25500000920E-02 0. -1.
    10030    2    1    2    0    0  0.00000000000E+00  0.00000000000E+00  0.18927406185E+03  0.28125709990E+04  0.28061951026E+04 0.  0.
        4    1    3    3  502    0 -0.74983710743E+02 -0.10925213855E+03 -0.13053625475E+04  0.13120714843E+04  0.12699999809E+01 0. -1.
       -4    1    3    3    0  502  0.74983710743E+02  0.10925213855E+03  0.14946366093E+04  0.15004995147E+04  0.12699999809E+01 0.  1.
</event>
<event>
 5   0  0.1372952E-07  0.4088179E+04  0.7818609E-02  0.7986991E-01
        1   -1    0    0  501    0  0.00000000000E+00  0.00000000000E+00  0.20314585563E+04  0.20314585563E+04  0.50400001928E-02 0.  1.
       -1   -1    0    0    0  501  0.00000000000E+00  0.00000000000E+00 -0.20567986405E+04  0.20567986405E+04  0.50400001928E-02 0. -1.
    10030    2    1    2    0    0  0.00000000000E+00  0.00000000000E+00 -0.25340084154E+02  0.40882571968E+04  0.40881786638E+04 0.  0.
        1    1    3    3  502    0  0.14532269458E+04 -0.54813519032E+03 -0.13415975430E+04  0.20523656376E+04  0.50400001928E-02 0. -1.
       -1    1    3    3    0  502 -0.14532269458E+04  0.54813519032E+03  0.13162574589E+04  0.20358915592E+04  0.50400001928E-02 0.  1.
</event>
<event>
 5   0  0.1351000E-07  0.3520452E+04  0.7818609E-02  0.8108960E-01
        1   -1    0    0  501    0  0.00000000000E+00  0.00000000000E+00  0.23267259079E+04  0.23267259079E+04  0.50400001928E-02 0. -1.
       -1   -1    0    0    0  501  0.00000000000E+00  0.00000000000E+00 -0.13316547464E+04  0.13316547464E+04  0.50400001928E-02 0.  1.
    10030    2    1    2    0    0  0.00000000000E+00  0.00000000000E+00  0.99507116146E+03  0.36583806543E+04  0.35204520158E+04 0.  0.
        4    1    3    3  502    0 -0.45779999464E+03  0.65727521610E+03  0.21263649074E+04  0.22722281745E+04  0.12699999809E+01 0. -1.
       -4    1    3    3    0  502  0.45779999464E+03 -0.65727521610E+03 -0.11312937459E+04  0.13861524798E+04  0.12699999809E+01 0.  1.
</event>
<event>
 5   0  0.4079777E-07  0.2896388E+04  0.7818609E-02  0.8273953E-01
       -2   -1    0    0    0  501  0.00000000000E+00  0.00000000000E+00  0.13855165066E+04  0.13855165067E+04  0.25500000920E-02 0. -1.
        2   -1    0    0  501    0  0.00000000000E+00  0.00000000000E+00 -0.15137073370E+04  0.15137073370E+04  0.25500000920E-02 0.  1.
    10030    2    1    2    0    0  0.00000000000E+00  0.00000000000E+00 -0.12819083040E+03  0.28992238437E+04  0.28963884420E+04 0.  0.
        4    1    3    3  502    0 -0.13778119027E+04 -0.24579647370E+03 -0.43659321493E+03  0.14660821238E+04  0.12699999809E+01 0.  1.
       -4    1    3    3    0  502  0.13778119027E+04  0.24579647370E+03  0.30840238453E+03  0.14331417199E+04  0.12699999809E+01 0. -1.
</event>
<event>
 5   0  0.4079777E-07  0.3914301E+04  0.7818609E-02  0.8022061E-01
       -2   -1    0    0    0  501  0.00000000000E+00  0.00000000000E+00  0.29798249294E+04  0.29798249294E+04  0.25500000920E-02 0.  1.
        2   -1    0    0  501    0  0.00000000000E+00  0.00000000000E+00 -0.12854573469E+04  0.12854573469E+04  0.25500000920E-02 0. -1.
    10030    2    1    2    0    0  0.00000000000E+00  0.00000000000E+00  0.16943675825E+04  0.42652822764E+04  0.39143008817E+04 0.  0.
        4    1    3    3  502    0  0.10115278498E+04  0.66665964981E+03 -0.82779073849E+03  0.14672637116E+04  0.12699999809E+01 0. -1.
       -4    1    3    3    0  502 -0.10115278498E+04 -0.66665964981E+03  0.25221583210E+04  0.27980185648E+04  0.12699999809E+01 0.  1.
</event>
<event>
 5   0  0.4047916E-07  0.3896665E+04  0.7818609E-02  0.8025723E-01
        2   -1    0    0  501    0  0.00000000000E+00  0.00000000000E+00  0.26006188180E+04  0.26006188180E+04  0.25500000920E-02 0. -1.
       -2   -1    0    0    0  501  0.00000000000E+00  0.00000000000E+00 -0.14596522887E+04  0.14596522887E+04  0.25500000920E-02 0.  1.
    10030    2    1    2    0    0  0.00000000000E+00  0.00000000000E+00  0.11409665292E+04  0.40602711067E+04  0.38966648353E+04 0.  0.
        5    1    3    3  502    0  0.12741548680E+04  0.12388867215E+03  0.21008762529E+04  0.24601874219E+04  0.46999998093E+01 0. -1.
       -5    1    3    3    0  502 -0.12741548680E+04 -0.12388867215E+03 -0.95990972367E+03  0.16000836848E+04  0.46999998093E+01 0.  1.
</event>
<event>
 5   0  0.4301754E-07  0.3010703E+04  0.7818609E-02  0.8240681E-01
       -2   -1    0    0    0  501  0.00000000000E+00  0.00000000000E+00  0.17866792262E+04  0.17866792262E+04  0.25500000920E-02 0. -1.
        2   -1    0    0  501    0  0.00000000000E+00  0.00000000000E+00 -0.12683209395E+04  0.12683209395E+04  0.25500000920E-02 0.  1.
    10030    2    1    2    0    0  0.00000000000E+00  0.00000000000E+00  0.51835828673E+03  0.30550001657E+04  0.30107026919E+04 0.  0.
        1    1    3    3  502    0  0.11171551980E+04  0.39163840906E+02 -0.76387793376E+03  0.13539124937E+04  0.50400001928E-02 0.  1.
       -1    1    3    3    0  502 -0.11171551980E+04 -0.39163840906E+02  0.12822362205E+04  0.17010876720E+04  0.50400001928E-02 0. -1.
</event>
<event>
 5   0  0.1368865E-07  0.3856601E+04  0.7818609E-02  0.8034116E-01
       -1   -1    0    0    0  501  0.00000000000E+00  0.00000000000E+00  0.23803622418E+04  0.23803622418E+04  0.50400001928E-02 0. -1.
        1   -1    0    0  501    0  0.00000000000E+00  0.00000000000E+00 -0.15620914826E+04  0.15620914826E+04  0.50400001928E-02 0.  1.
    10030    2    1    2    0    0  0.00000000000E+00  0.00000000000E+00  0.81827075917E+03  0.39424537245E+04  0.38566013968E+04 0.  0.
        5    1    3    3  502    0  0.14559207999E+04  0.42675531297E+03  0.16257962188E+04  0.22237492907E+04  0.46999998093E+01 0. -1.
       -5    1    3    3    0  502 -0.14559207999E+04 -0.42675531297E+03 -0.80752545966E+03  0.17187044338E+04  0.46999998093E+01 0.  1.
</event>
<event>
 5   0  0.4047916E-07  0.3995724E+04  0.7818609E-02  0.8005410E-01
        2   -1    0    0  501    0  0.00000000000E+00  0.00000000000E+00  0.29886306032E+04  0.29886306032E+04  0.25500000920E-02 0. -1.
       -2   -1    0    0    0  501  0.00000000000E+00  0.00000000000E+00 -0.13355453914E+04  0.13355453914E+04  0.25500000920E-02 0.  1.
    10030    2    1    2    0    0  0.00000000000E+00  0.00000000000E+00  0.16530852118E+04  0.43241759946E+04  0.39957236284E+04 0.  0.
        5    1    3    3  502    0  0.82192927750E+03  0.15917713772E+04 -0.13053300475E+03  0.17962084539E+04  0.46999998093E+01 0.  1.
       -5    1    3    3    0  502 -0.82192927750E+03 -0.15917713772E+04  0.17836182166E+04  0.25279675407E+04  0.46999998093E+01 0. -1.
</event>
<event>
 5   0  0.1421304E-07  0.3953662E+04  0.7818609E-02  0.8013960E-01
        1   -1    0    0  501    0  0.00000000000E+00  0.00000000000E+00  0.17357459015E+04  0.17357459015E+04  0.50400001928E-02 0.  1.
       -1   -1    0    0    0  501  0.00000000000E+00  0.00000000000E+00 -0.22514016374E+04  0.22514016374E+04  0.50400001928E-02 0. -1.
    10030    2    1    2    0    0  0.00000000000E+00  0.00000000000E+00 -0.51565573584E+03  0.39871475389E+04  0.39536621833E+04 0.  0.
        2    1    3    3  502    0 -0.14826610080E+04 -0.68958315160E+03  0.86245986211E+03  0.18486875349E+04  0.25500000920E-02 0.  1.
       -2    1    3    3    0  502  0.14826610080E+04  0.68958315160E+03 -0.13781155980E+04  0.21384600041E+04  0.25500000920E-02 0. -1.
</event>
<event>
 5   0  0.4047916E-07  0.4357734E+04  0.7818609E-02  0.7936028E-01
       -2   -1    0    0    0  501  0.00000000000E+00  0.00000000000E+00  0.24679574663E+04  0.24679574663E+04  0.25500000920E-02 0. -1.
        2   -1    0    0  501    0  0.00000000000E+00  0.00000000000E+00 -0.19236397691E+04  0.19236397691E+04  0.25500000920E-02 0.  1.
    10030    2    1    2    0    0  0.00000000000E+00  0.00000000000E+00  0.54431769728E+03  0.43915972354E+04  0.43577338747E+04 0.  0.
        5    1    3    3  502    0 -0.13017123035E+04 -0.10986738804E+04  0.16413556084E+04  0.23655040773E+04  0.46999998093E+01 0. -1.
       -5    1    3    3    0  502  0.13017123035E+04  0.10986738804E+04 -0.10970379111E+04  0.20260931581E+04  0.46999998093E+01 0.  1.
</event>
<event>
 5   0  0.1351000E-07  0.2868952E+04  0.7818609E-02  0.8282175E-01
        1   -1    0    0  501    0  0.00000000000E+00  0.00000000000E+00  0.10338906660E+04  0.10338906661E+04  0.50400001928E-02 0. -1.
       -1   -1    0    0    0  501  0.00000000000E+00  0.00000000000E+00 -0.19902702270E+04  0.19902702270E+04  0.50400001928E-02 0.  1.
    10030    2    1    2    0    0  0.00000000000E+00  0.00000000000E+00 -0.95637956099E+03  0.30241608931E+04  0.28689522901E+04 0.  0.
        3    1    3    3  502    0  0.36852562860E+02  0.93964143135E+03 -0.16200464155E+04  0.18731883326E+04  0.10100000352E+00 0.  1.
       -3    1    3    3    0  502 -0.36852562860E+02 -0.93964143135E+03  0.66366685454E+03  0.11509725605E+04  0.10100000352E+00 0. -1.
</event>
<event>
 5   0  0.1351000E-07  0.3599574E+04  0.7818609E-02  0.8090589E-01
       -1   -1    0    0    0  501  0.00000000000E+00  0.00000000000E+00  0.31833718494E+04  0.31833718494E+04  0.50400001928E-02 0. -1.
        1   -1    0    0  501    0  0.00000000000E+00  0.00000000000E+00 -0.10175480627E+04  0.10175480627E+04  0.50400001928E-02 0.  1.
    10030    2    1    2    0    0  0.00000000000E+00  0.00000000000E+00  0.21658237867E+04  0.42009199121E+04  0.35995743405E+04 0.  0.
        4    1    3    3  502    0  0.62440977608E+03  0.91360908134E+03 -0.57359967569E+03  0.12464298307E+04  0.12699999809E+01 0.  1.
       -4    1    3    3    0  502 -0.62440977608E+03 -0.91360908134E+03  0.27394234624E+04  0.29544900815E+04  0.12699999809E+01 0. -1.
</event>
<event>
 5   0  0.1351000E-07  0.4016747E+04  0.7818609E-02  0.8001177E-01
       -1   -1    0    0    0  501  0.00000000000E+00  0.00000000000E+00  0.19839507451E+04  0.19839507451E+04  0.50400001928E-02 0. -1.
        1   -1    0    0  501    0  0.00000000000E+00  0.00000000000E+00 -0.20330964357E+04  0.20330964357E+04  0.50400001928E-02 0.  1.
    10030    2    1    2    0    0  0.00000000000E+00  0.00000000000E+00 -0.49145690672E+02  0.40170471808E+04  0.40167465384E+04 0.  0.
        3    1    3    3  502    0  0.72031222225E+02  0.60368859513E+03 -0.19388568506E+04  0.20319434820E+04  0.10100000352E+00 0.  1.
       -3    1    3    3    0  502 -0.72031222225E+02 -0.60368859513E+03  0.18897111599E+04  0.19851036988E+04  0.10100000352E+00 0. -1.
</event>
<event>
 5   0  0.1351000E-07  0.2854151E+04  0.7818609E-02  0.8286651E-01
       -1   -1    0    0    0  501  0.00000000000E+00  0.00000000000E+00  0.12406305990E+04  0.12406305990E+04  0.50400001928E-02 0.  1.
        1   -1    0    0  501    0  0.00000000000E+00  0.00000000000E+00 -0.16415392839E+04  0.16415392839E+04  0.50400001928E-02 0. -1.
    10030    2    1    2    0    0  0.00000000000E+00  0.00000000000E+00 -0.40090868487E+03  0.28821698829E+04  0.28541505672E+04 0.  0.
        3    1    3    3  502    0 -0.10969997032E+03 -0.14227883529E+04 -0.18679102168E+03  0.14391843790E+04  0.10100000352E+00 0.  1.
       -3    1    3    3    0  502  0.10969997032E+03  0.14227883529E+04 -0.21411766319E+03  0.14429855039E+04  0.10100000352E+00 0. -1.
</event>
<event>
 5   0  0.4149487E-07  0.2742666E+04  0.7818609E-02  0.8321293E-01
       -2   -1    0    0    0  501  0.00000000000E+00  0.00000000000E+00  0.13782601615E+04  0.13782601615E+04  0.25500000920E-02 0.  1.
        2   -1    0    0  501    0  0.00000000000E+00  0.00000000000E+00 -0.13644401829E+04  0.13644401829E+04  0.25500000920E-02 0. -1.
    10030    2    1    2    0    0  0.00000000000E+00  0.00000000000E+00  0.13819978620E+02  0.27427003444E+04  0.27426655260E+04 0.  0.
        2    1    3    3  502    0 -0.13566947876E+04 -0.14802716443E+03  0.14115311342E+03  0.13720265994E+04  0.25500000920E-02 0. -1.
       -2    1    3    3    0  502  0.13566947876E+04  0.14802716443E+03 -0.12733313480E+03  0.13706737450E+04  0.25500000920E-02 0.  1.
</event>
<event>
 5   0  0.1368865E-07  0.3997150E+04  0.7818609E-02  0.8005122E-01
       -1   -1    0    0    0  501  0.00000000000E+00  0.00000000000E+00  0.12605566387E+04  0.12605566387E+04  0.50400001928E-02 0. -1.
        1   -1    0    0  501    0  0.00000000000E+00  0.00000000000E+00 -0.31686818763E+04  0.31686818763E+04  0.50400001928E-02 0.  1.
    10030    2    1    2    0    0  0.00000000000E+00  0.00000000000E+00 -0.19081252375E+04  0.44292385150E+04  0.39971504726E+04 0.  0.
        5    1    3    3  502    0 -0.78845369534E+03 -0.68424989695E+03  0.93440072210E+03  0.14010652914E+04  0.46999998093E+01 0. -1.
       -5    1    3    3    0  502  0.78845369534E+03  0.68424989695E+03 -0.28425259596E+04  0.30281732236E+04  0.46999998093E+01 0.  1.
</event>
<event>
 5   0  0.1421304E-07  0.2738561E+04  0.7818609E-02  0.8322601E-01
        1   -1    0    0  501    0  0.00000000000E+00  0.00000000000E+00  0.15110092092E+04  0.15110092092E+04  0.50400001928E-02 0.  1.
       -1   -1    0    0    0  501  0.00000000000E+00  0.00000000000E+00 -0.12408457611E+04  0.12408457611E+04  0.50400001928E-02 0. -1.
    10030    2    1    2    0    0  0.00000000000E+00  0.00000000000E+00  0.27016344812E+03  0.27518549703E+04  0.27385612078E+04 0.  0.
        2    1    3    3  502    0 -0.53622890719E+03  0.84020372033E+03 -0.80832910408E+03  0.12833080975E+04  0.25500000920E-02 0. -1.
       -2    1    3    3    0  502  0.53622890719E+03 -0.84020372033E+03  0.10784925522E+04  0.14685468728E+04  0.25500000920E-02 0.  1.
</event>
<event>
 5   0  0.1351000E-07  0.3975204E+04  0.7818609E-02  0.8009567E-01
        1   -1    0    0  501    0  0.00000000000E+00  0.00000000000E+00  0.22298313005E+04  0.22298313005E+04  0.50400001928E-02 0.  1.
       -1   -1    0    0    0  501  0.00000000000E+00  0.00000000000E+00 -0.17716866715E+04  0.17716866715E+04  0.50400001928E-02 0. -1.
    10030    2    1    2    0    0  0.00000000000E+00  0.00000000000E+00  0.45814462906E+03  0.40015179720E+04  0.39752043443E+04 0.  0.
        3    1    3    3  502    0  0.16076408406E+04  0.11476743032E+04  0.64819059979E+01  0.19752740073E+04  0.10100000352E+00 0.  1.
       -3    1    3    3    0  502 -0.16076408406E+04 -0.11476743032E+04  0.45166272306E+03  0.20262439647E+04  0.10100000352E+00 0. -1.
</event>
<event>
 5   0  0.4301754E-07  0.2693514E+04  0.7818609E-02  0.8337113E-01
       -2   -1    0    0    0  501  0.00000000000E+00  0.00000000000E+00  0.84612984629E+03  0.84612984629E+03  0.25500000920E-02 0.  1.
        2   -1    0    0  501    0  0.00000000000E+00  0.00000000000E+00 -0.21435886216E+04  0.21435886216E+04  0.25500000920E-02 0. -1.
    10030    2    1    2    0    0  0.00000000000E+00  0.00000000000E+00 -0.12974587753E+04  0.29897184679E+04  0.26935139212E+04 0.  0.
        1    1    3    3  502    0  0.14253955619E+03 -0.11771618162E+04 -0.13574837135E+04  0.18024398739E+04  0.50400001928E-02 0. -1.
       -1    1    3    3    0  502 -0.14253955619E+03  0.11771618162E+04  0.60024938206E+02  0.11872785940E+04  0.50400001928E-02 0.  1.
</event>
<event>
 5   0  0.4149487E-07  0.3438392E+04  0.7818609E-02  0.8128547E-01
       -2   -1    0    0    0  501  0.00000000000E+00  0.00000000000E+00  0.13315961383E+04  0.13315961383E+04  0.25500000920E-02 0.  1.
        2   -1    0    0  501    0  0.00000000000E+00  0.00000000000E+00 -0.22196186362E+04  0.22196186362E+04  0.25500000920E-02 0. -1.
    10030    2    1    2    0    0  0.00000000000E+00  0.00000000000E+00 -0.88802249785E+03  0.35512147745E+04  0.34383924177E+04 0.  0.
        2    1    3    3  502    0 -0.10505577639E+04  0.46153975092E+03 -0.17662311653E+04  0.21062438335E+04  0.25500000920E-02 0. -1.
       -2    1    3    3    0  502  0.10505577639E+04 -0.46153975092E+03  0.87820866744E+03  0.14449709410E+04  0.25500000920E-02 0.  1.
</event>
<event>
 5   0  0.1351000E-07  0.4018031E+04  0.7818609E-02  0.8000919E-01
        1   -1    0    0  501    0  0.00000000000E+00  0.00000000000E+00  0.15261968572E+04  0.15261968572E+04  0.50400001928E-02 0.  1.
       -1   -1    0    0    0  501  0.00000000000E+00  0.00000000000E+00 -0.26445757172E+04  0.26445757172E+04  0.50400001928E-02 0. -1.
    10030    2    1    2    0    0  0.00000000000E+00  0.00000000000E+00 -0.11183788601E+04  0.41707725744E+04  0.40180309348E+04 0.  0.
        3    1    3    3  502    0 -0.10669780987E+04 -0.15446352909E+04  0.18340983732E+03  0.18862607518E+04  0.10100000352E+00 0.  1.
       -3    1    3    3    0  502  0.10669780987E+04  0.15446352909E+04 -0.13017886974E+04  0.22845118227E+04  0.10100000352E+00 0. -1.
</event>
<event>
 5   0  0.4301754E-07  0.3969100E+04  0.7818609E-02  0.8010809E-01
       -2   -1    0    0    0  501  0.00000000000E+00  0.00000000000E+00  0.12900971109E+04  0.12900971109E+04  0.25500000920E-02 0. -1.
        2   -1    0    0  501    0  0.00000000000E+00  0.00000000000E+00 -0.30528235928E+04  0.30528235928E+04  0.25500000920E-02 0.  1.
    10030    2    1    2    0    0  0.00000000000E+00  0.00000000000E+00 -0.17627264820E+04  0.43429207037E+04  0.39691000981E+04 0.  0.
        1    1    3    3  502    0  0.28026715531E+03  0.13268948928E+04 -0.24666973655E+04  0.28149237339E+04  0.50400001928E-02 0.  1.
       -1    1    3    3    0  502 -0.28026715531E+03 -0.13268948928E+04  0.70397088353E+03  0.15279969698E+04  0.50400001928E-02 0. -1.
</event>
<event>
 5   0  0.1372952E-07  0.2616821E+04  0.7818609E-02  0.8362510E-01
       -1   -1    0    0    0  501  0.00000000000E+00  0.00000000000E+00  0.16091037080E+04  0.16091037080E+04  0.50400001928E-02 0.  1.
        1   -1    0    0  501    0  0.00000000000E+00  0.00000000000E+00 -0.10639075459E+04  0.10639075459E+04  0.50400001928E-02 0. -1.
    10030    2    1    2    0    0  0.00000000000E+00  0.00000000000E+00  0.54519616209E+03  0.26730112539E+04  0.26168206489E+04 0.  0.
        1    1    3    3  502    0 -0.31730423024E+03  0.12254136749E+04 -0.65595719517E+02  0.12675265077E+04  0.50400001928E-02 0. -1.
       -1    1    3    3    0  502  0.31730423024E+03 -0.12254136749E+04  0.61079188161E+03  0.14054847462E+04  0.50400001928E-02 0.  1.
</event>
<event>
 5   0  0.1351000E-07  0.3662605E+04  0.7818609E-02  0.8076300E-01
        1   -1    0    0  501    0  0.00000000000E+00  0.00000000000E+00  0.22586166852E+04  0.22586166852E+04  0.50400001928E-02 0. -1.
       -1   -1    0    0    0  501  0.00000000000E+00  0.00000000000E+00 -0.14848333004E+04  0.14848333004E+04  0.50400001928E-02 0.  1.
    10030    2    1    2    0    0  0.00000000000E+00  0.00000000000E+00  0.77378338478E+03  0.37434499857E+04  0.36626052297E+04 0.  0.
        3    1    3    3  502    0  0.17018661418E+04  0.13463041549E+03  0.10642381850E+04  0.20117347335E+04  0.10100000352E+00 0. -1.
       -3    1    3    3    0  502 -0.17018661418E+04 -0.13463041549E+03 -0.29045480017E+03  0.17317152522E+04  0.10100000352E+00 0.  1.
</event>
<event>
 5   0  0.4079777E-07  0.4049251E+04  0.7818609E-02  0.7994684E-01
        2   -1    0    0  501    0  0.00000000000E+00  0.00000000000E+00  0.22515572498E+04  0.22515572498E+04  0.25500000920E-02 0. -1.
       -2   -1    0    0    0  501  0.00000000000E+00  0.00000000000E+00 -0.18205655566E+04  0.18205655566E+04  0.25500000920E-02 0.  1.
    10030    2    1    2    0    0  0.00000000000E+00  0.00000000000E+00  0.43099169316E+03  0.40721228064E+04  0.40492505863E+04 0.  0.
        4    1    3    3  502    0  0.63752479046E+03  0.18082253985E+03  0.21394071845E+04  0.22396873360E+04  0.12699999809E+01 0. -1.
       -4    1    3    3    0  502 -0.63752479046E+03 -0.18082253985E+03 -0.17084154913E+04  0.18324354704E+04  0.12699999809E+01 0.  1.
</event>
<event>
 5   0  0.4047916E-07  0.3862140E+04  0.7818609E-02  0.8032950E-01
        2   -1    0    0  501    0  0.00000000000E+00  0.00000000000E+00  0.30727073336E+04  0.30727073336E+04  0.25500000920E-02 0. -1.
       -2   -1    0    0    0  501  0.00000000000E+00  0.00000000000E+00 -0.12135982660E+04  0.12135982660E+04  0.25500000920E-02 0.  1.
    10030    2    1    2    0    0  0.00000000000E+00  0.00000000000E+00  0.18591090676E+04  0.42863055996E+04  0.38621404904E+04 0.  0.
        5    1    3    3  502    0 -0.17713416771E+04  0.39322945946E+03  0.19612008117E+03  0.18250386081E+04  0.46999998093E+01 0.  1.
       -5    1    3    3    0  502  0.17713416771E+04 -0.39322945946E+03  0.16629889865E+04  0.24612669916E+04  0.46999998093E+01 0. -1.
</event>
<event>
 5   0  0.4301754E-07  0.3999949E+04  0.7818609E-02  0.8004557E-01
        2   -1    0    0  501    0  0.00000000000E+00  0.00000000000E+00  0.19960233383E+04  0.19960233383E+04  0.25500000920E-02 0. -1.
       -2   -1    0    0    0  501  0.00000000000E+00  0.00000000000E+00 -0.20039333565E+04  0.20039333565E+04  0.25500000920E-02 0.  1.
    10030    2    1    2    0    0  0.00000000000E+00  0.00000000000E+00 -0.79100182728E+01  0.39999566948E+04  0.39999488737E+04 0.  0.
        1    1    3    3  502    0 -0.42068537749E+03 -0.86840880201E+03 -0.17557540029E+04  0.20034425754E+04  0.50400001928E-02 0.  1.
       -1    1    3    3    0  502  0.42068537749E+03  0.86840880201E+03  0.17478439846E+04  0.19965141194E+04  0.50400001928E-02 0. -1.
</event>
<event>
 5   0  0.4047916E-07  0.4107843E+04  0.7818609E-02  0.7983138E-01
       -2   -1    0    0    0  501  0.00000000000E+00  0.00000000000E+00  0.19918147640E+04  0.19918147640E+04  0.25500000920E-02 0. -1.
        2   -1    0    0  501    0  0.00000000000E+00  0.00000000000E+00 -0.21179651847E+04  0.21179651847E+04  0.25500000920E-02 0.  1.
    10030    2    1    2    0    0  0.00000000000E+00  0.00000000000E+00 -0.12615042066E+03  0.41097799487E+04  0.41078433877E+04 0.  0.
        5    1    3    3  502    0  0.12790056213E+04 -0.93504349901E+03  0.12446027630E+04  0.20147505682E+04  0.46999998093E+01 0. -1.
       -5    1    3    3    0  502 -0.12790056213E+04  0.93504349901E+03 -0.13707531837E+04  0.20950293805E+04  0.46999998093E+01 0.  1.
</event>
<event>
 5   0  0.4079777E-07  0.3959704E+04  0.7818609E-02  0.8012725E-01
       -2   -1    0    0    0  501  0.00000000000E+00  0.00000000000E+00  0.23649702635E+04  0.23649702635E+04  0.25500000920E-02 0.  1.
        2   -1    0    0  501    0  0.00000000000E+00  0.00000000000E+00 -0.16574472330E+04  0.16574472330E+04  0.25500000920E-02 0. -1.
    10030    2    1    2    0    0  0.00000000000E+00  0.00000000000E+00  0.70752303050E+03  0.40224174966E+04  0.39597037362E+04 0.  0.
        4    1    3    3  502    0 -0.39802934495E+02 -0.19252851362E+04 -0.11341869710E+03  0.19290340959E+04  0.12699999809E+01 0.  1.
       -4    1    3    3    0  502  0.39802934495E+02  0.19252851362E+04  0.82094172760E+03  0.20933834007E+04  0.12699999809E+01 0. -1.
</event>
<event>
 5   0  0.1351000E-07  0.2529266E+04  0.7818609E-02  0.8392633E-01
       -1   -1    0    0    0  501  0.00000000000E+00  0.00000000000E+00  0.11428499674E+04  0.11428499674E+04  0.50400001928E-02 0.  1.
        1   -1    0    0  501    0  0.00000000000E+00  0.00000000000E+00 -0.13993927803E+04  0.13993927803E+04  0.50400001928E-02 0. -1.
    10030    2    1    2    0    0  0.00000000000E+00  0.00000000000E+00 -0.25654281285E+03  0.25422427477E+04  0.25292655008E+04 0.  0.
        3    1    3    3  502    0 -0.13176175134E+03  0.57594380033E+03 -0.12521423333E+04  0.13845334424E+04  0.10100000352E+00 0. -1.
       -3    1    3    3    0  502  0.13176175134E+03 -0.57594380033E+03  0.99559952041E+03  0.11577093053E+04  0.10100000352E+00 0.  1.
</event>
<event>
 5   0  0.1351000E-07  0.3615535E+04  0.7818609E-02  0.8086942E-01
       -1   -1    0    0    0  501  0.00000000000E+00  0.00000000000E+00  0.24287248949E+04  0.24287248949E+04  0.50400001928E-02 0. -1.
        1   -1    0    0  501    0  0.00000000000E+00  0.00000000000E+00 -0.13455718238E+04  0.13455718238E+04  0.50400001928E-02 0.  1.
    10030    2    1    2    0    0  0.00000000000E+00  0.00000000000E+00  0.10831530711E+04  0.37742967188E+04  0.36155352503E+04 0.  0.
        3    1    3    3  502    0  0.41310174119E+03  0.92468791271E+03  0.21047692577E+04  0.23357556428E+04  0.10100000352E+00 0. -1.
       -3    1    3    3    0  502 -0.41310174119E+03 -0.92468791271E+03 -0.10216161866E+04  0.14385410760E+04  0.10100000352E+00 0.  1.
</event>
<event>
 5   0  0.4077370E-07  0.3975368E+04  0.7818609E-02  0.8009534E-01
       -2   -1    0    0    0  501  0.00000000000E+00  0.00000000000E+00  0.17942990538E+04  0.17942990538E+04  0.25500000920E-02 0.  1.
        2   -1    0    0  501    0  0.00000000000E+00  0.00000000000E+00 -0.22019112076E+04  0.22019112076E+04  0.25500000920E-02 0. -1.
    10030    2    1    2    0    0  0.00000000000E+00  0.00000000000E+00 -0.40761215389E+03  0.39962102614E+04  0.39753677547E+04 0.  0.
        3    1    3    3  502    0  0.17577334739E+04 -0.87033240535E+03 -0.52764680165E+03  0.20311367799E+04  0.10100000352E+00 0.  1.
       -3    1    3    3    0  502 -0.17577334739E+04  0.87033240535E+03  0.12003464776E+03  0.19650734815E+04  0.10100000352E+00 0. -1.
</event>
<event>
 5   0  0.4079777E-07  0.3927733E+04  0.7818609E-02  0.8019286E-01
        2   -1    0    0  501    0  0.00000000000E+00  0.00000000000E+00  0.21332058271E+04  0.21332058272E+04  0.25500000920E-02 0. -1.
       -2   -1    0    0    0  501  0.00000000000E+00  0.00000000000E+00 -0.18079700692E+04  0.18079700693E+04  0.25500000920E-02 0.  1.
    10030    2    1    2    0    0  0.00000000000E+00  0.00000000000E+00  0.32523575790E+03  0.39411758964E+04  0.39277333347E+04 0.  0.
        4    1    3    3  502    0  0.18523063486E+04  0.57582668624E+03 -0.14527996883E+03  0.19451794426E+04  0.12699999809E+01 0.  1.
       -4    1    3    3    0  502 -0.18523063486E+04 -0.57582668624E+03  0.47051572673E+03  0.19959964538E+04  0.12699999809E+01 0. -1.
</event>
<event>
 5   0  0.1421304E-07  0.3965170E+04  0.7818609E-02  0.8011610E-01
        1   -1    0    0  501    0  0.00000000000E+00  0.00000000000E+00  0.21747124781E+04  0.21747124781E+04  0.50400001928E-02 0. -1.
       -1   -1    0    0    0  501  0.00000000000E+00  0.00000000000E+00 -0.18074311537E+04  0.18074311537E+04  0.50400001928E-02 0.  1.
    10030    2    1    2    0    0  0.00000000000E+00  0.00000000000E+00  0.36728132435E+03  0.39821436318E+04  0.39651698997E+04 0.  0.
        2    1    3    3  502    0 -0.97965615523E+03  0.15754085229E+04 -0.51864163225E+03  0.19262988707E+04  0.25500000920E-02 0. -1.
       -2    1    3    3    0  502  0.97965615523E+03 -0.15754085229E+04  0.88592295660E+03  0.20558447611E+04  0.25500000920E-02 0.  1.
</event>
<event>
 5   0  0.1372952E-07  0.2527446E+04  0.7818609E-02  0.8393273E-01
        1   -1    0    0  501    0  0.00000000000E+00  0.00000000000E+00  0.54861018544E+03  0.54861018546E+03  0.50400001928E-02 0.  1.
       -1   -1    0    0    0  501  0.00000000000E+00  0.00000000000E+00 -0.29109838936E+04  0.29109838936E+04  0.50400001928E-02 0. -1.
    10030    2    1    2    0    0  0.00000000000E+00  0.00000000000E+00 -0.23623737082E+04  0.34595940791E+04  0.25274456780E+04 0.  0.
        1    1    3    3  502    0  0.11213367733E+04 -0.49182780187E+03 -0.75332755874E+03  0.14376345699E+04  0.50400001928E-02 0.  1.
       -1    1    3    3    0  502 -0.11213367733E+04  0.49182780187E+03 -0.16090461495E+04  0.20219595092E+04  0.50400001928E-02 0. -1.
</event>
<event>
 5   0  0.1421304E-07  0.3164614E+04  0.7818609E-02  0.8198225E-01
       -1   -1    0    0    0  501  0.00000000000E+00  0.00000000000E+00  0.99240902042E+03  0.99240902043E+03  0.50400001928E-02 0. -1.
        1   -1    0    0  501    0  0.00000000000E+00  0.00000000000E+00 -0.25228465356E+04  0.25228465356E+04  0.50400001928E-02 0.  1.
    10030    2    1    2    0    0  0.00000000000E+00  0.00000000000E+00 -0.15304375152E+04  0.35152555560E+04  0.31646141370E+04 0.  0.
        2    1    3    3  502    0 -0.93633886966E+03 -0.12575244781E+04 -0.52802348859E+03  0.16543600263E+04  0.25500000920E-02 0. -1.
       -2    1    3    3    0  502  0.93633886966E+03  0.12575244781E+04 -0.10024140266E+04  0.18608955298E+04  0.25500000920E-02 0.  1.
</event>
<event>
 5   0  0.4079777E-07  0.3519332E+04  0.7818609E-02  0.8109224E-01
       -2   -1    0    0    0  501  0.00000000000E+00  0.00000000000E+00  0.17257494610E+04  0.17257494610E+04  0.25500000920E-02 0.  1.
        2   -1    0    0  501    0  0.00000000000E+00  0.00000000000E+00 -0.17942489490E+04  0.17942489490E+04  0.25500000920E-02 0. -1.
    10030    2    1    2    0    0  0.00000000000E+00  0.00000000000E+00 -0.68499487982E+02  0.35199984099E+04  0.35193318437E+04 0.  0.
        4    1    3    3  502    0 -0.61932851637E+03  0.14852138811E+04 -0.74642003896E+03  0.17738581034E+04  0.12699999809E+01 0. -1.
       -4    1    3    3    0  502  0.61932851637E+03 -0.14852138811E+04  0.67792055098E+03  0.17461403065E+04  0.12699999809E+01 0.  1.
</event>
<event>
 5   0  0.4079777E-07  0.3982851E+04  0.7818609E-02  0.8008015E-01
        2   -1    0    0  501    0  0.00000000000E+00  0.00000000000E+00  0.23724528654E+04  0.23724528654E+04  0.25500000920E-02 0.  1.
       -2   -1    0    0    0  501  0.00000000000E+00  0.00000000000E+00 -0.16715925526E+04  0.16715925526E+04  0.25500000920E-02 0. -1.
    10030    2    1    2    0    0  0.00000000000E+00  0.00000000000E+00  0.70086031282E+03  0.40440454181E+04  0.39828505075E+04 0.  0.
        4    1    3    3  502    0  0.83225434045E+03  0.11754951462E+04 -0.10459589600E+04  0.17800190687E+04  0.12699999809E+01 0. -1.
       -4    1    3    3    0  502 -0.83225434045E+03 -0.11754951462E+04  0.17468192728E+04  0.22640263494E+04  0.12699999809E+01 0.  1.
</event>
<event>
 5   0  0.4047916E-07  0.4154397E+04  0.7818609E-02  0.7974104E-01
        2   -1    0    0  501    0  0.00000000000E+00  0.00000000000E+00  0.23447652547E+04  0.23447652547E+04  0.25500000920E-02 0. -1.
       -2   -1    0    0    0  501  0.00000000000E+00  0.00000000000E+00 -0.18401644522E+04  0.18401644522E+04  0.25500000920E-02 0.  1.
    10030    2    1    2    0    0  0.00000000000E+00  0.00000000000E+00  0.50460080251E+03  0.41849297069E+04  0.41543970299E+04 0.  0.
        5    1    3    3  502    0  0.24925560470E+03  0.20560265016E+04  0.91887313955E+02  0.20731229342E+04  0.46999998093E+01 0.  1.
       -5    1    3    3    0  502 -0.24925560470E+03 -0.20560265016E+04  0.41271348856E+03  0.21118067728E+04  0.46999998093E+01 0. -1.
</event>
<event>
 5   0  0.1351000E-07  0.2613705E+04  0.7818609E-02  0.8363561E-01
        1   -1    0    0  501    0  0.00000000000E+00  0.00000000000E+00  0.12244270815E+04  0.12244270815E+04  0.50400001928E-02 0.  1.
       -1   -1    0    0    0  501  0.00000000000E+00  0.00000000000E+00 -0.13948261787E+04  0.13948261787E+04  0.50400001928E-02 0. -1.
    10030    2    1    2    0    0  0.00000000000E+00  0.00000000000E+00 -0.17039909718E+03  0.26192532602E+04  0.26137046101E+04 0.  0.
        3    1    3    3  502    0  0.12036563780E+04 -0.49209639093E+03  0.45135783408E+02  0.13011474871E+04  0.10100000352E+00 0.  1.
       -3    1    3    3    0  502 -0.12036563780E+04  0.49209639093E+03 -0.21553488058E+03  0.13181057731E+04  0.10100000352E+00 0. -1.
</event>
<event>
 5   0  0.2024574E-07  0.2519713E+04  0.7818609E-02  0.8395996E-01
       -1   -1    0    0    0  501  0.00000000000E+00  0.00000000000E+00  0.97876996475E+03  0.97876996476E+03  0.50400001928E-02 0.  1.
        1   -1    0    0  501    0  0.00000000000E+00  0.00000000000E+00 -0.16216660455E+04  0.16216660455E+04  0.50400001928E-02 0. -1.
    10030    2    1    2    0    0  0.00000000000E+00  0.00000000000E+00 -0.64289608077E+03  0.26004360103E+04  0.25197126965E+04 0.  0.
        2    1    3    3  502    0 -0.29010419594E+03  0.13762445867E+03 -0.15787284692E+04  0.16110507489E+04  0.25500000920E-02 0. -1.
       -2    1    3    3    0  502  0.29010419594E+03 -0.13762445867E+03  0.93583238844E+03  0.98938526135E+03  0.25500000920E-02 0.  1.
</event>
<event>
 5   0  0.4301754E-07  0.4029789E+04  0.7818609E-02  0.7998564E-01
        2   -1    0    0  501    0  0.00000000000E+00  0.00000000000E+00  0.22545506914E+04  0.22545506914E+04  0.25500000920E-02 0.  1.
       -2   -1    0    0    0  501  0.00000000000E+00  0.00000000000E+00 -0.18007132039E+04  0.18007132040E+04  0.25500000920E-02 0. -1.
    10030    2    1    2    0    0  0.00000000000E+00  0.00000000000E+00  0.45383748743E+03  0.40552638953E+04  0.40297886788E+04 0.  0.
        1    1    3    3  502    0 -0.13944619225E+04 -0.12609387484E+04  0.95628238787E+03  0.21092573541E+04  0.50400001928E-02 0.  1.
       -1    1    3    3    0  502  0.13944619225E+04  0.12609387484E+04 -0.50244490044E+03  0.19460065412E+04  0.50400001928E-02 0. -1.
</event>
<event>
 5   0  0.1351000E-07  0.4052635E+04  0.7818609E-02  0.7994012E-01
        1   -1    0    0  501    0  0.00000000000E+00  0.00000000000E+00  0.28142036717E+04  0.28142036717E+04  0.50400001928E-02 0.  1.
       -1   -1    0    0    0  501  0.00000000000E+00  0.00000000000E+00 -0.14590141782E+04  0.14590141782E+04  0.50400001928E-02 0. -1.
    10030    2    1    2    0    0  0.00000000000E+00  0.00000000000E+00  0.13551894935E+04  0.42732178499E+04  0.40526352204E+04 0.  0.
        4    1    3    3  502    0 -0.16753078767E+04  0.31834420350E+03 -0.47649352600E+03  0.17706064517E+04  0.12699999809E+01 0. -1.
       -4    1    3    3    0  502  0.16753078767E+04 -0.31834420350E+03  0.18316830195E+04  0.25026113982E+04  0.12699999809E+01 0.  1.
</event>
<event>
 5   0  0.4079777E-07  0.4069562E+04  0.7818609E-02  0.7990659E-01
       -2   -1    0    0    0  501  0.00000000000E+00  0.00000000000E+00  0.22393450628E+04  0.22393450628E+04  0.25500000920E-02 0.  1.
        2   -1    0    0  501    0  0.00000000000E+00  0.00000000000E+00 -0.18489038536E+04  0.18489038536E+04  0.25500000920E-02 0. -1.
    10030    2    1    2    0    0  0.00000000000E+00  0.00000000000E+00  0.39044120912E+03  0.40882489164E+04  0.40695619991E+04 0.  0.
        4    1    3    3  502    0 -0.16413782195E+04  0.13246603787E+03 -0.10055345714E+04  0.19294483921E+04  0.12699999809E+01 0. -1.
       -4    1    3    3    0  502  0.16413782195E+04 -0.13246603787E+03  0.13959757805E+04  0.21588005242E+04  0.12699999809E+01 0.  1.
</event>
<event>
 5   0  0.4149487E-07  0.3971914E+04  0.7818609E-02  0.8010236E-01
       -2   -1    0    0    0  501  0.00000000000E+00  0.00000000000E+00  0.15438779387E+04  0.15438779387E+04  0.25500000920E-02 0. -1.
        2   -1    0    0  501    0  0.00000000000E+00  0.00000000000E+00 -0.25546225024E+04  0.25546225024E+04  0.25500000920E-02 0.  1.
    10030    2    1    2    0    0  0.00000000000E+00  0.00000000000E+00 -0.10107445637E+04  0.40985004411E+04  0.39719140591E+04 0.  0.
        2    1    3    3  502    0 -0.89331712725E+03  0.84300635600E+03 -0.21156687716E+04  0.24463706909E+04  0.25500000920E-02 0.  1.
       -2    1    3    3    0  502  0.89331712725E+03 -0.84300635600E+03  0.11049242080E+04  0.16521297502E+04  0.25500000920E-02 0. -1.
</event>
<event>
 5   0  0.1351000E-07  0.4026651E+04  0.7818609E-02  0.7999192E-01
        1   -1    0    0  501    0  0.00000000000E+00  0.00000000000E+00  0.28957123062E+04  0.28957123062E+04  0.50400001928E-02 0. -1.
       -1   -1    0    0    0  501  0.00000000000E+00  0.00000000000E+00 -0.13998209359E+04  0.13998209359E+04  0.50400001928E-02 0.  1.
    10030    2    1    2    0    0  0.00000000000E+00  0.00000000000E+00  0.14958913703E+04  0.42955332422E+04  0.40266505737E+04 0.  0.
        4    1    3    3  502    0 -0.58644006747E+03  0.84193948554E+03 -0.10999806304E+04  0.15042383622E+04  0.12699999809E+01 0.  1.
       -4    1    3    3    0  502  0.58644006747E+03 -0.84193948554E+03  0.25958720007E+04  0.27912948800E+04  0.12699999809E+01 0. -1.
</event>
<event>
 5   0  0.4079777E-07  0.3602599E+04  0.7818609E-02  0.8089897E-01
        2   -1    0    0  501    0  0.00000000000E+00  0.00000000000E+00  0.24466874341E+04  0.24466874341E+04  0.25500000920E-02 0.  1.
       -2   -1    0    0    0  501  0.00000000000E+00  0.00000000000E+00 -0.13261523738E+04  0.13261523738E+04  0.25500000920E-02 0. -1.
    10030    2    1    2    0    0  0.00000000000E+00  0.00000000000E+00  0.11205350604E+04  0.37728398079E+04  0.36025992554E+04 0.  0.
        4    1    3    3  502    0 -0.65250759960E+03 -0.16621437868E+04  0.31202039399E+03  0.18126903968E+04  0.12699999809E+01 0.  1.
       -4    1    3    3    0  502  0.65250759960E+03  0.16621437868E+04  0.80851466637E+03  0.19601494112E+04  0.12699999809E+01 0. -1.
</event>
<event>
 5   0  0.1351000E-07  0.4015614E+04  0.7818609E-02  0.8001404E-01
       -1   -1    0    0    0  501  0.00000000000E+00  0.00000000000E+00  0.12256769250E+04  0.12256769250E+04  0.50400001928E-02 0. -1.
        1   -1    0    0  501    0  0.00000000000E+00  0.00000000000E+00 -0.32890311686E+04  0.32890311686E+04  0.50400001928E-02 0.  1.
    10030    2    1    2    0    0  0.00000000000E+00  0.00000000000E+00 -0.20633542436E+04  0.45147080936E+04  0.40156143286E+04 0.  0.
        3    1    3    3  502    0  0.89914136166E+03  0.17372782564E+04 -0.52300821541E+03  0.20248774116E+04  0.10100000352E+00 0.  1.
       -3    1    3    3    0  502 -0.89914136166E+03 -0.17372782564E+04 -0.15403460282E+04  0.24898306820E+04  0.10100000352E+00 0. -1.
</event>
<event>
 5   0  0.4047916E-07  0.3284210E+04  0.7818609E-02  0.8166925E-01
       -2   -1    0    0    0  501  0.00000000000E+00  0.00000000000E+00  0.13203663985E+04  0.13203663985E+04  0.25500000920E-02 0. -1.
        2   -1    0    0  501    0  0.00000000000E+00  0.00000000000E+00 -0.20422427969E+04  0.20422427969E+04  0.25500000920E-02 0.  1.
    10030    2    1    2    0    0  0.00000000000E+00  0.00000000000E+00 -0.72187639833E+03  0.33626091954E+04  0.32842099608E+04 0.  0.
        5    1    3    3  502    0 -0.15165922290E+04 -0.62894556632E+03 -0.39100173024E+03  0.16877585602E+04  0.46999998093E+01 0. -1.
       -5    1    3    3    0  502  0.15165922290E+04  0.62894556632E+03 -0.33087466808E+03  0.16748506352E+04  0.46999998093E+01 0.  1.
</event>
<event>
 5   0  0.4047916E-07  0.3954567E+04  0.7818609E-02  0.8013775E-01
        2   -1    0    0  501    0  0.00000000000E+00  0.00000000000E+00  0.24164598722E+04  0.24164598722E+04  0.25500000920E-02 0. -1.
       -2   -1    0    0    0  501  0.00000000000E+00  0.00000000000E+00 -0.16179250173E+04  0.16179250173E+04  0.25500000920E-02 0.  1.
    10030    2    1    2    0    0  0.00000000000E+00  0.00000000000E+00  0.79853485493E+03  0.40343848894E+04  0.39545674254E+04 0.  0.
        5    1    3    3  502    0  0.49412156256E+03  0.15796646664E+03 -0.15472576841E+04  0.16319123611E+04  0.46999998093E+01 0.  1.
       -5    1    3    3    0  502 -0.49412156256E+03 -0.15796646664E+03  0.23457925391E+04  0.24024725284E+04  0.46999998093E+01 0. -1.
</event>
<event>
 5   0  0.4301754E-07  0.2587570E+04  0.7818609E-02  0.8372436E-01
       -2   -1    0    0    0  501  0.00000000000E+00  0.00000000000E+00  0.15826992978E+04  0.15826992978E+04  0.25500000920E-02 0.  1.
        2   -1    0    0  501    0  0.00000000000E+00  0.00000000000E+00 -0.10576109983E+04  0.10576109983E+04  0.25500000920E-02 0. -1.
    10030    2    1    2    0    0  0.00000000000E+00  0.00000000000E+00  0.52508829947E+03  0.26403102961E+04  0.25875704314E+04 0.  0.
        1    1    3    3  502    0 -0.12091394595E+04 -0.37139231336E+03  0.53998618740E+03  0.13753310749E+04  0.50400001928E-02 0.  1.
       -1    1    3    3    0  502  0.12091394595E+04  0.37139231336E+03 -0.14897887930E+02  0.12649792212E+04  0.50400001928E-02 0. -1.
</event>
<event>
 5   0  0.1421304E-07  0.2762688E+04  0.7818609E-02  0.8314947E-01
        1   -1    0    0  501    0  0.00000000000E+00  0.00000000000E+00  0.14892392541E+04  0.14892392541E+04  0.50400001928E-02 0.  1.
       -1   -1    0    0    0  501  0.00000000000E+00  0.00000000000E+00 -0.12812661830E+04  0.12812661830E+04  0.50400001928E-02 0. -1.
    10030    2    1    2    0    0  0.00000000000E+00  0.00000000000E+00  0.20797307104E+03  0.27705054371E+04  0.27626884694E+04 0.  0.
        2    1    3    3  502    0 -0.12275399401E+04  0.51005242683E+03 -0.27271459762E+03  0.13569749572E+04  0.25500000920E-02 0. -1.
       -2    1    3    3    0  502  0.12275399401E+04 -0.51005242683E+03  0.48068766866E+03  0.14135304799E+04  0.25500000920E-02 0.  1.
</event>
<event>
 5   0  0.1351000E-07  0.3926419E+04  0.7818609E-02  0.8019557E-01
        1   -1    0    0  501    0  0.00000000000E+00  0.00000000000E+00  0.12508314831E+04  0.12508314831E+04  0.50400001928E-02 0.  1.
       -1   -1    0    0    0  501  0.00000000000E+00  0.00000000000E+00 -0.30813030149E+04  0.30813030149E+04  0.50400001928E-02 0. -1.
    10030    2    1    2    0    0  0.00000000000E+00  0.00000000000E+00 -0.18304715318E+04  0.43321344980E+04  0.39264186328E+04 0.  0.
        3    1    3    3  502    0  0.15352651857E+04  0.97794333941E+03 -0.17265984231E+04  0.25088950736E+04  0.10100000352E+00 0. -1.
       -3    1    3    3    0  502 -0.15352651857E+04 -0.97794333941E+03 -0.10387310871E+03  0.18232394243E+04  0.10100000352E+00 0.  1.
</event>
<event>
 5   0  0.1351000E-07  0.3864285E+04  0.7818609E-02  0.8032498E-01
        1   -1    0    0  501    0  0.00000000000E+00  0.00000000000E+00  0.16481971478E+04  0.16481971478E+04  0.50400001928E-02 0.  1.
       -1   -1    0    0    0  501  0.00000000000E+00  0.00000000000E+00 -0.22650050019E+04  0.22650050019E+04  0.50400001928E-02 0. -1.
    10030    2    1    2    0    0  0.00000000000E+00  0.00000000000E+00 -0.61680785412E+03  0.39132021497E+04  0.38642850743E+04 0.  0.
        3    1    3    3  502    0 -0.13283703871E+04 -0.25199549664E+03  0.10893238706E+04  0.17362880293E+04  0.10100000352E+00 0. -1.
       -3    1    3    3    0  502  0.13283703871E+04  0.25199549664E+03 -0.17061317247E+04  0.21769141204E+04  0.10100000352E+00 0.  1.
</event>
<event>
 5   0  0.4079777E-07  0.3959556E+04  0.7818609E-02  0.8012756E-01
        2   -1    0    0  501    0  0.00000000000E+00  0.00000000000E+00  0.27324909427E+04  0.27324909427E+04  0.25500000920E-02 0.  1.
       -2   -1    0    0    0  501  0.00000000000E+00  0.00000000000E+00 -0.14344128858E+04  0.14344128858E+04  0.25500000920E-02 0. -1.
    10030    2    1    2    0    0  0.00000000000E+00  0.00000000000E+00  0.12980780569E+04  0.41669038285E+04  0.39595556410E+04 0.  0.
        4    1    3    3  502    0  0.81163104752E+03 -0.16731280347E+04 -0.65808564613E+02  0.18607618756E+04  0.12699999809E+01 0.  1.
       -4    1    3    3    0  502 -0.81163104752E+03  0.16731280347E+04  0.13638866215E+04  0.23061419529E+04  0.12699999809E+01 0. -1.
</event>
<event>
 5   0  0.1368865E-07  0.2842864E+04  0.7818609E-02  0.8290083E-01
        1   -1    0    0  501    0  0.00000000000E+00  0.00000000000E+00  0.19449253620E+04  0.19449253620E+04  0.50400001928E-02 0. -1.
       -1   -1    0    0    0  501  0.00000000000E+00  0.00000000000E+00 -0.10388413801E+04  0.10388413801E+04  0.50400001928E-02 0.  1.
    10030    2    1    2    0    0  0.00000000000E+00  0.00000000000E+00  0.90608398185E+03  0.29837667421E+04  0.28428640117E+04 0.  0.
        5    1    3    3  502    0 -0.58061326544E+03  0.82039765321E+03 -0.60190408077E+03  0.11715266475E+04  0.46999998093E+01 0.  1.
       -5    1    3    3    0  502  0.58061326544E+03 -0.82039765321E+03  0.15079880626E+04  0.18122400946E+04  0.46999998093E+01 0. -1.
</event>
<event>
 5   0  0.1351000E-07  0.3512668E+04  0.7818609E-02  0.8110794E-01
       -1   -1    0    0    0  501  0.00000000000E+00  0.00000000000E+00  0.18157420861E+04  0.18157420861E+04  0.50400001928E-02 0. -1.
        1   -1    0    0  501    0  0.00000000000E+00  0.00000000000E+00 -0.16988697894E+04  0.16988697894E+04  0.50400001928E-02 0.  1.
    10030    2    1    2    0    0  0.00000000000E+00  0.00000000000E+00  0.11687229671E+03  0.35146118755E+04  0.35126681456E+04 0.  0.
        4    1    3    3  502    0  0.64281693952E+03  0.14684947679E+04  0.77648028843E+03  0.17811832450E+04  0.12699999809E+01 0. -1.
       -4    1    3    3    0  502 -0.64281693952E+03 -0.14684947679E+04 -0.65960799172E+03  0.17334286304E+04  0.12699999809E+01 0.  1.
</event>
<event>
 5   0  0.1421304E-07  0.3994658E+04  0.7818609E-02  0.8005625E-01
        1   -1    0    0  501    0  0.00000000000E+00  0.00000000000E+00  0.26073220749E+04  0.26073220749E+04  0.50400001928E-02 0. -1.
       -1   -1    0    0    0  501  0.00000000000E+00  0.00000000000E+00 -0.15300463221E+04  0.15300463221E+04  0.50400001928E-02 0.  1.
    10030    2    1    2    0    0  0.00000000000E+00  0.00000000000E+00  0.10772757528E+04  0.41373683970E+04  0.39946582087E+04 0.  0.
        2    1    3    3  502    0  0.17555784870E+04 -0.89616051265E+03  0.20436316545E+03  0.19816467374E+04  0.25500000920E-02 0.  1.
       -2    1    3    3    0  502 -0.17555784870E+04  0.89616051265E+03  0.87291258734E+03  0.21557216596E+04  0.25500000920E-02 0. -1.
</event>
<event>
 5   0  0.4077370E-07  0.3593155E+04  0.7818609E-02  0.8092061E-01
       -2   -1    0    0    0  501  0.00000000000E+00  0.00000000000E+00  0.13219269426E+04  0.13219269426E+04  0.25500000920E-02 0. -1.
        2   -1    0    0  501    0  0.00000000000E+00  0.00000000000E+00 -0.24416555886E+04  0.24416555886E+04  0.25500000920E-02 0.  1.
    10030    2    1    2    0    0  0.00000000000E+00  0.00000000000E+00 -0.11197286460E+04  0.37635825312E+04  0.35931547738E+04 0.  0.
        3    1    3    3  502    0 -0.12536682044E+04  0.65807869999E+03 -0.17181825047E+04  0.22264102658E+04  0.10100000352E+00 0.  1.
       -3    1    3    3    0  502  0.12536682044E+04 -0.65807869999E+03  0.59845385866E+03  0.15371722653E+04  0.10100000352E+00 0. -1.
</event>
<event>
 5   0  0.4079777E-07  0.4109446E+04  0.7818609E-02  0.7982825E-01
       -2   -1    0    0    0  501  0.00000000000E+00  0.00000000000E+00  0.15727421791E+04  0.15727421791E+04  0.25500000920E-02 0. -1.
        2   -1    0    0  501    0  0.00000000000E+00  0.00000000000E+00 -0.26844113831E+04  0.26844113831E+04  0.25500000920E-02 0.  1.
    10030    2    1    2    0    0  0.00000000000E+00  0.00000000000E+00 -0.11116692040E+04  0.42571535623E+04  0.41094461955E+04 0.  0.
        4    1    3    3  502    0 -0.16508191641E+04  0.10945367364E+04 -0.11219857750E+04  0.22764156633E+04  0.12699999809E+01 0.  1.
       -4    1    3    3    0  502  0.16508191641E+04 -0.10945367364E+04  0.10316571056E+02  0.19807378990E+04  0.12699999809E+01 0. -1.
</event>
<event>
 5   0  0.4301754E-07  0.3984268E+04  0.7818609E-02  0.8007728E-01
       -2   -1    0    0    0  501  0.00000000000E+00  0.00000000000E+00  0.15970206888E+04  0.15970206888E+04  0.25500000920E-02 0.  1.
        2   -1    0    0  501    0  0.00000000000E+00  0.00000000000E+00 -0.24850007965E+04  0.24850007965E+04  0.25500000920E-02 0. -1.
    10030    2    1    2    0    0  0.00000000000E+00  0.00000000000E+00 -0.88798010767E+03  0.40820214852E+04  0.39842679044E+04 0.  0.
        1    1    3    3  502    0  0.94815203258E+02 -0.25592903993E+03  0.15777753201E+04  0.16012072186E+04  0.50400001928E-02 0.  1.
       -1    1    3    3    0  502 -0.94815203258E+02  0.25592903993E+03 -0.24657554277E+04  0.24808142667E+04  0.50400001928E-02 0. -1.
</event>
<event>
 5   0  0.4077370E-07  0.3938743E+04  0.7818609E-02  0.8017019E-01
        2   -1    0    0  501    0  0.00000000000E+00  0.00000000000E+00  0.26420485422E+04  0.26420485422E+04  0.25500000920E-02 0.  1.
       -2   -1    0    0    0  501  0.00000000000E+00  0.00000000000E+00 -0.14679612018E+04  0.14679612018E+04  0.25500000920E-02 0. -1.
    10030    2    1    2    0    0  0.00000000000E+00  0.00000000000E+00  0.11740873404E+04  0.41100097441E+04  0.39387433292E+04 0.  0.
        3    1    3    3  502    0  0.14485615099E+04  0.13322543892E+04  0.66223625047E+03  0.20764847862E+04  0.10100000352E+00 0. -1.
       -3    1    3    3    0  502 -0.14485615099E+04 -0.13322543892E+04  0.51185108992E+03  0.20335249578E+04  0.10100000352E+00 0.  1.
</event>
<event>
 5   0  0.1368865E-07  0.4056379E+04  0.7818609E-02  0.7993269E-01
        1   -1    0    0  501    0  0.00000000000E+00  0.00000000000E+00  0.16147408095E+04  0.16147408095E+04  0.50400001928E-02 0.  1.
       -1   -1    0    0    0  501  0.00000000000E+00  0.00000000000E+00 -0.25474998912E+04  0.25474998912E+04  0.50400001928E-02 0. -1.
    10030    2    1    2    0    0  0.00000000000E+00  0.00000000000E+00 -0.93275908175E+03  0.41622407007E+04  0.40563786986E+04 0.  0.
        5    1    3    3  502    0 -0.17204205967E+04 -0.76654728827E+03  0.30564434729E+03  0.19081096225E+04  0.46999998093E+01 0.  1.
       -5    1    3    3    0  502  0.17204205967E+04  0.76654728827E+03 -0.12384034290E+04  0.22541310782E+04  0.46999998093E+01 0. -1.
</event>
<event>
 5   0  0.1351000E-07  0.2770100E+04  0.7818609E-02  0.8312612E-01
        1   -1    0    0  501    0  0.00000000000E+00  0.00000000000E+00  0.11727581660E+04  0.11727581661E+04  0.50400001928E-02 0. -1.
       -1   -1    0    0    0  501  0.00000000000E+00  0.00000000000E+00 -0.16357707202E+04  0.16357707202E+04  0.50400001928E-02 0.  1.
    10030    2    1    2    0    0  0.00000000000E+00  0.00000000000E+00 -0.46301255419E+03  0.28085288863E+04  0.27700999765E+04 0.  0.
        4    1    3    3  502    0 -0.62980080480E+03 -0.12260414020E+04 -0.36953932317E+03  0.14270204965E+04  0.12699999809E+01 0.  1.
       -4    1    3    3    0  502  0.62980080480E+03  0.12260414020E+04 -0.93473231014E+02  0.13815083898E+04  0.12699999809E+01 0. -1.
</event>
<event>
 5   0  0.1368865E-07  0.4079919E+04  0.7818609E-02  0.7988616E-01
       -1   -1    0    0    0  501  0.00000000000E+00  0.00000000000E+00  0.16828069769E+04  0.16828069770E+04  0.50400001928E-02 0. -1.
        1   -1    0    0  501    0  0.00000000000E+00  0.00000000000E+00 -0.24729132252E+04  0.24729132252E+04  0.50400001928E-02 0.  1.
    10030    2    1    2    0    0  0.00000000000E+00  0.00000000000E+00 -0.79010624823E+03  0.41557202021E+04  0.40799194251E+04 0.  0.
        5    1    3    3  502    0 -0.11548223744E+04 -0.12432998978E+04  0.75823928886E+03  0.18585903964E+04  0.46999998093E+01 0. -1.
       -5    1    3    3    0  502  0.11548223744E+04  0.12432998978E+04 -0.15483455371E+04  0.22971298058E+04  0.46999998093E+01 0.  1.
</event>
<event>
 5   0  0.1372952E-07  0.3927421E+04  0.7818609E-02  0.8019350E-01
        1   -1    0    0  501    0  0.00000000000E+00  0.00000000000E+00  0.13106161964E+04  0.13106161965E+04  0.50400001928E-02 0.  1.
       -1   -1    0    0    0  501  0.00000000000E+00  0.00000000000E+00 -0.29422489440E+04  0.29422489440E+04  0.50400001928E-02 0. -1.
    10030    2    1    2    0    0  0.00000000000E+00  0.00000000000E+00 -0.16316327475E+04  0.42528651404E+04  0.39274210978E+04 0.  0.
        1    1    3    3  502    0  0.14564848542E+04  0.13122276740E+04 -0.93866076659E+03  0.21735624292E+04  0.50400001928E-02 0.  1.
       -1    1    3    3    0  502 -0.14564848542E+04 -0.13122276740E+04 -0.69297198091E+03  0.20793027113E+04  0.50400001928E-02 0. -1.
</event>
<event>
 5   0  0.4079777E-07  0.2918345E+04  0.7818609E-02  0.8267440E-01
        2   -1    0    0  501    0  0.00000000000E+00  0.00000000000E+00  0.12453323798E+04  0.12453323798E+04  0.25500000920E-02 0. -1.
       -2   -1    0    0    0  501  0.00000000000E+00  0.00000000000E+00 -0.17097321708E+04  0.17097321708E+04  0.25500000920E-02 0.  1.
    10030    2    1    2    0    0  0.00000000000E+00  0.00000000000E+00 -0.46439979100E+03  0.29550645506E+04  0.29183453073E+04 0.  0.
        4    1    3    3  502    0 -0.50957808752E+03  0.11189498199E+04 -0.10278760801E+04  0.16025758564E+04  0.12699999809E+01 0.  1.
       -4    1    3    3    0  502  0.50957808752E+03 -0.11189498199E+04  0.56347628907E+03  0.13524886942E+04  0.12699999809E+01 0. -1.
</event>
<event>
 5   0  0.4301754E-07  0.3883632E+04  0.7818609E-02  0.8028442E-01
       -2   -1    0    0    0  501  0.00000000000E+00  0.00000000000E+00  0.14871736146E+04  0.14871736146E+04  0.25500000920E-02 0.  1.
        2   -1    0    0  501    0  0.00000000000E+00  0.00000000000E+00 -0.25354464307E+04  0.25354464307E+04  0.25500000920E-02 0. -1.
    10030    2    1    2    0    0  0.00000000000E+00  0.00000000000E+00 -0.10482728161E+04  0.40226200453E+04  0.38836318224E+04 0.  0.
        1    1    3    3  502    0  0.72966064475E+03 -0.70399338811E+03 -0.22394960263E+04  0.24583233715E+04  0.50400001928E-02 0. -1.
       -1    1    3    3    0  502 -0.72966064475E+03  0.70399338811E+03  0.11912232102E+04  0.15642966738E+04  0.50400001928E-02 0.  1.
</event>
<event>
 5   0  0.4149487E-07  0.4000998E+04  0.7818609E-02  0.8004345E-01
        2   -1    0    0  501    0  0.00000000000E+00  0.00000000000E+00  0.20143784833E+04  0.20143784833E+04  0.25500000920E-02 0.  1.
       -2   -1    0    0    0  501  0.00000000000E+00  0.00000000000E+00 -0.19867155472E+04  0.19867155472E+04  0.25500000920E-02 0. -1.
    10030    2    1    2    0    0  0.00000000000E+00  0.00000000000E+00  0.27662936101E+02  0.40010940306E+04  0.40009984008E+04 0.  0.
        2    1    3    3  502    0 -0.14582726450E+04 -0.28990525373E+03 -0.13246297836E+04  0.19912931043E+04  0.25500000920E-02 0. -1.
       -2    1    3    3    0  502  0.14582726450E+04  0.28990525373E+03  0.13522927197E+04  0.20098009263E+04  0.25500000920E-02 0.  1.
</event>
<event>
 5   0  0.1351000E-07  0.3982359E+04  0.7818609E-02  0.8008115E-01
        1   -1    0    0  501    0  0.00000000000E+00  0.00000000000E+00  0.28583181210E+04  0.28583181210E+04  0.50400001928E-02 0. -1.
       -1   -1    0    0    0  501  0.00000000000E+00  0.00000000000E+00 -0.13871080351E+04  0.13871080351E+04  0.50400001928E-02 0.  1.
    10030    2    1    2    0    0  0.00000000000E+00  0.00000000000E+00  0.14712100859E+04  0.42454261562E+04  0.39823591162E+04 0.  0.
        3    1    3    3  502    0  0.16974271383E+04  0.46600238740E+02 -0.37297520295E+03  0.17385456520E+04  0.10100000352E+00 0.  1.
       -3    1    3    3    0  502 -0.16974271383E+04 -0.46600238740E+02  0.18441852889E+04  0.25068805041E+04  0.10100000352E+00 0. -1.
</event>
<event>
 5   0  0.4077370E-07  0.2720807E+04  0.7818609E-02  0.8328285E-01
        2   -1    0    0  501    0  0.00000000000E+00  0.00000000000E+00  0.19445536903E+04  0.19445536903E+04  0.25500000920E-02 0. -1.
       -2   -1    0    0    0  501  0.00000000000E+00  0.00000000000E+00 -0.95173403547E+03  0.95173403547E+03  0.25500000920E-02 0.  1.
    10030    2    1    2    0    0  0.00000000000E+00  0.00000000000E+00  0.99281965480E+03  0.28962877257E+04  0.27208071823E+04 0.  0.
        3    1    3    3  502    0  0.47261902370E+03  0.10929655638E+04 -0.20385967723E+03  0.12080981928E+04  0.10100000352E+00 0.  1.
       -3    1    3    3    0  502 -0.47261902370E+03 -0.10929655638E+04  0.11966793320E+04  0.16881895330E+04  0.10100000352E+00 0. -1.
</event>
<event>
 5   0  0.4047916E-07  0.3087529E+04  0.7818609E-02  0.8219169E-01
        2   -1    0    0  501    0  0.00000000000E+00  0.00000000000E+00  0.15636589147E+04  0.15636589147E+04  0.25500000920E-02 0. -1.
       -2   -1    0    0    0  501  0.00000000000E+00  0.00000000000E+00 -0.15241227265E+04  0.15241227265E+04  0.25500000920E-02 0.  1.
    10030    2    1    2    0    0  0.00000000000E+00  0.00000000000E+00  0.39536188152E+02  0.30877816412E+04  0.30875285187E+04 0.  0.
        5    1    3    3  502    0  0.14245466827E+04 -0.51498170569E+03  0.31752827531E+03  0.15477033643E+04  0.46999998093E+01 0. -1.
       -5    1    3    3    0  502 -0.14245466827E+04  0.51498170569E+03 -0.27799208715E+03  0.15400782769E+04  0.46999998093E+01 0.  1.
</event>
<event>
 5   0  0.4301754E-07  0.3656332E+04  0.7818609E-02  0.8077709E-01
       -2   -1    0    0    0  501  0.00000000000E+00  0.00000000000E+00  0.33608161339E+04  0.33608161339E+04  0.25500000920E-02 0.  1.
        2   -1    0    0  501    0  0.00000000000E+00  0.00000000000E+00 -0.99445823692E+03  0.99445823693E+03  0.25500000920E-02 0. -1.
    10030    2    1    2    0    0  0.00000000000E+00  0.00000000000E+00  0.23663578970E+04  0.43552743708E+04  0.36563321989E+04 0.  0.
        1    1    3    3  502    0  0.11366921035E+04 -0.23841637239E+03 -0.49854235326E+03  0.12639049738E+04  0.50400001928E-02 0. -1.
       -1    1    3    3    0  502 -0.11366921035E+04  0.23841637239E+03  0.28649002502E+04  0.30913693970E+04  0.50400001928E-02 0.  1.
</event>
<event>
 5   0  0.1351000E-07  0.3954508E+04  0.7818609E-02  0.8013787E-01
       -1   -1    0    0    0  501  0.00000000000E+00  0.00000000000E+00  0.16991831614E+04  0.16991831614E+04  0.50400001928E-02 0. -1.
        1   -1    0    0  501    0  0.00000000000E+00  0.00000000000E+00 -0.23008314742E+04  0.23008314742E+04  0.50400001928E-02 0.  1.
    10030    2    1    2    0    0  0.00000000000E+00  0.00000000000E+00 -0.60164831277E+03  0.40000146357E+04  0.39545083630E+04 0.  0.
        3    1    3    3  502    0 -0.78241953920E+03 -0.65585375796E+03 -0.20135931929E+04  0.22576275255E+04  0.10100000352E+00 0.  1.
       -3    1    3    3    0  502  0.78241953920E+03  0.65585375796E+03  0.14119448801E+04  0.17423871102E+04  0.10100000352E+00 0. -1.
</event>
<event>
 5   0  0.1351000E-07  0.2842615E+04  0.7818609E-02  0.8290159E-01
        1   -1    0    0  501    0  0.00000000000E+00  0.00000000000E+00  0.26685054693E+04  0.26685054693E+04  0.50400001928E-02 0. -1.
       -1   -1    0    0    0  501  0.00000000000E+00  0.00000000000E+00 -0.75702107159E+03  0.75702107161E+03  0.50400001928E-02 0.  1.
    10030    2    1    2    0    0  0.00000000000E+00  0.00000000000E+00  0.19114843977E+04  0.34255265409E+04  0.28426149018E+04 0.  0.
        4    1    3    3  502    0 -0.59027839331E+03 -0.11835916288E+04  0.32865193889E+03  0.13628394752E+04  0.12699999809E+01 0.  1.
       -4    1    3    3    0  502  0.59027839331E+03  0.11835916288E+04  0.15828324588E+04  0.20626870657E+04  0.12699999809E+01 0. -1.
</event>
<event>
 5   0  0.1351000E-07  0.2929216E+04  0.7818609E-02  0.8264238E-01
        1   -1    0    0  501    0  0.00000000000E+00  0.00000000000E+00  0.14004542029E+04  0.14004542029E+04  0.50400001928E-02 0. -1.
       -1   -1    0    0    0  501  0.00000000000E+00  0.00000000000E+00 -0.15317004421E+04  0.15317004421E+04  0.50400001928E-02 0.  1.
    10030    2    1    2    0    0  0.00000000000E+00  0.00000000000E+00 -0.13124623917E+03  0.29321546450E+04  0.29292158143E+04 0.  0.
        3    1    3    3  502    0  0.37215725865E+02 -0.75934548528E+03  0.11874657726E+04  0.14099877828E+04  0.10100000352E+00 0. -1.
       -3    1    3    3    0  502 -0.37215725865E+02  0.75934548528E+03 -0.13187120118E+04  0.15221668622E+04  0.10100000352E+00 0.  1.
</event>
<event>
 5   0  0.4079777E-07  0.4014198E+04  0.7818609E-02  0.8001688E-01
        2   -1    0    0  501    0  0.00000000000E+00  0.00000000000E+00  0.20964965911E+04  0.20964965911E+04  0.25500000920E-02 0. -1.
       -2   -1    0    0    0  501  0.00000000000E+00  0.00000000000E+00 -0.19215134437E+04  0.19215134437E+04  0.25500000920E-02 0.  1.
    10030    2    1    2    0    0  0.00000000000E+00  0.00000000000E+00  0.17498314744E+03  0.40180100348E+04  0.40141979943E+04 0.  0.
        4    1    3    3  502    0 -0.17899668099E+04 -0.16834720403E+02  0.99619739752E+03  0.20485788870E+04  0.12699999809E+01 0. -1.
       -4    1    3    3    0  502  0.17899668099E+04  0.16834720403E+02 -0.82121425008E+03  0.19694311478E+04  0.12699999809E+01 0.  1.
</event>
<event>
 5   0  0.4047916E-07  0.4042377E+04  0.7818609E-02  0.7996052E-01
       -2   -1    0    0    0  501  0.00000000000E+00  0.00000000000E+00  0.33955859058E+04  0.33955859058E+04  0.25500000920E-02 0.  1.
        2   -1    0    0  501    0  0.00000000000E+00  0.00000000000E+00 -0.12030922442E+04  0.12030922442E+04  0.25500000920E-02 0. -1.
    10030    2    1    2    0    0  0.00000000000E+00  0.00000000000E+00  0.21924936616E+04  0.45986781500E+04  0.40423770570E+04 0.  0.
        5    1    3    3  502    0  0.10859036766E+04 -0.13904016244E+04 -0.25779257502E+02  0.17643951179E+04  0.46999998093E+01 0. -1.
       -5    1    3    3    0  502 -0.10859036766E+04  0.13904016244E+04  0.22182729191E+04  0.28342830320E+04  0.46999998093E+01 0.  1.
</event>
<event>
 5   0  0.4149487E-07  0.4055969E+04  0.7818609E-02  0.7993350E-01
       -2   -1    0    0    0  501  0.00000000000E+00  0.00000000000E+00  0.23076964797E+04  0.23076964797E+04  0.25500000920E-02 0. -1.
        2   -1    0    0  501    0  0.00000000000E+00  0.00000000000E+00 -0.17821759648E+04  0.17821759648E+04  0.25500000920E-02 0.  1.
    10030    2    1    2    0    0  0.00000000000E+00  0.00000000000E+00  0.52552051491E+03  0.40898724444E+04  0.40559690334E+04 0.  0.
        2    1    3    3  502    0 -0.79947516384E+03 -0.41508518962E+03  0.20948861951E+04  0.22803518199E+04  0.25500000920E-02 0. -1.
       -2    1    3    3    0  502  0.79947516384E+03  0.41508518962E+03 -0.15693656802E+04  0.18095206245E+04  0.25500000920E-02 0.  1.
</event>
<event>
 5   0  0.4077370E-07  0.3114846E+04  0.7818609E-02  0.8211675E-01
       -2   -1    0    0    0  501  0.00000000000E+00  0.00000000000E+00  0.17521934224E+04  0.17521934224E+04  0.25500000920E-02 0.  1.
        2   -1    0    0  501    0  0.00000000000E+00  0.00000000000E+00 -0.13843029972E+04  0.13843029972E+04  0.25500000920E-02 0. -1.
    10030    2    1    2    0    0  0.00000000000E+00  0.00000000000E+00  0.36789042524E+03  0.31364964196E+04  0.31148461319E+04 0.  0.
        3    1    3    3  502    0 -0.49893593233E+03  0.94545020810E+03 -0.95651408789E+03  0.14344798260E+04  0.10100000352E+00 0. -1.
       -3    1    3    3    0  502  0.49893593233E+03 -0.94545020810E+03  0.13244045131E+04  0.17020165937E+04  0.10100000352E+00 0.  1.
</event>
<event>
 5   0  0.4149487E-07  0.4026912E+04  0.7818609E-02  0.7999139E-01
       -2   -1    0    0    0  501  0.00000000000E+00  0.00000000000E+00  0.18297078792E+04  0.18297078793E+04  0.25500000920E-02 0. -1.
        2   -1    0    0  501    0  0.00000000000E+00  0.00000000000E+00 -0.22156569693E+04  0.22156569693E+04  0.25500000920E-02 0.  1.
    10030    2    1    2    0    0  0.00000000000E+00  0.00000000000E+00 -0.38594909008E+03  0.40453648486E+04  0.40269119754E+04 0.  0.
        2    1    3    3  502    0  0.15267480857E+04  0.96501115598E+03  0.70093375610E+03  0.19373988693E+04  0.25500000920E-02 0. -1.
       -2    1    3    3    0  502 -0.15267480857E+04 -0.96501115598E+03 -0.10868828462E+04  0.21079659793E+04  0.25500000920E-02 0.  1.
</event>
<event>
 5   0  0.4077370E-07  0.4062494E+04  0.7818609E-02  0.7992057E-01
       -2   -1    0    0    0  501  0.00000000000E+00  0.00000000000E+00  0.17691153694E+04  0.17691153694E+04  0.25500000920E-02 0. -1.
        2   -1    0    0  501    0  0.00000000000E+00  0.00000000000E+00 -0.23322193684E+04  0.23322193684E+04  0.25500000920E-02 0.  1.
    10030    2    1    2    0    0  0.00000000000E+00  0.00000000000E+00 -0.56310399902E+03  0.41013347379E+04  0.40624943715E+04 0.  0.
        3    1    3    3  502    0 -0.14527330805E+04  0.22345737155E+03  0.11338501549E+04  0.18563358490E+04  0.10100000352E+00 0. -1.
       -3    1    3    3    0  502  0.14527330805E+04 -0.22345737155E+03 -0.16969541540E+04  0.22449988889E+04  0.10100000352E+00 0.  1.
</event>
<event>
 5   0  0.4077370E-07  0.3881879E+04  0.7818609E-02  0.8028809E-01
       -2   -1    0    0    0  501  0.00000000000E+00  0.00000000000E+00  0.13186301154E+04  0.13186301154E+04  0.25500000920E-02 0.  1.
        2   -1    0    0  501    0  0.00000000000E+00  0.00000000000E+00 -0.28569394719E+04  0.28569394719E+04  0.25500000920E-02 0. -1.
    10030    2    1    2    0    0  0.00000000000E+00  0.00000000000E+00 -0.15383093564E+04  0.41755695873E+04  0.38818791458E+04 0.  0.
        3    1    3    3  502    0 -0.10086453464E+04  0.16193716090E+04 -0.38504342513E+03  0.19462754924E+04  0.10100000352E+00 0.  1.
       -3    1    3    3    0  502  0.10086453464E+04 -0.16193716090E+04 -0.11532659313E+04  0.22292940949E+04  0.10100000352E+00 0. -1.
</event>
<event>
 5   0  0.4079777E-07  0.3783687E+04  0.7818609E-02  0.8049665E-01
        2   -1    0    0  501    0  0.00000000000E+00  0.00000000000E+00  0.24047877993E+04  0.24047877993E+04  0.25500000920E-02 0. -1.
       -2   -1    0    0    0  501  0.00000000000E+00  0.00000000000E+00 -0.14883111352E+04  0.14883111352E+04  0.25500000920E-02 0.  1.
    10030    2    1    2    0    0  0.00000000000E+00  0.00000000000E+00  0.91647666405E+03  0.38930989345E+04  0.37836873335E+04 0.  0.
        4    1    3    3  502    0 -0.17405804034E+04 -0.13825563069E+02  0.12207895369E+04  0.21260620859E+04  0.12699999809E+01 0. -1.
       -4    1    3    3    0  502  0.17405804034E+04  0.13825563069E+02 -0.30431287285E+03  0.17670368486E+04  0.12699999809E+01 0.  1.
</event>
<event>
 5   0  0.1368865E-07  0.3995459E+04  0.7818609E-02  0.8005463E-01
        1   -1    0    0  501    0  0.00000000000E+00  0.00000000000E+00  0.16255758643E+04  0.16255758643E+04  0.50400001928E-02 0. -1.
       -1   -1    0    0    0  501  0.00000000000E+00  0.00000000000E+00 -0.24550827107E+04  0.24550827107E+04  0.50400001928E-02 0.  1.
    10030    2    1    2    0    0  0.00000000000E+00  0.00000000000E+00 -0.82950684632E+03  0.40806585750E+04  0.39954590222E+04 0.  0.
        5    1    3    3  502    0 -0.15992858174E+03  0.11230313019E+04 -0.20942415278E+04  0.23817317488E+04  0.46999998093E+01 0.  1.
       -5    1    3    3    0  502  0.15992858174E+03 -0.11230313019E+04  0.12647346815E+04  0.16989268262E+04  0.46999998093E+01 0. -1.
</event>
<event>
 5   0  0.1421304E-07  0.2826669E+04  0.7818609E-02  0.8295036E-01
       -1   -1    0    0    0  501  0.00000000000E+00  0.00000000000E+00  0.12495116040E+04  0.12495116040E+04  0.50400001928E-02 0.  1.
        1   -1    0    0  501    0  0.00000000000E+00  0.00000000000E+00 -0.15986357166E+04  0.15986357166E+04  0.50400001928E-02 0. -1.
    10030    2    1    2    0    0  0.00000000000E+00  0.00000000000E+00 -0.34912411266E+03  0.28481473206E+04  0.28266686247E+04 0.  0.
        2    1    3    3  502    0 -0.11240209264E+04  0.52718305978E+03 -0.85509690167E+03  0.15074931949E+04  0.25500000920E-02 0. -1.
       -2    1    3    3    0  502  0.11240209264E+04 -0.52718305978E+03  0.50597278901E+03  0.13406541257E+04  0.25500000920E-02 0.  1.
</event>
<event>
 5   0  0.1421304E-07  0.3919513E+04  0.7818609E-02  0.8020983E-01
       -1   -1    0    0    0  501  0.00000000000E+00  0.00000000000E+00  0.21060785883E+04  0.21060785883E+04  0.50400001928E-02 0.  1.
        1   -1    0    0  501    0  0.00000000000E+00  0.00000000000E+00 -0.18236006306E+04  0.18236006306E+04  0.50400001928E-02 0. -1.
    10030    2    1    2    0    0  0.00000000000E+00  0.00000000000E+00  0.28247795767E+03  0.39296792189E+04  0.39195133584E+04 0.  0.
        2    1    3    3  502    0 -0.32418104322E+03  0.55785947367E+03 -0.17140593450E+04  0.18314748099E+04  0.25500000920E-02 0. -1.
       -2    1    3    3    0  502  0.32418104322E+03 -0.55785947367E+03  0.19965373026E+04  0.20982044090E+04  0.25500000920E-02 0.  1.
</event>
<event>
 5   0  0.1351000E-07  0.3388430E+04  0.7818609E-02  0.8140752E-01
       -1   -1    0    0    0  501  0.00000000000E+00  0.00000000000E+00  0.18066609471E+04  0.18066609471E+04  0.50400001928E-02 0. -1.
        1   -1    0    0  501    0  0.00000000000E+00  0.00000000000E+00 -0.15887672694E+04  0.15887672694E+04  0.50400001928E-02 0.  1.
    10030    2    1    2    0    0  0.00000000000E+00  0.00000000000E+00  0.21789367774E+03  0.33954282165E+04  0.33884295947E+04 0.  0.
        3    1    3    3  502    0  0.77220175277E+02  0.15397091909E+04 -0.59513975749E+03  0.16525309949E+04  0.10100000352E+00 0.  1.
       -3    1    3    3    0  502 -0.77220175277E+02 -0.15397091909E+04  0.81303343523E+03  0.17428972216E+04  0.10100000352E+00 0. -1.
</event>
<event>
 5   0  0.4301754E-07  0.3822402E+04  0.7818609E-02  0.8041365E-01
        2   -1    0    0  501    0  0.00000000000E+00  0.00000000000E+00  0.24785058258E+04  0.24785058258E+04  0.25500000920E-02 0. -1.
       -2   -1    0    0    0  501  0.00000000000E+00  0.00000000000E+00 -0.14737461095E+04  0.14737461095E+04  0.25500000920E-02 0.  1.
    10030    2    1    2    0    0  0.00000000000E+00  0.00000000000E+00  0.10047597163E+04  0.39522519352E+04  0.38224015059E+04 0.  0.
        1    1    3    3  502    0  0.14779978704E+04  0.94545389759E+03 -0.28120879507E+03  0.17769184460E+04  0.50400001928E-02 0.  1.
       -1    1    3    3    0  502 -0.14779978704E+04 -0.94545389759E+03  0.12859685114E+04  0.21753334893E+04  0.50400001928E-02 0. -1.
</event>
<event>
 5   0  0.1351000E-07  0.2660629E+04  0.7818609E-02  0.8347894E-01
        1   -1    0    0  501    0  0.00000000000E+00  0.00000000000E+00  0.59046173094E+03  0.59046173096E+03  0.50400001928E-02 0.  1.
       -1   -1    0    0    0  501  0.00000000000E+00  0.00000000000E+00 -0.29972087302E+04  0.29972087302E+04  0.50400001928E-02 0. -1.
    10030    2    1    2    0    0  0.00000000000E+00  0.00000000000E+00 -0.24067469993E+04  0.35876704612E+04  0.26606292901E+04 0.  0.
        3    1    3    3  502    0  0.55069047741E+03 -0.37310245023E+03  0.35011512929E+03  0.75169545312E+03  0.10100000352E+00 0.  1.
       -3    1    3    3    0  502 -0.55069047741E+03  0.37310245023E+03 -0.27568621286E+04  0.28359750081E+04  0.10100000352E+00 0. -1.
</event>
<event>
 5   0  0.4077370E-07  0.4003293E+04  0.7818609E-02  0.8003883E-01
       -2   -1    0    0    0  501  0.00000000000E+00  0.00000000000E+00  0.25793608920E+04  0.25793608920E+04  0.25500000920E-02 0.  1.
        2   -1    0    0  501    0  0.00000000000E+00  0.00000000000E+00 -0.15533261601E+04  0.15533261601E+04  0.25500000920E-02 0. -1.
    10030    2    1    2    0    0  0.00000000000E+00  0.00000000000E+00  0.10260347319E+04  0.41326870521E+04  0.40032930195E+04 0.  0.
        3    1    3    3  502    0 -0.77768973904E+03  0.93144935649E+03 -0.11303500979E+04  0.16583397082E+04  0.10100000352E+00 0. -1.
       -3    1    3    3    0  502  0.77768973904E+03 -0.93144935649E+03  0.21563848298E+04  0.24743473439E+04  0.10100000352E+00 0.  1.
</event>
<event>
 5   0  0.1372952E-07  0.3929864E+04  0.7818609E-02  0.8018847E-01
        1   -1    0    0  501    0  0.00000000000E+00  0.00000000000E+00  0.27687172824E+04  0.27687172824E+04  0.50400001928E-02 0. -1.
       -1   -1    0    0    0  501  0.00000000000E+00  0.00000000000E+00 -0.13944934761E+04  0.13944934762E+04  0.50400001928E-02 0.  1.
    10030    2    1    2    0    0  0.00000000000E+00  0.00000000000E+00  0.13742238063E+04  0.41632107586E+04  0.39298642153E+04 0.  0.
        1    1    3    3  502    0  0.10168430840E+04 -0.11771292696E+04  0.19589631899E+04  0.25014275833E+04  0.50400001928E-02 0.  1.
       -1    1    3    3    0  502 -0.10168430840E+04  0.11771292696E+04 -0.58473938363E+03  0.16617831753E+04  0.50400001928E-02 0. -1.
</event>
<event>
 5   0  0.4079777E-07  0.4038656E+04  0.7818609E-02  0.7996793E-01
        2   -1    0    0  501    0  0.00000000000E+00  0.00000000000E+00  0.31637737354E+04  0.31637737354E+04  0.25500000920E-02 0. -1.
       -2   -1    0    0    0  501  0.00000000000E+00  0.00000000000E+00 -0.12888676860E+04  0.12888676860E+04  0.25500000920E-02 0.  1.
    10030    2    1    2    0    0  0.00000000000E+00  0.00000000000E+00  0.18749060494E+04  0.44526414215E+04  0.40386560802E+04 0.  0.
        4    1    3    3  502    0  0.17049862905E+04  0.72166195766E+03  0.48646113308E+02  0.18520643318E+04  0.12699999809E+01 0. -1.
       -4    1    3    3    0  502 -0.17049862905E+04 -0.72166195766E+03  0.18262599361E+04  0.26005770896E+04  0.12699999809E+01 0.  1.
</event>
<event>
 5   0  0.4079777E-07  0.3881154E+04  0.7818609E-02  0.8028960E-01
       -2   -1    0    0    0  501  0.00000000000E+00  0.00000000000E+00  0.14569612977E+04  0.14569612977E+04  0.25500000920E-02 0.  1.
        2   -1    0    0  501    0  0.00000000000E+00  0.00000000000E+00 -0.25847217853E+04  0.25847217853E+04  0.25500000920E-02 0. -1.
    10030    2    1    2    0    0  0.00000000000E+00  0.00000000000E+00 -0.11277604876E+04  0.40416830830E+04  0.38811542646E+04 0.  0.
        4    1    3    3  502    0 -0.13210724440E+04  0.11433925440E+04  0.31559780972E+03  0.17754386788E+04  0.12699999809E+01 0. -1.
       -4    1    3    3    0  502  0.13210724440E+04 -0.11433925440E+04 -0.14433582973E+04  0.22662444041E+04  0.12699999809E+01 0.  1.
</event>
<event>
 5   0  0.1368865E-07  0.4053930E+04  0.7818609E-02  0.7993755E-01
       -1   -1    0    0    0  501  0.00000000000E+00  0.00000000000E+00  0.20832471018E+04  0.20832471018E+04  0.50400001928E-02 0. -1.
        1   -1    0    0  501    0  0.00000000000E+00  0.00000000000E+00 -0.19722031491E+04  0.19722031491E+04  0.50400001928E-02 0.  1.
    10030    2    1    2    0    0  0.00000000000E+00  0.00000000000E+00  0.11104395275E+03  0.40554502509E+04  0.40539296958E+04 0.  0.
        5    1    3    3  502    0 -0.89507811586E+03 -0.12680076298E+04 -0.12486372954E+04  0.19920154036E+04  0.46999998093E+01 0.  1.
       -5    1    3    3    0  502  0.89507811586E+03  0.12680076298E+04  0.13596812481E+04  0.20634348473E+04  0.46999998093E+01 0. -1.
</event>
<event>
 5   0  0.1351000E-07  0.2981648E+04  0.7818609E-02  0.8248991E-01
       -1   -1    0    0    0  501  0.00000000000E+00  0.00000000000E+00  0.13642064535E+04  0.13642064535E+04  0.50400001928E-02 0.  1.
        1   -1    0    0  501    0  0.00000000000E+00  0.00000000000E+00 -0.16291937854E+04  0.16291937854E+04  0.50400001928E-02 0. -1.
    10030    2    1    2    0    0  0.00000000000E+00  0.00000000000E+00 -0.26498733187E+03  0.29934002389E+04  0.29816483200E+04 0.  0.
        3    1    3    3  502    0  0.65244119535E+03 -0.12519211782E+04  0.34852998077E+03  0.14541180514E+04  0.10100000352E+00 0.  1.
       -3    1    3    3    0  502 -0.65244119535E+03  0.12519211782E+04 -0.61351731265E+03  0.15392821875E+04  0.10100000352E+00 0. -1.
</event>
<event>
 5   0  0.1421304E-07  0.4103474E+04  0.7818609E-02  0.7983992E-01
       -1   -1    0    0    0  501  0.00000000000E+00  0.00000000000E+00  0.19908291268E+04  0.19908291268E+04  0.50400001928E-02 0.  1.
        1   -1    0    0  501    0  0.00000000000E+00  0.00000000000E+00 -0.21145085094E+04  0.21145085094E+04  0.50400001928E-02 0. -1.
    10030    2    1    2    0    0  0.00000000000E+00  0.00000000000E+00 -0.12367938259E+03  0.41053376362E+04  0.41034742009E+04 0.  0.
        2    1    3    3  502    0  0.86104601534E+03 -0.18518879171E+04 -0.25874378017E+03  0.20586008457E+04  0.25500000920E-02 0. -1.
       -2    1    3    3    0  502 -0.86104601534E+03  0.18518879171E+04  0.13506439757E+03  0.20467367905E+04  0.25500000920E-02 0.  1.
</event>
<event>
 5   0  0.4079777E-07  0.2614547E+04  0.7818609E-02  0.8363277E-01
        2   -1    0    0  501    0  0.00000000000E+00  0.00000000000E+00  0.12867302128E+04  0.12867302128E+04  0.25500000920E-02 0.  1.
       -2   -1    0    0    0  501  0.00000000000E+00  0.00000000000E+00 -0.13281446303E+04  0.13281446303E+04  0.25500000920E-02 0. -1.
    10030    2    1    2    0    0  0.00000000000E+00  0.00000000000E+00 -0.41414417450E+02  0.26148748431E+04  0.26145468615E+04 0.  0.
        4    1    3    3  502    0 -0.12042723063E+04 -0.34410919840E+03  0.35387853388E+03  0.13015047283E+04  0.12699999809E+01 0.  1.
       -4    1    3    3    0  502  0.12042723063E+04  0.34410919840E+03 -0.39529295133E+03  0.13133701148E+04  0.12699999809E+01 0. -1.
</event>
<event>
 5   0  0.1351000E-07  0.4023349E+04  0.7818609E-02  0.7999853E-01
       -1   -1    0    0    0  501  0.00000000000E+00  0.00000000000E+00  0.24504554664E+04  0.24504554664E+04  0.50400001928E-02 0.  1.
        1   -1    0    0  501    0  0.00000000000E+00  0.00000000000E+00 -0.16514618501E+04  0.16514618501E+04  0.50400001928E-02 0. -1.
    10030    2    1    2    0    0  0.00000000000E+00  0.00000000000E+00  0.79899361631E+03  0.41019173166E+04  0.40233487138E+04 0.  0.
        3    1    3    3  502    0 -0.63619497207E+01  0.14641221589E+04  0.18059799861E+04  0.23249210505E+04  0.10100000352E+00 0.  1.
       -3    1    3    3    0  502  0.63619497207E+01 -0.14641221589E+04 -0.10069863698E+04  0.17769962661E+04  0.10100000352E+00 0. -1.
</event>
<event>
 5   0  0.4149487E-07  0.2697776E+04  0.7818609E-02  0.8335727E-01
        2   -1    0    0  501    0  0.00000000000E+00  0.00000000000E+00  0.20008246637E+04  0.20008246638E+04  0.25500000920E-02 0. -1.
       -2   -1    0    0    0  501  0.00000000000E+00  0.00000000000E+00 -0.90937474696E+03  0.90937474696E+03  0.25500000920E-02 0.  1.
    10030    2    1    2    0    0  0.00000000000E+00  0.00000000000E+00  0.10914499168E+04  0.29101994107E+04  0.26977764343E+04 0.  0.
        2    1    3    3  502    0 -0.65835561050E+03 -0.41637390858E+03  0.17336621929E+04  0.19006272493E+04  0.25500000920E-02 0. -1.
       -2    1    3    3    0  502  0.65835561050E+03  0.41637390858E+03 -0.64221227608E+03  0.10095721615E+04  0.25500000920E-02 0.  1.
</event>
<event>
 5   0  0.4079777E-07  0.3265816E+04  0.7818609E-02  0.8171648E-01
        2   -1    0    0  501    0  0.00000000000E+00  0.00000000000E+00  0.17784826034E+04  0.17784826034E+04  0.25500000920E-02 0.  1.
       -2   -1    0    0    0  501  0.00000000000E+00  0.00000000000E+00 -0.14992494226E+04  0.14992494226E+04  0.25500000920E-02 0. -1.
    10030    2    1    2    0    0  0.00000000000E+00  0.00000000000E+00  0.27923318075E+03  0.32777320260E+04  0.32658162938E+04 0.  0.
        4    1    3    3  502    0  0.13755481504E+04 -0.59988930860E+03 -0.50646150925E+03  0.15838259910E+04  0.12699999809E+01 0. -1.
       -4    1    3    3    0  502 -0.13755481504E+04  0.59988930860E+03  0.78569469000E+03  0.16939060350E+04  0.12699999809E+01 0.  1.
</event>
<event>
 5   0  0.1368865E-07  0.3846076E+04  0.7818609E-02  0.8036339E-01
       -1   -1    0    0    0  501  0.00000000000E+00  0.00000000000E+00  0.20217818867E+04  0.20217818867E+04  0.50400001928E-02 0. -1.
        1   -1    0    0  501    0  0.00000000000E+00  0.00000000000E+00 -0.18291170163E+04  0.18291170163E+04  0.50400001928E-02 0.  1.
    10030    2    1    2    0    0  0.00000000000E+00  0.00000000000E+00  0.19266487042E+03  0.38508989030E+04  0.38460762614E+04 0.  0.
        5    1    3    3  502    0  0.57326861219E+03 -0.17364439226E+04  0.69220821091E+03  0.19552617971E+04  0.46999998093E+01 0. -1.
       -5    1    3    3    0  502 -0.57326861219E+03  0.17364439226E+04 -0.49954334049E+03  0.18956371058E+04  0.46999998093E+01 0.  1.
</event>
<event>
 5   0  0.4047916E-07  0.2472835E+04  0.7818609E-02  0.8412728E-01
        2   -1    0    0  501    0  0.00000000000E+00  0.00000000000E+00  0.14714159917E+04  0.14714159918E+04  0.25500000920E-02 0.  1.
       -2   -1    0    0    0  501  0.00000000000E+00  0.00000000000E+00 -0.10389502862E+04  0.10389502862E+04  0.25500000920E-02 0. -1.
    10030    2    1    2    0    0  0.00000000000E+00  0.00000000000E+00  0.43246570556E+03  0.25103662779E+04  0.24728348637E+04 0.  0.
        5    1    3    3  502    0 -0.50357936853E+03 -0.10475201806E+04  0.64431439235E+03  0.13289295825E+04  0.46999998093E+01 0.  1.
       -5    1    3    3    0  502  0.50357936853E+03  0.10475201806E+04 -0.21184868679E+03  0.11814366954E+04  0.46999998093E+01 0. -1.
</event>
<event>
 5   0  0.4149487E-07  0.4007793E+04  0.7818609E-02  0.8002976E-01
        2   -1    0    0  501    0  0.00000000000E+00  0.00000000000E+00  0.21706442768E+04  0.21706442768E+04  0.25500000920E-02 0.  1.
       -2   -1    0    0    0  501  0.00000000000E+00  0.00000000000E+00 -0.18499586254E+04  0.18499586254E+04  0.25500000920E-02 0. -1.
    10030    2    1    2    0    0  0.00000000000E+00  0.00000000000E+00  0.32068565137E+03  0.40206029021E+04  0.40077934590E+04 0.  0.
        2    1    3    3  502    0 -0.21292388692E+02  0.19937049935E+04 -0.41020244064E+02  0.19942406142E+04  0.25500000920E-02 0. -1.
       -2    1    3    3    0  502  0.21292388692E+02 -0.19937049935E+04  0.36170589543E+03  0.20263622879E+04  0.25500000920E-02 0.  1.
</event>
<event>
 5   0  0.4077370E-07  0.4241384E+04  0.7818609E-02  0.7957546E-01
       -2   -1    0    0    0  501  0.00000000000E+00  0.00000000000E+00  0.18162262369E+04  0.18162262369E+04  0.25500000920E-02 0.  1.
        2   -1    0    0  501    0  0.00000000000E+00  0.00000000000E+00 -0.24761978133E+04  0.24761978133E+04  0.25500000920E-02 0. -1.
    10030    2    1    2    0    0  0.00000000000E+00  0.00000000000E+00 -0.65997157640E+03  0.42924240503E+04  0.42413844138E+04 0.  0.
        3    1    3    3  502    0  0.10791326235E+04  0.76799119640E+03  0.13461442433E+04  0.18885025896E+04  0.10100000352E+00 0.  1.
       -3    1    3    3    0  502 -0.10791326235E+04 -0.76799119640E+03 -0.20061158197E+04  0.24039214607E+04  0.10100000352E+00 0. -1.
</event>
<event>
 5   0  0.4047916E-07  0.2786052E+04  0.7818609E-02  0.8307612E-01
        2   -1    0    0  501    0  0.00000000000E+00  0.00000000000E+00  0.18311730379E+04  0.18311730379E+04  0.25500000920E-02 0. -1.
       -2   -1    0    0    0  501  0.00000000000E+00  0.00000000000E+00 -0.10597148717E+04  0.10597148717E+04  0.25500000920E-02 0.  1.
    10030    2    1    2    0    0  0.00000000000E+00  0.00000000000E+00  0.77145816623E+03  0.28908879096E+04  0.27860519025E+04 0.  0.
        5    1    3    3  502    0  0.64932279744E+03 -0.75279527807E+03  0.13982434848E+04  0.17156420836E+04  0.46999998093E+01 0. -1.
       -5    1    3    3    0  502 -0.64932279744E+03  0.75279527807E+03 -0.62678531861E+03  0.11752458260E+04  0.46999998093E+01 0.  1.
</event>
<event>
 5   0  0.1421304E-07  0.3990162E+04  0.7818609E-02  0.8006534E-01
       -1   -1    0    0    0  501  0.00000000000E+00  0.00000000000E+00  0.30189519089E+04  0.30189519089E+04  0.50400001928E-02 0. -1.
        1   -1    0    0  501    0  0.00000000000E+00  0.00000000000E+00 -0.13184538540E+04  0.13184538541E+04  0.50400001928E-02 0.  1.
    10030    2    1    2    0    0  0.00000000000E+00  0.00000000000E+00  0.17004980549E+04  0.43374057630E+04  0.39901622922E+04 0.  0.
        2    1    3    3  502    0 -0.19134003315E+04  0.22893824958E+03  0.28873439860E+03  0.19485587247E+04  0.25500000920E-02 0.  1.
       -2    1    3    3    0  502  0.19134003315E+04 -0.22893824958E+03  0.14117636563E+04  0.23888470382E+04  0.25500000920E-02 0. -1.
</event>
<event>
 5   0  0.4149487E-07  0.3978791E+04  0.7818609E-02  0.8008839E-01
        2   -1    0    0  501    0  0.00000000000E+00  0.00000000000E+00  0.19566864238E+04  0.19566864238E+04  0.25500000920E-02 0. -1.
       -2   -1    0    0    0  501  0.00000000000E+00  0.00000000000E+00 -0.20226515025E+04  0.20226515025E+04  0.25500000920E-02 0.  1.
    10030    2    1    2    0    0  0.00000000000E+00  0.00000000000E+00 -0.65965078712E+02  0.39793379263E+04  0.39787911405E+04 0.  0.
        2    1    3    3  502    0 -0.61715862087E+03  0.35245083541E+03 -0.18913520909E+04  0.20204749655E+04  0.25500000920E-02 0.  1.
       -2    1    3    3    0  502  0.61715862087E+03 -0.35245083541E+03  0.18253870122E+04  0.19588629607E+04  0.25500000920E-02 0. -1.
</event>
<event>
 5   0  0.1421304E-07  0.4050615E+04  0.7818609E-02  0.7994413E-01
       -1   -1    0    0    0  501  0.00000000000E+00  0.00000000000E+00  0.18231282748E+04  0.18231282748E+04  0.50400001928E-02 0.  1.
        1   -1    0    0  501    0  0.00000000000E+00  0.00000000000E+00 -0.22499081200E+04  0.22499081200E+04  0.50400001928E-02 0. -1.
    10030    2    1    2    0    0  0.00000000000E+00  0.00000000000E+00 -0.42677984519E+03  0.40730363947E+04  0.40506153158E+04 0.  0.
        2    1    3    3  502    0  0.16122067959E+04  0.87450506910E+03 -0.10771565300E+04  0.21270251664E+04  0.25500000920E-02 0. -1.
       -2    1    3    3    0  502 -0.16122067959E+04 -0.87450506910E+03  0.65037668477E+03  0.19460112283E+04  0.25500000920E-02 0.  1.
</event>
<event>
 5   0  0.4077370E-07  0.4035274E+04  0.7818609E-02  0.7997468E-01
       -2   -1    0    0    0  501  0.00000000000E+00  0.00000000000E+00  0.15494672465E+04  0.15494672465E+04  0.25500000920E-02 0.  1.
        2   -1    0    0  501    0  0.00000000000E+00  0.00000000000E+00 -0.26272631482E+04  0.26272631482E+04  0.25500000920E-02 0. -1.
    10030    2    1    2    0    0  0.00000000000E+00  0.00000000000E+00 -0.10777959017E+04  0.41767303947E+04  0.40352735699E+04 0.  0.
        3    1    3    3  502    0 -0.12425330476E+04 -0.14101067925E+04 -0.12984962657E+04  0.22843778372E+04  0.10100000352E+00 0. -1.
       -3    1    3    3    0  502  0.12425330476E+04  0.14101067925E+04  0.22070036399E+03  0.18923525575E+04  0.10100000352E+00 0.  1.
</event>
<event>
 5   0  0.1372952E-07  0.3955478E+04  0.7818609E-02  0.8013589E-01
       -1   -1    0    0    0  501  0.00000000000E+00  0.00000000000E+00  0.17742741920E+04  0.17742741920E+04  0.50400001928E-02 0.  1.
        1   -1    0    0  501    0  0.00000000000E+00  0.00000000000E+00 -0.22045362131E+04  0.22045362131E+04  0.50400001928E-02 0. -1.
    10030    2    1    2    0    0  0.00000000000E+00  0.00000000000E+00 -0.43026202105E+03  0.39788104051E+04  0.39554780790E+04 0.  0.
        1    1    3    3  502    0  0.18108667321E+04  0.62233763600E+03 -0.71293326659E+03  0.20432367208E+04  0.50400001928E-02 0.  1.
       -1    1    3    3    0  502 -0.18108667321E+04 -0.62233763600E+03  0.28267124555E+03  0.19355736843E+04  0.50400001928E-02 0. -1.
</event>
<event>
 5   0  0.1421304E-07  0.3983478E+04  0.7818609E-02  0.8007888E-01
        1   -1    0    0  501    0  0.00000000000E+00  0.00000000000E+00  0.19237821706E+04  0.19237821706E+04  0.50400001928E-02 0. -1.
       -1   -1    0    0    0  501  0.00000000000E+00  0.00000000000E+00 -0.20620961760E+04  0.20620961760E+04  0.50400001928E-02 0.  1.
    10030    2    1    2    0    0  0.00000000000E+00  0.00000000000E+00 -0.13831400539E+03  0.39858783467E+04  0.39834778059E+04 0.  0.
        2    1    3    3  502    0 -0.16680986868E+04  0.95136735923E+03  0.45971688524E+03  0.19745867151E+04  0.25500000920E-02 0.  1.
       -2    1    3    3    0  502  0.16680986868E+04 -0.95136735923E+03 -0.59803089064E+03  0.20112916315E+04  0.25500000920E-02 0. -1.
</event>
<event>
 5   0  0.1372952E-07  0.3789613E+04  0.7818609E-02  0.8048388E-01
       -1   -1    0    0    0  501  0.00000000000E+00  0.00000000000E+00  0.16944240652E+04  0.16944240652E+04  0.50400001928E-02 0.  1.
        1   -1    0    0  501    0  0.00000000000E+00  0.00000000000E+00 -0.21188861314E+04  0.21188861314E+04  0.50400001928E-02 0. -1.
    10030    2    1    2    0    0  0.00000000000E+00  0.00000000000E+00 -0.42446206619E+03  0.38133101966E+04  0.37896129895E+04 0.  0.
        1    1    3    3  502    0  0.56124219247E+03 -0.25721422286E+03 -0.20148402437E+04  0.21073047152E+04  0.50400001928E-02 0. -1.
       -1    1    3    3    0  502 -0.56124219247E+03  0.25721422286E+03  0.15903781775E+04  0.17060054814E+04  0.50400001928E-02 0.  1.
</event>
<event>
 5   0  0.4047916E-07  0.4007315E+04  0.7818609E-02  0.8003073E-01
       -2   -1    0    0    0  501  0.00000000000E+00  0.00000000000E+00  0.18636588181E+04  0.18636588181E+04  0.25500000920E-02 0.  1.
        2   -1    0    0  501    0  0.00000000000E+00  0.00000000000E+00 -0.21541725448E+04  0.21541725448E+04  0.25500000920E-02 0. -1.
    10030    2    1    2    0    0  0.00000000000E+00  0.00000000000E+00 -0.29051372668E+03  0.40178313630E+04  0.40073146415E+04 0.  0.
        5    1    3    3  502    0  0.10734908690E+04  0.85854403003E+03 -0.16068686667E+04  0.21145991345E+04  0.46999998093E+01 0. -1.
       -5    1    3    3    0  502 -0.10734908690E+04 -0.85854403003E+03  0.13163549401E+04  0.19032322285E+04  0.46999998093E+01 0.  1.
</event>
<event>
 5   0  0.1368865E-07  0.3854647E+04  0.7818609E-02  0.8034528E-01
       -1   -1    0    0    0  501  0.00000000000E+00  0.00000000000E+00  0.17983624241E+04  0.17983624241E+04  0.50400001928E-02 0.  1.
        1   -1    0    0  501    0  0.00000000000E+00  0.00000000000E+00 -0.20655327133E+04  0.20655327133E+04  0.50400001928E-02 0. -1.
    10030    2    1    2    0    0  0.00000000000E+00  0.00000000000E+00 -0.26717028924E+03  0.38638951374E+04  0.38546472821E+04 0.  0.
        5    1    3    3  502    0 -0.18859901568E+03  0.13120399230E+04  0.12688912614E+04  0.18349728803E+04  0.46999998093E+01 0.  1.
       -5    1    3    3    0  502  0.18859901568E+03 -0.13120399230E+04 -0.15360615506E+04  0.20289222571E+04  0.46999998093E+01 0. -1.
</event>
<event>
 5   0  0.1351000E-07  0.3984230E+04  0.7818609E-02  0.8007735E-01
        1   -1    0    0  501    0  0.00000000000E+00  0.00000000000E+00  0.28457848567E+04  0.28457848567E+04  0.50400001928E-02 0.  1.
       -1   -1    0    0    0  501  0.00000000000E+00  0.00000000000E+00 -0.13945263494E+04  0.13945263495E+04  0.50400001928E-02 0. -1.
    10030    2    1    2    0    0  0.00000000000E+00  0.00000000000E+00  0.14512585073E+04  0.42403112062E+04  0.39842298968E+04 0.  0.
        3    1    3    3  502    0  0.14105838305E+04  0.13863765634E+04  0.47212819040E+03  0.20333941470E+04  0.10100000352E+00 0. -1.
       -3    1    3    3    0  502 -0.14105838305E+04 -0.13863765634E+04  0.97913031687E+03  0.22069170592E+04  0.10100000352E+00 0.  1.
</event>
<event>
 5   0  0.4301754E-07  0.3293028E+04  0.7818609E-02  0.8164672E-01
        2   -1    0    0  501    0  0.00000000000E+00  0.00000000000E+00  0.24030173850E+04  0.24030173850E+04  0.25500000920E-02 0. -1.
       -2   -1    0    0    0  501  0.00000000000E+00  0.00000000000E+00 -0.11281685343E+04  0.11281685343E+04  0.25500000920E-02 0.  1.
    10030    2    1    2    0    0  0.00000000000E+00  0.00000000000E+00  0.12748488507E+04  0.35311859193E+04  0.32930281512E+04 0.  0.
        1    1    3    3  502    0  0.73829758320E+03  0.64064412446E+02  0.22140733880E+04  0.23348037472E+04  0.50400001928E-02 0. -1.
       -1    1    3    3    0  502 -0.73829758320E+03 -0.64064412446E+02 -0.93922453728E+03  0.11963821721E+04  0.50400001928E-02 0.  1.
</event>
<event>
 5   0  0.1351000E-07  0.4035262E+04  0.7818609E-02  0.7997471E-01
       -1   -1    0    0    0  501  0.00000000000E+00  0.00000000000E+00  0.15665639497E+04  0.15665639497E+04  0.50400001928E-02 0.  1.
        1   -1    0    0  501    0  0.00000000000E+00  0.00000000000E+00 -0.25985754346E+04  0.25985754347E+04  0.50400001928E-02 0. -1.
    10030    2    1    2    0    0  0.00000000000E+00  0.00000000000E+00 -0.10320114850E+04  0.41651393843E+04  0.40352618732E+04 0.  0.
        3    1    3    3  502    0  0.99147868907E+03 -0.17395976108E+04 -0.77219735547E+03  0.21460472046E+04  0.10100000352E+00 0.  1.
       -3    1    3    3    0  502 -0.99147868907E+03  0.17395976108E+04 -0.25981412952E+03  0.20190921797E+04  0.10100000352E+00 0. -1.
</event>
<event>
 5   0  0.4077370E-07  0.4017707E+04  0.7818609E-02  0.8000984E-01
        2   -1    0    0  501    0  0.00000000000E+00  0.00000000000E+00  0.20556967197E+04  0.20556967197E+04  0.25500000920E-02 0. -1.
       -2   -1    0    0    0  501  0.00000000000E+00  0.00000000000E+00 -0.19630773289E+04  0.19630773290E+04  0.25500000920E-02 0.  1.
    10030    2    1    2    0    0  0.00000000000E+00  0.00000000000E+00  0.92619390758E+02  0.40187740487E+04  0.40177066223E+04 0.  0.
        3    1    3    3  502    0  0.19330671792E+04  0.26862733569E+03  0.52244272683E+03  0.20203603089E+04  0.10100000352E+00 0. -1.
       -3    1    3    3    0  502 -0.19330671792E+04 -0.26862733569E+03 -0.42982333607E+03  0.19984137398E+04  0.10100000352E+00 0.  1.
</event>
<event>
 5   0  0.1372952E-07  0.2690255E+04  0.7818609E-02  0.8338174E-01
        1   -1    0    0  501    0  0.00000000000E+00  0.00000000000E+00  0.22925122589E+04  0.22925122589E+04  0.50400001928E-02 0. -1.
       -1   -1    0    0    0  501  0.00000000000E+00  0.00000000000E+00 -0.78925120206E+03  0.78925120208E+03  0.50400001928E-02 0.  1.
    10030    2    1    2    0    0  0.00000000000E+00  0.00000000000E+00  0.15032610569E+04  0.30817634610E+04  0.26902550482E+04 0.  0.
        1    1    3    3  502    0 -0.69244237913E+03 -0.27076756623E+03 -0.53247382697E+03  0.91450527597E+03  0.50400001928E-02 0.  1.
       -1    1    3    3    0  502  0.69244237913E+03  0.27076756623E+03  0.20357348838E+04  0.21672581850E+04  0.50400001928E-02 0. -1.
</event>
<event>
 5   0  0.1372952E-07  0.3936520E+04  0.7818609E-02  0.8017476E-01
        1   -1    0    0  501    0  0.00000000000E+00  0.00000000000E+00  0.17325378443E+04  0.17325378443E+04  0.50400001928E-02 0.  1.
       -1   -1    0    0    0  501  0.00000000000E+00  0.00000000000E+00 -0.22360536651E+04  0.22360536652E+04  0.50400001928E-02 0. -1.
    10030    2    1    2    0    0  0.00000000000E+00  0.00000000000E+00 -0.50351582089E+03  0.39685915094E+04  0.39365200859E+04 0.  0.
        1    1    3    3  502    0  0.20829034012E+03  0.25790337476E+03  0.17041900958E+04  0.17361344704E+04  0.50400001928E-02 0.  1.
       -1    1    3    3    0  502 -0.20829034012E+03 -0.25790337476E+03 -0.22077059167E+04  0.22324570390E+04  0.50400001928E-02 0. -1.
</event>
<event>
 5   0  0.4301754E-07  0.3987627E+04  0.7818609E-02  0.8007047E-01
        2   -1    0    0  501    0  0.00000000000E+00  0.00000000000E+00  0.20010011015E+04  0.20010011015E+04  0.25500000920E-02 0. -1.
       -2   -1    0    0    0  501  0.00000000000E+00  0.00000000000E+00 -0.19866518071E+04  0.19866518071E+04  0.25500000920E-02 0.  1.
    10030    2    1    2    0    0  0.00000000000E+00  0.00000000000E+00  0.14349294392E+02  0.39876529085E+04  0.39876270910E+04 0.  0.
        1    1    3    3  502    0 -0.17374100230E+04  0.97205552827E+03  0.11583498524E+03  0.19942174610E+04  0.50400001928E-02 0. -1.
       -1    1    3    3    0  502  0.17374100230E+04 -0.97205552827E+03 -0.10148569085E+03  0.19934354475E+04  0.50400001928E-02 0.  1.
</event>
<event>
 5   0  0.1372952E-07  0.2609337E+04  0.7818609E-02  0.8365036E-01
       -1   -1    0    0    0  501  0.00000000000E+00  0.00000000000E+00  0.13925587067E+04  0.13925587067E+04  0.50400001928E-02 0. -1.
        1   -1    0    0  501    0  0.00000000000E+00  0.00000000000E+00 -0.12223258203E+04  0.12223258203E+04  0.50400001928E-02 0.  1.
    10030    2    1    2    0    0  0.00000000000E+00  0.00000000000E+00  0.17023288646E+03  0.26148845270E+04  0.26093374358E+04 0.  0.
        1    1    3    3  502    0 -0.35494471814E+03  0.54060003723E+03  0.12206299891E+04  0.13813658906E+04  0.50400001928E-02 0. -1.
       -1    1    3    3    0  502  0.35494471814E+03 -0.54060003723E+03 -0.10503971027E+04  0.12335186365E+04  0.50400001928E-02 0.  1.
</event>
<event>
 5   0  0.1372952E-07  0.3324389E+04  0.7818609E-02  0.8156717E-01
       -1   -1    0    0    0  501  0.00000000000E+00  0.00000000000E+00  0.31883462660E+04  0.31883462660E+04  0.50400001928E-02 0.  1.
        1   -1    0    0  501    0  0.00000000000E+00  0.00000000000E+00 -0.86655890381E+03  0.86655890383E+03  0.50400001928E-02 0. -1.
    10030    2    1    2    0    0  0.00000000000E+00  0.00000000000E+00  0.23217873622E+04  0.40549051698E+04  0.33243885725E+04 0.  0.
        1    1    3    3  502    0 -0.11689943419E+04 -0.88404817408E+03  0.20450116635E+03  0.14798343396E+04  0.50400001928E-02 0. -1.
       -1    1    3    3    0  502  0.11689943419E+04  0.88404817408E+03  0.21172861959E+04  0.25750708302E+04  0.50400001928E-02 0.  1.
</event>
<event>
 5   0  0.4077370E-07  0.3994387E+04  0.7818609E-02  0.8005680E-01
        2   -1    0    0  501    0  0.00000000000E+00  0.00000000000E+00  0.28534749333E+04  0.28534749333E+04  0.25500000920E-02 0.  1.
       -2   -1    0    0    0  501  0.00000000000E+00  0.00000000000E+00 -0.13978682393E+04  0.13978682393E+04  0.25500000920E-02 0. -1.
    10030    2    1    2    0    0  0.00000000000E+00  0.00000000000E+00  0.14556066940E+04  0.42513431726E+04  0.39943870524E+04 0.  0.
        3    1    3    3  502    0  0.11037849046E+04  0.16649351247E+03 -0.10348496148E+04  0.15221612730E+04  0.10100000352E+00 0. -1.
       -3    1    3    3    0  502 -0.11037849046E+04 -0.16649351247E+03  0.24904563088E+04  0.27291818997E+04  0.10100000352E+00 0.  1.
</event>
<event>
 5   0  0.4047916E-07  0.4019354E+04  0.7818609E-02  0.8000654E-01
       -2   -1    0    0    0  501  0.00000000000E+00  0.00000000000E+00  0.16124660524E+04  0.16124660524E+04  0.25500000920E-02 0. -1.
        2   -1    0    0  501    0  0.00000000000E+00  0.00000000000E+00 -0.25047356131E+04  0.25047356131E+04  0.25500000920E-02 0.  1.
    10030    2    1    2    0    0  0.00000000000E+00  0.00000000000E+00 -0.89226956071E+03  0.41172016656E+04  0.40193537523E+04 0.  0.
        5    1    3    3  502    0 -0.94923605120E+03  0.36565427747E+03 -0.22215413359E+04  0.24433624636E+04  0.46999998093E+01 0.  1.
       -5    1    3    3    0  502  0.94923605120E+03 -0.36565427747E+03  0.13292717752E+04  0.16738392019E+04  0.46999998093E+01 0. -1.
</event>
<event>
 5   0  0.4149487E-07  0.4013556E+04  0.7818609E-02  0.8001817E-01
       -2   -1    0    0    0  501  0.00000000000E+00  0.00000000000E+00  0.20955368167E+04  0.20955368167E+04  0.25500000920E-02 0.  1.
        2   -1    0    0  501    0  0.00000000000E+00  0.00000000000E+00 -0.19217784724E+04  0.19217784724E+04  0.25500000920E-02 0. -1.
    10030    2    1    2    0    0  0.00000000000E+00  0.00000000000E+00  0.17375834433E+03  0.40173152891E+04  0.40135558013E+04 0.  0.
        2    1    3    3  502    0  0.46001064391E+03 -0.10275275973E+04 -0.15759218627E+04  0.19367375850E+04  0.25500000920E-02 0. -1.
       -2    1    3    3    0  502 -0.46001064391E+03  0.10275275973E+04  0.17496802070E+04  0.20805777041E+04  0.25500000920E-02 0.  1.
</event>
<event>
 5   0  0.4149487E-07  0.4051167E+04  0.7818609E-02  0.7994303E-01
        2   -1    0    0  501    0  0.00000000000E+00  0.00000000000E+00  0.19682952541E+04  0.19682952541E+04  0.25500000920E-02 0. -1.
       -2   -1    0    0    0  501  0.00000000000E+00  0.00000000000E+00 -0.20845390692E+04  0.20845390692E+04  0.25500000920E-02 0.  1.
    10030    2    1    2    0    0  0.00000000000E+00  0.00000000000E+00 -0.11624381506E+03  0.40528343233E+04  0.40511669217E+04 0.  0.
        2    1    3    3  502    0  0.43281640318E+03  0.68648281143E+03  0.17985513489E+04  0.19731638664E+04  0.25500000920E-02 0. -1.
       -2    1    3    3    0  502 -0.43281640318E+03 -0.68648281143E+03 -0.19147951639E+04  0.20796704569E+04  0.25500000920E-02 0.  1.
</event>
<event>
 5   0  0.4077370E-07  0.4010673E+04  0.7818609E-02  0.8002397E-01
        2   -1    0    0  501    0  0.00000000000E+00  0.00000000000E+00  0.25134241317E+04  0.25134241317E+04  0.25500000920E-02 0.  1.
       -2   -1    0    0    0  501  0.00000000000E+00  0.00000000000E+00 -0.15999586408E+04  0.15999586408E+04  0.25500000920E-02 0. -1.
    10030    2    1    2    0    0  0.00000000000E+00  0.00000000000E+00  0.91346549089E+03  0.41133827725E+04  0.40106730894E+04 0.  0.
        3    1    3    3  502    0  0.15304212240E+04 -0.53986996370E+03  0.16649185120E+04  0.23249951317E+04  0.10100000352E+00 0.  1.
       -3    1    3    3    0  502 -0.15304212240E+04  0.53986996370E+03 -0.75145302114E+03  0.17883876408E+04  0.10100000352E+00 0. -1.
</event>
<event>
 5   0  0.1421304E-07  0.3971643E+04  0.7818609E-02  0.8010292E-01
       -1   -1    0    0    0  501  0.00000000000E+00  0.00000000000E+00  0.23530012834E+04  0.23530012834E+04  0.50400001928E-02 0.  1.
        1   -1    0    0  501    0  0.00000000000E+00  0.00000000000E+00 -0.16759389898E+04  0.16759389898E+04  0.50400001928E-02 0. -1.
    10030    2    1    2    0    0  0.00000000000E+00  0.00000000000E+00  0.67706229364E+03  0.40289402732E+04  0.39716427804E+04 0.  0.
        2    1    3    3  502    0  0.94022451858E+03  0.82947093789E+03  0.19006962808E+04  0.22769915534E+04  0.25500000920E-02 0.  1.
       -2    1    3    3    0  502 -0.94022451858E+03 -0.82947093789E+03 -0.12236339872E+04  0.17519487198E+04  0.25500000920E-02 0. -1.
</event>
<event>
 5   0  0.4301754E-07  0.3801300E+04  0.7818609E-02  0.8045876E-01
        2   -1    0    0  501    0  0.00000000000E+00  0.00000000000E+00  0.20560776549E+04  0.20560776549E+04  0.25500000920E-02 0.  1.
       -2   -1    0    0    0  501  0.00000000000E+00  0.00000000000E+00 -0.17569720746E+04  0.17569720746E+04  0.25500000920E-02 0. -1.
    10030    2    1    2    0    0  0.00000000000E+00  0.00000000000E+00  0.29910558030E+03  0.38130497294E+04  0.38013003158E+04 0.  0.
        1    1    3    3  502    0  0.44315047826E+03  0.14934716654E+03 -0.16983639212E+04  0.17615694512E+04  0.50400001928E-02 0. -1.
       -1    1    3    3    0  502 -0.44315047826E+03 -0.14934716654E+03  0.19974695015E+04  0.20514802782E+04  0.50400001928E-02 0.  1.
</event>
<event>
 5   0  0.1351000E-07  0.2566161E+04  0.7818609E-02  0.8379787E-01
        1   -1    0    0  501    0  0.00000000000E+00  0.00000000000E+00  0.23690517143E+04  0.23690517143E+04  0.50400001928E-02 0.  1.
       -1   -1    0    0    0  501  0.00000000000E+00  0.00000000000E+00 -0.69491727797E+03  0.69491727799E+03  0.50400001928E-02 0. -1.
    10030    2    1    2    0    0  0.00000000000E+00  0.00000000000E+00  0.16741344363E+04  0.30639689923E+04  0.25661605318E+04 0.  0.
        3    1    3    3  502    0 -0.21672453200E+03  0.80745676183E+03 -0.32505888490E+03  0.89700570447E+03  0.10100000352E+00 0. -1.
       -3    1    3    3    0  502  0.21672453200E+03 -0.80745676183E+03  0.19991933212E+04  0.21669632878E+04  0.10100000352E+00 0.  1.
</event>
<event>
 5   0  0.1351000E-07  0.4043408E+04  0.7818609E-02  0.7995847E-01
        1   -1    0    0  501    0  0.00000000000E+00  0.00000000000E+00  0.22967105789E+04  0.22967105789E+04  0.50400001928E-02 0.  1.
       -1   -1    0    0    0  501  0.00000000000E+00  0.00000000000E+00 -0.17796264744E+04  0.17796264744E+04  0.50400001928E-02 0. -1.
    10030    2    1    2    0    0  0.00000000000E+00  0.00000000000E+00  0.51708410457E+03  0.40763370533E+04  0.40434079439E+04 0.  0.
        3    1    3    3  502    0  0.36670290525E+02 -0.12882201646E+04  0.18289283705E+04  0.22373723198E+04  0.10100000352E+00 0.  1.
       -3    1    3    3    0  502 -0.36670290525E+02  0.12882201646E+04 -0.13118442660E+04  0.18389647335E+04  0.10100000352E+00 0. -1.
</event>
<event>
 5   0  0.1351000E-07  0.2748689E+04  0.7818609E-02  0.8319378E-01
       -1   -1    0    0    0  501  0.00000000000E+00  0.00000000000E+00  0.85635539721E+03  0.85635539722E+03  0.50400001928E-02 0.  1.
        1   -1    0    0  501    0  0.00000000000E+00  0.00000000000E+00 -0.22056531798E+04  0.22056531798E+04  0.50400001928E-02 0. -1.
    10030    2    1    2    0    0  0.00000000000E+00  0.00000000000E+00 -0.13492977826E+04  0.30620085770E+04  0.27486891457E+04 0.  0.
        4    1    3    3  502    0 -0.43116061127E+03  0.12117095736E+04 -0.12143092368E+04  0.17688097973E+04  0.12699999809E+01 0. -1.
       -4    1    3    3    0  502  0.43116061127E+03 -0.12117095736E+04 -0.13498854583E+03  0.12931987798E+04  0.12699999809E+01 0.  1.
</event>
<event>
 5   0  0.4079777E-07  0.2866941E+04  0.7818609E-02  0.8282782E-01
       -2   -1    0    0    0  501  0.00000000000E+00  0.00000000000E+00  0.11074162691E+04  0.11074162691E+04  0.25500000920E-02 0.  1.
        2   -1    0    0  501    0  0.00000000000E+00  0.00000000000E+00 -0.18555237390E+04  0.18555237390E+04  0.25500000920E-02 0. -1.
    10030    2    1    2    0    0  0.00000000000E+00  0.00000000000E+00 -0.74810746987E+03  0.29629400081E+04  0.28669406525E+04 0.  0.
        4    1    3    3  502    0 -0.67795915790E+03 -0.27094422528E+03  0.90086469369E+03  0.11595681102E+04  0.12699999809E+01 0.  1.
       -4    1    3    3    0  502  0.67795915790E+03  0.27094422528E+03 -0.16489721636E+04  0.18033718979E+04  0.12699999809E+01 0. -1.
</event>
<event>
 5   0  0.1351000E-07  0.4032491E+04  0.7818609E-02  0.7998024E-01
       -1   -1    0    0    0  501  0.00000000000E+00  0.00000000000E+00  0.23060061475E+04  0.23060061475E+04  0.50400001928E-02 0. -1.
        1   -1    0    0  501    0  0.00000000000E+00  0.00000000000E+00 -0.17628947067E+04  0.17628947067E+04  0.50400001928E-02 0.  1.
    10030    2    1    2    0    0  0.00000000000E+00  0.00000000000E+00  0.54311144078E+03  0.40689008542E+04  0.40324910569E+04 0.  0.
        3    1    3    3  502    0 -0.89294693415E+03 -0.10715338986E+04  0.17406227139E+04  0.22305395234E+04  0.10100000352E+00 0. -1.
       -3    1    3    3    0  502  0.89294693415E+03  0.10715338986E+04 -0.11975112731E+04  0.18383613308E+04  0.10100000352E+00 0.  1.
</event>
<event>
 5   0  0.4047916E-07  0.3974132E+04  0.7818609E-02  0.8009785E-01
       -2   -1    0    0    0  501  0.00000000000E+00  0.00000000000E+00  0.21590540834E+04  0.21590540834E+04  0.25500000920E-02 0.  1.
        2   -1    0    0  501    0  0.00000000000E+00  0.00000000000E+00 -0.18287784624E+04  0.18287784624E+04  0.25500000920E-02 0. -1.
    10030    2    1    2    0    0  0.00000000000E+00  0.00000000000E+00  0.33027562097E+03  0.39878325458E+04  0.39741321603E+04 0.  0.
        5    1    3    3  502    0  0.34658345225E+03  0.12434560490E+04  0.16810099119E+04  0.21194620660E+04  0.46999998093E+01 0.  1.
       -5    1    3    3    0  502 -0.34658345225E+03 -0.12434560490E+04 -0.13507342909E+04  0.18683704798E+04  0.46999998093E+01 0. -1.
</event>
<event>
 5   0  0.1351000E-07  0.4031189E+04  0.7818609E-02  0.7998284E-01
        1   -1    0    0  501    0  0.00000000000E+00  0.00000000000E+00  0.12482154451E+04  0.12482154451E+04  0.50400001928E-02 0.  1.
       -1   -1    0    0    0  501  0.00000000000E+00  0.00000000000E+00 -0.32547430136E+04  0.32547430136E+04  0.50400001928E-02 0. -1.
    10030    2    1    2    0    0  0.00000000000E+00  0.00000000000E+00 -0.20065275685E+04  0.45029584587E+04  0.40311886582E+04 0.  0.
        3    1    3    3  502    0 -0.10665397443E+03 -0.10020323875E+04  0.94664198008E+03  0.13825972026E+04  0.10100000352E+00 0.  1.
       -3    1    3    3    0  502  0.10665397443E+03  0.10020323875E+04 -0.29531695486E+04  0.31203612562E+04  0.10100000352E+00 0. -1.
</event>
<event>
 5   0  0.4301754E-07  0.3984840E+04  0.7818609E-02  0.8007612E-01
       -2   -1    0    0    0  501  0.00000000000E+00  0.00000000000E+00  0.21801930945E+04  0.21801930945E+04  0.25500000920E-02 0. -1.
        2   -1    0    0  501    0  0.00000000000E+00  0.00000000000E+00 -0.18208188659E+04  0.18208188659E+04  0.25500000920E-02 0.  1.
    10030    2    1    2    0    0  0.00000000000E+00  0.00000000000E+00  0.35937422857E+03  0.40010119604E+04  0.39848396293E+04 0.  0.
        1    1    3    3  502    0 -0.93022960027E+03  0.11665769901E+04  0.15054655202E+04  0.21195885015E+04  0.50400001928E-02 0. -1.
       -1    1    3    3    0  502  0.93022960027E+03 -0.11665769901E+04 -0.11460912916E+04  0.18814234589E+04  0.50400001928E-02 0.  1.
</event>
<event>
 5   0  0.1351000E-07  0.3888509E+04  0.7818609E-02  0.8027423E-01
        1   -1    0    0  501    0  0.00000000000E+00  0.00000000000E+00  0.23928729930E+04  0.23928729930E+04  0.50400001928E-02 0. -1.
       -1   -1    0    0    0  501  0.00000000000E+00  0.00000000000E+00 -0.15797433563E+04  0.15797433563E+04  0.50400001928E-02 0.  1.
    10030    2    1    2    0    0  0.00000000000E+00  0.00000000000E+00  0.81312963667E+03  0.39726163493E+04  0.38885088212E+04 0.  0.
        3    1    3    3  502    0  0.69666483120E+03 -0.82533367285E+03  0.20581985081E+04  0.23243705960E+04  0.10100000352E+00 0. -1.
       -3    1    3    3    0  502 -0.69666483120E+03  0.82533367285E+03 -0.12450688714E+04  0.16482457533E+04  0.10100000352E+00 0.  1.
</event>
<event>
 5   0  0.4047916E-07  0.3725362E+04  0.7818609E-02  0.8062364E-01
       -2   -1    0    0    0  501  0.00000000000E+00  0.00000000000E+00  0.27382457012E+04  0.27382457012E+04  0.25500000920E-02 0. -1.
        2   -1    0    0  501    0  0.00000000000E+00  0.00000000000E+00 -0.12670816831E+04  0.12670816831E+04  0.25500000920E-02 0.  1.
    10030    2    1    2    0    0  0.00000000000E+00  0.00000000000E+00  0.14711640181E+04  0.40053273844E+04  0.37253622492E+04 0.  0.
        5    1    3    3  502    0 -0.13214063343E+04 -0.30852601287E+03 -0.63634446977E+03  0.14987526064E+04  0.46999998093E+01 0.  1.
       -5    1    3    3    0  502  0.13214063343E+04  0.30852601287E+03  0.21075084879E+04  0.25065747780E+04  0.46999998093E+01 0. -1.
</event>
<event>
 5   0  0.4077370E-07  0.3375705E+04  0.7818609E-02  0.8143895E-01
        2   -1    0    0  501    0  0.00000000000E+00  0.00000000000E+00  0.18527639191E+04  0.18527639191E+04  0.25500000920E-02 0. -1.
       -2   -1    0    0    0  501  0.00000000000E+00  0.00000000000E+00 -0.15376191407E+04  0.15376191407E+04  0.25500000920E-02 0.  1.
    10030    2    1    2    0    0  0.00000000000E+00  0.00000000000E+00  0.31514477846E+03  0.33903830598E+04  0.33757045280E+04 0.  0.
        3    1    3    3  502    0  0.52158730249E+03  0.13085576980E+04 -0.77623859408E+03  0.16083914102E+04  0.10100000352E+00 0.  1.
       -3    1    3    3    0  502 -0.52158730249E+03 -0.13085576980E+04  0.10913833725E+04  0.17819916496E+04  0.10100000352E+00 0. -1.
</event>
<event>
 5   0  0.4077370E-07  0.2486919E+04  0.7818609E-02  0.8407661E-01
        2   -1    0    0  501    0  0.00000000000E+00  0.00000000000E+00  0.18466468062E+04  0.18466468062E+04  0.25500000920E-02 0. -1.
       -2   -1    0    0    0  501  0.00000000000E+00  0.00000000000E+00 -0.83729686056E+03  0.83729686057E+03  0.25500000920E-02 0.  1.
    10030    2    1    2    0    0  0.00000000000E+00  0.00000000000E+00  0.10093499457E+04  0.26839436668E+04  0.24869190364E+04 0.  0.
        3    1    3    3  502    0  0.11652399946E+04 -0.37131173470E+03  0.74728431201E+03  0.14332098599E+04  0.10100000352E+00 0. -1.
       -3    1    3    3    0  502 -0.11652399946E+04  0.37131173470E+03  0.26206563367E+03  0.12507338069E+04  0.10100000352E+00 0.  1.
</event>
<event>
 5   0  0.1372952E-07  0.3848772E+04  0.7818609E-02  0.8035769E-01
        1   -1    0    0  501    0  0.00000000000E+00  0.00000000000E+00  0.26307508112E+04  0.26307508112E+04  0.50400001928E-02 0.  1.
       -1   -1    0    0    0  501  0.00000000000E+00  0.00000000000E+00 -0.14076826546E+04  0.14076826546E+04  0.50400001928E-02 0. -1.
    10030    2    1    2    0    0  0.00000000000E+00  0.00000000000E+00  0.12230681566E+04  0.40384334658E+04  0.38487724201E+04 0.  0.
        1    1    3    3  502    0  0.17421861924E+04 -0.69846938599E+03  0.10569401483E+04  0.21541111135E+04  0.50400001928E-02 0.  1.
       -1    1    3    3    0  502 -0.17421861924E+04  0.69846938599E+03  0.16612800828E+03  0.18843223523E+04  0.50400001928E-02 0. -1.
</event>
<event>
 5   0  0.1351000E-07  0.2940853E+04  0.7818609E-02  0.8260825E-01
        1   -1    0    0  501    0  0.00000000000E+00  0.00000000000E+00  0.29118700966E+04  0.29118700966E+04  0.50400001928E-02 0. -1.
       -1   -1    0    0    0  501  0.00000000000E+00  0.00000000000E+00 -0.74253105702E+03  0.74253105704E+03  0.50400001928E-02 0.  1.
    10030    2    1    2    0    0  0.00000000000E+00  0.00000000000E+00  0.21693390395E+04  0.36544011536E+04  0.29408529244E+04 0.  0.
        4    1    3    3  502    0  0.74707446369E+02 -0.10358872277E+04  0.23781477944E+04  0.25950399026E+04  0.12699999809E+01 0. -1.
       -4    1    3    3    0  502 -0.74707446369E+02  0.10358872277E+04 -0.20880875485E+03  0.10593612510E+04  0.12699999809E+01 0.  1.
</event>
<event>
 5   0  0.1372952E-07  0.4005143E+04  0.7818609E-02  0.8003510E-01
       -1   -1    0    0    0  501  0.00000000000E+00  0.00000000000E+00  0.25256836056E+04  0.25256836056E+04  0.50400001928E-02 0. -1.
        1   -1    0    0  501    0  0.00000000000E+00  0.00000000000E+00 -0.15878048448E+04  0.15878048448E+04  0.50400001928E-02 0.  1.
    10030    2    1    2    0    0  0.00000000000E+00  0.00000000000E+00  0.93787876080E+03  0.41134884505E+04  0.40051430264E+04 0.  0.
        1    1    3    3  502    0 -0.10288380337E+04 -0.13905191161E+04 -0.56743736783E+03  0.18204494715E+04  0.50400001928E-02 0.  1.
       -1    1    3    3    0  502  0.10288380337E+04  0.13905191161E+04  0.15053161286E+04  0.22930389790E+04  0.50400001928E-02 0. -1.
</event>
<event>
 5   0  0.1351000E-07  0.4001168E+04  0.7818609E-02  0.8004311E-01
       -3   -1    0    0    0  501  0.00000000000E+00  0.00000000000E+00  0.17763395183E+04  0.17763395211E+04  0.10100000352E+00 0. -1.
        3   -1    0    0  501    0  0.00000000000E+00  0.00000000000E+00 -0.22531365776E+04  0.22531365799E+04  0.10100000352E+00 0.  1.
    10030    2    1    2    0    0  0.00000000000E+00  0.00000000000E+00 -0.47679705933E+03  0.40294761010E+04  0.40011676062E+04 0.  0.
        4    1    3    3  502    0 -0.50967896042E+03 -0.18999974666E+04  0.12828042313E+03  0.19713499171E+04  0.12699999809E+01 0. -1.
       -4    1    3    3    0  502  0.50967896042E+03  0.18999974666E+04 -0.60507748245E+03  0.20581261838E+04  0.12699999809E+01 0.  1.
</event>
<event>
 5   0  0.1351000E-07  0.3411931E+04  0.7818609E-02  0.8134984E-01
       -1   -1    0    0    0  501  0.00000000000E+00  0.00000000000E+00  0.11876964216E+04  0.11876964216E+04  0.50400001928E-02 0. -1.
        1   -1    0    0  501    0  0.00000000000E+00  0.00000000000E+00 -0.24503896615E+04  0.24503896615E+04  0.50400001928E-02 0.  1.
    10030    2    1    2    0    0  0.00000000000E+00  0.00000000000E+00 -0.12626932399E+04  0.36380860831E+04  0.34119314369E+04 0.  0.
        3    1    3    3  502    0 -0.91043928968E+03  0.13664550284E+04 -0.13782900283E+03  0.16477548024E+04  0.10100000352E+00 0. -1.
       -3    1    3    3    0  502  0.91043928968E+03 -0.13664550284E+04 -0.11248642371E+04  0.19903312807E+04  0.10100000352E+00 0.  1.
</event>
<event>
 5   0  0.1351000E-07  0.4011536E+04  0.7818609E-02  0.8002223E-01
        1   -1    0    0  501    0  0.00000000000E+00  0.00000000000E+00  0.12601981454E+04  0.12601981454E+04  0.50400001928E-02 0.  1.
       -1   -1    0    0    0  501  0.00000000000E+00  0.00000000000E+00 -0.31924383412E+04  0.31924383412E+04  0.50400001928E-02 0. -1.
    10030    2    1    2    0    0  0.00000000000E+00  0.00000000000E+00 -0.19322401958E+04  0.44526364867E+04  0.40115358041E+04 0.  0.
        4    1    3    3  502    0  0.15919444267E+03 -0.15203921365E+04  0.47518860221E+03  0.16008563146E+04  0.12699999809E+01 0.  1.
       -4    1    3    3    0  502 -0.15919444267E+03  0.15203921365E+04 -0.24074287980E+04  0.28517801721E+04  0.12699999809E+01 0. -1.
</event>
<event>
 5   0  0.1421304E-07  0.4125395E+04  0.7818609E-02  0.7979717E-01
       -1   -1    0    0    0  501  0.00000000000E+00  0.00000000000E+00  0.27761091604E+04  0.27761091604E+04  0.50400001928E-02 0. -1.
        1   -1    0    0  501    0  0.00000000000E+00  0.00000000000E+00 -0.15326199448E+04  0.15326199448E+04  0.50400001928E-02 0.  1.
    10030    2    1    2    0    0  0.00000000000E+00  0.00000000000E+00  0.12434892156E+04  0.43087291052E+04  0.41253946565E+04 0.  0.
        2    1    3    3  502    0  0.32091571453E+02  0.49074288002E+03 -0.14704919754E+04  0.15505499325E+04  0.25500000920E-02 0.  1.
       -2    1    3    3    0  502 -0.32091571453E+02 -0.49074288002E+03  0.27139811910E+04  0.27581791727E+04  0.25500000920E-02 0. -1.
</event>
<event>
 5   0  0.4149487E-07  0.3025680E+04  0.7818609E-02  0.8236436E-01
        2   -1    0    0  501    0  0.00000000000E+00  0.00000000000E+00  0.22013280196E+04  0.22013280196E+04  0.25500000920E-02 0.  1.
       -2   -1    0    0    0  501  0.00000000000E+00  0.00000000000E+00 -0.10396836817E+04  0.10396836817E+04  0.25500000920E-02 0. -1.
    10030    2    1    2    0    0  0.00000000000E+00  0.00000000000E+00  0.11616443379E+04  0.32410117014E+04  0.30256799700E+04 0.  0.
        2    1    3    3  502    0 -0.87363169776E+03  0.86270006031E+03 -0.36593592590E+03  0.12811685444E+04  0.25500000920E-02 0. -1.
       -2    1    3    3    0  502  0.87363169776E+03 -0.86270006031E+03  0.15275802638E+04  0.19598431569E+04  0.25500000920E-02 0.  1.
</event>
<event>
 5   0  0.1368865E-07  0.3229573E+04  0.7818609E-02  0.8181050E-01
       -1   -1    0    0    0  501  0.00000000000E+00  0.00000000000E+00  0.12660770904E+04  0.12660770904E+04  0.50400001928E-02 0. -1.
        1   -1    0    0  501    0  0.00000000000E+00  0.00000000000E+00 -0.20595390858E+04  0.20595390858E+04  0.50400001928E-02 0.  1.
    10030    2    1    2    0    0  0.00000000000E+00  0.00000000000E+00 -0.79346199541E+03  0.33256161762E+04  0.32295728840E+04 0.  0.
        5    1    3    3  502    0 -0.10211727115E+04 -0.98845906685E+02  0.88732836165E+03  0.13564431176E+04  0.46999998093E+01 0. -1.
       -5    1    3    3    0  502  0.10211727115E+04  0.98845906685E+02 -0.16807903571E+04  0.19691730585E+04  0.46999998093E+01 0.  1.
</event>
<event>
 5   0  0.1351000E-07  0.3998277E+04  0.7818609E-02  0.8004894E-01
        1   -1    0    0  501    0  0.00000000000E+00  0.00000000000E+00  0.21804881024E+04  0.21804881024E+04  0.50400001928E-02 0. -1.
       -1   -1    0    0    0  501  0.00000000000E+00  0.00000000000E+00 -0.18328715647E+04  0.18328715647E+04  0.50400001928E-02 0.  1.
    10030    2    1    2    0    0  0.00000000000E+00  0.00000000000E+00  0.34761653769E+03  0.40133596671E+04  0.39982769489E+04 0.  0.
        3    1    3    3  502    0 -0.12174600062E+04 -0.99745494610E+03  0.14111095726E+04  0.21138484979E+04  0.10100000352E+00 0. -1.
       -3    1    3    3    0  502  0.12174600062E+04  0.99745494610E+03 -0.10634930349E+04  0.18995111691E+04  0.10100000352E+00 0.  1.
</event>
<event>
 5   0  0.4149487E-07  0.3690792E+04  0.7818609E-02  0.8070005E-01
       -2   -1    0    0    0  501  0.00000000000E+00  0.00000000000E+00  0.16868456331E+04  0.16868456331E+04  0.25500000920E-02 0.  1.
        2   -1    0    0  501    0  0.00000000000E+00  0.00000000000E+00 -0.20188492776E+04  0.20188492776E+04  0.25500000920E-02 0. -1.
    10030    2    1    2    0    0  0.00000000000E+00  0.00000000000E+00 -0.33200364445E+03  0.37056949107E+04  0.36907923744E+04 0.  0.
        2    1    3    3  502    0  0.18331537552E+04  0.16596079756E+03 -0.29879093641E+03  0.18647444061E+04  0.25500000920E-02 0.  1.
       -2    1    3    3    0  502 -0.18331537552E+04 -0.16596079756E+03 -0.33212708042E+02  0.18409505046E+04  0.25500000920E-02 0. -1.
</event>
<event>
 5   0  0.1421304E-07  0.3864909E+04  0.7818609E-02  0.8032367E-01
        1   -1    0    0  501    0  0.00000000000E+00  0.00000000000E+00  0.21338790233E+04  0.21338790233E+04  0.50400001928E-02 0. -1.
       -1   -1    0    0    0  501  0.00000000000E+00  0.00000000000E+00 -0.17500427118E+04  0.17500427118E+04  0.50400001928E-02 0.  1.
    10030    2    1    2    0    0  0.00000000000E+00  0.00000000000E+00  0.38383631150E+03  0.38839217351E+04  0.38649085022E+04 0.  0.
        2    1    3    3  502    0  0.16357094233E+04 -0.10078015513E+04 -0.16878252184E+02  0.19213261461E+04  0.25500000920E-02 0. -1.
       -2    1    3    3    0  502 -0.16357094233E+04  0.10078015513E+04  0.40071456369E+03  0.19625955890E+04  0.25500000920E-02 0.  1.
</event>
<event>
 5   0  0.1368865E-07  0.3939622E+04  0.7818609E-02  0.8016839E-01
       -1   -1    0    0    0  501  0.00000000000E+00  0.00000000000E+00  0.12763969900E+04  0.12763969900E+04  0.50400001928E-02 0.  1.
        1   -1    0    0  501    0  0.00000000000E+00  0.00000000000E+00 -0.30399278278E+04  0.30399278278E+04  0.50400001928E-02 0. -1.
    10030    2    1    2    0    0  0.00000000000E+00  0.00000000000E+00 -0.17635308379E+04  0.43163248178E+04  0.39396216718E+04 0.  0.
        5    1    3    3  502    0 -0.13489149576E+04 -0.13420715745E+04 -0.14397841071E+04  0.23861533981E+04  0.46999998093E+01 0. -1.
       -5    1    3    3    0  502  0.13489149576E+04  0.13420715745E+04 -0.32374673074E+03  0.19301714197E+04  0.46999998093E+01 0.  1.
</event>
<event>
 5   0  0.4301754E-07  0.3951464E+04  0.7818609E-02  0.8014410E-01
       -2   -1    0    0    0  501  0.00000000000E+00  0.00000000000E+00  0.15786306224E+04  0.15786306224E+04  0.25500000920E-02 0.  1.
        2   -1    0    0  501    0  0.00000000000E+00  0.00000000000E+00 -0.24727232870E+04  0.24727232870E+04  0.25500000920E-02 0. -1.
    10030    2    1    2    0    0  0.00000000000E+00  0.00000000000E+00 -0.89409266464E+03  0.40513539094E+04  0.39514638814E+04 0.  0.
        1    1    3    3  502    0 -0.73527949020E+03  0.17914572500E+04 -0.84882198365E+03  0.21143447607E+04  0.50400001928E-02 0. -1.
       -1    1    3    3    0  502  0.73527949020E+03 -0.17914572500E+04 -0.45270680992E+02  0.19370091486E+04  0.50400001928E-02 0.  1.
</event>
<event>
 5   0  0.4149487E-07  0.2663600E+04  0.7818609E-02  0.8346913E-01
       -2   -1    0    0    0  501  0.00000000000E+00  0.00000000000E+00  0.14692466521E+04  0.14692466521E+04  0.25500000920E-02 0.  1.
        2   -1    0    0  501    0  0.00000000000E+00  0.00000000000E+00 -0.12072116792E+04  0.12072116792E+04  0.25500000920E-02 0. -1.
    10030    2    1    2    0    0  0.00000000000E+00  0.00000000000E+00  0.26203497297E+03  0.26764583313E+04  0.26636003590E+04 0.  0.
        2    1    3    3  502    0 -0.10067879506E+03  0.13193001456E+03  0.14588160425E+04  0.14682254576E+04  0.25500000920E-02 0.  1.
       -2    1    3    3    0  502  0.10067879506E+03 -0.13193001456E+03 -0.11967810696E+04  0.12082328737E+04  0.25500000920E-02 0. -1.
</event>
<event>
 5   0  0.4079777E-07  0.3958881E+04  0.7818609E-02  0.8012893E-01
       -2   -1    0    0    0  501  0.00000000000E+00  0.00000000000E+00  0.21245128379E+04  0.21245128379E+04  0.25500000920E-02 0.  1.
        2   -1    0    0  501    0  0.00000000000E+00  0.00000000000E+00 -0.18442746438E+04  0.18442746438E+04  0.25500000920E-02 0. -1.
    10030    2    1    2    0    0  0.00000000000E+00  0.00000000000E+00  0.28023819410E+03  0.39687874817E+04  0.39588812346E+04 0.  0.
        4    1    3    3  502    0 -0.13117484485E+04 -0.14786798507E+04  0.24528847448E+03  0.19918198065E+04  0.12699999809E+01 0. -1.
       -4    1    3    3    0  502  0.13117484485E+04  0.14786798507E+04  0.34949719615E+02  0.19769676752E+04  0.12699999809E+01 0.  1.
</event>
<event>
 5   0  0.4047916E-07  0.4039022E+04  0.7818609E-02  0.7996721E-01
        2   -1    0    0  501    0  0.00000000000E+00  0.00000000000E+00  0.21082576919E+04  0.21082576919E+04  0.25500000920E-02 0. -1.
       -2   -1    0    0    0  501  0.00000000000E+00  0.00000000000E+00 -0.19344999241E+04  0.19344999241E+04  0.25500000920E-02 0.  1.
    10030    2    1    2    0    0  0.00000000000E+00  0.00000000000E+00  0.17375776783E+03  0.40427576160E+04  0.40390218345E+04 0.  0.
        5    1    3    3  502    0 -0.16398505588E+04 -0.11337439198E+04 -0.23578106585E+03  0.20075108797E+04  0.46999998093E+01 0.  1.
       -5    1    3    3    0  502  0.16398505588E+04  0.11337439198E+04  0.40953883368E+03  0.20352467363E+04  0.46999998093E+01 0. -1.
</event>
<event>
 5   0  0.4079777E-07  0.3996399E+04  0.7818609E-02  0.8005273E-01
        2   -1    0    0  501    0  0.00000000000E+00  0.00000000000E+00  0.16017295698E+04  0.16017295698E+04  0.25500000920E-02 0. -1.
       -2   -1    0    0    0  501  0.00000000000E+00  0.00000000000E+00 -0.24928063124E+04  0.24928063124E+04  0.25500000920E-02 0.  1.
    10030    2    1    2    0    0  0.00000000000E+00  0.00000000000E+00 -0.89107674259E+03  0.40945358823E+04  0.39963991705E+04 0.  0.
        4    1    3    3  502    0 -0.74659154587E+03 -0.42355210212E+03 -0.22942889777E+04  0.24496038140E+04  0.12699999809E+01 0.  1.
       -4    1    3    3    0  502  0.74659154587E+03  0.42355210212E+03  0.14032122351E+04  0.16449320683E+04  0.12699999809E+01 0. -1.
</event>
<event>
 5   0  0.4301754E-07  0.4045782E+04  0.7818609E-02  0.7995374E-01
        2   -1    0    0  501    0  0.00000000000E+00  0.00000000000E+00  0.28897546471E+04  0.28897546471E+04  0.25500000920E-02 0.  1.
       -2   -1    0    0    0  501  0.00000000000E+00  0.00000000000E+00 -0.14160676653E+04  0.14160676653E+04  0.25500000920E-02 0. -1.
    10030    2    1    2    0    0  0.00000000000E+00  0.00000000000E+00  0.14736869818E+04  0.43058223124E+04  0.40457820586E+04 0.  0.
        1    1    3    3  502    0 -0.13282025932E+03  0.19607261235E+04  0.12472515272E+04  0.23276005939E+04  0.50400001928E-02 0.  1.
       -1    1    3    3    0  502  0.13282025932E+03 -0.19607261235E+04  0.22643545460E+03  0.19782217185E+04  0.50400001928E-02 0. -1.
</event>
<event>
 5   0  0.1421304E-07  0.4019071E+04  0.7818609E-02  0.8000710E-01
        1   -1    0    0  501    0  0.00000000000E+00  0.00000000000E+00  0.14135587017E+04  0.14135587017E+04  0.50400001928E-02 0. -1.
       -1   -1    0    0    0  501  0.00000000000E+00  0.00000000000E+00 -0.28567852493E+04  0.28567852493E+04  0.50400001928E-02 0.  1.
    10030    2    1    2    0    0  0.00000000000E+00  0.00000000000E+00 -0.14432265476E+04  0.42703439509E+04  0.40190713593E+04 0.  0.
        2    1    3    3  502    0 -0.97210448218E+03 -0.16226132943E+04 -0.68529150679E+00  0.18915235914E+04  0.25500000920E-02 0. -1.
       -2    1    3    3    0  502  0.97210448218E+03  0.16226132943E+04 -0.14425412561E+04  0.23788203595E+04  0.25500000920E-02 0.  1.
</event>
<event>
 5   0  0.4149487E-07  0.3917296E+04  0.7818609E-02  0.8021442E-01
        2   -1    0    0  501    0  0.00000000000E+00  0.00000000000E+00  0.16321800197E+04  0.16321800197E+04  0.25500000920E-02 0.  1.
       -2   -1    0    0    0  501  0.00000000000E+00  0.00000000000E+00 -0.23504159927E+04  0.23504159927E+04  0.25500000920E-02 0. -1.
    10030    2    1    2    0    0  0.00000000000E+00  0.00000000000E+00 -0.71823597298E+03  0.39825960124E+04  0.39172960170E+04 0.  0.
        2    1    3    3  502    0  0.74587771288E+02  0.16930387543E+04  0.63926945953E+03  0.18112451521E+04  0.25500000920E-02 0. -1.
       -2    1    3    3    0  502 -0.74587771288E+02 -0.16930387543E+04 -0.13575054325E+04  0.21713508603E+04  0.25500000920E-02 0.  1.
</event>
<event>
 5   0  0.4077370E-07  0.4072994E+04  0.7818609E-02  0.7989981E-01
        2   -1    0    0  501    0  0.00000000000E+00  0.00000000000E+00  0.29968524708E+04  0.29968524708E+04  0.25500000920E-02 0. -1.
       -2   -1    0    0    0  501  0.00000000000E+00  0.00000000000E+00 -0.13838919771E+04  0.13838919771E+04  0.25500000920E-02 0.  1.
    10030    2    1    2    0    0  0.00000000000E+00  0.00000000000E+00  0.16129604937E+04  0.43807444480E+04  0.40729940295E+04 0.  0.
        3    1    3    3  502    0 -0.50851876393E+03 -0.84560488336E+03  0.27225697447E+04  0.28958634251E+04  0.10100000352E+00 0. -1.
       -3    1    3    3    0  502  0.50851876393E+03  0.84560488336E+03 -0.11096092510E+04  0.14848810229E+04  0.10100000352E+00 0.  1.
</event>
<event>
 5   0  0.4047916E-07  0.3391517E+04  0.7818609E-02  0.8139991E-01
       -2   -1    0    0    0  501  0.00000000000E+00  0.00000000000E+00  0.15535524772E+04  0.15535524772E+04  0.25500000920E-02 0.  1.
        2   -1    0    0  501    0  0.00000000000E+00  0.00000000000E+00 -0.18509819036E+04  0.18509819036E+04  0.25500000920E-02 0. -1.
    10030    2    1    2    0    0  0.00000000000E+00  0.00000000000E+00 -0.29742942644E+03  0.34045343809E+04  0.33915173723E+04 0.  0.
        5    1    3    3  502    0 -0.23072846103E+03  0.32791479120E+03  0.15052777806E+04  0.15577698866E+04  0.46999998093E+01 0.  1.
       -5    1    3    3    0  502  0.23072846103E+03 -0.32791479120E+03 -0.18027072070E+04  0.18467644942E+04  0.46999998093E+01 0. -1.
</event>
<event>
 5   0  0.4301754E-07  0.4025214E+04  0.7818609E-02  0.7999479E-01
        2   -1    0    0  501    0  0.00000000000E+00  0.00000000000E+00  0.28038964190E+04  0.28038964190E+04  0.25500000920E-02 0.  1.
       -2   -1    0    0    0  501  0.00000000000E+00  0.00000000000E+00 -0.14446277934E+04  0.14446277934E+04  0.25500000920E-02 0. -1.
    10030    2    1    2    0    0  0.00000000000E+00  0.00000000000E+00  0.13592686255E+04  0.42485242124E+04  0.40252138809E+04 0.  0.
        1    1    3    3  502    0 -0.19875439509E+04  0.31254213978E+03  0.73317473176E+03  0.21413917748E+04  0.50400001928E-02 0. -1.
       -1    1    3    3    0  502  0.19875439509E+04 -0.31254213978E+03  0.62609389377E+03  0.21071324376E+04  0.50400001928E-02 0.  1.
</event>
<event>
 5   0  0.1372952E-07  0.3905640E+04  0.7818609E-02  0.8023857E-01
        1   -1    0    0  501    0  0.00000000000E+00  0.00000000000E+00  0.21604697143E+04  0.21604697143E+04  0.50400001928E-02 0. -1.
       -1   -1    0    0    0  501  0.00000000000E+00  0.00000000000E+00 -0.17651277600E+04  0.17651277600E+04  0.50400001928E-02 0.  1.
    10030    2    1    2    0    0  0.00000000000E+00  0.00000000000E+00  0.39534195426E+03  0.39255974743E+04  0.39056395468E+04 0.  0.
        1    1    3    3  502    0 -0.51999268177E+03  0.44186756329E+03  0.20367382763E+04  0.21480088777E+04  0.50400001928E-02 0. -1.
       -1    1    3    3    0  502  0.51999268177E+03 -0.44186756329E+03 -0.16413963221E+04  0.17775885966E+04  0.50400001928E-02 0.  1.
</event>
<event>
 5   0  0.4149487E-07  0.3969823E+04  0.7818609E-02  0.8010662E-01
        2   -1    0    0  501    0  0.00000000000E+00  0.00000000000E+00  0.13086397327E+04  0.13086397327E+04  0.25500000920E-02 0. -1.
       -2   -1    0    0    0  501  0.00000000000E+00  0.00000000000E+00 -0.30106630519E+04  0.30106630519E+04  0.25500000920E-02 0.  1.
    10030    2    1    2    0    0  0.00000000000E+00  0.00000000000E+00 -0.17020233192E+04  0.43193027846E+04  0.39698228129E+04 0.  0.
        2    1    3    3  502    0  0.48259455146E+03  0.10503532191E+04  0.90465000150E+03  0.14678320787E+04  0.25500000920E-02 0. -1.
       -2    1    3    3    0  502 -0.48259455146E+03 -0.10503532191E+04 -0.26066733207E+04  0.28514707059E+04  0.25500000920E-02 0.  1.
</event>
<event>
 5   0  0.1368865E-07  0.3983110E+04  0.7818609E-02  0.8007963E-01
       -1   -1    0    0    0  501  0.00000000000E+00  0.00000000000E+00  0.20273283691E+04  0.20273283691E+04  0.50400001928E-02 0.  1.
        1   -1    0    0  501    0  0.00000000000E+00  0.00000000000E+00 -0.19564127725E+04  0.19564127725E+04  0.50400001928E-02 0. -1.
    10030    2    1    2    0    0  0.00000000000E+00  0.00000000000E+00  0.70915596596E+02  0.39837411417E+04  0.39831098983E+04 0.  0.
        5    1    3    3  502    0 -0.30672736291E+02  0.10946565782E+04  0.16991681998E+04  0.20214867059E+04  0.46999998093E+01 0.  1.
       -5    1    3    3    0  502  0.30672736291E+02 -0.10946565782E+04 -0.16282526032E+04  0.19622544358E+04  0.46999998093E+01 0. -1.
</event>
<event>
 5   0  0.4047916E-07  0.3026748E+04  0.7818609E-02  0.8236134E-01
        2   -1    0    0  501    0  0.00000000000E+00  0.00000000000E+00  0.27106110684E+04  0.27106110684E+04  0.25500000920E-02 0. -1.
       -2   -1    0    0    0  501  0.00000000000E+00  0.00000000000E+00 -0.84493887445E+03  0.84493887445E+03  0.25500000920E-02 0.  1.
    10030    2    1    2    0    0  0.00000000000E+00  0.00000000000E+00  0.18656721939E+04  0.35555499428E+04  0.30267478687E+04 0.  0.
        5    1    3    3  502    0  0.54622498973E+03  0.88936420576E+03 -0.35450213087E+03  0.11022813981E+04  0.46999998093E+01 0.  1.
       -5    1    3    3    0  502 -0.54622498973E+03 -0.88936420576E+03  0.22201743248E+04  0.24532685447E+04  0.46999998093E+01 0. -1.
</event>
<event>
 5   0  0.1351000E-07  0.3318491E+04  0.7818609E-02  0.8158206E-01
        1   -1    0    0  501    0  0.00000000000E+00  0.00000000000E+00  0.25946302010E+04  0.25946302010E+04  0.50400001928E-02 0. -1.
       -1   -1    0    0    0  501  0.00000000000E+00  0.00000000000E+00 -0.10610741067E+04  0.10610741068E+04  0.50400001928E-02 0.  1.
    10030    2    1    2    0    0  0.00000000000E+00  0.00000000000E+00  0.15335560943E+04  0.36557043078E+04  0.33184905743E+04 0.  0.
        4    1    3    3  502    0 -0.18659426786E+03 -0.89135812866E+03  0.22947153391E+04  0.24688168897E+04  0.12699999809E+01 0. -1.
       -4    1    3    3    0  502  0.18659426786E+03  0.89135812866E+03 -0.76115924484E+03  0.11868874181E+04  0.12699999809E+01 0.  1.
</event>
<event>
 5   0  0.4079777E-07  0.4035406E+04  0.7818609E-02  0.7997442E-01
        2   -1    0    0  501    0  0.00000000000E+00  0.00000000000E+00  0.21881741921E+04  0.21881741921E+04  0.25500000920E-02 0.  1.
       -2   -1    0    0    0  501  0.00000000000E+00  0.00000000000E+00 -0.18605126589E+04  0.18605126589E+04  0.25500000920E-02 0. -1.
    10030    2    1    2    0    0  0.00000000000E+00  0.00000000000E+00  0.32766153327E+03  0.40486868510E+04  0.40354061923E+04 0.  0.
        4    1    3    3  502    0  0.42222522498E+03 -0.14689994145E+03 -0.18101989525E+04  0.18645845633E+04  0.12699999809E+01 0. -1.
       -4    1    3    3    0  502 -0.42222522498E+03  0.14689994145E+03  0.21378604858E+04  0.21841022876E+04  0.12699999809E+01 0.  1.
</event>
<event>
 5   0  0.1372952E-07  0.3989981E+04  0.7818609E-02  0.8006571E-01
       -1   -1    0    0    0  501  0.00000000000E+00  0.00000000000E+00  0.15524390688E+04  0.15524390688E+04  0.50400001928E-02 0.  1.
        1   -1    0    0  501    0  0.00000000000E+00  0.00000000000E+00 -0.25636988157E+04  0.25636988157E+04  0.50400001928E-02 0. -1.
    10030    2    1    2    0    0  0.00000000000E+00  0.00000000000E+00 -0.10112597469E+04  0.41161378845E+04  0.39899805524E+04 0.  0.
        1    1    3    3  502    0 -0.15114289487E+04 -0.48431953337E+03  0.74130777532E+03  0.17517191827E+04  0.50400001928E-02 0.  1.
       -1    1    3    3    0  502  0.15114289487E+04  0.48431953337E+03 -0.17525675222E+04  0.23644187018E+04  0.50400001928E-02 0. -1.
</event>
<event>
 5   0  0.4301754E-07  0.3762685E+04  0.7818609E-02  0.8054210E-01
        2   -1    0    0  501    0  0.00000000000E+00  0.00000000000E+00  0.18360829758E+04  0.18360829758E+04  0.25500000920E-02 0. -1.
       -2   -1    0    0    0  501  0.00000000000E+00  0.00000000000E+00 -0.19277177446E+04  0.19277177446E+04  0.25500000920E-02 0.  1.
    10030    2    1    2    0    0  0.00000000000E+00  0.00000000000E+00 -0.91634768830E+02  0.37638007205E+04  0.37626850695E+04 0.  0.
        1    1    3    3  502    0 -0.13096968576E+04  0.12045431687E+04  0.56528079440E+03  0.18670223567E+04  0.50400001928E-02 0. -1.
       -1    1    3    3    0  502  0.13096968576E+04 -0.12045431687E+04 -0.65691556323E+03  0.18967783637E+04  0.50400001928E-02 0.  1.
</event>
<event>
 5   0  0.1351000E-07  0.3928066E+04  0.7818609E-02  0.8019217E-01
        1   -1    0    0  501    0  0.00000000000E+00  0.00000000000E+00  0.14989025322E+04  0.14989025322E+04  0.50400001928E-02 0.  1.
       -1   -1    0    0    0  501  0.00000000000E+00  0.00000000000E+00 -0.25734999292E+04  0.25734999292E+04  0.50400001928E-02 0. -1.
    10030    2    1    2    0    0  0.00000000000E+00  0.00000000000E+00 -0.10745973970E+04  0.40724024614E+04  0.39280659671E+04 0.  0.
        4    1    3    3  502    0 -0.10319384721E+03  0.19604719111E+04 -0.47751829974E+03  0.20204267925E+04  0.12699999809E+01 0.  1.
       -4    1    3    3    0  502  0.10319384721E+03 -0.19604719111E+04 -0.59707909727E+03  0.20519756689E+04  0.12699999809E+01 0. -1.
</event>
<event>
 5   0  0.4077370E-07  0.4070760E+04  0.7818609E-02  0.7990422E-01
        2   -1    0    0  501    0  0.00000000000E+00  0.00000000000E+00  0.20915101271E+04  0.20915101271E+04  0.25500000920E-02 0. -1.
       -2   -1    0    0    0  501  0.00000000000E+00  0.00000000000E+00 -0.19807561819E+04  0.19807561819E+04  0.25500000920E-02 0.  1.
    10030    2    1    2    0    0  0.00000000000E+00  0.00000000000E+00  0.11075394522E+03  0.40722663089E+04  0.40707599357E+04 0.  0.
        3    1    3    3  502    0 -0.18813728754E+04 -0.30175912894E+03 -0.66053380688E+03  0.20166624379E+04  0.10100000352E+00 0. -1.
       -3    1    3    3    0  502  0.18813728754E+04  0.30175912894E+03  0.77128775210E+03  0.20556038711E+04  0.10100000352E+00 0.  1.
</event>
<event>
 5   0  0.1351000E-07  0.3973533E+04  0.7818609E-02  0.8009907E-01
       -1   -1    0    0    0  501  0.00000000000E+00  0.00000000000E+00  0.17633452269E+04  0.17633452269E+04  0.50400001928E-02 0. -1.
        1   -1    0    0  501    0  0.00000000000E+00  0.00000000000E+00 -0.22384957686E+04  0.22384957686E+04  0.50400001928E-02 0.  1.
    10030    2    1    2    0    0  0.00000000000E+00  0.00000000000E+00 -0.47515054171E+03  0.40018409956E+04  0.39735328508E+04 0.  0.
        3    1    3    3  502    0 -0.12513394622E+04  0.84631299541E+03 -0.15371731936E+04  0.21552256433E+04  0.10100000352E+00 0.  1.
       -3    1    3    3    0  502  0.12513394622E+04 -0.84631299541E+03  0.10620226519E+04  0.18466153523E+04  0.10100000352E+00 0. -1.
</event>
<event>
 5   0  0.4301754E-07  0.4004376E+04  0.7818609E-02  0.8003664E-01
        2   -1    0    0  501    0  0.00000000000E+00  0.00000000000E+00  0.20770594875E+04  0.20770594875E+04  0.25500000920E-02 0. -1.
       -2   -1    0    0    0  501  0.00000000000E+00  0.00000000000E+00 -0.19300151098E+04  0.19300151098E+04  0.25500000920E-02 0.  1.
    10030    2    1    2    0    0  0.00000000000E+00  0.00000000000E+00  0.14704437764E+03  0.40070745973E+04  0.40043757041E+04 0.  0.
        1    1    3    3  502    0 -0.47957812969E+03  0.82329892712E+03 -0.16886132423E+04  0.19388736390E+04  0.50400001928E-02 0.  1.
       -1    1    3    3    0  502  0.47957812969E+03 -0.82329892712E+03  0.18356576200E+04  0.20682009583E+04  0.50400001928E-02 0. -1.
</event>
<event>
 5   0  0.1351000E-07  0.4011875E+04  0.7818609E-02  0.8002155E-01
        1   -1    0    0  501    0  0.00000000000E+00  0.00000000000E+00  0.20299027257E+04  0.20299027257E+04  0.50400001928E-02 0. -1.
       -1   -1    0    0    0  501  0.00000000000E+00  0.00000000000E+00 -0.19822550596E+04  0.19822550596E+04  0.50400001928E-02 0.  1.
    10030    2    1    2    0    0  0.00000000000E+00  0.00000000000E+00  0.47647666088E+02  0.40121577854E+04  0.40118748478E+04 0.  0.
        4    1    3    3  502    0  0.21248506203E+03 -0.17957635297E+04 -0.84449242049E+03  0.19957669246E+04  0.12699999809E+01 0.  1.
       -4    1    3    3    0  502 -0.21248506203E+03  0.17957635297E+04  0.89214008658E+03  0.20163908607E+04  0.12699999809E+01 0. -1.
</event>
<event>
 5   0  0.4077370E-07  0.2462035E+04  0.7818609E-02  0.8416637E-01
       -2   -1    0    0    0  501  0.00000000000E+00  0.00000000000E+00  0.10317004831E+04  0.10317004832E+04  0.25500000920E-02 0.  1.
        2   -1    0    0  501    0  0.00000000000E+00  0.00000000000E+00 -0.14688405391E+04  0.14688405391E+04  0.25500000920E-02 0. -1.
    10030    2    1    2    0    0  0.00000000000E+00  0.00000000000E+00 -0.43714005598E+03  0.25005410223E+04  0.24620345196E+04 0.  0.
        3    1    3    3  502    0  0.93857959833E+02  0.73165188165E+03  0.78237908703E+03  0.10752863984E+04  0.10100000352E+00 0.  1.
       -3    1    3    3    0  502 -0.93857959833E+02 -0.73165188165E+03 -0.12195191430E+04  0.14252546239E+04  0.10100000352E+00 0. -1.
</event>
<event>
 5   0  0.1351000E-07  0.3945042E+04  0.7818609E-02  0.8015726E-01
        1   -1    0    0  501    0  0.00000000000E+00  0.00000000000E+00  0.25545377078E+04  0.25545377078E+04  0.50400001928E-02 0.  1.
       -1   -1    0    0    0  501  0.00000000000E+00  0.00000000000E+00 -0.15231086693E+04  0.15231086693E+04  0.50400001928E-02 0. -1.
    10030    2    1    2    0    0  0.00000000000E+00  0.00000000000E+00  0.10314290385E+04  0.40776463772E+04  0.39450417128E+04 0.  0.
        4    1    3    3  502    0 -0.11310818345E+04  0.73287715966E+03  0.20043978120E+04  0.24153813879E+04  0.12699999809E+01 0.  1.
       -4    1    3    3    0  502  0.11310818345E+04 -0.73287715966E+03 -0.97296877352E+03  0.16622649893E+04  0.12699999809E+01 0. -1.
</event>
<event>
 5   0  0.1351000E-07  0.3596954E+04  0.7818609E-02  0.8091190E-01
       -3   -1    0    0    0  501  0.00000000000E+00  0.00000000000E+00  0.19955197327E+04  0.19955197353E+04  0.10100000352E+00 0. -1.
        3   -1    0    0  501    0  0.00000000000E+00  0.00000000000E+00 -0.16208910704E+04  0.16208910735E+04  0.10100000352E+00 0.  1.
    10030    2    1    2    0    0  0.00000000000E+00  0.00000000000E+00  0.37462866237E+03  0.36164108088E+04  0.35969543371E+04 0.  0.
        1    1    3    3  502    0 -0.77960549933E+03  0.15612419600E+04 -0.25007786294E+03  0.17628953826E+04  0.50400001928E-02 0. -1.
       -1    1    3    3    0  502  0.77960549933E+03 -0.15612419600E+04  0.62470652531E+03  0.18535154262E+04  0.50400001928E-02 0.  1.
</event>
<event>
 5   0  0.1351000E-07  0.3806016E+04  0.7818609E-02  0.8044865E-01
        1   -1    0    0  501    0  0.00000000000E+00  0.00000000000E+00  0.19978665743E+04  0.19978665743E+04  0.50400001928E-02 0. -1.
       -1   -1    0    0    0  501  0.00000000000E+00  0.00000000000E+00 -0.18126534992E+04  0.18126534992E+04  0.50400001928E-02 0.  1.
    10030    2    1    2    0    0  0.00000000000E+00  0.00000000000E+00  0.18521307503E+03  0.38105200735E+04  0.38060162043E+04 0.  0.
        4    1    3    3  502    0 -0.11704679758E+04  0.37739268354E+03  0.15465708052E+04  0.19759310181E+04  0.12699999809E+01 0. -1.
       -4    1    3    3    0  502  0.11704679758E+04 -0.37739268354E+03 -0.13613577301E+04  0.18345890554E+04  0.12699999809E+01 0.  1.
</event>
<event>
 5   0  0.1368865E-07  0.4264505E+04  0.7818609E-02  0.7953214E-01
        1   -1    0    0  501    0  0.00000000000E+00  0.00000000000E+00  0.31898562124E+04  0.31898562124E+04  0.50400001928E-02 0.  1.
       -1   -1    0    0    0  501  0.00000000000E+00  0.00000000000E+00 -0.14252995856E+04  0.14252995856E+04  0.50400001928E-02 0. -1.
    10030    2    1    2    0    0  0.00000000000E+00  0.00000000000E+00  0.17645566268E+04  0.46151557980E+04  0.42645050065E+04 0.  0.
        5    1    3    3  502    0  0.16119147372E+04  0.11791185793E+04  0.73942911557E+02  0.19985192990E+04  0.46999998093E+01 0.  1.
       -5    1    3    3    0  502 -0.16119147372E+04 -0.11791185793E+04  0.16906137152E+04  0.26166364991E+04  0.46999998093E+01 0. -1.
</event>
<event>
 5   0  0.4149487E-07  0.3876023E+04  0.7818609E-02  0.8030034E-01
       -2   -1    0    0    0  501  0.00000000000E+00  0.00000000000E+00  0.25519384879E+04  0.25519384879E+04  0.25500000920E-02 0.  1.
        2   -1    0    0  501    0  0.00000000000E+00  0.00000000000E+00 -0.14717789533E+04  0.14717789533E+04  0.25500000920E-02 0. -1.
    10030    2    1    2    0    0  0.00000000000E+00  0.00000000000E+00  0.10801595347E+04  0.40237174412E+04  0.38760234037E+04 0.  0.
        2    1    3    3  502    0 -0.48930461912E+03 -0.17149514392E+04 -0.24738386766E+03  0.18004655584E+04  0.25500000920E-02 0. -1.
       -2    1    3    3    0  502  0.48930461912E+03  0.17149514392E+04  0.13275434023E+04  0.22232518828E+04  0.25500000920E-02 0.  1.
</event>
<event>
 5   0  0.4079777E-07  0.3340245E+04  0.7818609E-02  0.8152730E-01
       -2   -1    0    0    0  501  0.00000000000E+00  0.00000000000E+00  0.12575971519E+04  0.12575971519E+04  0.25500000920E-02 0. -1.
        2   -1    0    0  501    0  0.00000000000E+00  0.00000000000E+00 -0.22179672556E+04  0.22179672556E+04  0.25500000920E-02 0.  1.
    10030    2    1    2    0    0  0.00000000000E+00  0.00000000000E+00 -0.96037010376E+03  0.34755644075E+04  0.33402450830E+04 0.  0.
        4    1    3    3  502    0  0.14537353431E+04 -0.79295666875E+03 -0.25417361578E+03  0.16753305841E+04  0.12699999809E+01 0.  1.
       -4    1    3    3    0  502 -0.14537353431E+04  0.79295666875E+03 -0.70619648798E+03  0.18002338234E+04  0.12699999809E+01 0. -1.
</event>
<event>
 5   0  0.4077370E-07  0.3933523E+04  0.7818609E-02  0.8018093E-01
        2   -1    0    0  501    0  0.00000000000E+00  0.00000000000E+00  0.21753893697E+04  0.21753893697E+04  0.25500000920E-02 0. -1.
       -2   -1    0    0    0  501  0.00000000000E+00  0.00000000000E+00 -0.17781416146E+04  0.17781416146E+04  0.25500000920E-02 0.  1.
    10030    2    1    2    0    0  0.00000000000E+00  0.00000000000E+00  0.39724775514E+03  0.39535309843E+04  0.39335227805E+04 0.  0.
        3    1    3    3  502    0 -0.11125013113E+03 -0.19634525202E+04  0.17343717948E+03  0.19742347521E+04  0.10100000352E+00 0.  1.
       -3    1    3    3    0  502  0.11125013113E+03  0.19634525202E+04  0.22381057566E+03  0.19792962322E+04  0.10100000352E+00 0. -1.
</event>
<event>
 5   0  0.4047916E-07  0.3635343E+04  0.7818609E-02  0.8082444E-01
       -2   -1    0    0    0  501  0.00000000000E+00  0.00000000000E+00  0.13542709784E+04  0.13542709784E+04  0.25500000920E-02 0. -1.
        2   -1    0    0  501    0  0.00000000000E+00  0.00000000000E+00 -0.24396368375E+04  0.24396368375E+04  0.25500000920E-02 0.  1.
    10030    2    1    2    0    0  0.00000000000E+00  0.00000000000E+00 -0.10853658591E+04  0.37939078158E+04  0.36353428266E+04 0.  0.
        5    1    3    3  502    0 -0.16638632576E+04  0.30350415821E+03 -0.12375720677E+04  0.20957486554E+04  0.46999998093E+01 0.  1.
       -5    1    3    3    0  502  0.16638632576E+04 -0.30350415821E+03  0.15220620860E+03  0.16981591604E+04  0.46999998093E+01 0. -1.
</event>
<event>
 5   0  0.1351000E-07  0.3909053E+04  0.7818609E-02  0.8023149E-01
        1   -1    0    0  501    0  0.00000000000E+00  0.00000000000E+00  0.11748023064E+04  0.11748023064E+04  0.50400001928E-02 0.  1.
       -1   -1    0    0    0  501  0.00000000000E+00  0.00000000000E+00 -0.32517592514E+04  0.32517592514E+04  0.50400001928E-02 0. -1.
    10030    2    1    2    0    0  0.00000000000E+00  0.00000000000E+00 -0.20769569450E+04  0.44265615578E+04  0.39090532195E+04 0.  0.
        4    1    3    3  502    0  0.18633622652E+04  0.43548207554E+03 -0.58778115955E+03  0.20018121475E+04  0.12699999809E+01 0.  1.
       -4    1    3    3    0  502 -0.18633622652E+04 -0.43548207554E+03 -0.14891757855E+04  0.24247494102E+04  0.12699999809E+01 0. -1.
</event>
<event>
 5   0  0.1372952E-07  0.4027265E+04  0.7818609E-02  0.7999069E-01
       -1   -1    0    0    0  501  0.00000000000E+00  0.00000000000E+00  0.13855809740E+04  0.13855809740E+04  0.50400001928E-02 0. -1.
        1   -1    0    0  501    0  0.00000000000E+00  0.00000000000E+00 -0.29263654243E+04  0.29263654243E+04  0.50400001928E-02 0.  1.
    10030    2    1    2    0    0  0.00000000000E+00  0.00000000000E+00 -0.15407844503E+04  0.43119463983E+04  0.40272652035E+04 0.  0.
        1    1    3    3  502    0 -0.19218137134E+03 -0.12565060988E+04 -0.24425097481E+04  0.27534696522E+04  0.50400001928E-02 0.  1.
       -1    1    3    3    0  502  0.19218137134E+03  0.12565060988E+04  0.90172529776E+03  0.15584767462E+04  0.50400001928E-02 0. -1.
</event>
<event>
 5   0  0.4077370E-07  0.2524319E+04  0.7818609E-02  0.8394373E-01
        2   -1    0    0  501    0  0.00000000000E+00  0.00000000000E+00  0.20538001176E+04  0.20538001176E+04  0.25500000920E-02 0.  1.
       -2   -1    0    0    0  501  0.00000000000E+00  0.00000000000E+00 -0.77565798160E+03  0.77565798161E+03  0.25500000920E-02 0. -1.
    10030    2    1    2    0    0  0.00000000000E+00  0.00000000000E+00  0.12781421360E+04  0.28294580993E+04  0.25243188815E+04 0.  0.
        3    1    3    3  502    0  0.99837751298E+02 -0.63310144385E+03  0.18578243879E+04  0.19652726226E+04  0.10100000352E+00 0.  1.
       -3    1    3    3    0  502 -0.99837751298E+02  0.63310144385E+03 -0.57968225182E+03  0.86418547666E+03  0.10100000352E+00 0. -1.
</event>
<event>
 5   0  0.5676793E-07  0.2538380E+04  0.7818609E-02  0.8389439E-01
        2   -1    0    0  501    0  0.00000000000E+00  0.00000000000E+00  0.20749489919E+04  0.20749489919E+04  0.25500000920E-02 0. -1.
       -2   -1    0    0    0  501  0.00000000000E+00  0.00000000000E+00 -0.77632925846E+03  0.77632925846E+03  0.25500000920E-02 0.  1.
    10030    2    1    2    0    0  0.00000000000E+00  0.00000000000E+00  0.12986197334E+04  0.28512782503E+04  0.25383802806E+04 0.  0.
        1    1    3    3  502    0  0.15665621422E+03  0.66286617969E+03  0.18522603488E+04  0.19735250546E+04  0.50400001928E-02 0. -1.
       -1    1    3    3    0  502 -0.15665621422E+03 -0.66286617969E+03 -0.55364061533E+03  0.87775319572E+03  0.50400001928E-02 0.  1.
</event>
<event>
 5   0  0.4077370E-07  0.3964187E+04  0.7818609E-02  0.8011810E-01
       -2   -1    0    0    0  501  0.00000000000E+00  0.00000000000E+00  0.15184178809E+04  0.15184178809E+04  0.25500000920E-02 0.  1.
        2   -1    0    0  501    0  0.00000000000E+00  0.00000000000E+00 -0.25873601179E+04  0.25873601179E+04  0.25500000920E-02 0. -1.
    10030    2    1    2    0    0  0.00000000000E+00  0.00000000000E+00 -0.10689422370E+04  0.41057779989E+04  0.39641866089E+04 0.  0.
        3    1    3    3  502    0  0.50445995804E+03 -0.16337575484E+04 -0.15728007974E+04  0.23232188736E+04  0.10100000352E+00 0.  1.
       -3    1    3    3    0  502 -0.50445995804E+03  0.16337575484E+04  0.50385856035E+03  0.17825591253E+04  0.10100000352E+00 0. -1.
</event>
<event>
 5   0  0.1351000E-07  0.3982788E+04  0.7818609E-02  0.8008028E-01
       -1   -1    0    0    0  501  0.00000000000E+00  0.00000000000E+00  0.19494689097E+04  0.19494689097E+04  0.50400001928E-02 0.  1.
        1   -1    0    0  501    0  0.00000000000E+00  0.00000000000E+00 -0.20342211171E+04  0.20342211171E+04  0.50400001928E-02 0. -1.
    10030    2    1    2    0    0  0.00000000000E+00  0.00000000000E+00 -0.84752207411E+02  0.39836900268E+04  0.39827883816E+04 0.  0.
        3    1    3    3  502    0  0.14438555406E+04 -0.75410457479E+03 -0.11881738610E+04  0.20162216312E+04  0.10100000352E+00 0. -1.
       -3    1    3    3    0  502 -0.14438555406E+04  0.75410457479E+03  0.11034216535E+04  0.19674683956E+04  0.10100000352E+00 0.  1.
</event>
<event>
 5   0  0.4149487E-07  0.3444297E+04  0.7818609E-02  0.8127119E-01
       -2   -1    0    0    0  501  0.00000000000E+00  0.00000000000E+00  0.11765124901E+04  0.11765124901E+04  0.25500000920E-02 0.  1.
        2   -1    0    0  501    0  0.00000000000E+00  0.00000000000E+00 -0.25208356391E+04  0.25208356391E+04  0.25500000920E-02 0. -1.
    10030    2    1    2    0    0  0.00000000000E+00  0.00000000000E+00 -0.13443231491E+04  0.36973481292E+04  0.34442965115E+04 0.  0.
        2    1    3    3  502    0  0.13311510723E+04 -0.59319144317E+03 -0.16571572926E+04  0.22068098147E+04  0.25500000920E-02 0. -1.
       -2    1    3    3    0  502 -0.13311510723E+04  0.59319144317E+03  0.31283414358E+03  0.14905383145E+04  0.25500000920E-02 0.  1.
</event>
<event>
 5   0  0.1372952E-07  0.3884312E+04  0.7818609E-02  0.8028300E-01
        1   -1    0    0  501    0  0.00000000000E+00  0.00000000000E+00  0.12116198169E+04  0.12116198169E+04  0.50400001928E-02 0. -1.
       -1   -1    0    0    0  501  0.00000000000E+00  0.00000000000E+00 -0.31131625176E+04  0.31131625176E+04  0.50400001928E-02 0.  1.
    10030    2    1    2    0    0  0.00000000000E+00  0.00000000000E+00 -0.19015427007E+04  0.43247823345E+04  0.38843117277E+04 0.  0.
        1    1    3    3  502    0  0.16176504983E+04 -0.10685308674E+04 -0.10797431863E+04  0.22190981722E+04  0.50400001928E-02 0. -1.
       -1    1    3    3    0  502 -0.16176504983E+04  0.10685308674E+04 -0.82179951440E+03  0.21056841623E+04  0.50400001928E-02 0.  1.
</event>
<event>
 5   0  0.4077370E-07  0.4037280E+04  0.7818609E-02  0.7997068E-01
       -2   -1    0    0    0  501  0.00000000000E+00  0.00000000000E+00  0.16347051767E+04  0.16347051767E+04  0.25500000920E-02 0. -1.
        2   -1    0    0  501    0  0.00000000000E+00  0.00000000000E+00 -0.24927474310E+04  0.24927474310E+04  0.25500000920E-02 0.  1.
    10030    2    1    2    0    0  0.00000000000E+00  0.00000000000E+00 -0.85804225430E+03  0.41274526076E+04  0.40372798414E+04 0.  0.
        3    1    3    3  502    0 -0.64700457348E+03 -0.65723419085E+03  0.14067280788E+04  0.16820985695E+04  0.10100000352E+00 0. -1.
       -3    1    3    3    0  502  0.64700457348E+03  0.65723419085E+03 -0.22647703331E+04  0.24453540381E+04  0.10100000352E+00 0.  1.
</event>
<event>
 5   0  0.4149487E-07  0.3985947E+04  0.7818609E-02  0.8007388E-01
       -2   -1    0    0    0  501  0.00000000000E+00  0.00000000000E+00  0.27502504896E+04  0.27502504896E+04  0.25500000920E-02 0.  1.
        2   -1    0    0  501    0  0.00000000000E+00  0.00000000000E+00 -0.14442111658E+04  0.14442111658E+04  0.25500000920E-02 0. -1.
    10030    2    1    2    0    0  0.00000000000E+00  0.00000000000E+00  0.13060393237E+04  0.41944616554E+04  0.39859465455E+04 0.  0.
        2    1    3    3  502    0 -0.85839786360E+02 -0.96886869484E+02  0.27458222581E+04  0.27488716608E+04  0.25500000920E-02 0.  1.
       -2    1    3    3    0  502  0.85839786360E+02  0.96886869484E+02 -0.14397829344E+04  0.14455899946E+04  0.25500000920E-02 0. -1.
</event>
<event>
 5   0  0.1372952E-07  0.3919082E+04  0.7818609E-02  0.8021072E-01
        1   -1    0    0  501    0  0.00000000000E+00  0.00000000000E+00  0.21578445977E+04  0.21578445977E+04  0.50400001928E-02 0.  1.
       -1   -1    0    0    0  501  0.00000000000E+00  0.00000000000E+00 -0.17794614375E+04  0.17794614375E+04  0.50400001928E-02 0. -1.
    10030    2    1    2    0    0  0.00000000000E+00  0.00000000000E+00  0.37838316024E+03  0.39373060352E+04  0.39190821628E+04 0.  0.
        1    1    3    3  502    0 -0.11326698708E+04 -0.15499308332E+04  0.58417958422E+03  0.20066121724E+04  0.50400001928E-02 0.  1.
       -1    1    3    3    0  502  0.11326698708E+04  0.15499308332E+04 -0.20579642398E+03  0.19306938628E+04  0.50400001928E-02 0. -1.
</event>
<event>
 5   0  0.4047916E-07  0.3680173E+04  0.7818609E-02  0.8072370E-01
        2   -1    0    0  501    0  0.00000000000E+00  0.00000000000E+00  0.14399146688E+04  0.14399146688E+04  0.25500000920E-02 0. -1.
       -2   -1    0    0    0  501  0.00000000000E+00  0.00000000000E+00 -0.23514712898E+04  0.23514712898E+04  0.25500000920E-02 0.  1.
    10030    2    1    2    0    0  0.00000000000E+00  0.00000000000E+00 -0.91155662098E+03  0.37913859585E+04  0.36801728238E+04 0.  0.
        5    1    3    3  502    0  0.16999292132E+04  0.63036498978E+03 -0.77956332033E+03  0.19735400707E+04  0.46999998093E+01 0.  1.
       -5    1    3    3    0  502 -0.16999292132E+04 -0.63036498978E+03 -0.13199330065E+03  0.18178458878E+04  0.46999998093E+01 0. -1.
</event>
<event>
 5   0  0.4149487E-07  0.3926379E+04  0.7818609E-02  0.8019565E-01
        2   -1    0    0  501    0  0.00000000000E+00  0.00000000000E+00  0.22920915157E+04  0.22920915157E+04  0.25500000920E-02 0. -1.
       -2   -1    0    0    0  501  0.00000000000E+00  0.00000000000E+00 -0.16814829905E+04  0.16814829905E+04  0.25500000920E-02 0.  1.
    10030    2    1    2    0    0  0.00000000000E+00  0.00000000000E+00  0.61060852529E+03  0.39735745062E+04  0.39263789406E+04 0.  0.
        2    1    3    3  502    0 -0.19444029889E+04  0.20424147268E+03  0.48547606201E+03  0.20144737697E+04  0.25500000920E-02 0. -1.
       -2    1    3    3    0  502  0.19444029889E+04 -0.20424147268E+03  0.12513246328E+03  0.19591007365E+04  0.25500000920E-02 0.  1.
</event>
<event>
 5   0  0.4047916E-07  0.3496179E+04  0.7818609E-02  0.8114696E-01
        2   -1    0    0  501    0  0.00000000000E+00  0.00000000000E+00  0.23839768154E+04  0.23839768154E+04  0.25500000920E-02 0.  1.
       -2   -1    0    0    0  501  0.00000000000E+00  0.00000000000E+00 -0.12818151194E+04  0.12818151194E+04  0.25500000920E-02 0. -1.
    10030    2    1    2    0    0  0.00000000000E+00  0.00000000000E+00  0.11021616960E+04  0.36657919347E+04  0.34961793582E+04 0.  0.
        5    1    3    3  502    0  0.37319335125E+03 -0.14129812474E+04 -0.45462152079E+03  0.15305202057E+04  0.46999998093E+01 0. -1.
       -5    1    3    3    0  502 -0.37319335125E+03  0.14129812474E+04  0.15567832168E+04  0.21352717291E+04  0.46999998093E+01 0.  1.
</event>
<event>
 5   0  0.1372952E-07  0.4129724E+04  0.7818609E-02  0.7978876E-01
        1   -1    0    0  501    0  0.00000000000E+00  0.00000000000E+00  0.19673239648E+04  0.19673239648E+04  0.50400001928E-02 0. -1.
       -1   -1    0    0    0  501  0.00000000000E+00  0.00000000000E+00 -0.21672361183E+04  0.21672361183E+04  0.50400001928E-02 0.  1.
    10030    2    1    2    0    0  0.00000000000E+00  0.00000000000E+00 -0.19991215350E+03  0.41345600832E+04  0.41297242296E+04 0.  0.
        1    1    3    3  502    0 -0.20251078273E+04 -0.37663099425E+03  0.44236651071E+02  0.20603081079E+04  0.50400001928E-02 0.  1.
       -1    1    3    3    0  502  0.20251078273E+04  0.37663099425E+03 -0.24414880457E+03  0.20742519753E+04  0.50400001928E-02 0. -1.
</event>
<event>
 5   0  0.4079777E-07  0.3980283E+04  0.7818609E-02  0.8008536E-01
        2   -1    0    0  501    0  0.00000000000E+00  0.00000000000E+00  0.28805959046E+04  0.28805959046E+04  0.25500000920E-02 0.  1.
       -2   -1    0    0    0  501  0.00000000000E+00  0.00000000000E+00 -0.13749459932E+04  0.13749459932E+04  0.25500000920E-02 0. -1.
    10030    2    1    2    0    0  0.00000000000E+00  0.00000000000E+00  0.15056499114E+04  0.42555418977E+04  0.39802833050E+04 0.  0.
        4    1    3    3  502    0  0.16603972137E+04  0.66560905509E+03 -0.17967718666E+03  0.17978431038E+04  0.12699999809E+01 0. -1.
       -4    1    3    3    0  502 -0.16603972137E+04 -0.66560905509E+03  0.16853270981E+04  0.24576987940E+04  0.12699999809E+01 0.  1.
</event>
<event>
 5   0  0.4077370E-07  0.3848697E+04  0.7818609E-02  0.8035785E-01
       -2   -1    0    0    0  501  0.00000000000E+00  0.00000000000E+00  0.17029435464E+04  0.17029435464E+04  0.25500000920E-02 0. -1.
        2   -1    0    0  501    0  0.00000000000E+00  0.00000000000E+00 -0.21745391755E+04  0.21745391755E+04  0.25500000920E-02 0.  1.
    10030    2    1    2    0    0  0.00000000000E+00  0.00000000000E+00 -0.47159562914E+03  0.38774827219E+04  0.38486971590E+04 0.  0.
        3    1    3    3  502    0  0.65521822384E+03  0.83832323593E+03  0.13796350600E+04  0.17422656737E+04  0.10100000352E+00 0. -1.
       -3    1    3    3    0  502 -0.65521822384E+03 -0.83832323593E+03 -0.18512306891E+04  0.21352170483E+04  0.10100000352E+00 0.  1.
</event>
<event>
 5   0  0.4047916E-07  0.3923717E+04  0.7818609E-02  0.8020114E-01
       -2   -1    0    0    0  501  0.00000000000E+00  0.00000000000E+00  0.20667339096E+04  0.20667339096E+04  0.25500000920E-02 0. -1.
        2   -1    0    0  501    0  0.00000000000E+00  0.00000000000E+00 -0.18623053866E+04  0.18623053866E+04  0.25500000920E-02 0.  1.
    10030    2    1    2    0    0  0.00000000000E+00  0.00000000000E+00  0.20442852303E+03  0.39290392962E+04  0.39237174682E+04 0.  0.
        5    1    3    3  502    0  0.17818084449E+02 -0.15904171849E+04  0.12523029701E+04  0.20243589417E+04  0.46999998093E+01 0. -1.
       -5    1    3    3    0  502 -0.17818084449E+02  0.15904171849E+04 -0.10478744471E+04  0.19046803545E+04  0.46999998093E+01 0.  1.
</event>
<event>
 5   0  0.4077370E-07  0.4034626E+04  0.7818609E-02  0.7997598E-01
       -2   -1    0    0    0  501  0.00000000000E+00  0.00000000000E+00  0.21376723791E+04  0.21376723791E+04  0.25500000920E-02 0. -1.
        2   -1    0    0  501    0  0.00000000000E+00  0.00000000000E+00 -0.19037298702E+04  0.19037298702E+04  0.25500000920E-02 0.  1.
    10030    2    1    2    0    0  0.00000000000E+00  0.00000000000E+00  0.23394250896E+03  0.40414022493E+04  0.40346255146E+04 0.  0.
        3    1    3    3  502    0  0.58452089138E+03 -0.10666057063E+03 -0.18140919015E+04  0.19089186957E+04  0.10100000352E+00 0.  1.
       -3    1    3    3    0  502 -0.58452089138E+03  0.10666057063E+03  0.20480344104E+04  0.21324835536E+04  0.10100000352E+00 0. -1.
</event>
<event>
 5   0  0.1351000E-07  0.3982709E+04  0.7818609E-02  0.8008044E-01
        1   -1    0    0  501    0  0.00000000000E+00  0.00000000000E+00  0.22453905089E+04  0.22453905089E+04  0.50400001928E-02 0.  1.
       -1   -1    0    0    0  501  0.00000000000E+00  0.00000000000E+00 -0.17660591183E+04  0.17660591183E+04  0.50400001928E-02 0. -1.
    10030    2    1    2    0    0  0.00000000000E+00  0.00000000000E+00  0.47933139055E+03  0.40114496272E+04  0.39827088181E+04 0.  0.
        3    1    3    3  502    0 -0.16044629096E+04 -0.57305003348E+03  0.12780295012E+04  0.21297997524E+04  0.10100000352E+00 0.  1.
       -3    1    3    3    0  502  0.16044629096E+04  0.57305003348E+03 -0.79869811062E+03  0.18816498748E+04  0.10100000352E+00 0. -1.
</event>
<event>
 5   0  0.1351000E-07  0.3805408E+04  0.7818609E-02  0.8044995E-01
       -1   -1    0    0    0  501  0.00000000000E+00  0.00000000000E+00  0.18351785671E+04  0.18351785672E+04  0.50400001928E-02 0. -1.
        1   -1    0    0  501    0  0.00000000000E+00  0.00000000000E+00 -0.19727144606E+04  0.19727144606E+04  0.50400001928E-02 0.  1.
    10030    2    1    2    0    0  0.00000000000E+00  0.00000000000E+00 -0.13753589348E+03  0.38078930278E+04  0.38054084129E+04 0.  0.
        3    1    3    3  502    0 -0.12000253988E+03 -0.48055815573E+03 -0.19070701780E+04  0.19703434788E+04  0.10100000352E+00 0.  1.
       -3    1    3    3    0  502  0.12000253988E+03  0.48055815573E+03  0.17695342845E+04  0.18375495490E+04  0.10100000352E+00 0. -1.
</event>
<event>
 5   0  0.4079777E-07  0.3604229E+04  0.7818609E-02  0.8089524E-01
       -2   -1    0    0    0  501  0.00000000000E+00  0.00000000000E+00  0.14791615163E+04  0.14791615163E+04  0.25500000920E-02 0. -1.
        2   -1    0    0  501    0  0.00000000000E+00  0.00000000000E+00 -0.21955798399E+04  0.21955798399E+04  0.25500000920E-02 0.  1.
    10030    2    1    2    0    0  0.00000000000E+00  0.00000000000E+00 -0.71641832356E+03  0.36747413562E+04  0.36042292963E+04 0.  0.
        4    1    3    3  502    0 -0.20685285749E+02 -0.14953185108E+04  0.66705339932E+03  0.16374880703E+04  0.12699999809E+01 0. -1.
       -4    1    3    3    0  502  0.20685285749E+02  0.14953185108E+04 -0.13834717229E+04  0.20372532859E+04  0.12699999809E+01 0.  1.
</event>
<event>
 5   0  0.1368865E-07  0.2768834E+04  0.7818609E-02  0.8313010E-01
       -1   -1    0    0    0  501  0.00000000000E+00  0.00000000000E+00  0.14223130057E+04  0.14223130057E+04  0.50400001928E-02 0.  1.
        1   -1    0    0  501    0  0.00000000000E+00  0.00000000000E+00 -0.13475306501E+04  0.13475306501E+04  0.50400001928E-02 0. -1.
    10030    2    1    2    0    0  0.00000000000E+00  0.00000000000E+00  0.74782355684E+02  0.27698436558E+04  0.27688339562E+04 0.  0.
        5    1    3    3  502    0  0.25980878438E+03  0.10322938357E+04  0.92284508187E+03  0.14088279891E+04  0.46999998093E+01 0.  1.
       -5    1    3    3    0  502 -0.25980878438E+03 -0.10322938357E+04 -0.84806272619E+03  0.13610156668E+04  0.46999998093E+01 0. -1.
</event>
<event>
 5   0  0.1351000E-07  0.3610268E+04  0.7818609E-02  0.8088144E-01
        1   -1    0    0  501    0  0.00000000000E+00  0.00000000000E+00  0.17972062583E+04  0.17972062583E+04  0.50400001928E-02 0.  1.
       -1   -1    0    0    0  501  0.00000000000E+00  0.00000000000E+00 -0.18130970778E+04  0.18130970778E+04  0.50400001928E-02 0. -1.
    10030    2    1    2    0    0  0.00000000000E+00  0.00000000000E+00 -0.15890819483E+02  0.36103033361E+04  0.36102683640E+04 0.  0.
        3    1    3    3  502    0 -0.17655299148E+04  0.31986921947E+03  0.18978664325E+03  0.18042813466E+04  0.10100000352E+00 0.  1.
       -3    1    3    3    0  502  0.17655299148E+04 -0.31986921947E+03 -0.20567746273E+03  0.18060219895E+04  0.10100000352E+00 0. -1.
</event>
<event>
 5   0  0.1351000E-07  0.4025269E+04  0.7818609E-02  0.7999468E-01
        3   -1    0    0  501    0  0.00000000000E+00  0.00000000000E+00  0.22036778397E+04  0.22036778420E+04  0.10100000352E+00 0.  1.
       -3   -1    0    0    0  501  0.00000000000E+00  0.00000000000E+00 -0.18381532444E+04  0.18381532471E+04  0.10100000352E+00 0. -1.
    10030    2    1    2    0    0  0.00000000000E+00  0.00000000000E+00  0.36552459533E+03  0.40418310891E+04  0.40252689753E+04 0.  0.
        3    1    3    3  502    0  0.36698397109E+03  0.19103586370E+04 -0.33564698769E+03  0.19740329955E+04  0.10100000352E+00 0.  1.
       -3    1    3    3    0  502 -0.36698397109E+03 -0.19103586370E+04  0.70117158302E+03  0.20677980936E+04  0.10100000352E+00 0. -1.
</event>
<event>
 5   0  0.1351000E-07  0.4072058E+04  0.7818609E-02  0.7990166E-01
        1   -1    0    0  501    0  0.00000000000E+00  0.00000000000E+00  0.20263898123E+04  0.20263898123E+04  0.50400001928E-02 0.  1.
       -1   -1    0    0    0  501  0.00000000000E+00  0.00000000000E+00 -0.20457140968E+04  0.20457140968E+04  0.50400001928E-02 0. -1.
    10030    2    1    2    0    0  0.00000000000E+00  0.00000000000E+00 -0.19324284520E+02  0.40721039091E+04  0.40720580568E+04 0.  0.
        3    1    3    3  502    0 -0.19134954010E+04  0.54256174616E+03  0.42574636208E+03  0.20339857111E+04  0.10100000352E+00 0.  1.
       -3    1    3    3    0  502  0.19134954010E+04 -0.54256174616E+03 -0.44507064660E+03  0.20381181979E+04  0.10100000352E+00 0. -1.
</event>
<event>
 5   0  0.4301754E-07  0.3905519E+04  0.7818609E-02  0.8023882E-01
       -2   -1    0    0    0  501  0.00000000000E+00  0.00000000000E+00  0.18405356865E+04  0.18405356865E+04  0.25500000920E-02 0. -1.
        2   -1    0    0  501    0  0.00000000000E+00  0.00000000000E+00 -0.20718259611E+04  0.20718259611E+04  0.25500000920E-02 0.  1.
    10030    2    1    2    0    0  0.00000000000E+00  0.00000000000E+00 -0.23129027460E+03  0.39123616476E+04  0.39055189759E+04 0.  0.
        1    1    3    3  502    0 -0.85370391444E+02 -0.16510509923E+04  0.92541198150E+03  0.18946358010E+04  0.50400001928E-02 0. -1.
       -1    1    3    3    0  502  0.85370391444E+02  0.16510509923E+04 -0.11567022561E+04  0.20177258466E+04  0.50400001928E-02 0.  1.
</event>
<event>
 5   0  0.1421304E-07  0.2598476E+04  0.7818609E-02  0.8368719E-01
        1   -1    0    0  501    0  0.00000000000E+00  0.00000000000E+00  0.14879537417E+04  0.14879537417E+04  0.50400001928E-02 0.  1.
       -1   -1    0    0    0  501  0.00000000000E+00  0.00000000000E+00 -0.11344567202E+04  0.11344567202E+04  0.50400001928E-02 0. -1.
    10030    2    1    2    0    0  0.00000000000E+00  0.00000000000E+00  0.35349702146E+03  0.26224104619E+04  0.25984758006E+04 0.  0.
        2    1    3    3  502    0  0.41795665249E+03 -0.94840271020E+03  0.96745982568E+03  0.14177919376E+04  0.25500000920E-02 0. -1.
       -2    1    3    3    0  502 -0.41795665249E+03  0.94840271020E+03 -0.61396280422E+03  0.12046185243E+04  0.25500000920E-02 0.  1.
</event>
<event>
 5   0  0.1351000E-07  0.3376040E+04  0.7818609E-02  0.8143812E-01
       -1   -1    0    0    0  501  0.00000000000E+00  0.00000000000E+00  0.18016699329E+04  0.18016699329E+04  0.50400001928E-02 0. -1.
        1   -1    0    0  501    0  0.00000000000E+00  0.00000000000E+00 -0.15815390926E+04  0.15815390926E+04  0.50400001928E-02 0.  1.
    10030    2    1    2    0    0  0.00000000000E+00  0.00000000000E+00  0.22013084038E+03  0.33832090255E+04  0.33760399470E+04 0.  0.
        3    1    3    3  502    0 -0.13773953464E+04  0.24592356972E+03  0.10563773369E+04  0.17531769536E+04  0.10100000352E+00 0. -1.
       -3    1    3    3    0  502  0.13773953464E+04 -0.24592356972E+03 -0.83624649656E+03  0.16300320719E+04  0.10100000352E+00 0.  1.
</event>
<event>
 5   0  0.1421304E-07  0.4050236E+04  0.7818609E-02  0.7994488E-01
       -1   -1    0    0    0  501  0.00000000000E+00  0.00000000000E+00  0.14578789601E+04  0.14578789601E+04  0.50400001928E-02 0.  1.
        1   -1    0    0  501    0  0.00000000000E+00  0.00000000000E+00 -0.28130607482E+04  0.28130607482E+04  0.50400001928E-02 0. -1.
    10030    2    1    2    0    0  0.00000000000E+00  0.00000000000E+00 -0.13551817881E+04  0.42709397083E+04  0.40502355874E+04 0.  0.
        2    1    3    3  502    0 -0.11675986502E+04 -0.81990680240E+03  0.83793351649E+03  0.16545894810E+04  0.25500000920E-02 0. -1.
       -2    1    3    3    0  502  0.11675986502E+04  0.81990680240E+03 -0.21931153046E+04  0.26163502273E+04  0.25500000920E-02 0.  1.
</event>
<event>
 5   0  0.1351000E-07  0.3961813E+04  0.7818609E-02  0.8012295E-01
        1   -1    0    0  501    0  0.00000000000E+00  0.00000000000E+00  0.19442129013E+04  0.19442129013E+04  0.50400001928E-02 0. -1.
       -1   -1    0    0    0  501  0.00000000000E+00  0.00000000000E+00 -0.20182928831E+04  0.20182928831E+04  0.50400001928E-02 0.  1.
    10030    2    1    2    0    0  0.00000000000E+00  0.00000000000E+00 -0.74079981737E+02  0.39625057844E+04  0.39618132525E+04 0.  0.
        3    1    3    3  502    0 -0.46243373204E+03  0.23117864683E+03  0.18755449187E+04  0.19454966655E+04  0.10100000352E+00 0. -1.
       -3    1    3    3    0  502  0.46243373204E+03 -0.23117864683E+03 -0.19496249004E+04  0.20170091189E+04  0.10100000352E+00 0.  1.
</event>
<event>
 5   0  0.4047916E-07  0.4005223E+04  0.7818609E-02  0.8003494E-01
       -2   -1    0    0    0  501  0.00000000000E+00  0.00000000000E+00  0.19402594557E+04  0.19402594557E+04  0.25500000920E-02 0.  1.
        2   -1    0    0  501    0  0.00000000000E+00  0.00000000000E+00 -0.20669672318E+04  0.20669672318E+04  0.25500000920E-02 0. -1.
    10030    2    1    2    0    0  0.00000000000E+00  0.00000000000E+00 -0.12670777609E+03  0.40072266875E+04  0.40052229482E+04 0.  0.
        5    1    3    3  502    0 -0.32751161865E+02 -0.15515502978E+04  0.12030003333E+04  0.19635714545E+04  0.46999998093E+01 0.  1.
       -5    1    3    3    0  502  0.32751161865E+02  0.15515502978E+04 -0.13297081094E+04  0.20436552330E+04  0.46999998093E+01 0. -1.
</event>
<event>
 5   0  0.4301754E-07  0.4036163E+04  0.7818609E-02  0.7997291E-01
        2   -1    0    0  501    0  0.00000000000E+00  0.00000000000E+00  0.20068414069E+04  0.20068414069E+04  0.25500000920E-02 0. -1.
       -2   -1    0    0    0  501  0.00000000000E+00  0.00000000000E+00 -0.20293850459E+04  0.20293850459E+04  0.25500000920E-02 0.  1.
    10030    2    1    2    0    0  0.00000000000E+00  0.00000000000E+00 -0.22543639057E+02  0.40362264528E+04  0.40361634956E+04 0.  0.
        1    1    3    3  502    0 -0.14052179932E+04  0.11124725068E+04  0.91633159589E+03  0.20129322593E+04  0.50400001928E-02 0. -1.
       -1    1    3    3    0  502  0.14052179932E+04 -0.11124725068E+04 -0.93887523494E+03  0.20232941935E+04  0.50400001928E-02 0.  1.
</event>
<event>
 5   0  0.1372952E-07  0.3977576E+04  0.7818609E-02  0.8009086E-01
        1   -1    0    0  501    0  0.00000000000E+00  0.00000000000E+00  0.25811914548E+04  0.25811914548E+04  0.50400001928E-02 0.  1.
       -1   -1    0    0    0  501  0.00000000000E+00  0.00000000000E+00 -0.15323456647E+04  0.15323456647E+04  0.50400001928E-02 0. -1.
    10030    2    1    2    0    0  0.00000000000E+00  0.00000000000E+00  0.10488457901E+04  0.41135371195E+04  0.39775759128E+04 0.  0.
        1    1    3    3  502    0 -0.61188275779E+03  0.17252989619E+04 -0.27946349903E+03  0.18517982785E+04  0.50400001928E-02 0. -1.
       -1    1    3    3    0  502  0.61188275779E+03 -0.17252989619E+04  0.13283092891E+04  0.22617388410E+04  0.50400001928E-02 0.  1.
</event>
<event>
 5   0  0.4149487E-07  0.3959944E+04  0.7818609E-02  0.8012676E-01
        2   -1    0    0  501    0  0.00000000000E+00  0.00000000000E+00  0.23397722436E+04  0.23397722436E+04  0.25500000920E-02 0.  1.
       -2   -1    0    0    0  501  0.00000000000E+00  0.00000000000E+00 -0.16754998954E+04  0.16754998954E+04  0.25500000920E-02 0. -1.
    10030    2    1    2    0    0  0.00000000000E+00  0.00000000000E+00  0.66427234819E+03  0.40152721390E+04  0.39599435094E+04 0.  0.
        2    1    3    3  502    0  0.74660145209E+03  0.14468125855E+04  0.14746481986E+04  0.21966491971E+04  0.25500000920E-02 0.  1.
       -2    1    3    3    0  502 -0.74660145209E+03 -0.14468125855E+04 -0.81037585039E+03  0.18186229419E+04  0.25500000920E-02 0. -1.
</event>
<event>
 5   0  0.4047916E-07  0.3946263E+04  0.7818609E-02  0.8015476E-01
       -2   -1    0    0    0  501  0.00000000000E+00  0.00000000000E+00  0.15048871166E+04  0.15048871166E+04  0.25500000920E-02 0. -1.
        2   -1    0    0  501    0  0.00000000000E+00  0.00000000000E+00 -0.25870694416E+04  0.25870694416E+04  0.25500000920E-02 0.  1.
    10030    2    1    2    0    0  0.00000000000E+00  0.00000000000E+00 -0.10821823250E+04  0.40919565582E+04  0.39462627750E+04 0.  0.
        5    1    3    3  502    0  0.11021986936E+04  0.13692777271E+04 -0.14705446579E+04  0.22917868868E+04  0.46999998093E+01 0.  1.
       -5    1    3    3    0  502 -0.11021986936E+04 -0.13692777271E+04  0.38836233288E+03  0.18001696713E+04  0.46999998093E+01 0. -1.
</event>
<event>
 5   0  0.1421304E-07  0.3995349E+04  0.7818609E-02  0.8005485E-01
        1   -1    0    0  501    0  0.00000000000E+00  0.00000000000E+00  0.14686352737E+04  0.14686352737E+04  0.50400001928E-02 0. -1.
       -1   -1    0    0    0  501  0.00000000000E+00  0.00000000000E+00 -0.27172874989E+04  0.27172874989E+04  0.50400001928E-02 0.  1.
    10030    2    1    2    0    0  0.00000000000E+00  0.00000000000E+00 -0.12486522252E+04  0.41859227726E+04  0.39953494314E+04 0.  0.
        2    1    3    3  502    0 -0.16340372129E+04  0.27230018681E+03  0.54538596022E+03  0.17440386608E+04  0.25500000920E-02 0. -1.
       -2    1    3    3    0  502  0.16340372129E+04 -0.27230018681E+03 -0.17940381854E+04  0.24418841118E+04  0.25500000920E-02 0.  1.
</event>
<event>
 5   0  0.4149487E-07  0.2520328E+04  0.7818609E-02  0.8395779E-01
       -2   -1    0    0    0  501  0.00000000000E+00  0.00000000000E+00  0.73966741639E+03  0.73966741640E+03  0.25500000920E-02 0.  1.
        2   -1    0    0  501    0  0.00000000000E+00  0.00000000000E+00 -0.21469291383E+04  0.21469291383E+04  0.25500000920E-02 0. -1.
    10030    2    1    2    0    0  0.00000000000E+00  0.00000000000E+00 -0.14072617219E+04  0.28865965547E+04  0.25203281762E+04 0.  0.
        2    1    3    3  502    0  0.32998987566E+03 -0.12155956607E+04 -0.66005726924E+03  0.14220554585E+04  0.25500000920E-02 0.  1.
       -2    1    3    3    0  502 -0.32998987566E+03  0.12155956607E+04 -0.74720445267E+03  0.14645410962E+04  0.25500000920E-02 0. -1.
</event>
<event>
 5   0  0.4077370E-07  0.2479581E+04  0.7818609E-02  0.8410296E-01
        2   -1    0    0  501    0  0.00000000000E+00  0.00000000000E+00  0.12133643407E+04  0.12133643407E+04  0.25500000920E-02 0. -1.
       -2   -1    0    0    0  501  0.00000000000E+00  0.00000000000E+00 -0.12667926555E+04  0.12667926555E+04  0.25500000920E-02 0.  1.
    10030    2    1    2    0    0  0.00000000000E+00  0.00000000000E+00 -0.53428314784E+02  0.24801569962E+04  0.24795814447E+04 0.  0.
        3    1    3    3  502    0 -0.15617551885E+03 -0.12207359599E+04 -0.17672879730E+03  0.12433101602E+04  0.10100000352E+00 0.  1.
       -3    1    3    3    0  502  0.15617551885E+03  0.12207359599E+04  0.12330048251E+03  0.12368468360E+04  0.10100000352E+00 0. -1.
</event>
<event>
 5   0  0.1351000E-07  0.4051595E+04  0.7818609E-02  0.7994218E-01
       -3   -1    0    0    0  501  0.00000000000E+00  0.00000000000E+00  0.17003969417E+04  0.17003969447E+04  0.10100000352E+00 0.  1.
        3   -1    0    0  501    0  0.00000000000E+00  0.00000000000E+00 -0.24134687486E+04  0.24134687507E+04  0.10100000352E+00 0. -1.
    10030    2    1    2    0    0  0.00000000000E+00  0.00000000000E+00 -0.71307180688E+03  0.41138656954E+04  0.40515946932E+04 0.  0.
        4    1    3    3  502    0 -0.63537478058E+03 -0.53933357455E+03 -0.22313357405E+04  0.23818989517E+04  0.12699999809E+01 0. -1.
       -4    1    3    3    0  502  0.63537478058E+03  0.53933357455E+03  0.15182639336E+04  0.17319667437E+04  0.12699999809E+01 0.  1.
</event>
<event>
 5   0  0.1368865E-07  0.4064063E+04  0.7818609E-02  0.7991746E-01
       -1   -1    0    0    0  501  0.00000000000E+00  0.00000000000E+00  0.32202373176E+04  0.32202373176E+04  0.50400001928E-02 0. -1.
        1   -1    0    0  501    0  0.00000000000E+00  0.00000000000E+00 -0.12822508024E+04  0.12822508025E+04  0.50400001928E-02 0.  1.
    10030    2    1    2    0    0  0.00000000000E+00  0.00000000000E+00  0.19379865152E+04  0.45024881201E+04  0.40640629348E+04 0.  0.
        5    1    3    3  502    0  0.75599568783E+02  0.15375969059E+04  0.24384304397E+04  0.28837275598E+04  0.46999998093E+01 0.  1.
       -5    1    3    3    0  502 -0.75599568783E+02 -0.15375969059E+04 -0.50044392459E+03  0.16187605603E+04  0.46999998093E+01 0. -1.
</event>
<event>
 5   0  0.4301754E-07  0.4132585E+04  0.7818609E-02  0.7978321E-01
        2   -1    0    0  501    0  0.00000000000E+00  0.00000000000E+00  0.27892841659E+04  0.27892841659E+04  0.25500000920E-02 0. -1.
       -2   -1    0    0    0  501  0.00000000000E+00  0.00000000000E+00 -0.15307023344E+04  0.15307023344E+04  0.25500000920E-02 0.  1.
    10030    2    1    2    0    0  0.00000000000E+00  0.00000000000E+00  0.12585818315E+04  0.43199865002E+04  0.41325845588E+04 0.  0.
        1    1    3    3  502    0 -0.39792873421E+03 -0.20224883728E+04  0.77989819043E+03  0.22038710677E+04  0.50400001928E-02 0. -1.
       -1    1    3    3    0  502  0.39792873421E+03  0.20224883728E+04  0.47868364107E+03  0.21161154325E+04  0.50400001928E-02 0.  1.
</event>
<event>
 5   0  0.1351000E-07  0.3086250E+04  0.7818609E-02  0.8219522E-01
       -1   -1    0    0    0  501  0.00000000000E+00  0.00000000000E+00  0.15059249139E+04  0.15059249139E+04  0.50400001928E-02 0.  1.
        1   -1    0    0  501    0  0.00000000000E+00  0.00000000000E+00 -0.15812442452E+04  0.15812442452E+04  0.50400001928E-02 0. -1.
    10030    2    1    2    0    0  0.00000000000E+00  0.00000000000E+00 -0.75319331269E+02  0.30871691591E+04  0.30862502192E+04 0.  0.
        4    1    3    3  502    0 -0.85426198777E+03 -0.11902526415E+04 -0.52233318820E+03  0.15554094209E+04  0.12699999809E+01 0. -1.
       -4    1    3    3    0  502  0.85426198777E+03  0.11902526415E+04  0.44701385694E+03  0.15317597382E+04  0.12699999809E+01 0.  1.
</event>
<event>
 5   0  0.1421304E-07  0.2817257E+04  0.7818609E-02  0.8297931E-01
        1   -1    0    0  501    0  0.00000000000E+00  0.00000000000E+00  0.18920464627E+04  0.18920464627E+04  0.50400001928E-02 0. -1.
       -1   -1    0    0    0  501  0.00000000000E+00  0.00000000000E+00 -0.10487238658E+04  0.10487238658E+04  0.50400001928E-02 0.  1.
    10030    2    1    2    0    0  0.00000000000E+00  0.00000000000E+00  0.84332259689E+03  0.29407703285E+04  0.28172570210E+04 0.  0.
        2    1    3    3  502    0 -0.11354957926E+04  0.38246646377E+03  0.11948112320E+04  0.16921008159E+04  0.25500000920E-02 0. -1.
       -2    1    3    3    0  502  0.11354957926E+04 -0.38246646377E+03 -0.35148863514E+03  0.12486695126E+04  0.25500000920E-02 0.  1.
</event>
<event>
 5   0  0.4079777E-07  0.3994930E+04  0.7818609E-02  0.8005570E-01
        2   -1    0    0  501    0  0.00000000000E+00  0.00000000000E+00  0.13978993238E+04  0.13978993238E+04  0.25500000920E-02 0. -1.
       -2   -1    0    0    0  501  0.00000000000E+00  0.00000000000E+00 -0.28541874056E+04  0.28541874056E+04  0.25500000920E-02 0.  1.
    10030    2    1    2    0    0  0.00000000000E+00  0.00000000000E+00 -0.14562880818E+04  0.42520867294E+04  0.39949301091E+04 0.  0.
        4    1    3    3  502    0 -0.18184507112E+04  0.72926247211E+03 -0.31416225838E+03  0.19842596302E+04  0.12699999809E+01 0.  1.
       -4    1    3    3    0  502  0.18184507112E+04 -0.72926247211E+03 -0.11421258234E+04  0.22678270992E+04  0.12699999809E+01 0. -1.
</event>
<event>
 5   0  0.4149487E-07  0.3904168E+04  0.7818609E-02  0.8024163E-01
       -2   -1    0    0    0  501  0.00000000000E+00  0.00000000000E+00  0.17298506446E+04  0.17298506446E+04  0.25500000920E-02 0. -1.
        2   -1    0    0  501    0  0.00000000000E+00  0.00000000000E+00 -0.22028676297E+04  0.22028676297E+04  0.25500000920E-02 0.  1.
    10030    2    1    2    0    0  0.00000000000E+00  0.00000000000E+00 -0.47301698508E+03  0.39327182743E+04  0.39041680237E+04 0.  0.
        2    1    3    3  502    0  0.57218947554E+03  0.17110832935E+04 -0.98722697622E+03  0.20566535770E+04  0.25500000920E-02 0.  1.
       -2    1    3    3    0  502 -0.57218947554E+03 -0.17110832935E+04  0.51420999114E+03  0.18760646973E+04  0.25500000920E-02 0. -1.
</event>
<event>
 5   0  0.4077370E-07  0.2670492E+04  0.7818609E-02  0.8344643E-01
       -2   -1    0    0    0  501  0.00000000000E+00  0.00000000000E+00  0.86356100499E+03  0.86356100500E+03  0.25500000920E-02 0.  1.
        2   -1    0    0  501    0  0.00000000000E+00  0.00000000000E+00 -0.20645697833E+04  0.20645697834E+04  0.25500000920E-02 0. -1.
    10030    2    1    2    0    0  0.00000000000E+00  0.00000000000E+00 -0.12010087784E+04  0.29281307883E+04  0.26704920573E+04 0.  0.
        3    1    3    3  502    0 -0.61802610356E+03 -0.76152184108E+02  0.69460358893E+03  0.93286096273E+03  0.10100000352E+00 0. -1.
       -3    1    3    3    0  502  0.61802610356E+03  0.76152184108E+02 -0.18956123673E+04  0.19952698256E+04  0.10100000352E+00 0.  1.
</event>
<event>
 5   0  0.4047916E-07  0.3993168E+04  0.7818609E-02  0.8005926E-01
       -2   -1    0    0    0  501  0.00000000000E+00  0.00000000000E+00  0.14915263526E+04  0.14915263526E+04  0.25500000920E-02 0. -1.
        2   -1    0    0  501    0  0.00000000000E+00  0.00000000000E+00 -0.26726634779E+04  0.26726634779E+04  0.25500000920E-02 0.  1.
    10030    2    1    2    0    0  0.00000000000E+00  0.00000000000E+00 -0.11811371253E+04  0.41641898306E+04  0.39931681703E+04 0.  0.
        5    1    3    3  502    0 -0.18524250502E+04 -0.66427440438E+03 -0.94202943393E+03  0.21817838104E+04  0.46999998093E+01 0. -1.
       -5    1    3    3    0  502  0.18524250502E+04  0.66427440438E+03 -0.23910769139E+03  0.19824060202E+04  0.46999998093E+01 0.  1.
</event>
<event>
 5   0  0.4079777E-07  0.4035363E+04  0.7818609E-02  0.7997450E-01
       -2   -1    0    0    0  501  0.00000000000E+00  0.00000000000E+00  0.19142064187E+04  0.19142064187E+04  0.25500000920E-02 0. -1.
        2   -1    0    0  501    0  0.00000000000E+00  0.00000000000E+00 -0.21267499537E+04  0.21267499537E+04  0.25500000920E-02 0.  1.
    10030    2    1    2    0    0  0.00000000000E+00  0.00000000000E+00 -0.21254353501E+03  0.40409563724E+04  0.40353628894E+04 0.  0.
        4    1    3    3  502    0 -0.13652270189E+03  0.14384493905E+04  0.13039635236E+04  0.19463035685E+04  0.12699999809E+01 0. -1.
       -4    1    3    3    0  502  0.13652270189E+03 -0.14384493905E+04 -0.15165070586E+04  0.20946528039E+04  0.12699999809E+01 0.  1.
</event>
<event>
 5   0  0.4077370E-07  0.3997804E+04  0.7818609E-02  0.8004990E-01
       -2   -1    0    0    0  501  0.00000000000E+00  0.00000000000E+00  0.19939431035E+04  0.19939431035E+04  0.25500000920E-02 0.  1.
        2   -1    0    0  501    0  0.00000000000E+00  0.00000000000E+00 -0.20038727963E+04  0.20038727963E+04  0.25500000920E-02 0. -1.
    10030    2    1    2    0    0  0.00000000000E+00  0.00000000000E+00 -0.99296927847E+01  0.39978158998E+04  0.39978035682E+04 0.  0.
        3    1    3    3  502    0  0.16712951959E+04 -0.88150796302E+03  0.64720617062E+03  0.19972881010E+04  0.10100000352E+00 0.  1.
       -3    1    3    3    0  502 -0.16712951959E+04  0.88150796302E+03 -0.65713586341E+03  0.20005277988E+04  0.10100000352E+00 0. -1.
</event>
<event>
 5   0  0.1351000E-07  0.4019068E+04  0.7818609E-02  0.8000711E-01
       -1   -1    0    0    0  501  0.00000000000E+00  0.00000000000E+00  0.21195510439E+04  0.21195510439E+04  0.50400001928E-02 0. -1.
        1   -1    0    0  501    0  0.00000000000E+00  0.00000000000E+00 -0.19052277412E+04  0.19052277412E+04  0.50400001928E-02 0.  1.
    10030    2    1    2    0    0  0.00000000000E+00  0.00000000000E+00  0.21432330265E+03  0.40247787851E+04  0.40190682740E+04 0.  0.
        3    1    3    3  502    0  0.13635195441E+04  0.14594496563E+04  0.32894549190E+03  0.20241995933E+04  0.10100000352E+00 0. -1.
       -3    1    3    3    0  502 -0.13635195441E+04 -0.14594496563E+04 -0.11462218925E+03  0.20005791919E+04  0.10100000352E+00 0.  1.
</event>
<event>
 5   0  0.4301754E-07  0.3559223E+04  0.7818609E-02  0.8099896E-01
        2   -1    0    0  501    0  0.00000000000E+00  0.00000000000E+00  0.28757420374E+04  0.28757420374E+04  0.25500000920E-02 0.  1.
       -2   -1    0    0    0  501  0.00000000000E+00  0.00000000000E+00 -0.11012872085E+04  0.11012872085E+04  0.25500000920E-02 0. -1.
    10030    2    1    2    0    0  0.00000000000E+00  0.00000000000E+00  0.17744548289E+04  0.39770292460E+04  0.35592234663E+04 0.  0.
        1    1    3    3  502    0  0.15107010503E+03 -0.54307707118E+03  0.27733495013E+04  0.28300569497E+04  0.50400001928E-02 0.  1.
       -1    1    3    3    0  502 -0.15107010503E+03  0.54307707118E+03 -0.99889467239E+03  0.11469722963E+04  0.50400001928E-02 0. -1.
</event>
<event>
 5   0  0.1421304E-07  0.4065085E+04  0.7818609E-02  0.7991544E-01
        1   -1    0    0  501    0  0.00000000000E+00  0.00000000000E+00  0.19333362996E+04  0.19333362996E+04  0.50400001928E-02 0. -1.
       -1   -1    0    0    0  501  0.00000000000E+00  0.00000000000E+00 -0.21368393797E+04  0.21368393797E+04  0.50400001928E-02 0.  1.
    10030    2    1    2    0    0  0.00000000000E+00  0.00000000000E+00 -0.20350308001E+03  0.40701756793E+04  0.40650850615E+04 0.  0.
        2    1    3    3  502    0 -0.11335134485E+04 -0.11811399044E+03 -0.17868402316E+04  0.21193399127E+04  0.25500000920E-02 0.  1.
       -2    1    3    3    0  502  0.11335134485E+04  0.11811399044E+03  0.15833371515E+04  0.19508357666E+04  0.25500000920E-02 0. -1.
</event>
<event>
 5   0  0.1372952E-07  0.2548561E+04  0.7818609E-02  0.8385887E-01
       -1   -1    0    0    0  501  0.00000000000E+00  0.00000000000E+00  0.75587471103E+03  0.75587471105E+03  0.50400001928E-02 0. -1.
        1   -1    0    0  501    0  0.00000000000E+00  0.00000000000E+00 -0.21482267798E+04  0.21482267798E+04  0.50400001928E-02 0.  1.
    10030    2    1    2    0    0  0.00000000000E+00  0.00000000000E+00 -0.13923520688E+04  0.29041014908E+04  0.25485606106E+04 0.  0.
        1    1    3    3  502    0  0.63849221465E+03 -0.84422034630E+03 -0.15046717825E+04  0.18396786334E+04  0.50400001928E-02 0.  1.
       -1    1    3    3    0  502 -0.63849221465E+03  0.84422034630E+03  0.11231971373E+03  0.10644228574E+04  0.50400001928E-02 0. -1.
</event>
<event>
 5   0  0.4079777E-07  0.3848245E+04  0.7818609E-02  0.8035880E-01
        2   -1    0    0  501    0  0.00000000000E+00  0.00000000000E+00  0.28142033947E+04  0.28142033947E+04  0.25500000920E-02 0. -1.
       -2   -1    0    0    0  501  0.00000000000E+00  0.00000000000E+00 -0.13155581261E+04  0.13155581261E+04  0.25500000920E-02 0.  1.
    10030    2    1    2    0    0  0.00000000000E+00  0.00000000000E+00  0.14986452686E+04  0.41297615209E+04  0.38482453895E+04 0.  0.
        4    1    3    3  502    0 -0.16351368390E+03 -0.12418293925E+04 -0.81813302199E+03  0.14960682536E+04  0.12699999809E+01 0.  1.
       -4    1    3    3    0  502  0.16351368390E+03  0.12418293925E+04  0.23167782906E+04  0.26336932672E+04  0.12699999809E+01 0. -1.
</event>
<event>
 5   0  0.4079777E-07  0.3889970E+04  0.7818609E-02  0.8027118E-01
       -2   -1    0    0    0  501  0.00000000000E+00  0.00000000000E+00  0.22316095658E+04  0.22316095658E+04  0.25500000920E-02 0.  1.
        2   -1    0    0  501    0  0.00000000000E+00  0.00000000000E+00 -0.16951741938E+04  0.16951741938E+04  0.25500000920E-02 0. -1.
    10030    2    1    2    0    0  0.00000000000E+00  0.00000000000E+00  0.53643537195E+03  0.39267837596E+04  0.38899701524E+04 0.  0.
        4    1    3    3  502    0  0.76735113946E+03  0.13798274785E+04 -0.87840766750E+03  0.18067521371E+04  0.12699999809E+01 0. -1.
       -4    1    3    3    0  502 -0.76735113946E+03 -0.13798274785E+04  0.14148430394E+04  0.21200316226E+04  0.12699999809E+01 0.  1.
</event>
<event>
 5   0  0.4079777E-07  0.3917977E+04  0.7818609E-02  0.8021301E-01
        2   -1    0    0  501    0  0.00000000000E+00  0.00000000000E+00  0.30781729228E+04  0.30781729228E+04  0.25500000920E-02 0.  1.
       -2   -1    0    0    0  501  0.00000000000E+00  0.00000000000E+00 -0.12467254715E+04  0.12467254715E+04  0.25500000920E-02 0. -1.
    10030    2    1    2    0    0  0.00000000000E+00  0.00000000000E+00  0.18314474513E+04  0.43248983943E+04  0.39179773294E+04 0.  0.
        4    1    3    3  502    0 -0.11442303547E+04  0.12510134679E+04  0.19991594461E+04  0.26212473949E+04  0.12699999809E+01 0.  1.
       -4    1    3    3    0  502  0.11442303547E+04 -0.12510134679E+04 -0.16771199486E+03  0.17036509993E+04  0.12699999809E+01 0. -1.
</event>
<event>
 5   0  0.1372952E-07  0.2906638E+04  0.7818609E-02  0.8270905E-01
       -1   -1    0    0    0  501  0.00000000000E+00  0.00000000000E+00  0.12441574522E+04  0.12441574522E+04  0.50400001928E-02 0. -1.
        1   -1    0    0  501    0  0.00000000000E+00  0.00000000000E+00 -0.16976435408E+04  0.16976435408E+04  0.50400001928E-02 0.  1.
    10030    2    1    2    0    0  0.00000000000E+00  0.00000000000E+00 -0.45348608867E+03  0.29418009930E+04  0.29066378257E+04 0.  0.
        1    1    3    3  502    0  0.11777513053E+04 -0.54844418376E+02  0.63325989382E+03  0.13383288611E+04  0.50400001928E-02 0. -1.
       -1    1    3    3    0  502 -0.11777513053E+04  0.54844418376E+02 -0.10867459825E+04  0.16034721319E+04  0.50400001928E-02 0.  1.
</event>
<event>
 5   0  0.4077370E-07  0.4027745E+04  0.7818609E-02  0.7998973E-01
       -2   -1    0    0    0  501  0.00000000000E+00  0.00000000000E+00  0.17575418502E+04  0.17575418502E+04  0.25500000920E-02 0.  1.
        2   -1    0    0  501    0  0.00000000000E+00  0.00000000000E+00 -0.23075880528E+04  0.23075880528E+04  0.25500000920E-02 0. -1.
    10030    2    1    2    0    0  0.00000000000E+00  0.00000000000E+00 -0.55004620251E+03  0.40651299030E+04  0.40277450644E+04 0.  0.
        3    1    3    3  502    0  0.94249061781E+03 -0.17015260462E+04  0.25155039920E+03  0.19613151363E+04  0.10100000352E+00 0. -1.
       -3    1    3    3    0  502 -0.94249061781E+03  0.17015260462E+04 -0.80159660171E+03  0.21038147667E+04  0.10100000352E+00 0.  1.
</event>
<event>
 5   0  0.4301754E-07  0.4154462E+04  0.7818609E-02  0.7974091E-01
       -2   -1    0    0    0  501  0.00000000000E+00  0.00000000000E+00  0.27565490074E+04  0.27565490074E+04  0.25500000920E-02 0.  1.
        2   -1    0    0  501    0  0.00000000000E+00  0.00000000000E+00 -0.15653226984E+04  0.15653226984E+04  0.25500000920E-02 0. -1.
    10030    2    1    2    0    0  0.00000000000E+00  0.00000000000E+00  0.11912263091E+04  0.43218717058E+04  0.41544620496E+04 0.  0.
        1    1    3    3  502    0 -0.10332449009E+04  0.77332506300E+03 -0.10976308013E+04  0.16942314051E+04  0.50400001928E-02 0. -1.
       -1    1    3    3    0  502  0.10332449009E+04 -0.77332506300E+03  0.22888571103E+04  0.26276403007E+04  0.50400001928E-02 0.  1.
</event>
<event>
 5   0  0.4047916E-07  0.3860736E+04  0.7818609E-02  0.8033245E-01
        2   -1    0    0  501    0  0.00000000000E+00  0.00000000000E+00  0.22146549909E+04  0.22146549909E+04  0.25500000920E-02 0.  1.
       -2   -1    0    0    0  501  0.00000000000E+00  0.00000000000E+00 -0.16825737246E+04  0.16825737247E+04  0.25500000920E-02 0. -1.
    10030    2    1    2    0    0  0.00000000000E+00  0.00000000000E+00  0.53208126624E+03  0.38972287155E+04  0.38607358350E+04 0.  0.
        5    1    3    3  502    0 -0.11190106892E+04 -0.13359286134E+04  0.11041949268E+04  0.20630459784E+04  0.46999998093E+01 0. -1.
       -5    1    3    3    0  502  0.11190106892E+04  0.13359286134E+04 -0.57211366058E+03  0.18341827371E+04  0.46999998093E+01 0.  1.
</event>
<event>
 5   0  0.1372952E-07  0.4149634E+04  0.7818609E-02  0.7975023E-01
       -1   -1    0    0    0  501  0.00000000000E+00  0.00000000000E+00  0.27183275956E+04  0.27183275956E+04  0.50400001928E-02 0.  1.
        1   -1    0    0  501    0  0.00000000000E+00  0.00000000000E+00 -0.15836451168E+04  0.15836451168E+04  0.50400001928E-02 0. -1.
    10030    2    1    2    0    0  0.00000000000E+00  0.00000000000E+00  0.11346824788E+04  0.43019727124E+04  0.41496343081E+04 0.  0.
        1    1    3    3  502    0  0.53448957389E+03  0.78887263744E+03  0.24780614716E+04  0.26549553291E+04  0.50400001928E-02 0.  1.
       -1    1    3    3    0  502 -0.53448957389E+03 -0.78887263744E+03 -0.13433789928E+04  0.16470173833E+04  0.50400001928E-02 0. -1.
</event>
<event>
 5   0  0.1421304E-07  0.4074277E+04  0.7818609E-02  0.7989728E-01
        1   -1    0    0  501    0  0.00000000000E+00  0.00000000000E+00  0.18782821985E+04  0.18782821985E+04  0.50400001928E-02 0. -1.
       -1   -1    0    0    0  501  0.00000000000E+00  0.00000000000E+00 -0.22094304591E+04  0.22094304592E+04  0.50400001928E-02 0.  1.
    10030    2    1    2    0    0  0.00000000000E+00  0.00000000000E+00 -0.33114826063E+03  0.40877126577E+04  0.40742773103E+04 0.  0.
        2    1    3    3  502    0  0.14630885279E+04 -0.77309845046E+03 -0.13576101826E+04  0.21404239446E+04  0.25500000920E-02 0.  1.
       -2    1    3    3    0  502 -0.14630885279E+04  0.77309845046E+03  0.10264619220E+04  0.19472887131E+04  0.25500000920E-02 0. -1.
</event>
<event>
 5   0  0.4077370E-07  0.3915190E+04  0.7818609E-02  0.8021877E-01
        2   -1    0    0  501    0  0.00000000000E+00  0.00000000000E+00  0.21202747929E+04  0.21202747929E+04  0.25500000920E-02 0. -1.
       -2   -1    0    0    0  501  0.00000000000E+00  0.00000000000E+00 -0.18073968840E+04  0.18073968840E+04  0.25500000920E-02 0.  1.
    10030    2    1    2    0    0  0.00000000000E+00  0.00000000000E+00  0.31287790882E+03  0.39276716769E+04  0.39151899335E+04 0.  0.
        3    1    3    3  502    0 -0.14668635182E+04  0.12891371383E+04  0.19567553940E+02  0.19529326772E+04  0.10100000352E+00 0.  1.
       -3    1    3    3    0  502  0.14668635182E+04 -0.12891371383E+04  0.29331035488E+03  0.19747389997E+04  0.10100000352E+00 0. -1.
</event>
<event>
 5   0  0.1421304E-07  0.3894375E+04  0.7818609E-02  0.8026200E-01
        1   -1    0    0  501    0  0.00000000000E+00  0.00000000000E+00  0.21541398110E+04  0.21541398110E+04  0.50400001928E-02 0.  1.
       -1   -1    0    0    0  501  0.00000000000E+00  0.00000000000E+00 -0.17601176627E+04  0.17601176627E+04  0.50400001928E-02 0. -1.
    10030    2    1    2    0    0  0.00000000000E+00  0.00000000000E+00  0.39402214831E+03  0.39142574737E+04  0.38943751896E+04 0.  0.
        2    1    3    3  502    0 -0.10451345291E+04 -0.27923444645E+02  0.18480947335E+04  0.21233322978E+04  0.25500000920E-02 0.  1.
       -2    1    3    3    0  502  0.10451345291E+04  0.27923444645E+02 -0.14540725852E+04  0.17909251759E+04  0.25500000920E-02 0. -1.
</event>
<event>
 5   0  0.4149487E-07  0.3913356E+04  0.7818609E-02  0.8022257E-01
        2   -1    0    0  501    0  0.00000000000E+00  0.00000000000E+00  0.17216152274E+04  0.17216152274E+04  0.25500000920E-02 0.  1.
       -2   -1    0    0    0  501  0.00000000000E+00  0.00000000000E+00 -0.22238352949E+04  0.22238352949E+04  0.25500000920E-02 0. -1.
    10030    2    1    2    0    0  0.00000000000E+00  0.00000000000E+00 -0.50222006752E+03  0.39454505224E+04  0.39133559547E+04 0.  0.
        2    1    3    3  502    0  0.32432203727E+03 -0.65175515964E+03 -0.20822154019E+04  0.22058083670E+04  0.25500000920E-02 0. -1.
       -2    1    3    3    0  502 -0.32432203727E+03  0.65175515964E+03  0.15799953344E+04  0.17396421554E+04  0.25500000920E-02 0.  1.
</event>
<event>
 5   0  0.1351000E-07  0.4051290E+04  0.7818609E-02  0.7994279E-01
       -1   -1    0    0    0  501  0.00000000000E+00  0.00000000000E+00  0.18636206524E+04  0.18636206524E+04  0.50400001928E-02 0.  1.
        1   -1    0    0  501    0  0.00000000000E+00  0.00000000000E+00 -0.22017557121E+04  0.22017557121E+04  0.50400001928E-02 0. -1.
    10030    2    1    2    0    0  0.00000000000E+00  0.00000000000E+00 -0.33813505969E+03  0.40653763644E+04  0.40512898768E+04 0.  0.
        3    1    3    3  502    0 -0.95566506625E+02  0.18297206983E+04 -0.10359152404E+04  0.21047876820E+04  0.10100000352E+00 0. -1.
       -3    1    3    3    0  502  0.95566506625E+02 -0.18297206983E+04  0.69778018069E+03  0.19605886824E+04  0.10100000352E+00 0.  1.
</event>
<event>
 5   0  0.1372952E-07  0.2904889E+04  0.7818609E-02  0.8271424E-01
       -1   -1    0    0    0  501  0.00000000000E+00  0.00000000000E+00  0.10708112533E+04  0.10708112533E+04  0.50400001928E-02 0.  1.
        1   -1    0    0  501    0  0.00000000000E+00  0.00000000000E+00 -0.19700899506E+04  0.19700899506E+04  0.50400001928E-02 0. -1.
    10030    2    1    2    0    0  0.00000000000E+00  0.00000000000E+00 -0.89927869725E+03  0.30409012039E+04  0.29048886307E+04 0.  0.
        1    1    3    3  502    0 -0.76526607783E+03  0.48616828426E+03 -0.16374952680E+04  0.18717324925E+04  0.50400001928E-02 0. -1.
       -1    1    3    3    0  502  0.76526607783E+03 -0.48616828426E+03  0.73821657078E+03  0.11691687115E+04  0.50400001928E-02 0.  1.
</event>
<event>
 5   0  0.4079777E-07  0.4020832E+04  0.7818609E-02  0.8000357E-01
        2   -1    0    0  501    0  0.00000000000E+00  0.00000000000E+00  0.23183319208E+04  0.23183319208E+04  0.25500000920E-02 0. -1.
       -2   -1    0    0    0  501  0.00000000000E+00  0.00000000000E+00 -0.17433971481E+04  0.17433971481E+04  0.25500000920E-02 0.  1.
    10030    2    1    2    0    0  0.00000000000E+00  0.00000000000E+00  0.57493477268E+03  0.40617290688E+04  0.40208323810E+04 0.  0.
        4    1    3    3  502    0  0.13829958844E+04  0.81656203021E+03 -0.93409672120E+03  0.18579530303E+04  0.12699999809E+01 0.  1.
       -4    1    3    3    0  502 -0.13829958844E+04 -0.81656203021E+03  0.15090314939E+04  0.22037760385E+04  0.12699999809E+01 0. -1.
</event>
<event>
 5   0  0.4047916E-07  0.4034673E+04  0.7818609E-02  0.7997588E-01
        2   -1    0    0  501    0  0.00000000000E+00  0.00000000000E+00  0.24176387219E+04  0.24176387219E+04  0.25500000920E-02 0. -1.
       -2   -1    0    0    0  501  0.00000000000E+00  0.00000000000E+00 -0.16833142783E+04  0.16833142784E+04  0.25500000920E-02 0.  1.
    10030    2    1    2    0    0  0.00000000000E+00  0.00000000000E+00  0.73432444356E+03  0.41009530003E+04  0.40346726165E+04 0.  0.
        5    1    3    3  502    0 -0.12726644410E+04  0.75279876914E+03 -0.10276947050E+04  0.18007107660E+04  0.46999998093E+01 0.  1.
       -5    1    3    3    0  502  0.12726644410E+04 -0.75279876914E+03  0.17620191485E+04  0.23002422342E+04  0.46999998093E+01 0. -1.
</event>
<event>
 5   0  0.1421304E-07  0.3829607E+04  0.7818609E-02  0.8039831E-01
        1   -1    0    0  501    0  0.00000000000E+00  0.00000000000E+00  0.27270562128E+04  0.27270562128E+04  0.50400001928E-02 0.  1.
       -1   -1    0    0    0  501  0.00000000000E+00  0.00000000000E+00 -0.13444796481E+04  0.13444796481E+04  0.50400001928E-02 0. -1.
    10030    2    1    2    0    0  0.00000000000E+00  0.00000000000E+00  0.13825765647E+04  0.40715358609E+04  0.38296065476E+04 0.  0.
        2    1    3    3  502    0  0.13515207322E+04 -0.16509511757E+03  0.21226714984E+04  0.25218245335E+04  0.25500000920E-02 0.  1.
       -2    1    3    3    0  502 -0.13515207322E+04  0.16509511757E+03 -0.74009493373E+03  0.15497113274E+04  0.25500000920E-02 0. -1.
</event>
<event>
 5   0  0.1421304E-07  0.3989639E+04  0.7818609E-02  0.8006640E-01
        1   -1    0    0  501    0  0.00000000000E+00  0.00000000000E+00  0.22100925121E+04  0.22100925121E+04  0.50400001928E-02 0. -1.
       -1   -1    0    0    0  501  0.00000000000E+00  0.00000000000E+00 -0.18005151640E+04  0.18005151640E+04  0.50400001928E-02 0.  1.
    10030    2    1    2    0    0  0.00000000000E+00  0.00000000000E+00  0.40957734812E+03  0.40106076762E+04  0.39896391225E+04 0.  0.
        2    1    3    3  502    0  0.29492817554E+03  0.17731574166E+04 -0.66476349526E+03  0.19165021152E+04  0.25500000920E-02 0.  1.
       -2    1    3    3    0  502 -0.29492817554E+03 -0.17731574166E+04  0.10743408434E+04  0.20941055610E+04  0.25500000920E-02 0. -1.
</event>
<event>
 5   0  0.1372952E-07  0.2465340E+04  0.7818609E-02  0.8415438E-01
        1   -1    0    0  501    0  0.00000000000E+00  0.00000000000E+00  0.81556994082E+03  0.81556994084E+03  0.50400001928E-02 0.  1.
       -1   -1    0    0    0  501  0.00000000000E+00  0.00000000000E+00 -0.18630847050E+04  0.18630847050E+04  0.50400001928E-02 0. -1.
    10030    2    1    2    0    0  0.00000000000E+00  0.00000000000E+00 -0.10475147641E+04  0.26786546458E+04  0.24653404492E+04 0.  0.
        1    1    3    3  502    0  0.88910527321E+03 -0.68123530126E+03  0.35445571899E+02  0.11206453994E+04  0.50400001928E-02 0.  1.
       -1    1    3    3    0  502 -0.88910527321E+03  0.68123530126E+03 -0.10829603360E+04  0.15580092464E+04  0.50400001928E-02 0. -1.
</event>
<event>
 5   0  0.1368865E-07  0.3984407E+04  0.7818609E-02  0.8007700E-01
       -1   -1    0    0    0  501  0.00000000000E+00  0.00000000000E+00  0.23207852857E+04  0.23207852857E+04  0.50400001928E-02 0. -1.
        1   -1    0    0  501    0  0.00000000000E+00  0.00000000000E+00 -0.17101426663E+04  0.17101426663E+04  0.50400001928E-02 0.  1.
    10030    2    1    2    0    0  0.00000000000E+00  0.00000000000E+00  0.61064261941E+03  0.40309279520E+04  0.39844065738E+04 0.  0.
        5    1    3    3  502    0 -0.18122515211E+04 -0.65029177902E+03 -0.21223457260E+03  0.19370597764E+04  0.46999998093E+01 0.  1.
       -5    1    3    3    0  502  0.18122515211E+04  0.65029177902E+03  0.82287719201E+03  0.20938681756E+04  0.46999998093E+01 0. -1.
</event>
<event>
 5   0  0.1351000E-07  0.2578778E+04  0.7818609E-02  0.8375446E-01
       -1   -1    0    0    0  501  0.00000000000E+00  0.00000000000E+00  0.11879565481E+04  0.11879565481E+04  0.50400001928E-02 0. -1.
        1   -1    0    0  501    0  0.00000000000E+00  0.00000000000E+00 -0.13994817091E+04  0.13994817091E+04  0.50400001928E-02 0.  1.
    10030    2    1    2    0    0  0.00000000000E+00  0.00000000000E+00 -0.21152516099E+03  0.25874382572E+04  0.25787775866E+04 0.  0.
        3    1    3    3  502    0 -0.73329243103E+03  0.55292785542E+03  0.80230532698E+03  0.12194838460E+04  0.10100000352E+00 0. -1.
       -3    1    3    3    0  502  0.73329243103E+03 -0.55292785542E+03 -0.10138304880E+04  0.13679544112E+04  0.10100000352E+00 0.  1.
</event>
<event>
 5   0  0.4301754E-07  0.3955053E+04  0.7818609E-02  0.8013676E-01
       -2   -1    0    0    0  501  0.00000000000E+00  0.00000000000E+00  0.26312298269E+04  0.26312298269E+04  0.25500000920E-02 0. -1.
        2   -1    0    0  501    0  0.00000000000E+00  0.00000000000E+00 -0.14862292802E+04  0.14862292802E+04  0.25500000920E-02 0.  1.
    10030    2    1    2    0    0  0.00000000000E+00  0.00000000000E+00  0.11450005467E+04  0.41174591070E+04  0.39550528753E+04 0.  0.
        1    1    3    3  502    0  0.16331555488E+04 -0.11135181860E+04  0.51098926814E+03  0.20416243115E+04  0.50400001928E-02 0. -1.
       -1    1    3    3    0  502 -0.16331555488E+04  0.11135181860E+04  0.63401127858E+03  0.20758347956E+04  0.50400001928E-02 0.  1.
</event>
<event>
 5   0  0.1368865E-07  0.3937741E+04  0.7818609E-02  0.8017225E-01
       -1   -1    0    0    0  501  0.00000000000E+00  0.00000000000E+00  0.29766658892E+04  0.29766658892E+04  0.50400001928E-02 0.  1.
        1   -1    0    0  501    0  0.00000000000E+00  0.00000000000E+00 -0.13022797275E+04  0.13022797275E+04  0.50400001928E-02 0. -1.
    10030    2    1    2    0    0  0.00000000000E+00  0.00000000000E+00  0.16743861618E+04  0.42789456167E+04  0.39377413033E+04 0.  0.
        5    1    3    3  502    0  0.97632000246E+03 -0.16196064860E+04  0.24190770339E+03  0.19065328068E+04  0.46999998093E+01 0. -1.
       -5    1    3    3    0  502 -0.97632000246E+03  0.16196064860E+04  0.14324784584E+04  0.23724128098E+04  0.46999998093E+01 0.  1.
</event>
<event>
 5   0  0.1372952E-07  0.4005156E+04  0.7818609E-02  0.8003507E-01
        1   -1    0    0  501    0  0.00000000000E+00  0.00000000000E+00  0.15592377457E+04  0.15592377457E+04  0.50400001928E-02 0. -1.
       -1   -1    0    0    0  501  0.00000000000E+00  0.00000000000E+00 -0.25719741131E+04  0.25719741131E+04  0.50400001928E-02 0.  1.
    10030    2    1    2    0    0  0.00000000000E+00  0.00000000000E+00 -0.10127363674E+04  0.41312118588E+04  0.40051562357E+04 0.  0.
        1    1    3    3  502    0  0.18583902383E+04  0.65353186168E+02  0.26028355864E+03  0.18776668628E+04  0.50400001928E-02 0. -1.
       -1    1    3    3    0  502 -0.18583902383E+04 -0.65353186168E+02 -0.12730199260E+04  0.22535449960E+04  0.50400001928E-02 0.  1.
</event>
<event>
 5   0  0.1372952E-07  0.3882779E+04  0.7818609E-02  0.8028620E-01
       -1   -1    0    0    0  501  0.00000000000E+00  0.00000000000E+00  0.13089478135E+04  0.13089478135E+04  0.50400001928E-02 0. -1.
        1   -1    0    0  501    0  0.00000000000E+00  0.00000000000E+00 -0.28794072959E+04  0.28794072959E+04  0.50400001928E-02 0.  1.
    10030    2    1    2    0    0  0.00000000000E+00  0.00000000000E+00 -0.15704594824E+04  0.41883551095E+04  0.38827793573E+04 0.  0.
        1    1    3    3  502    0  0.81676606061E+03 -0.16290936415E+04 -0.15071865037E+04  0.23648814024E+04  0.50400001928E-02 0. -1.
       -1    1    3    3    0  502 -0.81676606061E+03  0.16290936415E+04 -0.63272978661E+02  0.18234737070E+04  0.50400001928E-02 0.  1.
</event>
<event>
 5   0  0.1351000E-07  0.3741234E+04  0.7818609E-02  0.8058885E-01
       -1   -1    0    0    0  501  0.00000000000E+00  0.00000000000E+00  0.18244900983E+04  0.18244900983E+04  0.50400001928E-02 0.  1.
        1   -1    0    0  501    0  0.00000000000E+00  0.00000000000E+00 -0.19179102928E+04  0.19179102928E+04  0.50400001928E-02 0. -1.
    10030    2    1    2    0    0  0.00000000000E+00  0.00000000000E+00 -0.93420194494E+02  0.37424003911E+04  0.37412342020E+04 0.  0.
        4    1    3    3  502    0  0.15801355873E+04 -0.34721602776E+03 -0.98605514310E+03  0.18946487280E+04  0.12699999809E+01 0.  1.
       -4    1    3    3    0  502 -0.15801355873E+04  0.34721602776E+03  0.89263494861E+03  0.18477516631E+04  0.12699999809E+01 0. -1.
</event>
<event>
 5   0  0.1351000E-07  0.3867637E+04  0.7818609E-02  0.8031794E-01
        1   -1    0    0  501    0  0.00000000000E+00  0.00000000000E+00  0.17902280189E+04  0.17902280189E+04  0.50400001928E-02 0.  1.
       -1   -1    0    0    0  501  0.00000000000E+00  0.00000000000E+00 -0.20889258133E+04  0.20889258134E+04  0.50400001928E-02 0. -1.
    10030    2    1    2    0    0  0.00000000000E+00  0.00000000000E+00 -0.29869779448E+03  0.38791538322E+04  0.38676367567E+04 0.  0.
        3    1    3    3  502    0 -0.62436878594E+02 -0.15305720466E+04  0.10344642220E+04  0.18484224059E+04  0.10100000352E+00 0.  1.
       -3    1    3    3    0  502  0.62436878594E+02  0.15305720466E+04 -0.13331620165E+04  0.20307314264E+04  0.10100000352E+00 0. -1.
</event>
<event>
 5   0  0.4301754E-07  0.3977778E+04  0.7818609E-02  0.8009044E-01
       -2   -1    0    0    0  501  0.00000000000E+00  0.00000000000E+00  0.17613480972E+04  0.17613480972E+04  0.25500000920E-02 0. -1.
        2   -1    0    0  501    0  0.00000000000E+00  0.00000000000E+00 -0.22458248618E+04  0.22458248618E+04  0.25500000920E-02 0.  1.
    10030    2    1    2    0    0  0.00000000000E+00  0.00000000000E+00 -0.48447676459E+03  0.40071729589E+04  0.39777779460E+04 0.  0.
        1    1    3    3  502    0 -0.19331837490E+04 -0.46741835414E+03 -0.24238614945E+03  0.20036043449E+04  0.50400001928E-02 0.  1.
       -1    1    3    3    0  502  0.19331837490E+04  0.46741835414E+03 -0.24209061515E+03  0.20035686141E+04  0.50400001928E-02 0. -1.
</event>
<event>
 5   0  0.4077370E-07  0.3951152E+04  0.7818609E-02  0.8014474E-01
        2   -1    0    0  501    0  0.00000000000E+00  0.00000000000E+00  0.24724143212E+04  0.24724143212E+04  0.25500000920E-02 0.  1.
       -2   -1    0    0    0  501  0.00000000000E+00  0.00000000000E+00 -0.15785790638E+04  0.15785790638E+04  0.25500000920E-02 0. -1.
    10030    2    1    2    0    0  0.00000000000E+00  0.00000000000E+00  0.89383525748E+03  0.40509933850E+04  0.39511524822E+04 0.  0.
        3    1    3    3  502    0  0.10847832600E+04  0.31776409618E+03 -0.12142623420E+04  0.16589640706E+04  0.10100000352E+00 0. -1.
       -3    1    3    3    0  502 -0.10847832600E+04 -0.31776409618E+03  0.21080975995E+04  0.23920293145E+04  0.10100000352E+00 0.  1.
</event>
<event>
 5   0  0.1351000E-07  0.3983653E+04  0.7818609E-02  0.8007852E-01
       -1   -1    0    0    0  501  0.00000000000E+00  0.00000000000E+00  0.15996891955E+04  0.15996891955E+04  0.50400001928E-02 0.  1.
        1   -1    0    0  501    0  0.00000000000E+00  0.00000000000E+00 -0.24800894244E+04  0.24800894244E+04  0.50400001928E-02 0. -1.
    10030    2    1    2    0    0  0.00000000000E+00  0.00000000000E+00 -0.88040022897E+03  0.40797786199E+04  0.39836527238E+04 0.  0.
        3    1    3    3  502    0  0.55881144336E+03  0.67176949014E+02 -0.23969558379E+04  0.24621495224E+04  0.10100000352E+00 0. -1.
       -3    1    3    3    0  502 -0.55881144336E+03 -0.67176949014E+02  0.15165556089E+04  0.16176290975E+04  0.10100000352E+00 0.  1.
</event>
<event>
 5   0  0.4047916E-07  0.2593907E+04  0.7818609E-02  0.8370274E-01
        2   -1    0    0  501    0  0.00000000000E+00  0.00000000000E+00  0.17055649993E+04  0.17055649993E+04  0.25500000920E-02 0.  1.
       -2   -1    0    0    0  501  0.00000000000E+00  0.00000000000E+00 -0.98623537775E+03  0.98623537776E+03  0.25500000920E-02 0. -1.
    10030    2    1    2    0    0  0.00000000000E+00  0.00000000000E+00  0.71932962151E+03  0.26918003770E+04  0.25939071235E+04 0.  0.
        5    1    3    3  502    0 -0.58600598950E+03 -0.86400415612E+03 -0.43889610999E+03  0.11325008110E+04  0.46999998093E+01 0. -1.
       -5    1    3    3    0  502  0.58600598950E+03  0.86400415612E+03  0.11582257315E+04  0.15592995660E+04  0.46999998093E+01 0.  1.
</event>
<event>
 5   0  0.1351000E-07  0.3961000E+04  0.7818609E-02  0.8012461E-01
       -1   -1    0    0    0  501  0.00000000000E+00  0.00000000000E+00  0.17277974853E+04  0.17277974853E+04  0.50400001928E-02 0. -1.
        1   -1    0    0  501    0  0.00000000000E+00  0.00000000000E+00 -0.22701624736E+04  0.22701624736E+04  0.50400001928E-02 0.  1.
    10030    2    1    2    0    0  0.00000000000E+00  0.00000000000E+00 -0.54236498830E+03  0.39979599589E+04  0.39610003853E+04 0.  0.
        4    1    3    3  502    0 -0.38164795309E+02 -0.70865615088E+03  0.15950507141E+04  0.17458059701E+04  0.12699999809E+01 0. -1.
       -4    1    3    3    0  502  0.38164795309E+02  0.70865615088E+03 -0.21374157024E+04  0.22521539888E+04  0.12699999809E+01 0.  1.
</event>
<event>
 5   0  0.1421304E-07  0.2895075E+04  0.7818609E-02  0.8274344E-01
       -1   -1    0    0    0  501  0.00000000000E+00  0.00000000000E+00  0.17567231585E+04  0.17567231585E+04  0.50400001928E-02 0.  1.
        1   -1    0    0  501    0  0.00000000000E+00  0.00000000000E+00 -0.11927689480E+04  0.11927689480E+04  0.50400001928E-02 0. -1.
    10030    2    1    2    0    0  0.00000000000E+00  0.00000000000E+00  0.56395421055E+03  0.29494921065E+04  0.28950750137E+04 0.  0.
        2    1    3    3  502    0  0.11385248488E+04 -0.18953765867E+03 -0.60805775794E+03  0.13045679716E+04  0.25500000920E-02 0. -1.
       -2    1    3    3    0  502 -0.11385248488E+04  0.18953765867E+03  0.11720119685E+04  0.16449241349E+04  0.25500000920E-02 0.  1.
</event>
<event>
 5   0  0.1372952E-07  0.3847089E+04  0.7818609E-02  0.8036125E-01
        1   -1    0    0  501    0  0.00000000000E+00  0.00000000000E+00  0.24320830581E+04  0.24320830581E+04  0.50400001928E-02 0.  1.
       -1   -1    0    0    0  501  0.00000000000E+00  0.00000000000E+00 -0.15213391616E+04  0.15213391616E+04  0.50400001928E-02 0. -1.
    10030    2    1    2    0    0  0.00000000000E+00  0.00000000000E+00  0.91074389641E+03  0.39534222197E+04  0.38470888737E+04 0.  0.
        1    1    3    3  502    0  0.97066102837E+03 -0.72160768905E+03 -0.10816705760E+04  0.16226249486E+04  0.50400001928E-02 0. -1.
       -1    1    3    3    0  502 -0.97066102837E+03  0.72160768905E+03  0.19924144724E+04  0.23307972711E+04  0.50400001928E-02 0.  1.
</event>
<event>
 5   0  0.1368865E-07  0.4006010E+04  0.7818609E-02  0.8003335E-01
        1   -1    0    0  501    0  0.00000000000E+00  0.00000000000E+00  0.26230267612E+04  0.26230267612E+04  0.50400001928E-02 0.  1.
       -1   -1    0    0    0  501  0.00000000000E+00  0.00000000000E+00 -0.15295419141E+04  0.15295419142E+04  0.50400001928E-02 0. -1.
    10030    2    1    2    0    0  0.00000000000E+00  0.00000000000E+00  0.10934848470E+04  0.41525686753E+04  0.40060101713E+04 0.  0.
        5    1    3    3  502    0  0.16874367316E+04 -0.97553277170E+03  0.10250342790E+04  0.22022316578E+04  0.46999998093E+01 0.  1.
       -5    1    3    3    0  502 -0.16874367316E+04  0.97553277170E+03  0.68450568081E+02  0.19503370175E+04  0.46999998093E+01 0. -1.
</event>
<event>
 5   0  0.4047916E-07  0.3847958E+04  0.7818609E-02  0.8035941E-01
        2   -1    0    0  501    0  0.00000000000E+00  0.00000000000E+00  0.20284236431E+04  0.20284236431E+04  0.25500000920E-02 0. -1.
       -2   -1    0    0    0  501  0.00000000000E+00  0.00000000000E+00 -0.18249124561E+04  0.18249124561E+04  0.25500000920E-02 0.  1.
    10030    2    1    2    0    0  0.00000000000E+00  0.00000000000E+00  0.20351118697E+03  0.38533360992E+04  0.38479581976E+04 0.  0.
        5    1    3    3  502    0  0.28947302160E+03 -0.18291294467E+04  0.62417841465E+03  0.19542594368E+04  0.46999998093E+01 0. -1.
       -5    1    3    3    0  502 -0.28947302160E+03  0.18291294467E+04 -0.42066722768E+03  0.18990766624E+04  0.46999998093E+01 0.  1.
</event>
<event>
 5   0  0.4079777E-07  0.4080367E+04  0.7818609E-02  0.7988527E-01
       -2   -1    0    0    0  501  0.00000000000E+00  0.00000000000E+00  0.24061890462E+04  0.24061890462E+04  0.25500000920E-02 0.  1.
        2   -1    0    0  501    0  0.00000000000E+00  0.00000000000E+00 -0.17298507450E+04  0.17298507450E+04  0.25500000920E-02 0. -1.
    10030    2    1    2    0    0  0.00000000000E+00  0.00000000000E+00  0.67633830122E+03  0.41360397912E+04  0.40803666081E+04 0.  0.
        4    1    3    3  502    0 -0.35007686175E+03  0.14529094484E+03  0.23701864460E+04  0.24003017872E+04  0.12699999809E+01 0.  1.
       -4    1    3    3    0  502  0.35007686175E+03 -0.14529094484E+03 -0.16938481448E+04  0.17357380040E+04  0.12699999809E+01 0. -1.
</event>
<event>
 5   0  0.1368865E-07  0.3835006E+04  0.7818609E-02  0.8038684E-01
       -1   -1    0    0    0  501  0.00000000000E+00  0.00000000000E+00  0.15156345894E+04  0.15156345894E+04  0.50400001928E-02 0.  1.
        1   -1    0    0  501    0  0.00000000000E+00  0.00000000000E+00 -0.24259262359E+04  0.24259262359E+04  0.50400001928E-02 0. -1.
    10030    2    1    2    0    0  0.00000000000E+00  0.00000000000E+00 -0.91029164649E+03  0.39415608253E+04  0.38350059789E+04 0.  0.
        5    1    3    3  502    0  0.24391492633E+03  0.36302085024E+03  0.14636810400E+04  0.15276331058E+04  0.46999998093E+01 0.  1.
       -5    1    3    3    0  502 -0.24391492633E+03 -0.36302085024E+03 -0.23739726865E+04  0.24139277195E+04  0.46999998093E+01 0. -1.
</event>
<event>
 5   0  0.1351000E-07  0.4024047E+04  0.7818609E-02  0.7999713E-01
        3   -1    0    0  501    0  0.00000000000E+00  0.00000000000E+00  0.21802153255E+04  0.21802153278E+04  0.10100000352E+00 0. -1.
       -3   -1    0    0    0  501  0.00000000000E+00  0.00000000000E+00 -0.18568069220E+04  0.18568069248E+04  0.10100000352E+00 0.  1.
    10030    2    1    2    0    0  0.00000000000E+00  0.00000000000E+00  0.32340840345E+03  0.40370222526E+04  0.40240471758E+04 0.  0.
        1    1    3    3  502    0  0.87987597177E+03  0.10645499669E+04 -0.13061576048E+04  0.19009197895E+04  0.50400001928E-02 0.  1.
       -1    1    3    3    0  502 -0.87987597177E+03 -0.10645499669E+04  0.16295660082E+04  0.21361024631E+04  0.50400001928E-02 0. -1.
</event>
<event>
 5   0  0.4301754E-07  0.4016323E+04  0.7818609E-02  0.8001262E-01
        2   -1    0    0  501    0  0.00000000000E+00  0.00000000000E+00  0.18275420153E+04  0.18275420153E+04  0.25500000920E-02 0.  1.
       -2   -1    0    0    0  501  0.00000000000E+00  0.00000000000E+00 -0.22066323724E+04  0.22066323724E+04  0.25500000920E-02 0. -1.
    10030    2    1    2    0    0  0.00000000000E+00  0.00000000000E+00 -0.37909035707E+03  0.40341743877E+04  0.40163233798E+04 0.  0.
        1    1    3    3  502    0  0.31392701435E+03  0.35701839012E+02 -0.21815106949E+04  0.22042716946E+04  0.50400001928E-02 0. -1.
       -1    1    3    3    0  502 -0.31392701435E+03 -0.35701839012E+02  0.18024203379E+04  0.18299026930E+04  0.50400001928E-02 0.  1.
</event>
<event>
 5   0  0.4079777E-07  0.2492688E+04  0.7818609E-02  0.8405595E-01
        2   -1    0    0  501    0  0.00000000000E+00  0.00000000000E+00  0.13406065663E+04  0.13406065663E+04  0.25500000920E-02 0.  1.
       -2   -1    0    0    0  501  0.00000000000E+00  0.00000000000E+00 -0.11587091621E+04  0.11587091621E+04  0.25500000920E-02 0. -1.
    10030    2    1    2    0    0  0.00000000000E+00  0.00000000000E+00  0.18189740414E+03  0.24993157284E+04  0.24926877952E+04 0.  0.
        4    1    3    3  502    0 -0.12452640541E+04  0.11449778415E+02  0.40239167470E+02  0.12459672810E+04  0.12699999809E+01 0. -1.
       -4    1    3    3    0  502  0.12452640541E+04 -0.11449778415E+02  0.14165823667E+03  0.12533484474E+04  0.12699999809E+01 0.  1.
</event>
<event>
 5   0  0.4079777E-07  0.4015681E+04  0.7818609E-02  0.8001391E-01
        2   -1    0    0  501    0  0.00000000000E+00  0.00000000000E+00  0.21426615694E+04  0.21426615694E+04  0.25500000920E-02 0.  1.
       -2   -1    0    0    0  501  0.00000000000E+00  0.00000000000E+00 -0.18815030079E+04  0.18815030079E+04  0.25500000920E-02 0. -1.
    10030    2    1    2    0    0  0.00000000000E+00  0.00000000000E+00  0.26115856152E+03  0.40241645773E+04  0.40156813557E+04 0.  0.
        4    1    3    3  502    0  0.47239621463E+03 -0.52243592997E+03  0.20147973633E+04  0.21343634912E+04  0.12699999809E+01 0.  1.
       -4    1    3    3    0  502 -0.47239621463E+03  0.52243592997E+03 -0.17536388018E+04  0.18898010860E+04  0.12699999809E+01 0. -1.
</event>
<event>
 5   0  0.1351000E-07  0.3897644E+04  0.7818609E-02  0.8025519E-01
        1   -1    0    0  501    0  0.00000000000E+00  0.00000000000E+00  0.25427288218E+04  0.25427288218E+04  0.50400001928E-02 0. -1.
       -1   -1    0    0    0  501  0.00000000000E+00  0.00000000000E+00 -0.14936347485E+04  0.14936347485E+04  0.50400001928E-02 0.  1.
    10030    2    1    2    0    0  0.00000000000E+00  0.00000000000E+00  0.10490940733E+04  0.40363635704E+04  0.38976444807E+04 0.  0.
        4    1    3    3  502    0 -0.91925299274E+03 -0.15218218785E+04 -0.30194152069E+03  0.18033685673E+04  0.12699999809E+01 0.  1.
       -4    1    3    3    0  502  0.91925299274E+03  0.15218218785E+04  0.13510355940E+04  0.22329950031E+04  0.12699999809E+01 0. -1.
</event>
<event>
 5   0  0.1351000E-07  0.3921819E+04  0.7818609E-02  0.8020506E-01
        1   -1    0    0  501    0  0.00000000000E+00  0.00000000000E+00  0.13453655266E+04  0.13453655267E+04  0.50400001928E-02 0.  1.
       -1   -1    0    0    0  501  0.00000000000E+00  0.00000000000E+00 -0.28580833520E+04  0.28580833520E+04  0.50400001928E-02 0. -1.
    10030    2    1    2    0    0  0.00000000000E+00  0.00000000000E+00 -0.15127178254E+04  0.42034488787E+04  0.39218193809E+04 0.  0.
        3    1    3    3  502    0 -0.12290280654E+04  0.82099089918E+03 -0.21375530331E+04  0.25987822189E+04  0.10100000352E+00 0. -1.
       -3    1    3    3    0  502  0.12290280654E+04 -0.82099089918E+03  0.62483520767E+03  0.16046666598E+04  0.10100000352E+00 0.  1.
</event>
<event>
 5   0  0.1351000E-07  0.3278226E+04  0.7818609E-02  0.8168458E-01
        1   -1    0    0  501    0  0.00000000000E+00  0.00000000000E+00  0.19595830680E+04  0.19595830680E+04  0.50400001928E-02 0.  1.
       -1   -1    0    0    0  501  0.00000000000E+00  0.00000000000E+00 -0.13710525626E+04  0.13710525626E+04  0.50400001928E-02 0. -1.
    10030    2    1    2    0    0  0.00000000000E+00  0.00000000000E+00  0.58853050546E+03  0.33306356306E+04  0.32782259757E+04 0.  0.
        3    1    3    3  502    0 -0.15662313990E+04 -0.22089044545E+03 -0.14251235092E+03  0.15881382699E+04  0.10100000352E+00 0. -1.
       -3    1    3    3    0  502  0.15662313990E+04  0.22089044545E+03  0.73104285638E+03  0.17424973607E+04  0.10100000352E+00 0.  1.
</event>
<event>
 5   0  0.4079777E-07  0.4021548E+04  0.7818609E-02  0.8000214E-01
        2   -1    0    0  501    0  0.00000000000E+00  0.00000000000E+00  0.22623282861E+04  0.22623282861E+04  0.25500000920E-02 0.  1.
       -2   -1    0    0    0  501  0.00000000000E+00  0.00000000000E+00 -0.17871905179E+04  0.17871905179E+04  0.25500000920E-02 0. -1.
    10030    2    1    2    0    0  0.00000000000E+00  0.00000000000E+00  0.47513776824E+03  0.40495188040E+04  0.40215477922E+04 0.  0.
        4    1    3    3  502    0 -0.68736273159E+03 -0.13924721819E+04 -0.10487209155E+04  0.18738365654E+04  0.12699999809E+01 0. -1.
       -4    1    3    3    0  502  0.68736273159E+03  0.13924721819E+04  0.15238586838E+04  0.21756822386E+04  0.12699999809E+01 0.  1.
</event>
<event>
 5   0  0.1351000E-07  0.3973850E+04  0.7818609E-02  0.8009843E-01
       -1   -1    0    0    0  501  0.00000000000E+00  0.00000000000E+00  0.25757718923E+04  0.25757718923E+04  0.50400001928E-02 0. -1.
        1   -1    0    0  501    0  0.00000000000E+00  0.00000000000E+00 -0.15326943952E+04  0.15326943952E+04  0.50400001928E-02 0.  1.
    10030    2    1    2    0    0  0.00000000000E+00  0.00000000000E+00  0.10430774971E+04  0.41084662875E+04  0.39738500941E+04 0.  0.
        4    1    3    3  502    0 -0.19620726448E+04  0.31182887573E+03  0.55261042124E+03  0.20621217718E+04  0.12699999809E+01 0. -1.
       -4    1    3    3    0  502  0.19620726448E+04 -0.31182887573E+03  0.49046707586E+03  0.20463445157E+04  0.12699999809E+01 0.  1.
</event>
<event>
 5   0  0.4301754E-07  0.2931325E+04  0.7818609E-02  0.8263618E-01
        2   -1    0    0  501    0  0.00000000000E+00  0.00000000000E+00  0.16240794567E+04  0.16240794568E+04  0.25500000920E-02 0.  1.
       -2   -1    0    0    0  501  0.00000000000E+00  0.00000000000E+00 -0.13226982445E+04  0.13226982445E+04  0.25500000920E-02 0. -1.
    10030    2    1    2    0    0  0.00000000000E+00  0.00000000000E+00  0.30138121227E+03  0.29467777012E+04  0.29313253292E+04 0.  0.
        1    1    3    3  502    0  0.12598087998E+04 -0.74781335158E+03  0.19362435367E+03  0.14777798927E+04  0.50400001928E-02 0. -1.
       -1    1    3    3    0  502 -0.12598087998E+04  0.74781335158E+03  0.10775685860E+03  0.14689978085E+04  0.50400001928E-02 0.  1.
</event>
<event>
 5   0  0.1368865E-07  0.3987916E+04  0.7818609E-02  0.8006989E-01
       -1   -1    0    0    0  501  0.00000000000E+00  0.00000000000E+00  0.24494062724E+04  0.24494062724E+04  0.50400001928E-02 0.  1.
        1   -1    0    0  501    0  0.00000000000E+00  0.00000000000E+00 -0.16231966917E+04  0.16231966917E+04  0.50400001928E-02 0. -1.
    10030    2    1    2    0    0  0.00000000000E+00  0.00000000000E+00  0.82620958066E+03  0.40726029641E+04  0.39879158256E+04 0.  0.
        5    1    3    3  502    0  0.19741594832E+04 -0.12946889848E+03  0.15927432805E+03  0.19848068577E+04  0.46999998093E+01 0. -1.
       -5    1    3    3    0  502 -0.19741594832E+04  0.12946889848E+03  0.66693525261E+03  0.20877961064E+04  0.46999998093E+01 0.  1.
</event>
<event>
 5   0  0.4077370E-07  0.3344719E+04  0.7818609E-02  0.8151609E-01
       -2   -1    0    0    0  501  0.00000000000E+00  0.00000000000E+00  0.92909507443E+03  0.92909507443E+03  0.25500000920E-02 0.  1.
        2   -1    0    0  501    0  0.00000000000E+00  0.00000000000E+00 -0.30102260820E+04  0.30102260820E+04  0.25500000920E-02 0. -1.
    10030    2    1    2    0    0  0.00000000000E+00  0.00000000000E+00 -0.20811310076E+04  0.39393211564E+04  0.33447189572E+04 0.  0.
        3    1    3    3  502    0 -0.11595705636E+04  0.11289981120E+04 -0.54429701802E+03  0.17074834942E+04  0.10100000352E+00 0.  1.
       -3    1    3    3    0  502  0.11595705636E+04 -0.11289981120E+04 -0.15368339895E+04  0.22318376622E+04  0.10100000352E+00 0. -1.
</event>
<event>
 5   0  0.4301754E-07  0.4053318E+04  0.7818609E-02  0.7993876E-01
        2   -1    0    0  501    0  0.00000000000E+00  0.00000000000E+00  0.22428200979E+04  0.22428200979E+04  0.25500000920E-02 0. -1.
       -2   -1    0    0    0  501  0.00000000000E+00  0.00000000000E+00 -0.18313316964E+04  0.18313316964E+04  0.25500000920E-02 0.  1.
    10030    2    1    2    0    0  0.00000000000E+00  0.00000000000E+00  0.41148840147E+03  0.40741517942E+04  0.40533184106E+04 0.  0.
        1    1    3    3  502    0  0.13301239376E+04 -0.14600848775E+03  0.17356711597E+04  0.21915981708E+04  0.50400001928E-02 0. -1.
       -1    1    3    3    0  502 -0.13301239376E+04  0.14600848775E+03 -0.13241827582E+04  0.18825536234E+04  0.50400001928E-02 0.  1.
</event>
<event>
 5   0  0.1368865E-07  0.3784197E+04  0.7818609E-02  0.8049555E-01
        1   -1    0    0  501    0  0.00000000000E+00  0.00000000000E+00  0.27263038715E+04  0.27263038715E+04  0.50400001928E-02 0.  1.
       -1   -1    0    0    0  501  0.00000000000E+00  0.00000000000E+00 -0.13131469733E+04  0.13131469734E+04  0.50400001928E-02 0. -1.
    10030    2    1    2    0    0  0.00000000000E+00  0.00000000000E+00  0.14131568981E+04  0.40394508448E+04  0.37841974987E+04 0.  0.
        5    1    3    3  502    0  0.53010135125E+03 -0.35086514160E+03 -0.11957349455E+04  0.13542222639E+04  0.46999998093E+01 0. -1.
       -5    1    3    3    0  502 -0.53010135125E+03  0.35086514160E+03  0.26088918436E+04  0.26852285809E+04  0.46999998093E+01 0.  1.
</event>
<event>
 5   0  0.1421304E-07  0.2912056E+04  0.7818609E-02  0.8269299E-01
        1   -1    0    0  501    0  0.00000000000E+00  0.00000000000E+00  0.10467555645E+04  0.10467555646E+04  0.50400001928E-02 0.  1.
       -1   -1    0    0    0  501  0.00000000000E+00  0.00000000000E+00 -0.20253229641E+04  0.20253229641E+04  0.50400001928E-02 0. -1.
    10030    2    1    2    0    0  0.00000000000E+00  0.00000000000E+00 -0.97856739956E+03  0.30720785287E+04  0.29120563749E+04 0.  0.
        2    1    3    3  502    0  0.27501179178E+03 -0.13799819753E+04 -0.88406167754E+03  0.16617902357E+04  0.25500000920E-02 0. -1.
       -2    1    3    3    0  502 -0.27501179178E+03  0.13799819753E+04 -0.94505722019E+02  0.14102882930E+04  0.25500000920E-02 0.  1.
</event>
<event>
 5   0  0.4149487E-07  0.3467845E+04  0.7818609E-02  0.8121453E-01
       -2   -1    0    0    0  501  0.00000000000E+00  0.00000000000E+00  0.16255414294E+04  0.16255414294E+04  0.25500000920E-02 0.  1.
        2   -1    0    0  501    0  0.00000000000E+00  0.00000000000E+00 -0.18495295639E+04  0.18495295639E+04  0.25500000920E-02 0. -1.
    10030    2    1    2    0    0  0.00000000000E+00  0.00000000000E+00 -0.22398813450E+03  0.34750709933E+04  0.34678448241E+04 0.  0.
        2    1    3    3  502    0 -0.15007002019E+03 -0.13103851884E+03  0.16140337157E+04  0.16262831671E+04  0.25500000920E-02 0.  1.
       -2    1    3    3    0  502  0.15007002019E+03  0.13103851884E+03 -0.18380218502E+04  0.18487878262E+04  0.25500000920E-02 0. -1.
</event>
<event>
 5   0  0.4149487E-07  0.2644567E+04  0.7818609E-02  0.8353218E-01
       -2   -1    0    0    0  501  0.00000000000E+00  0.00000000000E+00  0.11050591133E+04  0.11050591134E+04  0.25500000920E-02 0.  1.
        2   -1    0    0  501    0  0.00000000000E+00  0.00000000000E+00 -0.15822086681E+04  0.15822086681E+04  0.25500000920E-02 0. -1.
    10030    2    1    2    0    0  0.00000000000E+00  0.00000000000E+00 -0.47714955471E+03  0.26872677814E+04  0.26445673430E+04 0.  0.
        2    1    3    3  502    0 -0.90041751557E+03 -0.86607605369E+03 -0.67869017980E+03  0.14217805011E+04  0.25500000920E-02 0. -1.
       -2    1    3    3    0  502  0.90041751557E+03  0.86607605369E+03  0.20154062508E+03  0.12654872803E+04  0.25500000920E-02 0.  1.
</event>
<event>
 5   0  0.1351000E-07  0.4070409E+04  0.7818609E-02  0.7990492E-01
       -1   -1    0    0    0  501  0.00000000000E+00  0.00000000000E+00  0.19494969433E+04  0.19494969433E+04  0.50400001928E-02 0. -1.
        1   -1    0    0  501    0  0.00000000000E+00  0.00000000000E+00 -0.21246800304E+04  0.21246800304E+04  0.50400001928E-02 0.  1.
    10030    2    1    2    0    0  0.00000000000E+00  0.00000000000E+00 -0.17518308709E+03  0.40741769736E+04  0.40704089351E+04 0.  0.
        3    1    3    3  502    0 -0.60504471534E+03 -0.11327126864E+04 -0.16679578673E+04  0.21050417086E+04  0.10100000352E+00 0.  1.
       -3    1    3    3    0  502  0.60504471534E+03  0.11327126864E+04  0.14927747802E+04  0.19691352651E+04  0.10100000352E+00 0. -1.
</event>
<event>
 5   0  0.1421304E-07  0.4025769E+04  0.7818609E-02  0.7999368E-01
        1   -1    0    0  501    0  0.00000000000E+00  0.00000000000E+00  0.13821911385E+04  0.13821911385E+04  0.50400001928E-02 0.  1.
       -1   -1    0    0    0  501  0.00000000000E+00  0.00000000000E+00 -0.29313630679E+04  0.29313630679E+04  0.50400001928E-02 0. -1.
    10030    2    1    2    0    0  0.00000000000E+00  0.00000000000E+00 -0.15491719293E+04  0.43135542064E+04  0.40257690228E+04 0.  0.
        2    1    3    3  502    0 -0.93267818934E+03 -0.80120828742E+03  0.93304125123E+03  0.15434990448E+04  0.25500000920E-02 0.  1.
       -2    1    3    3    0  502  0.93267818934E+03  0.80120828742E+03 -0.24822131806E+04  0.27700551616E+04  0.25500000920E-02 0. -1.
</event>
<event>
 5   0  0.4301754E-07  0.3940501E+04  0.7818609E-02  0.8016658E-01
        2   -1    0    0  501    0  0.00000000000E+00  0.00000000000E+00  0.13690643162E+04  0.13690643162E+04  0.25500000920E-02 0.  1.
       -2   -1    0    0    0  501  0.00000000000E+00  0.00000000000E+00 -0.28354306307E+04  0.28354306307E+04  0.25500000920E-02 0. -1.
    10030    2    1    2    0    0  0.00000000000E+00  0.00000000000E+00 -0.14663663146E+04  0.42044949469E+04  0.39405009314E+04 0.  0.
        1    1    3    3  502    0 -0.13511905909E+04 -0.12310406133E+04  0.51410075763E+02  0.18286114953E+04  0.50400001928E-02 0.  1.
       -1    1    3    3    0  502  0.13511905909E+04  0.12310406133E+04 -0.15177763903E+04  0.23758834516E+04  0.50400001928E-02 0. -1.
</event>
<event>
 5   0  0.1351000E-07  0.3958479E+04  0.7818609E-02  0.8012975E-01
       -1   -1    0    0    0  501  0.00000000000E+00  0.00000000000E+00  0.14134768478E+04  0.14134768479E+04  0.50400001928E-02 0.  1.
        1   -1    0    0  501    0  0.00000000000E+00  0.00000000000E+00 -0.27714566218E+04  0.27714566218E+04  0.50400001928E-02 0. -1.
    10030    2    1    2    0    0  0.00000000000E+00  0.00000000000E+00 -0.13579797740E+04  0.41849334697E+04  0.39584793897E+04 0.  0.
        4    1    3    3  502    0  0.77552992327E+03  0.17391685504E+04 -0.12495237059E+04  0.22776007142E+04  0.12699999809E+01 0. -1.
       -4    1    3    3    0  502 -0.77552992327E+03 -0.17391685504E+04 -0.10845606802E+03  0.19073327555E+04  0.12699999809E+01 0.  1.
</event>
<event>
 5   0  0.4301754E-07  0.3651750E+04  0.7818609E-02  0.8078740E-01
       -2   -1    0    0    0  501  0.00000000000E+00  0.00000000000E+00  0.20469919054E+04  0.20469919054E+04  0.25500000920E-02 0. -1.
        2   -1    0    0  501    0  0.00000000000E+00  0.00000000000E+00 -0.16286432023E+04  0.16286432023E+04  0.25500000920E-02 0.  1.
    10030    2    1    2    0    0  0.00000000000E+00  0.00000000000E+00  0.41834870313E+03  0.36756351077E+04  0.36517499651E+04 0.  0.
        1    1    3    3  502    0 -0.22496556014E+03 -0.92630188183E+03  0.17766574914E+04  0.20162233312E+04  0.50400001928E-02 0. -1.
       -1    1    3    3    0  502  0.22496556014E+03  0.92630188183E+03 -0.13583087883E+04  0.16594117765E+04  0.50400001928E-02 0.  1.
</event>
<event>
 5   0  0.1372952E-07  0.3957210E+04  0.7818609E-02  0.8013235E-01
        1   -1    0    0  501    0  0.00000000000E+00  0.00000000000E+00  0.21354898896E+04  0.21354898896E+04  0.50400001928E-02 0. -1.
       -1   -1    0    0    0  501  0.00000000000E+00  0.00000000000E+00 -0.18332458604E+04  0.18332458604E+04  0.50400001928E-02 0.  1.
    10030    2    1    2    0    0  0.00000000000E+00  0.00000000000E+00  0.30224402920E+03  0.39687357500E+04  0.39572101284E+04 0.  0.
        1    1    3    3  502    0  0.61663285062E+03 -0.17031788767E+04  0.94957121154E+03  0.20451747711E+04  0.50400001928E-02 0. -1.
       -1    1    3    3    0  502 -0.61663285062E+03  0.17031788767E+04 -0.64732718234E+03  0.19235609789E+04  0.50400001928E-02 0.  1.
</event>
<event>
 5   0  0.4079777E-07  0.3813598E+04  0.7818609E-02  0.8043243E-01
        2   -1    0    0  501    0  0.00000000000E+00  0.00000000000E+00  0.15084166186E+04  0.15084166186E+04  0.25500000920E-02 0. -1.
       -2   -1    0    0    0  501  0.00000000000E+00  0.00000000000E+00 -0.24103972585E+04  0.24103972585E+04  0.25500000920E-02 0.  1.
    10030    2    1    2    0    0  0.00000000000E+00  0.00000000000E+00 -0.90198063991E+03  0.39188138772E+04  0.38135984489E+04 0.  0.
        4    1    3    3  502    0  0.16028987951E+04  0.10219486727E+04 -0.29782075740E+03  0.19241523987E+04  0.12699999809E+01 0. -1.
       -4    1    3    3    0  502 -0.16028987951E+04 -0.10219486727E+04 -0.60415988252E+03  0.19946614785E+04  0.12699999809E+01 0.  1.
</event>
<event>
 5   0  0.1351000E-07  0.3593779E+04  0.7818609E-02  0.8091918E-01
        3   -1    0    0  501    0  0.00000000000E+00  0.00000000000E+00  0.13473293517E+04  0.13473293555E+04  0.10100000352E+00 0. -1.
       -3   -1    0    0    0  501  0.00000000000E+00  0.00000000000E+00 -0.23964535455E+04  0.23964535477E+04  0.10100000352E+00 0.  1.
    10030    2    1    2    0    0  0.00000000000E+00  0.00000000000E+00 -0.10491241938E+04  0.37437829032E+04  0.35937791880E+04 0.  0.
        1    1    3    3  502    0 -0.65756932798E+03  0.14636912397E+02 -0.22665431457E+04  0.23600486206E+04  0.50400001928E-02 0.  1.
       -1    1    3    3    0  502  0.65756932798E+03 -0.14636912397E+02  0.12174189519E+04  0.13837342826E+04  0.50400001928E-02 0. -1.
</event>
<event>
 5   0  0.4077370E-07  0.2889784E+04  0.7818609E-02  0.8275924E-01
        2   -1    0    0  501    0  0.00000000000E+00  0.00000000000E+00  0.20952079347E+04  0.20952079347E+04  0.25500000920E-02 0.  1.
       -2   -1    0    0    0  501  0.00000000000E+00  0.00000000000E+00 -0.99642280785E+03  0.99642280785E+03  0.25500000920E-02 0. -1.
    10030    2    1    2    0    0  0.00000000000E+00  0.00000000000E+00  0.10987851269E+04  0.30916307426E+04  0.28897840565E+04 0.  0.
        3    1    3    3  502    0 -0.11353080177E+04 -0.14224948254E+03 -0.39459555434E+03  0.12103160215E+04  0.10100000352E+00 0. -1.
       -3    1    3    3    0  502  0.11353080177E+04  0.14224948254E+03  0.14933806812E+04  0.18813147210E+04  0.10100000352E+00 0.  1.
</event>
<event>
 5   0  0.4149487E-07  0.4001024E+04  0.7818609E-02  0.8004340E-01
       -2   -1    0    0    0  501  0.00000000000E+00  0.00000000000E+00  0.21758328817E+04  0.21758328817E+04  0.25500000920E-02 0. -1.
        2   -1    0    0  501    0  0.00000000000E+00  0.00000000000E+00 -0.18393182556E+04  0.18393182556E+04  0.25500000920E-02 0.  1.
    10030    2    1    2    0    0  0.00000000000E+00  0.00000000000E+00  0.33651462605E+03  0.40151511373E+04  0.40010244390E+04 0.  0.
        2    1    3    3  502    0  0.10974557432E+04  0.11563662024E+04  0.13810180160E+04  0.21092184958E+04  0.25500000920E-02 0. -1.
       -2    1    3    3    0  502 -0.10974557432E+04 -0.11563662024E+04 -0.10445033900E+04  0.19059326415E+04  0.25500000920E-02 0.  1.
</event>
<event>
 5   0  0.4301754E-07  0.4099290E+04  0.7818609E-02  0.7984811E-01
       -2   -1    0    0    0  501  0.00000000000E+00  0.00000000000E+00  0.13146096716E+04  0.13146096716E+04  0.25500000920E-02 0. -1.
        2   -1    0    0  501    0  0.00000000000E+00  0.00000000000E+00 -0.31956589040E+04  0.31956589040E+04  0.25500000920E-02 0.  1.
    10030    2    1    2    0    0  0.00000000000E+00  0.00000000000E+00 -0.18810492324E+04  0.45102685755E+04  0.40992897444E+04 0.  0.
        1    1    3    3  502    0  0.10105389380E+04 -0.11050364193E+04 -0.24803917718E+04  0.28973501298E+04  0.50400001928E-02 0.  1.
       -1    1    3    3    0  502 -0.10105389380E+04  0.11050364193E+04  0.59934253936E+03  0.16129184458E+04  0.50400001928E-02 0. -1.
</event>
<event>
 5   0  0.1421304E-07  0.3124665E+04  0.7818609E-02  0.8209001E-01
        1   -1    0    0  501    0  0.00000000000E+00  0.00000000000E+00  0.19218277424E+04  0.19218277424E+04  0.50400001928E-02 0.  1.
       -1   -1    0    0    0  501  0.00000000000E+00  0.00000000000E+00 -0.12700840904E+04  0.12700840904E+04  0.50400001928E-02 0. -1.
    10030    2    1    2    0    0  0.00000000000E+00  0.00000000000E+00  0.65174365200E+03  0.31919118328E+04  0.31246649997E+04 0.  0.
        2    1    3    3  502    0 -0.10014262139E+04  0.63134842217E+03  0.13673364805E+04  0.18086083996E+04  0.25500000920E-02 0.  1.
       -2    1    3    3    0  502  0.10014262139E+04 -0.63134842217E+03 -0.71559282849E+03  0.13833034332E+04  0.25500000920E-02 0. -1.
</event>
<event>
 5   0  0.4149487E-07  0.4031633E+04  0.7818609E-02  0.7998195E-01
        2   -1    0    0  501    0  0.00000000000E+00  0.00000000000E+00  0.18991396567E+04  0.18991396567E+04  0.25500000920E-02 0. -1.
       -2   -1    0    0    0  501  0.00000000000E+00  0.00000000000E+00 -0.21396619532E+04  0.21396619532E+04  0.25500000920E-02 0.  1.
    10030    2    1    2    0    0  0.00000000000E+00  0.00000000000E+00 -0.24052229658E+03  0.40388016099E+04  0.40316333500E+04 0.  0.
        2    1    3    3  502    0  0.61871399281E+01 -0.19842880239E+04  0.23544710774E+03  0.19982173513E+04  0.25500000920E-02 0.  1.
       -2    1    3    3    0  502 -0.61871399281E+01  0.19842880239E+04 -0.47596940433E+03  0.20405842586E+04  0.25500000920E-02 0. -1.
</event>
<event>
 5   0  0.1351000E-07  0.4145401E+04  0.7818609E-02  0.7975840E-01
       -1   -1    0    0    0  501  0.00000000000E+00  0.00000000000E+00  0.18841386535E+04  0.18841386535E+04  0.50400001928E-02 0. -1.
        1   -1    0    0  501    0  0.00000000000E+00  0.00000000000E+00 -0.22801330082E+04  0.22801330082E+04  0.50400001928E-02 0.  1.
    10030    2    1    2    0    0  0.00000000000E+00  0.00000000000E+00 -0.39599435472E+03  0.41642716617E+04  0.41454006976E+04 0.  0.
        3    1    3    3  502    0  0.10306510798E+04  0.10003749591E+04  0.13031599022E+04  0.19393858430E+04  0.10100000352E+00 0. -1.
       -3    1    3    3    0  502 -0.10306510798E+04 -0.10003749591E+04 -0.16991542569E+04  0.22248858187E+04  0.10100000352E+00 0.  1.
</event>
<event>
 5   0  0.1351000E-07  0.4022477E+04  0.7818609E-02  0.8000028E-01
        1   -1    0    0  501    0  0.00000000000E+00  0.00000000000E+00  0.23941130963E+04  0.23941130963E+04  0.50400001928E-02 0.  1.
       -1   -1    0    0    0  501  0.00000000000E+00  0.00000000000E+00 -0.16895943636E+04  0.16895943636E+04  0.50400001928E-02 0. -1.
    10030    2    1    2    0    0  0.00000000000E+00  0.00000000000E+00  0.70451873263E+03  0.40837074599E+04  0.40224768456E+04 0.  0.
        4    1    3    3  502    0  0.13725294859E+04 -0.70939060803E+03  0.16594957893E+04  0.22673773643E+04  0.12699999809E+01 0.  1.
       -4    1    3    3    0  502 -0.13725294859E+04  0.70939060803E+03 -0.95497705670E+03  0.18163300956E+04  0.12699999809E+01 0. -1.
</event>
<event>
 5   0  0.1421304E-07  0.3704907E+04  0.7818609E-02  0.8066875E-01
        1   -1    0    0  501    0  0.00000000000E+00  0.00000000000E+00  0.15685405375E+04  0.15685405375E+04  0.50400001928E-02 0.  1.
       -1   -1    0    0    0  501  0.00000000000E+00  0.00000000000E+00 -0.21877565041E+04  0.21877565042E+04  0.50400001928E-02 0. -1.
    10030    2    1    2    0    0  0.00000000000E+00  0.00000000000E+00 -0.61921596664E+03  0.37562970417E+04  0.37049074283E+04 0.  0.
        2    1    3    3  502    0  0.97706630511E+03 -0.12789508045E+04 -0.12395054156E+04  0.20314397358E+04  0.25500000920E-02 0.  1.
       -2    1    3    3    0  502 -0.97706630511E+03  0.12789508045E+04  0.62028944897E+03  0.17248573058E+04  0.25500000920E-02 0. -1.
</event>
<event>
 5   0  0.1368865E-07  0.3340262E+04  0.7818609E-02  0.8152726E-01
        1   -1    0    0  501    0  0.00000000000E+00  0.00000000000E+00  0.20660339516E+04  0.20660339516E+04  0.50400001928E-02 0.  1.
       -1   -1    0    0    0  501  0.00000000000E+00  0.00000000000E+00 -0.13500930959E+04  0.13500930959E+04  0.50400001928E-02 0. -1.
    10030    2    1    2    0    0  0.00000000000E+00  0.00000000000E+00  0.71594085565E+03  0.34161270475E+04  0.33402623693E+04 0.  0.
        5    1    3    3  502    0 -0.11862885015E+03  0.15928283532E+04 -0.14111010082E+03  0.16034678410E+04  0.46999998093E+01 0. -1.
       -5    1    3    3    0  502  0.11862885015E+03 -0.15928283532E+04  0.85705095648E+03  0.18126592064E+04  0.46999998093E+01 0.  1.
</event>
<event>
 5   0  0.4301754E-07  0.3825599E+04  0.7818609E-02  0.8040684E-01
       -2   -1    0    0    0  501  0.00000000000E+00  0.00000000000E+00  0.15781055634E+04  0.15781055634E+04  0.25500000920E-02 0. -1.
        2   -1    0    0  501    0  0.00000000000E+00  0.00000000000E+00 -0.23184770812E+04  0.23184770812E+04  0.25500000920E-02 0.  1.
    10030    2    1    2    0    0  0.00000000000E+00  0.00000000000E+00 -0.74037151780E+03  0.38965826446E+04  0.38255988188E+04 0.  0.
        1    1    3    3  502    0 -0.47184968623E+03  0.27209137376E+03 -0.22378183452E+04  0.23031514905E+04  0.50400001928E-02 0.  1.
       -1    1    3    3    0  502  0.47184968623E+03 -0.27209137376E+03  0.14974468274E+04  0.15934311541E+04  0.50400001928E-02 0. -1.
</event>
<event>
 5   0  0.4079777E-07  0.3899926E+04  0.7818609E-02  0.8025045E-01
       -2   -1    0    0    0  501  0.00000000000E+00  0.00000000000E+00  0.13603426797E+04  0.13603426797E+04  0.25500000920E-02 0. -1.
        2   -1    0    0  501    0  0.00000000000E+00  0.00000000000E+00 -0.27951456747E+04  0.27951456747E+04  0.25500000920E-02 0.  1.
    10030    2    1    2    0    0  0.00000000000E+00  0.00000000000E+00 -0.14348029950E+04  0.41554883545E+04  0.38999261313E+04 0.  0.
        4    1    3    3  502    0  0.11413497701E+03  0.40659299048E+03  0.13110300841E+04  0.13773692850E+04  0.12699999809E+01 0. -1.
       -4    1    3    3    0  502 -0.11413497701E+03 -0.40659299048E+03 -0.27458330791E+04  0.27781190695E+04  0.12699999809E+01 0.  1.
</event>
<event>
 5   0  0.4077370E-07  0.3936618E+04  0.7818609E-02  0.8017456E-01
        2   -1    0    0  501    0  0.00000000000E+00  0.00000000000E+00  0.23217045324E+04  0.23217045324E+04  0.25500000920E-02 0. -1.
       -2   -1    0    0    0  501  0.00000000000E+00  0.00000000000E+00 -0.16687048157E+04  0.16687048157E+04  0.25500000920E-02 0.  1.
    10030    2    1    2    0    0  0.00000000000E+00  0.00000000000E+00  0.65299971668E+03  0.39904093481E+04  0.39366176009E+04 0.  0.
        3    1    3    3  502    0  0.18735057260E+04  0.10829664540E+03 -0.27531953025E+03  0.18967215722E+04  0.10100000352E+00 0. -1.
       -3    1    3    3    0  502 -0.18735057260E+04 -0.10829664540E+03  0.92831924693E+03  0.20936877759E+04  0.10100000352E+00 0.  1.
</event>
<event>
 5   0  0.1421304E-07  0.4056475E+04  0.7818609E-02  0.7993250E-01
        1   -1    0    0  501    0  0.00000000000E+00  0.00000000000E+00  0.14236155248E+04  0.14236155248E+04  0.50400001928E-02 0.  1.
       -1   -1    0    0    0  501  0.00000000000E+00  0.00000000000E+00 -0.28896477425E+04  0.28896477425E+04  0.50400001928E-02 0. -1.
    10030    2    1    2    0    0  0.00000000000E+00  0.00000000000E+00 -0.14660322177E+04  0.43132632674E+04  0.40564750154E+04 0.  0.
        2    1    3    3  502    0 -0.46981838832E+03 -0.28794383529E+03 -0.28085303343E+04  0.28620767999E+04  0.25500000920E-02 0. -1.
       -2    1    3    3    0  502  0.46981838832E+03  0.28794383529E+03  0.13424981166E+04  0.14511864674E+04  0.25500000920E-02 0.  1.
</event>
<event>
 5   0  0.4047916E-07  0.4006763E+04  0.7818609E-02  0.8003184E-01
        2   -1    0    0  501    0  0.00000000000E+00  0.00000000000E+00  0.12471370605E+04  0.12471370605E+04  0.25500000920E-02 0.  1.
       -2   -1    0    0    0  501  0.00000000000E+00  0.00000000000E+00 -0.32182007534E+04  0.32182007534E+04  0.25500000920E-02 0. -1.
    10030    2    1    2    0    0  0.00000000000E+00  0.00000000000E+00 -0.19710636929E+04  0.44653378139E+04  0.40067629965E+04 0.  0.
        5    1    3    3  502    0  0.12870211366E+04  0.63906791230E+03  0.57018799365E+03  0.15459520176E+04  0.46999998093E+01 0.  1.
       -5    1    3    3    0  502 -0.12870211366E+04 -0.63906791230E+03 -0.25412516866E+04  0.29193857962E+04  0.46999998093E+01 0. -1.
</event>
<event>
 5   0  0.1351000E-07  0.3954735E+04  0.7818609E-02  0.8013741E-01
        3   -1    0    0  501    0  0.00000000000E+00  0.00000000000E+00  0.28605666416E+04  0.28605666434E+04  0.10100000352E+00 0.  1.
       -3   -1    0    0    0  501  0.00000000000E+00  0.00000000000E+00 -0.13668558530E+04  0.13668558567E+04  0.10100000352E+00 0. -1.
    10030    2    1    2    0    0  0.00000000000E+00  0.00000000000E+00  0.14937107886E+04  0.42274225001E+04  0.39547350195E+04 0.  0.
        5    1    3    3  502    0  0.16849513760E+04  0.88015283089E+03  0.16505661115E+03  0.19081393870E+04  0.46999998093E+01 0. -1.
       -5    1    3    3    0  502 -0.16849513760E+04 -0.88015283089E+03  0.13286541775E+04  0.23192831131E+04  0.46999998093E+01 0.  1.
</event>
<event>
 5   0  0.1351000E-07  0.4038254E+04  0.7818609E-02  0.7996874E-01
       -3   -1    0    0    0  501  0.00000000000E+00  0.00000000000E+00  0.18614275964E+04  0.18614275992E+04  0.10100000352E+00 0.  1.
        3   -1    0    0  501    0  0.00000000000E+00  0.00000000000E+00 -0.21901867114E+04  0.21901867137E+04  0.10100000352E+00 0. -1.
    10030    2    1    2    0    0  0.00000000000E+00  0.00000000000E+00 -0.32875911497E+03  0.40516143129E+04  0.40382540763E+04 0.  0.
        1    1    3    3  502    0  0.13588372089E+04  0.76998386931E+03 -0.14482851896E+04  0.21299867863E+04  0.50400001928E-02 0. -1.
       -1    1    3    3    0  502 -0.13588372089E+04 -0.76998386931E+03  0.11195260746E+04  0.19216275266E+04  0.50400001928E-02 0.  1.
</event>
<event>
 5   0  0.1351000E-07  0.4002695E+04  0.7818609E-02  0.8004003E-01
       -1   -1    0    0    0  501  0.00000000000E+00  0.00000000000E+00  0.22297763734E+04  0.22297763734E+04  0.50400001928E-02 0.  1.
        1   -1    0    0  501    0  0.00000000000E+00  0.00000000000E+00 -0.17963202873E+04  0.17963202873E+04  0.50400001928E-02 0. -1.
    10030    2    1    2    0    0  0.00000000000E+00  0.00000000000E+00  0.43345608616E+03  0.40260966607E+04  0.40026953597E+04 0.  0.
        4    1    3    3  502    0 -0.17802227125E+04  0.84358652935E+03 -0.13826560608E+03  0.19748291392E+04  0.12699999809E+01 0. -1.
       -4    1    3    3    0  502  0.17802227125E+04 -0.84358652935E+03  0.57172169225E+03  0.20512675215E+04  0.12699999809E+01 0.  1.
</event>
<event>
 5   0  0.1372952E-07  0.3939794E+04  0.7818609E-02  0.8016803E-01
       -1   -1    0    0    0  501  0.00000000000E+00  0.00000000000E+00  0.30140127149E+04  0.30140127149E+04  0.50400001928E-02 0. -1.
        1   -1    0    0  501    0  0.00000000000E+00  0.00000000000E+00 -0.12874842331E+04  0.12874842331E+04  0.50400001928E-02 0.  1.
    10030    2    1    2    0    0  0.00000000000E+00  0.00000000000E+00  0.17265284817E+04  0.43014969480E+04  0.39397938265E+04 0.  0.
        1    1    3    3  502    0 -0.25645100126E+03 -0.39259391198E+03  0.29521854955E+04  0.29891965970E+04  0.50400001928E-02 0. -1.
       -1    1    3    3    0  502  0.25645100126E+03  0.39259391198E+03 -0.12256570138E+04  0.13123003510E+04  0.50400001928E-02 0.  1.
</event>
<event>
 5   0  0.4079777E-07  0.4063106E+04  0.7818609E-02  0.7991936E-01
       -2   -1    0    0    0  501  0.00000000000E+00  0.00000000000E+00  0.23193210396E+04  0.23193210396E+04  0.25500000920E-02 0. -1.
        2   -1    0    0  501    0  0.00000000000E+00  0.00000000000E+00 -0.17794895291E+04  0.17794895291E+04  0.25500000920E-02 0.  1.
    10030    2    1    2    0    0  0.00000000000E+00  0.00000000000E+00  0.53983151052E+03  0.40988105687E+04  0.40631059571E+04 0.  0.
        4    1    3    3  502    0 -0.41988334828E+03 -0.18700991787E+04 -0.40952561157E+03  0.19599198463E+04  0.12699999809E+01 0.  1.
       -4    1    3    3    0  502  0.41988334828E+03  0.18700991787E+04  0.94935712209E+03  0.21388907225E+04  0.12699999809E+01 0. -1.
</event>
<event>
 5   0  0.4047916E-07  0.4005525E+04  0.7818609E-02  0.8003433E-01
        2   -1    0    0  501    0  0.00000000000E+00  0.00000000000E+00  0.21399550060E+04  0.21399550060E+04  0.25500000920E-02 0.  1.
       -2   -1    0    0    0  501  0.00000000000E+00  0.00000000000E+00 -0.18743652758E+04  0.18743652758E+04  0.25500000920E-02 0. -1.
    10030    2    1    2    0    0  0.00000000000E+00  0.00000000000E+00  0.26558973017E+03  0.40143202818E+04  0.40055248620E+04 0.  0.
        5    1    3    3  502    0  0.45150859583E+03  0.11961370055E+04 -0.14121580198E+04  0.19049451727E+04  0.46999998093E+01 0. -1.
       -5    1    3    3    0  502 -0.45150859583E+03 -0.11961370055E+04  0.16777477500E+04  0.21093751091E+04  0.46999998093E+01 0.  1.
</event>
<event>
 5   0  0.1368865E-07  0.3999778E+04  0.7818609E-02  0.8004591E-01
       -1   -1    0    0    0  501  0.00000000000E+00  0.00000000000E+00  0.22687008827E+04  0.22687008827E+04  0.50400001928E-02 0.  1.
        1   -1    0    0  501    0  0.00000000000E+00  0.00000000000E+00 -0.17629276764E+04  0.17629276764E+04  0.50400001928E-02 0. -1.
    10030    2    1    2    0    0  0.00000000000E+00  0.00000000000E+00  0.50577320634E+03  0.40316285591E+04  0.39997777816E+04 0.  0.
        5    1    3    3  502    0  0.86277484090E+03  0.90411109576E+02  0.20691732162E+04  0.22436698695E+04  0.46999998093E+01 0.  1.
       -5    1    3    3    0  502 -0.86277484090E+03 -0.90411109576E+02 -0.15634000098E+04  0.17879586896E+04  0.46999998093E+01 0. -1.
</event>
<event>
 5   0  0.4301754E-07  0.4003558E+04  0.7818609E-02  0.8003829E-01
        2   -1    0    0  501    0  0.00000000000E+00  0.00000000000E+00  0.26663495784E+04  0.26663495784E+04  0.25500000920E-02 0. -1.
       -2   -1    0    0    0  501  0.00000000000E+00  0.00000000000E+00 -0.15028483714E+04  0.15028483714E+04  0.25500000920E-02 0.  1.
    10030    2    1    2    0    0  0.00000000000E+00  0.00000000000E+00  0.11635012070E+04  0.41691979499E+04  0.40035579784E+04 0.  0.
        1    1    3    3  502    0 -0.35529625355E+03  0.17924134975E+04 -0.26946452318E+03  0.18470497295E+04  0.50400001928E-02 0.  1.
       -1    1    3    3    0  502  0.35529625355E+03 -0.17924134975E+04  0.14329657302E+04  0.23221482204E+04  0.50400001928E-02 0. -1.
</event>
<event>
 5   0  0.4149487E-07  0.2582218E+04  0.7818609E-02  0.8374267E-01
        2   -1    0    0  501    0  0.00000000000E+00  0.00000000000E+00  0.21805970814E+04  0.21805970814E+04  0.25500000920E-02 0. -1.
       -2   -1    0    0    0  501  0.00000000000E+00  0.00000000000E+00 -0.76445207162E+03  0.76445207163E+03  0.25500000920E-02 0.  1.
    10030    2    1    2    0    0  0.00000000000E+00  0.00000000000E+00  0.14161450098E+04  0.29450491530E+04  0.25822176177E+04 0.  0.
        2    1    3    3  502    0 -0.59406288127E+03 -0.66403423613E+03  0.17737704659E+04  0.19849719996E+04  0.25500000920E-02 0. -1.
       -2    1    3    3    0  502  0.59406288127E+03  0.66403423613E+03 -0.35762545610E+03  0.96007715341E+03  0.25500000920E-02 0.  1.
</event>
<event>
 5   0  0.4149487E-07  0.3969499E+04  0.7818609E-02  0.8010728E-01
       -2   -1    0    0    0  501  0.00000000000E+00  0.00000000000E+00  0.15228974981E+04  0.15228974981E+04  0.25500000920E-02 0.  1.
        2   -1    0    0  501    0  0.00000000000E+00  0.00000000000E+00 -0.25866686765E+04  0.25866686765E+04  0.25500000920E-02 0. -1.
    10030    2    1    2    0    0  0.00000000000E+00  0.00000000000E+00 -0.10637711784E+04  0.41095661746E+04  0.39694993417E+04 0.  0.
        2    1    3    3  502    0 -0.19232913753E+04 -0.20082561695E+03 -0.99470651480E+03  0.21745854072E+04  0.25500000920E-02 0. -1.
       -2    1    3    3    0  502  0.19232913753E+04  0.20082561695E+03 -0.69064663592E+02  0.19349807674E+04  0.25500000920E-02 0.  1.
</event>
<event>
 5   0  0.1351000E-07  0.2904059E+04  0.7818609E-02  0.8271671E-01
        1   -1    0    0  501    0  0.00000000000E+00  0.00000000000E+00  0.23171733967E+04  0.23171733967E+04  0.50400001928E-02 0. -1.
       -1   -1    0    0    0  501  0.00000000000E+00  0.00000000000E+00 -0.90989744903E+03  0.90989744905E+03  0.50400001928E-02 0.  1.
    10030    2    1    2    0    0  0.00000000000E+00  0.00000000000E+00  0.14072759477E+04  0.32270708457E+04  0.29040593401E+04 0.  0.
        4    1    3    3  502    0  0.35269813838E+03  0.12558214151E+04  0.14124802393E+04  0.19226506294E+04  0.12699999809E+01 0. -1.
       -4    1    3    3    0  502 -0.35269813838E+03 -0.12558214151E+04 -0.52042916252E+01  0.13044202164E+04  0.12699999809E+01 0.  1.
</event>
<event>
 5   0  0.1372952E-07  0.3939172E+04  0.7818609E-02  0.8016931E-01
        1   -1    0    0  501    0  0.00000000000E+00  0.00000000000E+00  0.15945881605E+04  0.15945881605E+04  0.50400001928E-02 0. -1.
       -1   -1    0    0    0  501  0.00000000000E+00  0.00000000000E+00 -0.24327718797E+04  0.24327718797E+04  0.50400001928E-02 0.  1.
    10030    2    1    2    0    0  0.00000000000E+00  0.00000000000E+00 -0.83818371917E+03  0.40273600402E+04  0.39391721144E+04 0.  0.
        1    1    3    3  502    0  0.17572244522E+04 -0.77874800216E+03  0.20633407447E+02  0.19221633551E+04  0.50400001928E-02 0.  1.
       -1    1    3    3    0  502 -0.17572244522E+04  0.77874800216E+03 -0.85881712662E+03  0.21051966851E+04  0.50400001928E-02 0. -1.
</event>
<event>
 5   0  0.4047916E-07  0.3840180E+04  0.7818609E-02  0.8037587E-01
        2   -1    0    0  501    0  0.00000000000E+00  0.00000000000E+00  0.15716981647E+04  0.15716981647E+04  0.25500000920E-02 0. -1.
       -2   -1    0    0    0  501  0.00000000000E+00  0.00000000000E+00 -0.23457089728E+04  0.23457089728E+04  0.25500000920E-02 0.  1.
    10030    2    1    2    0    0  0.00000000000E+00  0.00000000000E+00 -0.77401080806E+03  0.39174071375E+04  0.38401804580E+04 0.  0.
        5    1    3    3  502    0  0.11696072136E+04  0.87599740474E+03 -0.16575942511E+04  0.22097495963E+04  0.46999998093E+01 0.  1.
       -5    1    3    3    0  502 -0.11696072136E+04 -0.87599740474E+03  0.88358344305E+03  0.17076575412E+04  0.46999998093E+01 0. -1.
</event>
<event>
 5   0  0.1368865E-07  0.3945976E+04  0.7818609E-02  0.8015534E-01
       -1   -1    0    0    0  501  0.00000000000E+00  0.00000000000E+00  0.21563089509E+04  0.21563089509E+04  0.50400001928E-02 0.  1.
        1   -1    0    0  501    0  0.00000000000E+00  0.00000000000E+00 -0.18052523856E+04  0.18052523856E+04  0.50400001928E-02 0. -1.
    10030    2    1    2    0    0  0.00000000000E+00  0.00000000000E+00  0.35105656523E+03  0.39615613365E+04  0.39459761164E+04 0.  0.
        5    1    3    3  502    0 -0.12611893782E+04  0.15119037229E+04  0.30334283495E+03  0.19921070454E+04  0.46999998093E+01 0.  1.
       -5    1    3    3    0  502  0.12611893782E+04 -0.15119037229E+04  0.47713730280E+02  0.19694542911E+04  0.46999998093E+01 0. -1.
</event>
<event>
 5   0  0.4149487E-07  0.2646398E+04  0.7818609E-02  0.8352610E-01
        2   -1    0    0  501    0  0.00000000000E+00  0.00000000000E+00  0.14557377973E+04  0.14557377973E+04  0.25500000920E-02 0.  1.
       -2   -1    0    0    0  501  0.00000000000E+00  0.00000000000E+00 -0.12027270507E+04  0.12027270507E+04  0.25500000920E-02 0. -1.
    10030    2    1    2    0    0  0.00000000000E+00  0.00000000000E+00  0.25301074658E+03  0.26584648480E+04  0.26463977233E+04 0.  0.
        2    1    3    3  502    0 -0.13160337120E+04  0.10143274239E+03  0.21978293354E+03  0.13381098124E+04  0.25500000920E-02 0. -1.
       -2    1    3    3    0  502  0.13160337120E+04 -0.10143274239E+03  0.33227813048E+02  0.13203550355E+04  0.25500000920E-02 0.  1.
</event>
<event>
 5   0  0.4079777E-07  0.3806255E+04  0.7818609E-02  0.8044814E-01
       -2   -1    0    0    0  501  0.00000000000E+00  0.00000000000E+00  0.17253687030E+04  0.17253687030E+04  0.25500000920E-02 0. -1.
        2   -1    0    0  501    0  0.00000000000E+00  0.00000000000E+00 -0.20992005634E+04  0.20992005634E+04  0.25500000920E-02 0.  1.
    10030    2    1    2    0    0  0.00000000000E+00  0.00000000000E+00 -0.37383186044E+03  0.38245692664E+04  0.38062553531E+04 0.  0.
        4    1    3    3  502    0  0.99729276866E+03 -0.70029207907E+03 -0.16557605051E+04  0.20558565917E+04  0.12699999809E+01 0.  1.
       -4    1    3    3    0  502 -0.99729276866E+03  0.70029207907E+03  0.12819286447E+04  0.17687126746E+04  0.12699999809E+01 0. -1.
</event>
<event>
 5   0  0.1351000E-07  0.4054001E+04  0.7818609E-02  0.7993741E-01
        1   -1    0    0  501    0  0.00000000000E+00  0.00000000000E+00  0.27880578709E+04  0.27880578709E+04  0.50400001928E-02 0.  1.
       -1   -1    0    0    0  501  0.00000000000E+00  0.00000000000E+00 -0.14736891770E+04  0.14736891770E+04  0.50400001928E-02 0. -1.
    10030    2    1    2    0    0  0.00000000000E+00  0.00000000000E+00  0.13143686939E+04  0.42617470479E+04  0.40540008432E+04 0.  0.
        4    1    3    3  502    0  0.18787468886E+04 -0.64546741577E+03  0.10808386366E+04  0.22615330702E+04  0.12699999809E+01 0.  1.
       -4    1    3    3    0  502 -0.18787468886E+04  0.64546741577E+03  0.23353005729E+03  0.20002139777E+04  0.12699999809E+01 0. -1.
</event>
<event>
 5   0  0.4047916E-07  0.3855676E+04  0.7818609E-02  0.8034311E-01
       -2   -1    0    0    0  501  0.00000000000E+00  0.00000000000E+00  0.26413887365E+04  0.26413887365E+04  0.25500000920E-02 0. -1.
        2   -1    0    0  501    0  0.00000000000E+00  0.00000000000E+00 -0.14070475677E+04  0.14070475677E+04  0.25500000920E-02 0.  1.
    10030    2    1    2    0    0  0.00000000000E+00  0.00000000000E+00  0.12343411689E+04  0.40484363042E+04  0.38556761259E+04 0.  0.
        5    1    3    3  502    0 -0.24621162510E+03  0.47390488469E+03 -0.13278226865E+04  0.14312027044E+04  0.46999998093E+01 0.  1.
       -5    1    3    3    0  502  0.24621162510E+03 -0.47390488469E+03  0.25621638554E+04  0.26172335998E+04  0.46999998093E+01 0. -1.
</event>
<event>
 5   0  0.4077370E-07  0.4004758E+04  0.7818609E-02  0.8003587E-01
        2   -1    0    0  501    0  0.00000000000E+00  0.00000000000E+00  0.25347829826E+04  0.25347829826E+04  0.25500000920E-02 0. -1.
       -2   -1    0    0    0  501  0.00000000000E+00  0.00000000000E+00 -0.15818010707E+04  0.15818010707E+04  0.25500000920E-02 0.  1.
    10030    2    1    2    0    0  0.00000000000E+00  0.00000000000E+00  0.95298191191E+03  0.41165840532E+04  0.40047583876E+04 0.  0.
        3    1    3    3  502    0 -0.14530903012E+04  0.64567835881E+03  0.17274994442E+04  0.23478982743E+04  0.10100000352E+00 0. -1.
       -3    1    3    3    0  502  0.14530903012E+04 -0.64567835881E+03 -0.77451753231E+03  0.17686857789E+04  0.10100000352E+00 0.  1.
</event>
<event>
 5   0  0.4079777E-07  0.3704529E+04  0.7818609E-02  0.8066959E-01
       -2   -1    0    0    0  501  0.00000000000E+00  0.00000000000E+00  0.12450880929E+04  0.12450880929E+04  0.25500000920E-02 0.  1.
        2   -1    0    0  501    0  0.00000000000E+00  0.00000000000E+00 -0.27555353717E+04  0.27555353717E+04  0.25500000920E-02 0. -1.
    10030    2    1    2    0    0  0.00000000000E+00  0.00000000000E+00 -0.15104472788E+04  0.40006234646E+04  0.37045292715E+04 0.  0.
        4    1    3    3  502    0  0.88862467261E+03  0.43657363445E+03  0.93534857052E+03  0.13620311701E+04  0.12699999809E+01 0.  1.
       -4    1    3    3    0  502 -0.88862467261E+03 -0.43657363445E+03 -0.24457958493E+04  0.26385922945E+04  0.12699999809E+01 0. -1.
</event>
<event>
 5   0  0.1421304E-07  0.3921992E+04  0.7818609E-02  0.8020471E-01
        1   -1    0    0  501    0  0.00000000000E+00  0.00000000000E+00  0.27084436669E+04  0.27084436669E+04  0.50400001928E-02 0. -1.
       -1   -1    0    0    0  501  0.00000000000E+00  0.00000000000E+00 -0.14198211079E+04  0.14198211079E+04  0.50400001928E-02 0.  1.
    10030    2    1    2    0    0  0.00000000000E+00  0.00000000000E+00  0.12886225589E+04  0.41282647748E+04  0.39219920897E+04 0.  0.
        2    1    3    3  502    0  0.76324520676E+03  0.10659037381E+04  0.21793711789E+04  0.25432956494E+04  0.25500000920E-02 0. -1.
       -2    1    3    3    0  502 -0.76324520676E+03 -0.10659037381E+04 -0.89074862000E+03  0.15849691254E+04  0.25500000920E-02 0.  1.
</event>
<event>
 5   0  0.4077370E-07  0.3994685E+04  0.7818609E-02  0.8005620E-01
        2   -1    0    0  501    0  0.00000000000E+00  0.00000000000E+00  0.28045978322E+04  0.28045978322E+04  0.25500000920E-02 0. -1.
       -2   -1    0    0    0  501  0.00000000000E+00  0.00000000000E+00 -0.14224420136E+04  0.14224420136E+04  0.25500000920E-02 0.  1.
    10030    2    1    2    0    0  0.00000000000E+00  0.00000000000E+00  0.13821558186E+04  0.42270398458E+04  0.39946853633E+04 0.  0.
        3    1    3    3  502    0 -0.11247649249E+04  0.16113039151E+04  0.10696312482E+04  0.22372991441E+04  0.10100000352E+00 0. -1.
       -3    1    3    3    0  502  0.11247649249E+04 -0.16113039151E+04  0.31252457048E+03  0.19897407018E+04  0.10100000352E+00 0.  1.
</event>
<event>
 5   0  0.1368865E-07  0.3907314E+04  0.7818609E-02  0.8023510E-01
        1   -1    0    0  501    0  0.00000000000E+00  0.00000000000E+00  0.30630153354E+04  0.30630153354E+04  0.50400001928E-02 0. -1.
       -1   -1    0    0    0  501  0.00000000000E+00  0.00000000000E+00 -0.12460847125E+04  0.12460847125E+04  0.50400001928E-02 0.  1.
    10030    2    1    2    0    0  0.00000000000E+00  0.00000000000E+00  0.18169306230E+04  0.43091000479E+04  0.39073144657E+04 0.  0.
        5    1    3    3  502    0 -0.39889856615E+03 -0.54286525755E+03  0.29308661582E+04  0.30072946782E+04  0.46999998093E+01 0. -1.
       -5    1    3    3    0  502  0.39889856615E+03  0.54286525755E+03 -0.11139355353E+04  0.13018053697E+04  0.46999998093E+01 0.  1.
</event>
<event>
 5   0  0.4079777E-07  0.3986925E+04  0.7818609E-02  0.8007189E-01
        2   -1    0    0  501    0  0.00000000000E+00  0.00000000000E+00  0.20343904395E+04  0.20343904395E+04  0.25500000920E-02 0. -1.
       -2   -1    0    0    0  501  0.00000000000E+00  0.00000000000E+00 -0.19533580522E+04  0.19533580522E+04  0.25500000920E-02 0.  1.
    10030    2    1    2    0    0  0.00000000000E+00  0.00000000000E+00  0.81032387390E+02  0.39877484917E+04  0.39869251040E+04 0.  0.
        4    1    3    3  502    0  0.27985729396E+03  0.69838071038E+02  0.20134077431E+04  0.20339640641E+04  0.12699999809E+01 0. -1.
       -4    1    3    3    0  502 -0.27985729396E+03 -0.69838071038E+02 -0.19323753557E+04  0.19537844276E+04  0.12699999809E+01 0.  1.
</event>
<event>
 5   0  0.1372952E-07  0.3836053E+04  0.7818609E-02  0.8038462E-01
        1   -1    0    0  501    0  0.00000000000E+00  0.00000000000E+00  0.14706437986E+04  0.14706437986E+04  0.50400001928E-02 0. -1.
       -1   -1    0    0    0  501  0.00000000000E+00  0.00000000000E+00 -0.25015063475E+04  0.25015063475E+04  0.50400001928E-02 0.  1.
    10030    2    1    2    0    0  0.00000000000E+00  0.00000000000E+00 -0.10308625489E+04  0.39721501462E+04  0.38360525530E+04 0.  0.
        1    1    3    3  502    0 -0.12559037918E+04  0.18258517988E+03 -0.20045751240E+04  0.23725414875E+04  0.50400001928E-02 0.  1.
       -1    1    3    3    0  502  0.12559037918E+04 -0.18258517988E+03  0.97371257506E+03  0.15996086587E+04  0.50400001928E-02 0. -1.
</event>
<event>
 5   0  0.4047916E-07  0.4006272E+04  0.7818609E-02  0.8003283E-01
       -2   -1    0    0    0  501  0.00000000000E+00  0.00000000000E+00  0.26604746853E+04  0.26604746853E+04  0.25500000920E-02 0. -1.
        2   -1    0    0  501    0  0.00000000000E+00  0.00000000000E+00 -0.15082093983E+04  0.15082093983E+04  0.25500000920E-02 0.  1.
    10030    2    1    2    0    0  0.00000000000E+00  0.00000000000E+00  0.11522652869E+04  0.41686840836E+04  0.40062715456E+04 0.  0.
        5    1    3    3  502    0 -0.17602824655E+04  0.31047630488E+03  0.15169674084E+04  0.23443980256E+04  0.46999998093E+01 0. -1.
       -5    1    3    3    0  502  0.17602824655E+04 -0.31047630488E+03 -0.36470212149E+03  0.18242860580E+04  0.46999998093E+01 0.  1.
</event>
<event>
 5   0  0.1368865E-07  0.3987341E+04  0.7818609E-02  0.8007105E-01
       -1   -1    0    0    0  501  0.00000000000E+00  0.00000000000E+00  0.15216104429E+04  0.15216104429E+04  0.50400001928E-02 0. -1.
        1   -1    0    0  501    0  0.00000000000E+00  0.00000000000E+00 -0.26121805599E+04  0.26121805599E+04  0.50400001928E-02 0.  1.
    10030    2    1    2    0    0  0.00000000000E+00  0.00000000000E+00 -0.10905701170E+04  0.41337910028E+04  0.39873405767E+04 0.  0.
        5    1    3    3  502    0 -0.12771837102E+04  0.14106698144E+04 -0.11616912635E+04  0.22295147984E+04  0.46999998093E+01 0.  1.
       -5    1    3    3    0  502  0.12771837102E+04 -0.14106698144E+04  0.71121146506E+02  0.19042762043E+04  0.46999998093E+01 0. -1.
</event>
<event>
 5   0  0.1368865E-07  0.4101634E+04  0.7818609E-02  0.7984352E-01
       -1   -1    0    0    0  501  0.00000000000E+00  0.00000000000E+00  0.13740566942E+04  0.13740566942E+04  0.50400001928E-02 0. -1.
        1   -1    0    0  501    0  0.00000000000E+00  0.00000000000E+00 -0.30609006885E+04  0.30609006885E+04  0.50400001928E-02 0.  1.
    10030    2    1    2    0    0  0.00000000000E+00  0.00000000000E+00 -0.16868439943E+04  0.44349573826E+04  0.41016343480E+04 0.  0.
        5    1    3    3  502    0 -0.14914219681E+04  0.64990195652E+03  0.50669640329E+03  0.17039587364E+04  0.46999998093E+01 0. -1.
       -5    1    3    3    0  502  0.14914219681E+04 -0.64990195652E+03 -0.21935403976E+04  0.27309986463E+04  0.46999998093E+01 0.  1.
</event>
<event>
 5   0  0.4047916E-07  0.4044020E+04  0.7818609E-02  0.7995725E-01
        2   -1    0    0  501    0  0.00000000000E+00  0.00000000000E+00  0.31064427281E+04  0.31064427281E+04  0.25500000920E-02 0.  1.
       -2   -1    0    0    0  501  0.00000000000E+00  0.00000000000E+00 -0.13161432499E+04  0.13161432500E+04  0.25500000920E-02 0. -1.
    10030    2    1    2    0    0  0.00000000000E+00  0.00000000000E+00  0.17902994781E+04  0.44225859780E+04  0.40440195983E+04 0.  0.
        5    1    3    3  502    0 -0.33899510261E+03  0.18748380590E+04  0.16357161513E+04  0.25110804138E+04  0.46999998093E+01 0.  1.
       -5    1    3    3    0  502  0.33899510261E+03 -0.18748380590E+04  0.15458332683E+03  0.19115055642E+04  0.46999998093E+01 0. -1.
</event>
<event>
 5   0  0.1351000E-07  0.2706444E+04  0.7818609E-02  0.8332917E-01
       -1   -1    0    0    0  501  0.00000000000E+00  0.00000000000E+00  0.12178730872E+04  0.12178730872E+04  0.50400001928E-02 0. -1.
        1   -1    0    0  501    0  0.00000000000E+00  0.00000000000E+00 -0.15036131547E+04  0.15036131547E+04  0.50400001928E-02 0.  1.
    10030    2    1    2    0    0  0.00000000000E+00  0.00000000000E+00 -0.28574006750E+03  0.27214862418E+04  0.27064441576E+04 0.  0.
        4    1    3    3  502    0 -0.59718285996E+03 -0.11836834456E+04 -0.41543838899E+03  0.13893611970E+04  0.12699999809E+01 0.  1.
       -4    1    3    3    0  502  0.59718285996E+03  0.11836834456E+04  0.12969832149E+03  0.13321250449E+04  0.12699999809E+01 0. -1.
</event>
<event>
 5   0  0.1351000E-07  0.4011522E+04  0.7818609E-02  0.8002226E-01
        1   -1    0    0  501    0  0.00000000000E+00  0.00000000000E+00  0.15211419567E+04  0.15211419567E+04  0.50400001928E-02 0. -1.
       -1   -1    0    0    0  501  0.00000000000E+00  0.00000000000E+00 -0.26447737419E+04  0.26447737419E+04  0.50400001928E-02 0.  1.
    10030    2    1    2    0    0  0.00000000000E+00  0.00000000000E+00 -0.11236317852E+04  0.41659156986E+04  0.40115215591E+04 0.  0.
        4    1    3    3  502    0 -0.26900756231E+03 -0.87697835996E+03  0.12905441482E+04  0.15833388531E+04  0.12699999809E+01 0. -1.
       -4    1    3    3    0  502  0.26900756231E+03  0.87697835996E+03 -0.24141759334E+04  0.25825768455E+04  0.12699999809E+01 0.  1.
</event>
<event>
 5   0  0.1368865E-07  0.3901172E+04  0.7818609E-02  0.8024786E-01
        1   -1    0    0  501    0  0.00000000000E+00  0.00000000000E+00  0.11065289644E+04  0.11065289644E+04  0.50400001928E-02 0. -1.
       -1   -1    0    0    0  501  0.00000000000E+00  0.00000000000E+00 -0.34384869799E+04  0.34384869799E+04  0.50400001928E-02 0.  1.
    10030    2    1    2    0    0  0.00000000000E+00  0.00000000000E+00 -0.23319580155E+04  0.45450159443E+04  0.39011718429E+04 0.  0.
        5    1    3    3  502    0 -0.13976380352E+04 -0.92213260001E+02 -0.27475454544E+04  0.30839785143E+04  0.46999998093E+01 0.  1.
       -5    1    3    3    0  502  0.13976380352E+04  0.92213260001E+02  0.41558743884E+03  0.14610374300E+04  0.46999998093E+01 0. -1.
</event>
<event>
 5   0  0.1351000E-07  0.3946004E+04  0.7818609E-02  0.8015529E-01
        1   -1    0    0  501    0  0.00000000000E+00  0.00000000000E+00  0.21442260115E+04  0.21442260115E+04  0.50400001928E-02 0. -1.
       -1   -1    0    0    0  501  0.00000000000E+00  0.00000000000E+00 -0.18154510600E+04  0.18154510600E+04  0.50400001928E-02 0.  1.
    10030    2    1    2    0    0  0.00000000000E+00  0.00000000000E+00  0.32877495145E+03  0.39596770715E+04  0.39460042501E+04 0.  0.
        4    1    3    3  502    0 -0.10359737112E+04  0.16771576499E+04  0.24613421682E+03  0.19866260289E+04  0.12699999809E+01 0. -1.
       -4    1    3    3    0  502  0.10359737112E+04 -0.16771576499E+04  0.82640734625E+02  0.19730510426E+04  0.12699999809E+01 0.  1.
</event>
<event>
 5   0  0.1351000E-07  0.3954572E+04  0.7818609E-02  0.8013774E-01
        1   -1    0    0  501    0  0.00000000000E+00  0.00000000000E+00  0.12702941731E+04  0.12702941731E+04  0.50400001928E-02 0.  1.
       -1   -1    0    0    0  501  0.00000000000E+00  0.00000000000E+00 -0.30777592283E+04  0.30777592283E+04  0.50400001928E-02 0. -1.
    10030    2    1    2    0    0  0.00000000000E+00  0.00000000000E+00 -0.18074650552E+04  0.43480534015E+04  0.39545718423E+04 0.  0.
        4    1    3    3  502    0 -0.11621556144E+04  0.15490757518E+04 -0.13427302137E+04  0.23565159444E+04  0.12699999809E+01 0. -1.
       -4    1    3    3    0  502  0.11621556144E+04 -0.15490757518E+04 -0.46473484150E+03  0.19915374570E+04  0.12699999809E+01 0.  1.
</event>
<event>
 5   0  0.1351000E-07  0.4038468E+04  0.7818609E-02  0.7996831E-01
       -1   -1    0    0    0  501  0.00000000000E+00  0.00000000000E+00  0.27613758398E+04  0.27613758398E+04  0.50400001928E-02 0.  1.
        1   -1    0    0  501    0  0.00000000000E+00  0.00000000000E+00 -0.14765487330E+04  0.14765487331E+04  0.50400001928E-02 0. -1.
    10030    2    1    2    0    0  0.00000000000E+00  0.00000000000E+00  0.12848271067E+04  0.42379245729E+04  0.40384680253E+04 0.  0.
        4    1    3    3  502    0 -0.14718512652E+04  0.11944457408E+04  0.13726689942E+04  0.23403565017E+04  0.12699999809E+01 0.  1.
       -4    1    3    3    0  502  0.14718512652E+04 -0.11944457408E+04 -0.87841887423E+02  0.18975680712E+04  0.12699999809E+01 0. -1.
</event>
<event>
 5   0  0.1372952E-07  0.3955086E+04  0.7818609E-02  0.8013669E-01
       -1   -1    0    0    0  501  0.00000000000E+00  0.00000000000E+00  0.24865372686E+04  0.24865372686E+04  0.50400001928E-02 0. -1.
        1   -1    0    0  501    0  0.00000000000E+00  0.00000000000E+00 -0.15727401674E+04  0.15727401674E+04  0.50400001928E-02 0.  1.
    10030    2    1    2    0    0  0.00000000000E+00  0.00000000000E+00  0.91379710121E+03  0.40592774361E+04  0.39550863658E+04 0.  0.
        1    1    3    3  502    0  0.88990368105E+03 -0.97250151612E+03  0.19698380279E+04  0.23702214278E+04  0.50400001928E-02 0. -1.
       -1    1    3    3    0  502 -0.88990368105E+03  0.97250151612E+03 -0.10560409267E+04  0.16890560083E+04  0.50400001928E-02 0.  1.
</event>
<event>
 5   0  0.4149487E-07  0.2580197E+04  0.7818609E-02  0.8374959E-01
        2   -1    0    0  501    0  0.00000000000E+00  0.00000000000E+00  0.19950110486E+04  0.19950110486E+04  0.25500000920E-02 0.  1.
       -2   -1    0    0    0  501  0.00000000000E+00  0.00000000000E+00 -0.83425814044E+03  0.83425814045E+03  0.25500000920E-02 0. -1.
    10030    2    1    2    0    0  0.00000000000E+00  0.00000000000E+00  0.11607529082E+04  0.28292691891E+04  0.25801970526E+04 0.  0.
        2    1    3    3  502    0 -0.11076374946E+04  0.45537778171E+03  0.11063971003E+04  0.16304429726E+04  0.25500000920E-02 0.  1.
       -2    1    3    3    0  502  0.11076374946E+04 -0.45537778171E+03  0.54355807928E+02  0.11988262165E+04  0.25500000920E-02 0. -1.
</event>
<event>
 5   0  0.1372952E-07  0.3950303E+04  0.7818609E-02  0.8014648E-01
        1   -1    0    0  501    0  0.00000000000E+00  0.00000000000E+00  0.16035063403E+04  0.16035063403E+04  0.50400001928E-02 0. -1.
       -1   -1    0    0    0  501  0.00000000000E+00  0.00000000000E+00 -0.24329328649E+04  0.24329328649E+04  0.50400001928E-02 0.  1.
    10030    2    1    2    0    0  0.00000000000E+00  0.00000000000E+00 -0.82942652466E+03  0.40364392052E+04  0.39503029121E+04 0.  0.
        1    1    3    3  502    0  0.16902812973E+04  0.23753171676E+03  0.60081444369E+03  0.18095441902E+04  0.50400001928E-02 0. -1.
       -1    1    3    3    0  502 -0.16902812973E+04 -0.23753171676E+03 -0.14302409684E+04  0.22268950150E+04  0.50400001928E-02 0.  1.
</event>
<event>
 5   0  0.1351000E-07  0.2559246E+04  0.7818609E-02  0.8382177E-01
        1   -1    0    0  501    0  0.00000000000E+00  0.00000000000E+00  0.16553340258E+04  0.16553340258E+04  0.50400001928E-02 0. -1.
       -1   -1    0    0    0  501  0.00000000000E+00  0.00000000000E+00 -0.98918745322E+03  0.98918745324E+03  0.50400001928E-02 0.  1.
    10030    2    1    2    0    0  0.00000000000E+00  0.00000000000E+00  0.66614657255E+03  0.26445214790E+04  0.25592464901E+04 0.  0.
        4    1    3    3  502    0  0.99830192405E+03 -0.19772034522E+03 -0.46848894803E+03  0.11203497551E+04  0.12699999809E+01 0.  1.
       -4    1    3    3    0  502 -0.99830192405E+03  0.19772034522E+03  0.11346355206E+04  0.15241717239E+04  0.12699999809E+01 0. -1.
</event>
<event>
 5   0  0.4047916E-07  0.2529797E+04  0.7818609E-02  0.8392446E-01
        2   -1    0    0  501    0  0.00000000000E+00  0.00000000000E+00  0.10140549208E+04  0.10140549208E+04  0.25500000920E-02 0.  1.
       -2   -1    0    0    0  501  0.00000000000E+00  0.00000000000E+00 -0.15777927466E+04  0.15777927466E+04  0.25500000920E-02 0. -1.
    10030    2    1    2    0    0  0.00000000000E+00  0.00000000000E+00 -0.56373782581E+03  0.25918476675E+04  0.25297972241E+04 0.  0.
        5    1    3    3  502    0  0.54286834335E+03 -0.16972953052E+03 -0.14393733022E+04  0.15476859322E+04  0.46999998093E+01 0. -1.
       -5    1    3    3    0  502 -0.54286834335E+03  0.16972953052E+03  0.87563547641E+03  0.10441617352E+04  0.46999998093E+01 0.  1.
</event>
<event>
 5   0  0.4047916E-07  0.4015089E+04  0.7818609E-02  0.8001510E-01
       -2   -1    0    0    0  501  0.00000000000E+00  0.00000000000E+00  0.16456872815E+04  0.16456872815E+04  0.25500000920E-02 0. -1.
        2   -1    0    0  501    0  0.00000000000E+00  0.00000000000E+00 -0.24489677294E+04  0.24489677294E+04  0.25500000920E-02 0.  1.
    10030    2    1    2    0    0  0.00000000000E+00  0.00000000000E+00 -0.80328044792E+03  0.40946550108E+04  0.40150890625E+04 0.  0.
        5    1    3    3  502    0 -0.99184928289E+03  0.72150902809E+03 -0.20224343763E+04  0.23652913508E+04  0.46999998093E+01 0.  1.
       -5    1    3    3    0  502  0.99184928289E+03 -0.72150902809E+03  0.12191539284E+04  0.17293636600E+04  0.46999998093E+01 0. -1.
</event>
<event>
 5   0  0.1351000E-07  0.3998205E+04  0.7818609E-02  0.8004909E-01
       -1   -1    0    0    0  501  0.00000000000E+00  0.00000000000E+00  0.10997462251E+04  0.10997462251E+04  0.50400001928E-02 0. -1.
        1   -1    0    0  501    0  0.00000000000E+00  0.00000000000E+00 -0.36339381916E+04  0.36339381916E+04  0.50400001928E-02 0.  1.
    10030    2    1    2    0    0  0.00000000000E+00  0.00000000000E+00 -0.25341919665E+04  0.47336844167E+04  0.39982045013E+04 0.  0.
        3    1    3    3  502    0 -0.15480111380E+04  0.99859465077E+03 -0.34781188105E+03  0.18747007427E+04  0.10100000352E+00 0. -1.
       -3    1    3    3    0  502  0.15480111380E+04 -0.99859465077E+03 -0.21863800855E+04  0.28589836740E+04  0.10100000352E+00 0.  1.
</event>
<event>
 5   0  0.1351000E-07  0.4023030E+04  0.7818609E-02  0.7999917E-01
        1   -1    0    0  501    0  0.00000000000E+00  0.00000000000E+00  0.12210084506E+04  0.12210084506E+04  0.50400001928E-02 0.  1.
       -1   -1    0    0    0  501  0.00000000000E+00  0.00000000000E+00 -0.33138117869E+04  0.33138117870E+04  0.50400001928E-02 0. -1.
    10030    2    1    2    0    0  0.00000000000E+00  0.00000000000E+00 -0.20928033363E+04  0.45348202376E+04  0.40230298014E+04 0.  0.
        4    1    3    3  502    0 -0.17072375988E+04 -0.14271222145E+03 -0.22346188462E+04  0.28157681009E+04  0.12699999809E+01 0. -1.
       -4    1    3    3    0  502  0.17072375988E+04  0.14271222145E+03  0.14181550991E+03  0.17190521367E+04  0.12699999809E+01 0.  1.
</event>
<event>
 5   0  0.1351000E-07  0.4107854E+04  0.7818609E-02  0.7983136E-01
        1   -1    0    0  501    0  0.00000000000E+00  0.00000000000E+00  0.14815811162E+04  0.14815811162E+04  0.50400001928E-02 0.  1.
       -1   -1    0    0    0  501  0.00000000000E+00  0.00000000000E+00 -0.28473740242E+04  0.28473740242E+04  0.50400001928E-02 0. -1.
    10030    2    1    2    0    0  0.00000000000E+00  0.00000000000E+00 -0.13657929080E+04  0.43289551405E+04  0.41078537390E+04 0.  0.
        4    1    3    3  502    0 -0.19560377966E+04  0.34929231031E+03 -0.12310116088E+04  0.23374088589E+04  0.12699999809E+01 0. -1.
       -4    1    3    3    0  502  0.19560377966E+04 -0.34929231031E+03 -0.13478129918E+03  0.19915462815E+04  0.12699999809E+01 0.  1.
</event>
<event>
 5   0  0.4079777E-07  0.3956774E+04  0.7818609E-02  0.8013324E-01
        2   -1    0    0  501    0  0.00000000000E+00  0.00000000000E+00  0.15711039152E+04  0.15711039152E+04  0.25500000920E-02 0. -1.
       -2   -1    0    0    0  501  0.00000000000E+00  0.00000000000E+00 -0.24912512536E+04  0.24912512536E+04  0.25500000920E-02 0.  1.
    10030    2    1    2    0    0  0.00000000000E+00  0.00000000000E+00 -0.92014733840E+03  0.40623551687E+04  0.39567737353E+04 0.  0.
        4    1    3    3  502    0  0.10779105867E+04 -0.14826434088E+04  0.30402341845E+03  0.18581051000E+04  0.12699999809E+01 0. -1.
       -4    1    3    3    0  502 -0.10779105867E+04  0.14826434088E+04 -0.12241707569E+04  0.22042500687E+04  0.12699999809E+01 0.  1.
</event>
<event>
 5   0  0.1351000E-07  0.2814828E+04  0.7818609E-02  0.8298680E-01
        3   -1    0    0  501    0  0.00000000000E+00  0.00000000000E+00  0.11553200947E+04  0.11553200991E+04  0.10100000352E+00 0. -1.
       -3   -1    0    0    0  501  0.00000000000E+00  0.00000000000E+00 -0.17145151870E+04  0.17145151900E+04  0.10100000352E+00 0.  1.
    10030    2    1    2    0    0  0.00000000000E+00  0.00000000000E+00 -0.55919509233E+03  0.28698352891E+04  0.28148277808E+04 0.  0.
        5    1    3    3  502    0  0.27309625862E+03 -0.11403511857E+04 -0.10731454305E+04  0.15895425752E+04  0.46999998093E+01 0.  1.
       -5    1    3    3    0  502 -0.27309625862E+03  0.11403511857E+04  0.51395033815E+03  0.12802927139E+04  0.46999998093E+01 0. -1.
</event>
<event>
 5   0  0.1351000E-07  0.3998539E+04  0.7818609E-02  0.8004841E-01
       -1   -1    0    0    0  501  0.00000000000E+00  0.00000000000E+00  0.25084307542E+04  0.25084307542E+04  0.50400001928E-02 0. -1.
        1   -1    0    0  501    0  0.00000000000E+00  0.00000000000E+00 -0.15934580828E+04  0.15934580828E+04  0.50400001928E-02 0.  1.
    10030    2    1    2    0    0  0.00000000000E+00  0.00000000000E+00  0.91497267141E+03  0.41018888370E+04  0.39985393635E+04 0.  0.
        3    1    3    3  502    0  0.93200515039E+03 -0.71298378756E+03 -0.12030233961E+04  0.16805489530E+04  0.10100000352E+00 0.  1.
       -3    1    3    3    0  502 -0.93200515039E+03  0.71298378756E+03  0.21179960675E+04  0.24213398840E+04  0.10100000352E+00 0. -1.
</event>
<event>
 5   0  0.4149487E-07  0.3919716E+04  0.7818609E-02  0.8020941E-01
        2   -1    0    0  501    0  0.00000000000E+00  0.00000000000E+00  0.17704931194E+04  0.17704931194E+04  0.25500000920E-02 0.  1.
       -2   -1    0    0    0  501  0.00000000000E+00  0.00000000000E+00 -0.21694762567E+04  0.21694762567E+04  0.25500000920E-02 0. -1.
    10030    2    1    2    0    0  0.00000000000E+00  0.00000000000E+00 -0.39898313726E+03  0.39399693762E+04  0.39197156965E+04 0.  0.
        2    1    3    3  502    0 -0.15551312406E+04  0.28999744446E+03 -0.13624100311E+04  0.20877482573E+04  0.25500000920E-02 0. -1.
       -2    1    3    3    0  502  0.15551312406E+04 -0.28999744446E+03  0.96342689384E+03  0.18522211188E+04  0.25500000920E-02 0.  1.
</event>
<event>
 5   0  0.4047916E-07  0.3989343E+04  0.7818609E-02  0.8006700E-01
       -2   -1    0    0    0  501  0.00000000000E+00  0.00000000000E+00  0.16746785577E+04  0.16746785577E+04  0.25500000920E-02 0.  1.
        2   -1    0    0  501    0  0.00000000000E+00  0.00000000000E+00 -0.23758078188E+04  0.23758078188E+04  0.25500000920E-02 0. -1.
    10030    2    1    2    0    0  0.00000000000E+00  0.00000000000E+00 -0.70112926109E+03  0.40504863765E+04  0.39893430093E+04 0.  0.
        5    1    3    3  502    0 -0.19481418115E+04 -0.41731961997E+03 -0.44837457712E+03  0.20421738502E+04  0.46999998093E+01 0. -1.
       -5    1    3    3    0  502  0.19481418115E+04  0.41731961997E+03 -0.25275468397E+03  0.20083125263E+04  0.46999998093E+01 0.  1.
</event>
<event>
 5   0  0.4077370E-07  0.3940197E+04  0.7818609E-02  0.8016721E-01
        2   -1    0    0  501    0  0.00000000000E+00  0.00000000000E+00  0.21037421823E+04  0.21037421823E+04  0.25500000920E-02 0. -1.
       -2   -1    0    0    0  501  0.00000000000E+00  0.00000000000E+00 -0.18449447527E+04  0.18449447527E+04  0.25500000920E-02 0.  1.
    10030    2    1    2    0    0  0.00000000000E+00  0.00000000000E+00  0.25879742962E+03  0.39486869349E+04  0.39401970002E+04 0.  0.
        3    1    3    3  502    0 -0.38825262897E+03 -0.10143972488E+04  0.17765783598E+04  0.20822998249E+04  0.10100000352E+00 0. -1.
       -3    1    3    3    0  502  0.38825262897E+03  0.10143972488E+04 -0.15177809302E+04  0.18663871100E+04  0.10100000352E+00 0.  1.
</event>
<event>
 5   0  0.1421304E-07  0.4153819E+04  0.7818609E-02  0.7974215E-01
       -1   -1    0    0    0  501  0.00000000000E+00  0.00000000000E+00  0.34068051984E+04  0.34068051984E+04  0.50400001928E-02 0. -1.
        1   -1    0    0  501    0  0.00000000000E+00  0.00000000000E+00 -0.12661578012E+04  0.12661578012E+04  0.50400001928E-02 0.  1.
    10030    2    1    2    0    0  0.00000000000E+00  0.00000000000E+00  0.21406473972E+04  0.46729629996E+04  0.41538189557E+04 0.  0.
        2    1    3    3  502    0  0.79866574124E+03 -0.15289199857E+04 -0.23100614815E+03  0.17403525877E+04  0.25500000920E-02 0.  1.
       -2    1    3    3    0  502 -0.79866574124E+03  0.15289199857E+04  0.23716535454E+04  0.29326104119E+04  0.25500000920E-02 0. -1.
</event>
<event>
 5   0  0.4077370E-07  0.4124759E+04  0.7818609E-02  0.7979841E-01
       -2   -1    0    0    0  501  0.00000000000E+00  0.00000000000E+00  0.22014828567E+04  0.22014828567E+04  0.25500000920E-02 0.  1.
        2   -1    0    0  501    0  0.00000000000E+00  0.00000000000E+00 -0.19320658985E+04  0.19320658985E+04  0.25500000920E-02 0. -1.
    10030    2    1    2    0    0  0.00000000000E+00  0.00000000000E+00  0.26941695822E+03  0.41335487552E+04  0.41247593645E+04 0.  0.
        3    1    3    3  502    0 -0.14460696088E+04 -0.74045177221E+02  0.16064460801E+04  0.21626994752E+04  0.10100000352E+00 0.  1.
       -3    1    3    3    0  502  0.14460696088E+04  0.74045177221E+02 -0.13370291219E+04  0.19708492800E+04  0.10100000352E+00 0. -1.
</event>
<event>
 5   0  0.1368865E-07  0.2590460E+04  0.7818609E-02  0.8371449E-01
        1   -1    0    0  501    0  0.00000000000E+00  0.00000000000E+00  0.21350315935E+04  0.21350315935E+04  0.50400001928E-02 0. -1.
       -1   -1    0    0    0  501  0.00000000000E+00  0.00000000000E+00 -0.78575911717E+03  0.78575911719E+03  0.50400001928E-02 0.  1.
    10030    2    1    2    0    0  0.00000000000E+00  0.00000000000E+00  0.13492724763E+04  0.29207907107E+04  0.25904598357E+04 0.  0.
        5    1    3    3  502    0 -0.12510002497E+04  0.24587721835E+03  0.41717362945E+03  0.13414593390E+04  0.46999998093E+01 0.  1.
       -5    1    3    3    0  502  0.12510002497E+04 -0.24587721835E+03  0.93209884686E+03  0.15793313717E+04  0.46999998093E+01 0. -1.
</event>
<event>
 5   0  0.1351000E-07  0.3909677E+04  0.7818609E-02  0.8023020E-01
       -1   -1    0    0    0  501  0.00000000000E+00  0.00000000000E+00  0.22214327801E+04  0.22214327801E+04  0.50400001928E-02 0. -1.
        1   -1    0    0  501    0  0.00000000000E+00  0.00000000000E+00 -0.17202381703E+04  0.17202381703E+04  0.50400001928E-02 0.  1.
    10030    2    1    2    0    0  0.00000000000E+00  0.00000000000E+00  0.50119460979E+03  0.39416709504E+04  0.39096769489E+04 0.  0.
        3    1    3    3  502    0 -0.94691104275E+03  0.16223717099E+04 -0.29481304567E+03  0.19014850065E+04  0.10100000352E+00 0.  1.
       -3    1    3    3    0  502  0.94691104275E+03 -0.16223717099E+04  0.79600765546E+03  0.20401859439E+04  0.10100000352E+00 0. -1.
</event>
<event>
 5   0  0.1351000E-07  0.3814001E+04  0.7818609E-02  0.8043157E-01
       -1   -1    0    0    0  501  0.00000000000E+00  0.00000000000E+00  0.23522649431E+04  0.23522649431E+04  0.50400001928E-02 0. -1.
        1   -1    0    0  501    0  0.00000000000E+00  0.00000000000E+00 -0.15460207779E+04  0.15460207779E+04  0.50400001928E-02 0.  1.
    10030    2    1    2    0    0  0.00000000000E+00  0.00000000000E+00  0.80624416527E+03  0.38982857210E+04  0.38140007746E+04 0.  0.
        4    1    3    3  502    0  0.61230328397E+02 -0.43900124813E+03 -0.14926377755E+04  0.15570614602E+04  0.12699999809E+01 0.  1.
       -4    1    3    3    0  502 -0.61230328397E+02  0.43900124813E+03  0.22988819408E+04  0.23412242608E+04  0.12699999809E+01 0. -1.
</event>
<event>
 5   0  0.4079777E-07  0.3962143E+04  0.7818609E-02  0.8012227E-01
        2   -1    0    0  501    0  0.00000000000E+00  0.00000000000E+00  0.30340513613E+04  0.30340513613E+04  0.25500000920E-02 0.  1.
       -2   -1    0    0    0  501  0.00000000000E+00  0.00000000000E+00 -0.12935323634E+04  0.12935323635E+04  0.25500000920E-02 0. -1.
    10030    2    1    2    0    0  0.00000000000E+00  0.00000000000E+00  0.17405189978E+04  0.43275837247E+04  0.39621426669E+04 0.  0.
        4    1    3    3  502    0 -0.12388035668E+04  0.15331556203E+04  0.65334302628E+03  0.20765498203E+04  0.12699999809E+01 0.  1.
       -4    1    3    3    0  502  0.12388035668E+04 -0.15331556203E+04  0.10871759715E+04  0.22510339045E+04  0.12699999809E+01 0. -1.
</event>
<event>
 5   0  0.1351000E-07  0.4039072E+04  0.7818609E-02  0.7996711E-01
       -1   -1    0    0    0  501  0.00000000000E+00  0.00000000000E+00  0.13715469667E+04  0.13715469667E+04  0.50400001928E-02 0. -1.
        1   -1    0    0  501    0  0.00000000000E+00  0.00000000000E+00 -0.29736681117E+04  0.29736681117E+04  0.50400001928E-02 0.  1.
    10030    2    1    2    0    0  0.00000000000E+00  0.00000000000E+00 -0.16021211450E+04  0.43452150784E+04  0.40390719125E+04 0.  0.
        4    1    3    3  502    0 -0.77200220449E+03  0.13397027356E+04 -0.21986563148E+04  0.26879140662E+04  0.12699999809E+01 0.  1.
       -4    1    3    3    0  502  0.77200220449E+03 -0.13397027356E+04  0.59653516984E+03  0.16573010123E+04  0.12699999809E+01 0. -1.
</event>
<event>
 5   0  0.4047916E-07  0.4054599E+04  0.7818609E-02  0.7993622E-01
       -2   -1    0    0    0  501  0.00000000000E+00  0.00000000000E+00  0.24464434442E+04  0.24464434442E+04  0.25500000920E-02 0. -1.
        2   -1    0    0  501    0  0.00000000000E+00  0.00000000000E+00 -0.16799661853E+04  0.16799661853E+04  0.25500000920E-02 0.  1.
    10030    2    1    2    0    0  0.00000000000E+00  0.00000000000E+00  0.76647725891E+03  0.41264096294E+04  0.40545985056E+04 0.  0.
        5    1    3    3  502    0 -0.40868143873E+03 -0.45845440431E+03 -0.15830041612E+04  0.16979768030E+04  0.46999998093E+01 0.  1.
       -5    1    3    3    0  502  0.40868143873E+03  0.45845440431E+03  0.23494814201E+04  0.24284328264E+04  0.46999998093E+01 0. -1.
</event>
<event>
 5   0  0.1351000E-07  0.3949527E+04  0.7818609E-02  0.8014807E-01
       -1   -1    0    0    0  501  0.00000000000E+00  0.00000000000E+00  0.15240419383E+04  0.15240419383E+04  0.50400001928E-02 0. -1.
        1   -1    0    0  501    0  0.00000000000E+00  0.00000000000E+00 -0.25587814725E+04  0.25587814726E+04  0.50400001928E-02 0.  1.
    10030    2    1    2    0    0  0.00000000000E+00  0.00000000000E+00 -0.10347395342E+04  0.40828234109E+04  0.39495266933E+04 0.  0.
        3    1    3    3  502    0  0.49774684426E+03 -0.19064366709E+04 -0.38086165842E+03  0.20068154659E+04  0.10100000352E+00 0.  1.
       -3    1    3    3    0  502 -0.49774684426E+03  0.19064366709E+04 -0.65387787580E+03  0.20760079450E+04  0.10100000352E+00 0. -1.
</event>
<event>
 5   0  0.4149487E-07  0.4600180E+04  0.7818609E-02  0.7893329E-01
       -2   -1    0    0    0  501  0.00000000000E+00  0.00000000000E+00  0.25273534969E+04  0.25273534969E+04  0.25500000920E-02 0. -1.
        2   -1    0    0  501    0  0.00000000000E+00  0.00000000000E+00 -0.20932620854E+04  0.20932620854E+04  0.25500000920E-02 0.  1.
    10030    2    1    2    0    0  0.00000000000E+00  0.00000000000E+00  0.43409141148E+03  0.46206155822E+04  0.46001796710E+04 0.  0.
        2    1    3    3  502    0 -0.15278088947E+04  0.17131532220E+04  0.36370554894E+03  0.23240859939E+04  0.25500000920E-02 0. -1.
       -2    1    3    3    0  502  0.15278088947E+04 -0.17131532220E+04  0.70385862542E+02  0.22965295884E+04  0.25500000920E-02 0.  1.
</event>
<event>
 5   0  0.4079777E-07  0.2478067E+04  0.7818609E-02  0.8410841E-01
       -2   -1    0    0    0  501  0.00000000000E+00  0.00000000000E+00  0.90954450618E+03  0.90954450618E+03  0.25500000920E-02 0.  1.
        2   -1    0    0  501    0  0.00000000000E+00  0.00000000000E+00 -0.16878828754E+04  0.16878828754E+04  0.25500000920E-02 0. -1.
    10030    2    1    2    0    0  0.00000000000E+00  0.00000000000E+00 -0.77833836926E+03  0.25974273816E+04  0.24780674700E+04 0.  0.
        4    1    3    3  502    0 -0.11156768150E+03 -0.11293772495E+04 -0.91037536885E+03  0.14548969875E+04  0.12699999809E+01 0.  1.
       -4    1    3    3    0  502  0.11156768150E+03  0.11293772495E+04  0.13203699959E+03  0.11425303941E+04  0.12699999809E+01 0. -1.
</event>
<event>
 5   0  0.4149487E-07  0.4020811E+04  0.7818609E-02  0.8000361E-01
       -2   -1    0    0    0  501  0.00000000000E+00  0.00000000000E+00  0.20357625524E+04  0.20357625524E+04  0.25500000920E-02 0. -1.
        2   -1    0    0  501    0  0.00000000000E+00  0.00000000000E+00 -0.19853639648E+04  0.19853639648E+04  0.25500000920E-02 0.  1.
    10030    2    1    2    0    0  0.00000000000E+00  0.00000000000E+00  0.50398587676E+02  0.40211265172E+04  0.40208106707E+04 0.  0.
        2    1    3    3  502    0  0.39687410947E+03 -0.15174284968E+03 -0.19399473423E+04  0.19859331917E+04  0.25500000920E-02 0.  1.
       -2    1    3    3    0  502 -0.39687410947E+03  0.15174284968E+03  0.19903459299E+04  0.20351933255E+04  0.25500000920E-02 0. -1.
</event>
<event>
 5   0  0.1351000E-07  0.4095529E+04  0.7818609E-02  0.7985548E-01
       -1   -1    0    0    0  501  0.00000000000E+00  0.00000000000E+00  0.25768300404E+04  0.25768300404E+04  0.50400001928E-02 0. -1.
        1   -1    0    0  501    0  0.00000000000E+00  0.00000000000E+00 -0.16273246423E+04  0.16273246423E+04  0.50400001928E-02 0.  1.
    10030    2    1    2    0    0  0.00000000000E+00  0.00000000000E+00  0.94950539810E+03  0.42041546828E+04  0.40955287932E+04 0.  0.
        4    1    3    3  502    0  0.15375971792E+04 -0.17790037337E+03 -0.90150953761E+03  0.17912494767E+04  0.12699999809E+01 0.  1.
       -4    1    3    3    0  502 -0.15375971792E+04  0.17790037337E+03  0.18510149357E+04  0.24129052061E+04  0.12699999809E+01 0. -1.
</event>
<event>
 5   0  0.4047916E-07  0.3819572E+04  0.7818609E-02  0.8041968E-01
        2   -1    0    0  501    0  0.00000000000E+00  0.00000000000E+00  0.22231251912E+04  0.22231251912E+04  0.25500000920E-02 0. -1.
       -2   -1    0    0    0  501  0.00000000000E+00  0.00000000000E+00 -0.16406104537E+04  0.16406104537E+04  0.25500000920E-02 0.  1.
    10030    2    1    2    0    0  0.00000000000E+00  0.00000000000E+00  0.58251473756E+03  0.38637356449E+04  0.38195719281E+04 0.  0.
        5    1    3    3  502    0  0.18348903585E+04 -0.49938588682E+03  0.46950904925E+03  0.19587418740E+04  0.46999998093E+01 0. -1.
       -5    1    3    3    0  502 -0.18348903585E+04  0.49938588682E+03  0.11300568832E+03  0.19049937709E+04  0.46999998093E+01 0.  1.
</event>
<event>
 5   0  0.1421304E-07  0.3808273E+04  0.7818609E-02  0.8044382E-01
        1   -1    0    0  501    0  0.00000000000E+00  0.00000000000E+00  0.12163935876E+04  0.12163935876E+04  0.50400001928E-02 0.  1.
       -1   -1    0    0    0  501  0.00000000000E+00  0.00000000000E+00 -0.29807258886E+04  0.29807258886E+04  0.50400001928E-02 0. -1.
    10030    2    1    2    0    0  0.00000000000E+00  0.00000000000E+00 -0.17643323010E+04  0.41971194762E+04  0.38082730244E+04 0.  0.
        2    1    3    3  502    0  0.68305752704E+03 -0.50364860336E+03 -0.27607655128E+04  0.28882617121E+04  0.25500000920E-02 0. -1.
       -2    1    3    3    0  502 -0.68305752704E+03  0.50364860336E+03  0.99643321179E+03  0.13088577640E+04  0.25500000920E-02 0.  1.
</event>
<event>
 5   0  0.1372952E-07  0.3853874E+04  0.7818609E-02  0.8034692E-01
       -1   -1    0    0    0  501  0.00000000000E+00  0.00000000000E+00  0.17108715410E+04  0.17108715410E+04  0.50400001928E-02 0. -1.
        1   -1    0    0  501    0  0.00000000000E+00  0.00000000000E+00 -0.21702891223E+04  0.21702891223E+04  0.50400001928E-02 0.  1.
    10030    2    1    2    0    0  0.00000000000E+00  0.00000000000E+00 -0.45941758124E+03  0.38811606633E+04  0.38538738408E+04 0.  0.
        1    1    3    3  502    0  0.66443218917E+03 -0.15198883547E+04  0.75782332131E+03  0.18236849868E+04  0.50400001928E-02 0. -1.
       -1    1    3    3    0  502 -0.66443218917E+03  0.15198883547E+04 -0.12172409026E+04  0.20574756765E+04  0.50400001928E-02 0.  1.
</event>
<event>
 5   0  0.1368865E-07  0.3996648E+04  0.7818609E-02  0.8005223E-01
        1   -1    0    0  501    0  0.00000000000E+00  0.00000000000E+00  0.23172833502E+04  0.23172833502E+04  0.50400001928E-02 0. -1.
       -1   -1    0    0    0  501  0.00000000000E+00  0.00000000000E+00 -0.17232671858E+04  0.17232671858E+04  0.50400001928E-02 0.  1.
    10030    2    1    2    0    0  0.00000000000E+00  0.00000000000E+00  0.59401616441E+03  0.40405505361E+04  0.39966477742E+04 0.  0.
        5    1    3    3  502    0 -0.16389203948E+04  0.11432143876E+04  0.31383638585E+03  0.20227492587E+04  0.46999998093E+01 0.  1.
       -5    1    3    3    0  502  0.16389203948E+04 -0.11432143876E+04  0.28017977856E+03  0.20178012774E+04  0.46999998093E+01 0. -1.
</event>
<event>
 5   0  0.1351000E-07  0.2667202E+04  0.7818609E-02  0.8345726E-01
        1   -1    0    0  501    0  0.00000000000E+00  0.00000000000E+00  0.21836439803E+04  0.21836439803E+04  0.50400001928E-02 0. -1.
       -1   -1    0    0    0  501  0.00000000000E+00  0.00000000000E+00 -0.81446057688E+03  0.81446057690E+03  0.50400001928E-02 0.  1.
    10030    2    1    2    0    0  0.00000000000E+00  0.00000000000E+00  0.13691834034E+04  0.29981045572E+04  0.26672022315E+04 0.  0.
        4    1    3    3  502    0  0.47593591205E+02 -0.13084666932E+04  0.39991259299E+03  0.13690441673E+04  0.12699999809E+01 0.  1.
       -4    1    3    3    0  502 -0.47593591205E+02  0.13084666932E+04  0.96927081045E+03  0.16290603899E+04  0.12699999809E+01 0. -1.
</event>
<event>
 5   0  0.4301754E-07  0.2718561E+04  0.7818609E-02  0.8329008E-01
       -2   -1    0    0    0  501  0.00000000000E+00  0.00000000000E+00  0.12006634196E+04  0.12006634196E+04  0.25500000920E-02 0. -1.
        2   -1    0    0  501    0  0.00000000000E+00  0.00000000000E+00 -0.15388517484E+04  0.15388517484E+04  0.25500000920E-02 0.  1.
    10030    2    1    2    0    0  0.00000000000E+00  0.00000000000E+00 -0.33818832882E+03  0.27395151680E+04  0.27185606504E+04 0.  0.
        1    1    3    3  502    0 -0.11972968413E+04 -0.86608519360E+02  0.47349033837E+03  0.12904316574E+04  0.50400001928E-02 0. -1.
       -1    1    3    3    0  502  0.11972968413E+04  0.86608519360E+02 -0.81167866719E+03  0.14490835106E+04  0.50400001928E-02 0.  1.
</event>
<event>
 5   0  0.1372952E-07  0.3952193E+04  0.7818609E-02  0.8014261E-01
        1   -1    0    0  501    0  0.00000000000E+00  0.00000000000E+00  0.18135761918E+04  0.18135761918E+04  0.50400001928E-02 0.  1.
       -1   -1    0    0    0  501  0.00000000000E+00  0.00000000000E+00 -0.21531805961E+04  0.21531805961E+04  0.50400001928E-02 0. -1.
    10030    2    1    2    0    0  0.00000000000E+00  0.00000000000E+00 -0.33960440427E+03  0.39667567879E+04  0.39521928424E+04 0.  0.
        1    1    3    3  502    0 -0.13841561823E+04  0.80359504841E+02  0.12434387400E+04  0.18623871475E+04  0.50400001928E-02 0.  1.
       -1    1    3    3    0  502  0.13841561823E+04 -0.80359504841E+02 -0.15830431443E+04  0.21043696404E+04  0.50400001928E-02 0. -1.
</event>
<event>
 5   0  0.4077370E-07  0.4005581E+04  0.7818609E-02  0.8003422E-01
       -2   -1    0    0    0  501  0.00000000000E+00  0.00000000000E+00  0.12831870578E+04  0.12831870578E+04  0.25500000920E-02 0. -1.
        2   -1    0    0  501    0  0.00000000000E+00  0.00000000000E+00 -0.31259437557E+04  0.31259437557E+04  0.25500000920E-02 0.  1.
    10030    2    1    2    0    0  0.00000000000E+00  0.00000000000E+00 -0.18427566979E+04  0.44091308134E+04  0.40055813913E+04 0.  0.
        3    1    3    3  502    0 -0.16498487886E+03 -0.17594132916E+04 -0.19588959356E+04  0.26381865813E+04  0.10100000352E+00 0.  1.
       -3    1    3    3    0  502  0.16498487886E+03  0.17594132916E+04  0.11613923770E+03  0.17709442322E+04  0.10100000352E+00 0. -1.
</event>
<event>
 5   0  0.4301754E-07  0.3943422E+04  0.7818609E-02  0.8016058E-01
        2   -1    0    0  501    0  0.00000000000E+00  0.00000000000E+00  0.19204708729E+04  0.19204708729E+04  0.25500000920E-02 0. -1.
       -2   -1    0    0    0  501  0.00000000000E+00  0.00000000000E+00 -0.20243181040E+04  0.20243181040E+04  0.25500000920E-02 0.  1.
    10030    2    1    2    0    0  0.00000000000E+00  0.00000000000E+00 -0.10384723103E+03  0.39447889769E+04  0.39434218421E+04 0.  0.
        1    1    3    3  502    0  0.58472048705E+03  0.15679116385E+03 -0.19290502356E+04  0.20218101614E+04  0.50400001928E-02 0.  1.
       -1    1    3    3    0  502 -0.58472048705E+03 -0.15679116385E+03  0.18252030046E+04  0.19229788156E+04  0.50400001928E-02 0. -1.
</event>
<event>
 5   0  0.4301754E-07  0.2721298E+04  0.7818609E-02  0.8328128E-01
        2   -1    0    0  501    0  0.00000000000E+00  0.00000000000E+00  0.17847291143E+04  0.17847291143E+04  0.25500000920E-02 0. -1.
       -2   -1    0    0    0  501  0.00000000000E+00  0.00000000000E+00 -0.10373368429E+04  0.10373368429E+04  0.25500000920E-02 0.  1.
    10030    2    1    2    0    0  0.00000000000E+00  0.00000000000E+00  0.74739227140E+03  0.28220659573E+04  0.27212976794E+04 0.  0.
        1    1    3    3  502    0  0.13741272978E+03  0.70107322611E+03 -0.82719088706E+03  0.10929916241E+04  0.50400001928E-02 0.  1.
       -1    1    3    3    0  502 -0.13741272978E+03 -0.70107322611E+03  0.15745831585E+04  0.17290743332E+04  0.50400001928E-02 0. -1.
</event>
<event>
 5   0  0.4047916E-07  0.3338954E+04  0.7818609E-02  0.8153054E-01
       -2   -1    0    0    0  501  0.00000000000E+00  0.00000000000E+00  0.33747024231E+04  0.33747024231E+04  0.25500000920E-02 0. -1.
        2   -1    0    0  501    0  0.00000000000E+00  0.00000000000E+00 -0.82589627465E+03  0.82589627465E+03  0.25500000920E-02 0.  1.
    10030    2    1    2    0    0  0.00000000000E+00  0.00000000000E+00  0.25488061485E+04  0.42005986978E+04  0.33389544228E+04 0.  0.
        5    1    3    3  502    0 -0.70397092283E+03 -0.68304984881E+03 -0.42513980621E+03  0.10690641239E+04  0.46999998093E+01 0.  1.
       -5    1    3    3    0  502  0.70397092283E+03  0.68304984881E+03  0.29739459547E+04  0.31315345739E+04  0.46999998093E+01 0. -1.
</event>
<event>
 5   0  0.1368865E-07  0.4005142E+04  0.7818609E-02  0.8003510E-01
        1   -1    0    0  501    0  0.00000000000E+00  0.00000000000E+00  0.24735064988E+04  0.24735064988E+04  0.50400001928E-02 0. -1.
       -1   -1    0    0    0  501  0.00000000000E+00  0.00000000000E+00 -0.16212979046E+04  0.16212979046E+04  0.50400001928E-02 0.  1.
    10030    2    1    2    0    0  0.00000000000E+00  0.00000000000E+00  0.85220859422E+03  0.40948044034E+04  0.40051421466E+04 0.  0.
        5    1    3    3  502    0  0.12942001653E+04  0.14776311561E+04  0.82460033439E+03  0.21303369928E+04  0.46999998093E+01 0.  1.
       -5    1    3    3    0  502 -0.12942001653E+04 -0.14776311561E+04  0.27608259830E+02  0.19644674106E+04  0.46999998093E+01 0. -1.
</event>
<event>
 5   0  0.4077370E-07  0.3964383E+04  0.7818609E-02  0.8011770E-01
        2   -1    0    0  501    0  0.00000000000E+00  0.00000000000E+00  0.18644103907E+04  0.18644103907E+04  0.25500000920E-02 0. -1.
       -2   -1    0    0    0  501  0.00000000000E+00  0.00000000000E+00 -0.21074136532E+04  0.21074136532E+04  0.25500000920E-02 0.  1.
    10030    2    1    2    0    0  0.00000000000E+00  0.00000000000E+00 -0.24300326247E+03  0.39718240439E+04  0.39643833884E+04 0.  0.
        3    1    3    3  502    0  0.13916581550E+04  0.13199889418E+04  0.37943748336E+03  0.19552636755E+04  0.10100000352E+00 0. -1.
       -3    1    3    3    0  502 -0.13916581550E+04 -0.13199889418E+04 -0.62244074583E+03  0.20165603683E+04  0.10100000352E+00 0.  1.
</event>
<event>
 5   0  0.1421304E-07  0.2954268E+04  0.7818609E-02  0.8256912E-01
        1   -1    0    0  501    0  0.00000000000E+00  0.00000000000E+00  0.13127358750E+04  0.13127358750E+04  0.50400001928E-02 0. -1.
       -1   -1    0    0    0  501  0.00000000000E+00  0.00000000000E+00 -0.16621200633E+04  0.16621200633E+04  0.50400001928E-02 0.  1.
    10030    2    1    2    0    0  0.00000000000E+00  0.00000000000E+00 -0.34938418829E+03  0.29748559383E+04  0.29542678522E+04 0.  0.
        2    1    3    3  502    0 -0.35546554316E+03 -0.75657936622E+03  0.10516441588E+04  0.13433999876E+04  0.25500000920E-02 0. -1.
       -2    1    3    3    0  502  0.35546554316E+03  0.75657936622E+03 -0.14010283471E+04  0.16314559507E+04  0.25500000920E-02 0.  1.
</event>
<event>
 5   0  0.1372952E-07  0.2626795E+04  0.7818609E-02  0.8359156E-01
        1   -1    0    0  501    0  0.00000000000E+00  0.00000000000E+00  0.10703090808E+04  0.10703090808E+04  0.50400001928E-02 0.  1.
       -1   -1    0    0    0  501  0.00000000000E+00  0.00000000000E+00 -0.16116963105E+04  0.16116963105E+04  0.50400001928E-02 0. -1.
    10030    2    1    2    0    0  0.00000000000E+00  0.00000000000E+00 -0.54138722976E+03  0.26820053913E+04  0.26267951550E+04 0.  0.
        1    1    3    3  502    0 -0.10202601443E+04  0.66077252283E+03  0.23721758991E+03  0.12384761903E+04  0.50400001928E-02 0.  1.
       -1    1    3    3    0  502  0.10202601443E+04 -0.66077252283E+03 -0.77860481966E+03  0.14435292010E+04  0.50400001928E-02 0. -1.
</event>
<event>
 5   0  0.1351000E-07  0.3780839E+04  0.7818609E-02  0.8050279E-01
       -1   -1    0    0    0  501  0.00000000000E+00  0.00000000000E+00  0.15445646457E+04  0.15445646457E+04  0.50400001928E-02 0.  1.
        1   -1    0    0  501    0  0.00000000000E+00  0.00000000000E+00 -0.23137172835E+04  0.23137172835E+04  0.50400001928E-02 0. -1.
    10030    2    1    2    0    0  0.00000000000E+00  0.00000000000E+00 -0.76915263780E+03  0.38582819292E+04  0.37808390160E+04 0.  0.
        3    1    3    3  502    0 -0.14705996917E+04 -0.58244117250E+03  0.67189948802E+03  0.17185313802E+04  0.10100000352E+00 0.  1.
       -3    1    3    3    0  502  0.14705996917E+04  0.58244117250E+03 -0.14410521258E+04  0.21397505490E+04  0.10100000352E+00 0. -1.
</event>
<event>
 5   0  0.1351000E-07  0.2599630E+04  0.7818609E-02  0.8368327E-01
        1   -1    0    0  501    0  0.00000000000E+00  0.00000000000E+00  0.14707269417E+04  0.14707269417E+04  0.50400001928E-02 0.  1.
       -1   -1    0    0    0  501  0.00000000000E+00  0.00000000000E+00 -0.11487643537E+04  0.11487643538E+04  0.50400001928E-02 0. -1.
    10030    2    1    2    0    0  0.00000000000E+00  0.00000000000E+00  0.32196258799E+03  0.26194912955E+04  0.25996297312E+04 0.  0.
        3    1    3    3  502    0  0.60892744053E+03 -0.91359238865E+03  0.86205194869E+03  0.13959144862E+04  0.10100000352E+00 0.  1.
       -3    1    3    3    0  502 -0.60892744053E+03  0.91359238865E+03 -0.54008936070E+03  0.12235768093E+04  0.10100000352E+00 0. -1.
</event>
<event>
 5   0  0.4149487E-07  0.3207898E+04  0.7818609E-02  0.8186734E-01
        2   -1    0    0  501    0  0.00000000000E+00  0.00000000000E+00  0.18639768600E+04  0.18639768600E+04  0.25500000920E-02 0.  1.
       -2   -1    0    0    0  501  0.00000000000E+00  0.00000000000E+00 -0.13801953972E+04  0.13801953972E+04  0.25500000920E-02 0. -1.
    10030    2    1    2    0    0  0.00000000000E+00  0.00000000000E+00  0.48378146286E+03  0.32441722572E+04  0.32078979302E+04 0.  0.
        2    1    3    3  502    0 -0.95796332560E+03  0.12474300722E+04 -0.76111734549E+02  0.15746645720E+04  0.25500000920E-02 0. -1.
       -2    1    3    3    0  502  0.95796332560E+03 -0.12474300722E+04  0.55989319741E+03  0.16695076851E+04  0.25500000920E-02 0.  1.
</event>
<event>
 5   0  0.1368865E-07  0.4013481E+04  0.7818609E-02  0.8001833E-01
        1   -1    0    0  501    0  0.00000000000E+00  0.00000000000E+00  0.15539079100E+04  0.15539079100E+04  0.50400001928E-02 0.  1.
       -1   -1    0    0    0  501  0.00000000000E+00  0.00000000000E+00 -0.25915354962E+04  0.25915354962E+04  0.50400001928E-02 0. -1.
    10030    2    1    2    0    0  0.00000000000E+00  0.00000000000E+00 -0.10376275862E+04  0.41454434063E+04  0.40134810361E+04 0.  0.
        5    1    3    3  502    0 -0.24917560641E+03 -0.24615213857E+03 -0.25597136847E+04  0.25835703195E+04  0.46999998093E+01 0. -1.
       -5    1    3    3    0  502  0.24917560641E+03  0.24615213857E+03  0.15220860985E+04  0.15618730868E+04  0.46999998093E+01 0.  1.
</event>
<event>
 5   0  0.4047916E-07  0.4037628E+04  0.7818609E-02  0.7996999E-01
        2   -1    0    0  501    0  0.00000000000E+00  0.00000000000E+00  0.21500240141E+04  0.21500240141E+04  0.25500000920E-02 0. -1.
       -2   -1    0    0    0  501  0.00000000000E+00  0.00000000000E+00 -0.18956110880E+04  0.18956110880E+04  0.25500000920E-02 0.  1.
    10030    2    1    2    0    0  0.00000000000E+00  0.00000000000E+00  0.25441292615E+03  0.40456351021E+04  0.40376276998E+04 0.  0.
        5    1    3    3  502    0  0.59232450550E+03 -0.13351860365E+04  0.15235329412E+04  0.21106266332E+04  0.46999998093E+01 0. -1.
       -5    1    3    3    0  502 -0.59232450550E+03  0.13351860365E+04 -0.12691200151E+04  0.19350084688E+04  0.46999998093E+01 0.  1.
</event>
<event>
 5   0  0.1421304E-07  0.3953890E+04  0.7818609E-02  0.8013914E-01
       -1   -1    0    0    0  501  0.00000000000E+00  0.00000000000E+00  0.19061678072E+04  0.19061678072E+04  0.50400001928E-02 0.  1.
        1   -1    0    0  501    0  0.00000000000E+00  0.00000000000E+00 -0.20503502536E+04  0.20503502536E+04  0.50400001928E-02 0. -1.
    10030    2    1    2    0    0  0.00000000000E+00  0.00000000000E+00 -0.14418244643E+03  0.39565180608E+04  0.39538900576E+04 0.  0.
        2    1    3    3  502    0  0.13625324791E+04  0.13066100466E+04 -0.65949678747E+03  0.19996651178E+04  0.25500000920E-02 0.  1.
       -2    1    3    3    0  502 -0.13625324791E+04 -0.13066100466E+04  0.51531434104E+03  0.19568529430E+04  0.25500000920E-02 0. -1.
</event>
<event>
 5   0  0.4047916E-07  0.3932699E+04  0.7818609E-02  0.8018263E-01
        2   -1    0    0  501    0  0.00000000000E+00  0.00000000000E+00  0.16840184217E+04  0.16840184217E+04  0.25500000920E-02 0. -1.
       -2   -1    0    0    0  501  0.00000000000E+00  0.00000000000E+00 -0.22960143369E+04  0.22960143369E+04  0.25500000920E-02 0.  1.
    10030    2    1    2    0    0  0.00000000000E+00  0.00000000000E+00 -0.61199591516E+03  0.39800327586E+04  0.39326990426E+04 0.  0.
        5    1    3    3  502    0  0.11252021585E+04  0.10398869201E+04 -0.15533352858E+04  0.21818151398E+04  0.46999998093E+01 0. -1.
       -5    1    3    3    0  502 -0.11252021585E+04 -0.10398869201E+04  0.94133937064E+03  0.17982176188E+04  0.46999998093E+01 0.  1.
</event>
<event>
 5   0  0.1372952E-07  0.3947981E+04  0.7818609E-02  0.8015123E-01
       -1   -1    0    0    0  501  0.00000000000E+00  0.00000000000E+00  0.18783392784E+04  0.18783392784E+04  0.50400001928E-02 0. -1.
        1   -1    0    0  501    0  0.00000000000E+00  0.00000000000E+00 -0.20745122853E+04  0.20745122853E+04  0.50400001928E-02 0.  1.
    10030    2    1    2    0    0  0.00000000000E+00  0.00000000000E+00 -0.19617300690E+03  0.39528515637E+04  0.39479807036E+04 0.  0.
        1    1    3    3  502    0  0.16306100474E+04  0.98444477917E+03  0.42083592466E+03  0.19506725828E+04  0.50400001928E-02 0. -1.
       -1    1    3    3    0  502 -0.16306100474E+04 -0.98444477917E+03 -0.61700893156E+03  0.20021789809E+04  0.50400001928E-02 0.  1.
</event>
<event>
 5   0  0.1421304E-07  0.3956841E+04  0.7818609E-02  0.8013310E-01
       -1   -1    0    0    0  501  0.00000000000E+00  0.00000000000E+00  0.17163668649E+04  0.17163668649E+04  0.50400001928E-02 0. -1.
        1   -1    0    0  501    0  0.00000000000E+00  0.00000000000E+00 -0.22804839741E+04  0.22804839741E+04  0.50400001928E-02 0.  1.
    10030    2    1    2    0    0  0.00000000000E+00  0.00000000000E+00 -0.56411710917E+03  0.39968508390E+04  0.39568407241E+04 0.  0.
        2    1    3    3  502    0  0.17973794374E+04 -0.51118352961E+03  0.37433191657E+03  0.19057822086E+04  0.25500000920E-02 0. -1.
       -2    1    3    3    0  502 -0.17973794374E+04  0.51118352961E+03 -0.93844902574E+03  0.20910686303E+04  0.25500000920E-02 0.  1.
</event>
<event>
 5   0  0.4301754E-07  0.4032057E+04  0.7818609E-02  0.7998111E-01
        2   -1    0    0  501    0  0.00000000000E+00  0.00000000000E+00  0.19794403816E+04  0.19794403816E+04  0.25500000920E-02 0. -1.
       -2   -1    0    0    0  501  0.00000000000E+00  0.00000000000E+00 -0.20532925439E+04  0.20532925439E+04  0.25500000920E-02 0.  1.
    10030    2    1    2    0    0  0.00000000000E+00  0.00000000000E+00 -0.73852162365E+02  0.40327329255E+04  0.40320566348E+04 0.  0.
        1    1    3    3  502    0  0.37966235567E+03 -0.14040774271E+04  0.13592999184E+04  0.19907971252E+04  0.50400001928E-02 0. -1.
       -1    1    3    3    0  502 -0.37966235567E+03  0.14040774271E+04 -0.14331520808E+04  0.20419358002E+04  0.50400001928E-02 0.  1.
</event>
<event>
 5   0  0.4996268E-07  0.2477003E+04  0.7818609E-02  0.8411225E-01
        2   -1    0    0  501    0  0.00000000000E+00  0.00000000000E+00  0.22450620981E+04  0.22450620981E+04  0.25500000920E-02 0. -1.
       -2   -1    0    0    0  501  0.00000000000E+00  0.00000000000E+00 -0.68322630135E+03  0.68322630135E+03  0.25500000920E-02 0.  1.
    10030    2    1    2    0    0  0.00000000000E+00  0.00000000000E+00  0.15618357967E+04  0.29282883994E+04  0.24770026028E+04 0.  0.
        1    1    3    3  502    0  0.18505750563E+02 -0.49762288837E+03  0.21215000287E+04  0.21791588683E+04  0.50400001928E-02 0. -1.
       -1    1    3    3    0  502 -0.18505750563E+02  0.49762288837E+03 -0.55966423193E+03  0.74912953109E+03  0.50400001928E-02 0.  1.
</event>
<event>
 5   0  0.1351000E-07  0.3860975E+04  0.7818609E-02  0.8033195E-01
       -3   -1    0    0    0  501  0.00000000000E+00  0.00000000000E+00  0.26322715540E+04  0.26322715560E+04  0.10100000352E+00 0.  1.
        3   -1    0    0  501    0  0.00000000000E+00  0.00000000000E+00 -0.14158043177E+04  0.14158043213E+04  0.10100000352E+00 0. -1.
    10030    2    1    2    0    0  0.00000000000E+00  0.00000000000E+00  0.12164672363E+04  0.40480758773E+04  0.38609747177E+04 0.  0.
        5    1    3    3  502    0  0.34273886523E+03  0.11537458503E+02 -0.13836067610E+04  0.14254798496E+04  0.46999998093E+01 0. -1.
       -5    1    3    3    0  502 -0.34273886523E+03 -0.11537458503E+02  0.26000739973E+04  0.26225960276E+04  0.46999998093E+01 0.  1.
</event>
<event>
 5   0  0.1351000E-07  0.4110112E+04  0.7818609E-02  0.7982695E-01
       -1   -1    0    0    0  501  0.00000000000E+00  0.00000000000E+00  0.14295921758E+04  0.14295921758E+04  0.50400001928E-02 0.  1.
        1   -1    0    0  501    0  0.00000000000E+00  0.00000000000E+00 -0.29541678623E+04  0.29541678623E+04  0.50400001928E-02 0. -1.
    10030    2    1    2    0    0  0.00000000000E+00  0.00000000000E+00 -0.15245756864E+04  0.43837600381E+04  0.41101120481E+04 0.  0.
        4    1    3    3  502    0 -0.35776034188E+03  0.12593271522E+04  0.92727471984E+03  0.16042871805E+04  0.12699999809E+01 0.  1.
       -4    1    3    3    0  502  0.35776034188E+03 -0.12593271522E+04 -0.24518504063E+04  0.27794728576E+04  0.12699999809E+01 0. -1.
</event>
<event>
 5   0  0.4047916E-07  0.3980966E+04  0.7818609E-02  0.8008397E-01
        2   -1    0    0  501    0  0.00000000000E+00  0.00000000000E+00  0.22271060704E+04  0.22271060704E+04  0.25500000920E-02 0.  1.
       -2   -1    0    0    0  501  0.00000000000E+00  0.00000000000E+00 -0.17790006379E+04  0.17790006379E+04  0.25500000920E-02 0. -1.
    10030    2    1    2    0    0  0.00000000000E+00  0.00000000000E+00  0.44810543254E+03  0.40061067082E+04  0.39809662746E+04 0.  0.
        5    1    3    3  502    0 -0.18780047497E+04 -0.25329192789E+03  0.83694936577E+03  0.20716092709E+04  0.46999998093E+01 0. -1.
       -5    1    3    3    0  502  0.18780047497E+04  0.25329192789E+03 -0.38884393323E+03  0.19344974373E+04  0.46999998093E+01 0.  1.
</event>
<event>
 5   0  0.1368865E-07  0.3553041E+04  0.7818609E-02  0.8101334E-01
       -1   -1    0    0    0  501  0.00000000000E+00  0.00000000000E+00  0.14884233255E+04  0.14884233256E+04  0.50400001928E-02 0.  1.
        1   -1    0    0  501    0  0.00000000000E+00  0.00000000000E+00 -0.21203814137E+04  0.21203814137E+04  0.50400001928E-02 0. -1.
    10030    2    1    2    0    0  0.00000000000E+00  0.00000000000E+00 -0.63195808815E+03  0.36088047393E+04  0.35530410385E+04 0.  0.
        5    1    3    3  502    0 -0.10040295685E+04 -0.11459804927E+04 -0.12439129097E+04  0.19668980861E+04  0.46999998093E+01 0. -1.
       -5    1    3    3    0  502  0.10040295685E+04  0.11459804927E+04  0.61195482151E+03  0.16419066532E+04  0.46999998093E+01 0.  1.
</event>
<event>
 5   0  0.1421304E-07  0.3982471E+04  0.7818609E-02  0.8008092E-01
       -1   -1    0    0    0  501  0.00000000000E+00  0.00000000000E+00  0.15926885101E+04  0.15926885101E+04  0.50400001928E-02 0.  1.
        1   -1    0    0  501    0  0.00000000000E+00  0.00000000000E+00 -0.24895135407E+04  0.24895135407E+04  0.50400001928E-02 0. -1.
    10030    2    1    2    0    0  0.00000000000E+00  0.00000000000E+00 -0.89682503055E+03  0.40822020508E+04  0.39824713995E+04 0.  0.
        2    1    3    3  502    0  0.81716398862E+03 -0.94235128035E+03  0.11426291959E+04  0.16915627092E+04  0.25500000920E-02 0.  1.
       -2    1    3    3    0  502 -0.81716398862E+03  0.94235128035E+03 -0.20394542264E+04  0.23906393416E+04  0.25500000920E-02 0. -1.
</event>
<event>
 5   0  0.4047916E-07  0.2672896E+04  0.7818609E-02  0.8343853E-01
       -2   -1    0    0    0  501  0.00000000000E+00  0.00000000000E+00  0.10578044825E+04  0.10578044825E+04  0.25500000920E-02 0.  1.
        2   -1    0    0  501    0  0.00000000000E+00  0.00000000000E+00 -0.16884909187E+04  0.16884909188E+04  0.25500000920E-02 0. -1.
    10030    2    1    2    0    0  0.00000000000E+00  0.00000000000E+00 -0.63068643627E+03  0.27462954012E+04  0.26728960043E+04 0.  0.
        5    1    3    3  502    0  0.16098993107E+03  0.26198744143E+03 -0.16516409840E+04  0.16800283353E+04  0.46999998093E+01 0. -1.
       -5    1    3    3    0  502 -0.16098993107E+03 -0.26198744143E+03  0.10209545477E+04  0.10662670659E+04  0.46999998093E+01 0.  1.
</event>
<event>
 5   0  0.4301754E-07  0.4292540E+04  0.7818609E-02  0.7947999E-01
       -2   -1    0    0    0  501  0.00000000000E+00  0.00000000000E+00  0.16612755430E+04  0.16612755430E+04  0.25500000920E-02 0.  1.
        2   -1    0    0  501    0  0.00000000000E+00  0.00000000000E+00 -0.27728543403E+04  0.27728543403E+04  0.25500000920E-02 0. -1.
    10030    2    1    2    0    0  0.00000000000E+00  0.00000000000E+00 -0.11115787973E+04  0.44341298833E+04  0.42925400871E+04 0.  0.
        1    1    3    3  502    0  0.13397908676E+03 -0.27907372644E+03  0.16380925623E+04  0.16670872153E+04  0.50400001928E-02 0.  1.
       -1    1    3    3    0  502 -0.13397908676E+03  0.27907372644E+03 -0.27496713597E+04  0.27670426681E+04  0.50400001928E-02 0. -1.
</event>
<event>
 5   0  0.1421304E-07  0.3553659E+04  0.7818609E-02  0.8101190E-01
        1   -1    0    0  501    0  0.00000000000E+00  0.00000000000E+00  0.22450980816E+04  0.22450980816E+04  0.50400001928E-02 0. -1.
       -1   -1    0    0    0  501  0.00000000000E+00  0.00000000000E+00 -0.14062294724E+04  0.14062294724E+04  0.50400001928E-02 0.  1.
    10030    2    1    2    0    0  0.00000000000E+00  0.00000000000E+00  0.83886860918E+03  0.36513275540E+04  0.35536590105E+04 0.  0.
        2    1    3    3  502    0 -0.17389116838E+04  0.32755232597E+03  0.58517074581E+03  0.18637406397E+04  0.25500000920E-02 0.  1.
       -2    1    3    3    0  502  0.17389116838E+04 -0.32755232597E+03  0.25369786336E+03  0.17875869143E+04  0.25500000920E-02 0. -1.
</event>
<event>
 5   0  0.1368865E-07  0.4032449E+04  0.7818609E-02  0.7998032E-01
       -1   -1    0    0    0  501  0.00000000000E+00  0.00000000000E+00  0.29158260171E+04  0.29158260171E+04  0.50400001928E-02 0.  1.
        1   -1    0    0  501    0  0.00000000000E+00  0.00000000000E+00 -0.13941716709E+04  0.13941716709E+04  0.50400001928E-02 0. -1.
    10030    2    1    2    0    0  0.00000000000E+00  0.00000000000E+00  0.15216543462E+04  0.43099976879E+04  0.40324493947E+04 0.  0.
        5    1    3    3  502    0 -0.67700327231E+03 -0.12806742672E+04  0.22597350929E+04  0.26841916454E+04  0.46999998093E+01 0.  1.
       -5    1    3    3    0  502  0.67700327231E+03  0.12806742672E+04 -0.73808074667E+03  0.16258060425E+04  0.46999998093E+01 0. -1.
</event>
<event>
 5   0  0.1351000E-07  0.3874451E+04  0.7818609E-02  0.8030364E-01
        1   -1    0    0  501    0  0.00000000000E+00  0.00000000000E+00  0.25523545541E+04  0.25523545541E+04  0.50400001928E-02 0.  1.
       -1   -1    0    0    0  501  0.00000000000E+00  0.00000000000E+00 -0.14703455435E+04  0.14703455435E+04  0.50400001928E-02 0. -1.
    10030    2    1    2    0    0  0.00000000000E+00  0.00000000000E+00  0.10820090106E+04  0.40227000976E+04  0.38744512613E+04 0.  0.
        3    1    3    3  502    0 -0.59832711821E+03  0.16793932928E+04 -0.24594553912E+03  0.17996795245E+04  0.10100000352E+00 0.  1.
       -3    1    3    3    0  502  0.59832711821E+03 -0.16793932928E+04  0.13279545497E+04  0.22230205731E+04  0.10100000352E+00 0. -1.
</event>
<event>
 5   0  0.1351000E-07  0.4000311E+04  0.7818609E-02  0.8004484E-01
       -1   -1    0    0    0  501  0.00000000000E+00  0.00000000000E+00  0.18479402982E+04  0.18479402982E+04  0.50400001928E-02 0. -1.
        1   -1    0    0  501    0  0.00000000000E+00  0.00000000000E+00 -0.21649084832E+04  0.21649084832E+04  0.50400001928E-02 0.  1.
    10030    2    1    2    0    0  0.00000000000E+00  0.00000000000E+00 -0.31696818498E+03  0.40128487814E+04  0.40003108019E+04 0.  0.
        3    1    3    3  502    0 -0.53038518412E+03  0.14016274129E+04  0.11703389530E+04  0.19014628903E+04  0.10100000352E+00 0. -1.
       -3    1    3    3    0  502  0.53038518412E+03 -0.14016274129E+04 -0.14873071380E+04  0.21113858911E+04  0.10100000352E+00 0.  1.
</event>
<event>
 5   0  0.1368865E-07  0.3922272E+04  0.7818609E-02  0.8020413E-01
       -1   -1    0    0    0  501  0.00000000000E+00  0.00000000000E+00  0.34864846878E+04  0.34864846878E+04  0.50400001928E-02 0.  1.
        1   -1    0    0  501    0  0.00000000000E+00  0.00000000000E+00 -0.11031322859E+04  0.11031322859E+04  0.50400001928E-02 0. -1.
    10030    2    1    2    0    0  0.00000000000E+00  0.00000000000E+00  0.23833524018E+04  0.45896169737E+04  0.39222717007E+04 0.  0.
        5    1    3    3  502    0  0.15973372729E+04  0.70650620750E+03  0.14808593628E+03  0.17528801782E+04  0.46999998093E+01 0. -1.
       -5    1    3    3    0  502 -0.15973372729E+04 -0.70650620750E+03  0.22352664656E+04  0.28367367955E+04  0.46999998093E+01 0.  1.
</event>
<event>
 5   0  0.1351000E-07  0.2628370E+04  0.7818609E-02  0.8358628E-01
        1   -1    0    0  501    0  0.00000000000E+00  0.00000000000E+00  0.29146223120E+04  0.29146223120E+04  0.50400001928E-02 0.  1.
       -1   -1    0    0    0  501  0.00000000000E+00  0.00000000000E+00 -0.59255763439E+03  0.59255763441E+03  0.50400001928E-02 0. -1.
    10030    2    1    2    0    0  0.00000000000E+00  0.00000000000E+00  0.23220646777E+04  0.35071799465E+04  0.26283696105E+04 0.  0.
        4    1    3    3  502    0  0.82744653391E+03  0.96867914340E+03  0.73056447742E+03  0.14685820093E+04  0.12699999809E+01 0. -1.
       -4    1    3    3    0  502 -0.82744653391E+03 -0.96867914340E+03  0.15915002002E+04  0.20385979372E+04  0.12699999809E+01 0.  1.
</event>
<event>
 5   0  0.1368865E-07  0.2727881E+04  0.7818609E-02  0.8326015E-01
        1   -1    0    0  501    0  0.00000000000E+00  0.00000000000E+00  0.13307712623E+04  0.13307712623E+04  0.50400001928E-02 0.  1.
       -1   -1    0    0    0  501  0.00000000000E+00  0.00000000000E+00 -0.13979361185E+04  0.13979361185E+04  0.50400001928E-02 0. -1.
    10030    2    1    2    0    0  0.00000000000E+00  0.00000000000E+00 -0.67164856161E+02  0.27287073808E+04  0.27278806521E+04 0.  0.
        5    1    3    3  502    0  0.36241816018E+03 -0.23519540902E+03 -0.13276697225E+04  0.13962065697E+04  0.46999998093E+01 0. -1.
       -5    1    3    3    0  502 -0.36241816018E+03  0.23519540902E+03  0.12605048664E+04  0.13325008110E+04  0.46999998093E+01 0.  1.
</event>
<event>
 5   0  0.4079777E-07  0.3964192E+04  0.7818609E-02  0.8011809E-01
        2   -1    0    0  501    0  0.00000000000E+00  0.00000000000E+00  0.17826432848E+04  0.17826432848E+04  0.25500000920E-02 0.  1.
       -2   -1    0    0    0  501  0.00000000000E+00  0.00000000000E+00 -0.22038651836E+04  0.22038651836E+04  0.25500000920E-02 0. -1.
    10030    2    1    2    0    0  0.00000000000E+00  0.00000000000E+00 -0.42122189882E+03  0.39865084683E+04  0.39641924625E+04 0.  0.
        4    1    3    3  502    0  0.21014253518E+03 -0.11514972167E+04 -0.18191773714E+04  0.21632183539E+04  0.12699999809E+01 0. -1.
       -4    1    3    3    0  502 -0.21014253518E+03  0.11514972167E+04  0.13979554726E+04  0.18232901144E+04  0.12699999809E+01 0.  1.
</event>
<event>
 5   0  0.1368865E-07  0.3629885E+04  0.7818609E-02  0.8083680E-01
        1   -1    0    0  501    0  0.00000000000E+00  0.00000000000E+00  0.32205886073E+04  0.32205886073E+04  0.50400001928E-02 0.  1.
       -1   -1    0    0    0  501  0.00000000000E+00  0.00000000000E+00 -0.10227992831E+04  0.10227992831E+04  0.50400001928E-02 0. -1.
    10030    2    1    2    0    0  0.00000000000E+00  0.00000000000E+00  0.21977893242E+04  0.42433878904E+04  0.36298846917E+04 0.  0.
        5    1    3    3  502    0 -0.87905812195E+03 -0.52156831608E+02  0.29541063737E+04  0.30825687460E+04  0.46999998093E+01 0.  1.
       -5    1    3    3    0  502  0.87905812195E+03  0.52156831608E+02 -0.75631704943E+03  0.11608191444E+04  0.46999998093E+01 0. -1.
</event>
<event>
 5   0  0.4077370E-07  0.2812131E+04  0.7818609E-02  0.8299512E-01
        2   -1    0    0  501    0  0.00000000000E+00  0.00000000000E+00  0.24148076075E+04  0.24148076075E+04  0.25500000920E-02 0. -1.
       -2   -1    0    0    0  501  0.00000000000E+00  0.00000000000E+00 -0.81870695709E+03  0.81870695709E+03  0.25500000920E-02 0.  1.
    10030    2    1    2    0    0  0.00000000000E+00  0.00000000000E+00  0.15961006504E+04  0.32335145646E+04  0.28121307141E+04 0.  0.
        3    1    3    3  502    0 -0.18152039230E+03  0.71637564672E+03 -0.57738548156E+03  0.93782606306E+03  0.10100000352E+00 0.  1.
       -3    1    3    3    0  502  0.18152039230E+03 -0.71637564672E+03  0.21734861320E+04  0.22956885016E+04  0.10100000352E+00 0. -1.
</event>
<event>
 5   0  0.4077370E-07  0.3976429E+04  0.7818609E-02  0.8009318E-01
        2   -1    0    0  501    0  0.00000000000E+00  0.00000000000E+00  0.24194694005E+04  0.24194694005E+04  0.25500000920E-02 0. -1.
       -2   -1    0    0    0  501  0.00000000000E+00  0.00000000000E+00 -0.16338281715E+04  0.16338281715E+04  0.25500000920E-02 0.  1.
    10030    2    1    2    0    0  0.00000000000E+00  0.00000000000E+00  0.78564122906E+03  0.40532975720E+04  0.39764291854E+04 0.  0.
        3    1    3    3  502    0 -0.43868826903E+03 -0.12860220642E+04  0.18723250979E+04  0.23134176945E+04  0.10100000352E+00 0. -1.
       -3    1    3    3    0  502  0.43868826903E+03  0.12860220642E+04 -0.10866838688E+04  0.17398798775E+04  0.10100000352E+00 0.  1.
</event>
<event>
 5   0  0.4047916E-07  0.4411457E+04  0.7818609E-02  0.7926324E-01
       -2   -1    0    0    0  501  0.00000000000E+00  0.00000000000E+00  0.29444194650E+04  0.29444194650E+04  0.25500000920E-02 0.  1.
        2   -1    0    0  501    0  0.00000000000E+00  0.00000000000E+00 -0.16523587737E+04  0.16523587737E+04  0.25500000920E-02 0. -1.
    10030    2    1    2    0    0  0.00000000000E+00  0.00000000000E+00  0.12920606913E+04  0.45967782386E+04  0.44114566013E+04 0.  0.
        5    1    3    3  502    0 -0.45943645523E+03 -0.44310776890E+03  0.28460739604E+04  0.29167765477E+04  0.46999998093E+01 0.  1.
       -5    1    3    3    0  502  0.45943645523E+03  0.44310776890E+03 -0.15540132691E+04  0.16800016910E+04  0.46999998093E+01 0. -1.
</event>
<event>
 5   0  0.4047916E-07  0.3928181E+04  0.7818609E-02  0.8019193E-01
       -2   -1    0    0    0  501  0.00000000000E+00  0.00000000000E+00  0.16385449163E+04  0.16385449163E+04  0.25500000920E-02 0.  1.
        2   -1    0    0  501    0  0.00000000000E+00  0.00000000000E+00 -0.23543158540E+04  0.23543158540E+04  0.25500000920E-02 0. -1.
    10030    2    1    2    0    0  0.00000000000E+00  0.00000000000E+00 -0.71577093771E+03  0.39928607704E+04  0.39281813981E+04 0.  0.
        5    1    3    3  502    0 -0.70413723751E+03 -0.56987406096E+03 -0.21292976998E+04  0.23139784958E+04  0.46999998093E+01 0. -1.
       -5    1    3    3    0  502  0.70413723751E+03  0.56987406096E+03  0.14135267621E+04  0.16788822745E+04  0.46999998093E+01 0.  1.
</event>
<event>
 5   0  0.1368865E-07  0.4195731E+04  0.7818609E-02  0.7966185E-01
        1   -1    0    0  501    0  0.00000000000E+00  0.00000000000E+00  0.19203287602E+04  0.19203287602E+04  0.50400001928E-02 0.  1.
       -1   -1    0    0    0  501  0.00000000000E+00  0.00000000000E+00 -0.22918161664E+04  0.22918161664E+04  0.50400001928E-02 0. -1.
    10030    2    1    2    0    0  0.00000000000E+00  0.00000000000E+00 -0.37148740619E+03  0.42121449266E+04  0.41957314011E+04 0.  0.
        5    1    3    3  502    0  0.39891680654E+03  0.19348106767E+04 -0.89447385911E+03  0.21685784625E+04  0.46999998093E+01 0. -1.
       -5    1    3    3    0  502 -0.39891680654E+03 -0.19348106767E+04  0.52298645292E+03  0.20435664641E+04  0.46999998093E+01 0.  1.
</event>
<event>
 5   0  0.1421304E-07  0.3995493E+04  0.7818609E-02  0.8005456E-01
        1   -1    0    0  501    0  0.00000000000E+00  0.00000000000E+00  0.33289123821E+04  0.33289123821E+04  0.50400001928E-02 0.  1.
       -1   -1    0    0    0  501  0.00000000000E+00  0.00000000000E+00 -0.11988871281E+04  0.11988871281E+04  0.50400001928E-02 0. -1.
    10030    2    1    2    0    0  0.00000000000E+00  0.00000000000E+00  0.21300252540E+04  0.45277995102E+04  0.39954925631E+04 0.  0.
        2    1    3    3  502    0 -0.27013954951E+02  0.78090971026E+03  0.31485606177E+04  0.32440690025E+04  0.25500000920E-02 0.  1.
       -2    1    3    3    0  502  0.27013954951E+02 -0.78090971026E+03 -0.10185353637E+04  0.12837305077E+04  0.25500000920E-02 0. -1.
</event>
<event>
 5   0  0.4047916E-07  0.4018788E+04  0.7818609E-02  0.8000767E-01
       -2   -1    0    0    0  501  0.00000000000E+00  0.00000000000E+00  0.18007601573E+04  0.18007601573E+04  0.25500000920E-02 0. -1.
        2   -1    0    0  501    0  0.00000000000E+00  0.00000000000E+00 -0.22422000399E+04  0.22422000399E+04  0.25500000920E-02 0.  1.
    10030    2    1    2    0    0  0.00000000000E+00  0.00000000000E+00 -0.44143988260E+03  0.40429601972E+04  0.40187881240E+04 0.  0.
        5    1    3    3  502    0 -0.17222950085E+04  0.47283250275E+02 -0.12609151805E+04  0.21350562017E+04  0.46999998093E+01 0.  1.
       -5    1    3    3    0  502  0.17222950085E+04 -0.47283250275E+02  0.81947529792E+03  0.19079039955E+04  0.46999998093E+01 0. -1.
</event>
<event>
 5   0  0.4301754E-07  0.3059123E+04  0.7818609E-02  0.8227047E-01
       -2   -1    0    0    0  501  0.00000000000E+00  0.00000000000E+00  0.12149730247E+04  0.12149730247E+04  0.25500000920E-02 0.  1.
        2   -1    0    0  501    0  0.00000000000E+00  0.00000000000E+00 -0.19256054062E+04  0.19256054062E+04  0.25500000920E-02 0. -1.
    10030    2    1    2    0    0  0.00000000000E+00  0.00000000000E+00 -0.71063238153E+03  0.31405784308E+04  0.30591231585E+04 0.  0.
        1    1    3    3  502    0  0.10555864543E+04 -0.10955078785E+04 -0.51815344181E+03  0.16071351106E+04  0.50400001928E-02 0.  1.
       -1    1    3    3    0  502 -0.10555864543E+04  0.10955078785E+04 -0.19247893972E+03  0.15334433203E+04  0.50400001928E-02 0. -1.
</event>
<event>
 5   0  0.1421304E-07  0.3707362E+04  0.7818609E-02  0.8066332E-01
        1   -1    0    0  501    0  0.00000000000E+00  0.00000000000E+00  0.13188422042E+04  0.13188422042E+04  0.50400001928E-02 0. -1.
       -1   -1    0    0    0  501  0.00000000000E+00  0.00000000000E+00 -0.26054159807E+04  0.26054159807E+04  0.50400001928E-02 0.  1.
    10030    2    1    2    0    0  0.00000000000E+00  0.00000000000E+00 -0.12865737764E+04  0.39242581849E+04  0.37073616251E+04 0.  0.
        2    1    3    3  502    0 -0.80100461778E+03  0.13221128665E+04 -0.17261433605E+04  0.23171451681E+04  0.25500000920E-02 0.  1.
       -2    1    3    3    0  502  0.80100461778E+03 -0.13221128665E+04  0.43956958403E+03  0.16071130168E+04  0.25500000920E-02 0. -1.
</event>
<event>
 5   0  0.4301754E-07  0.2605779E+04  0.7818609E-02  0.8366241E-01
        2   -1    0    0  501    0  0.00000000000E+00  0.00000000000E+00  0.17926866359E+04  0.17926866359E+04  0.25500000920E-02 0. -1.
       -2   -1    0    0    0  501  0.00000000000E+00  0.00000000000E+00 -0.94691483158E+03  0.94691483159E+03  0.25500000920E-02 0.  1.
    10030    2    1    2    0    0  0.00000000000E+00  0.00000000000E+00  0.84577180435E+03  0.27396014675E+04  0.26057793951E+04 0.  0.
        1    1    3    3  502    0  0.10679113807E+04 -0.53665778824E+03  0.96826024544E+03  0.15381691070E+04  0.50400001928E-02 0. -1.
       -1    1    3    3    0  502 -0.10679113807E+04  0.53665778824E+03 -0.12248844109E+03  0.12014323605E+04  0.50400001928E-02 0.  1.
</event>
<event>
 5   0  0.1351000E-07  0.3785955E+04  0.7818609E-02  0.8049176E-01
        1   -1    0    0  501    0  0.00000000000E+00  0.00000000000E+00  0.27815271168E+04  0.27815271168E+04  0.50400001928E-02 0.  1.
       -1   -1    0    0    0  501  0.00000000000E+00  0.00000000000E+00 -0.12882723199E+04  0.12882723199E+04  0.50400001928E-02 0. -1.
    10030    2    1    2    0    0  0.00000000000E+00  0.00000000000E+00  0.14932547969E+04  0.40697994367E+04  0.37859553044E+04 0.  0.
        4    1    3    3  502    0 -0.16422225779E+04  0.69223562954E+03  0.14326569061E+04  0.22866115948E+04  0.12699999809E+01 0.  1.
       -4    1    3    3    0  502  0.16422225779E+04 -0.69223562954E+03  0.60597890784E+02  0.17831878419E+04  0.12699999809E+01 0. -1.
</event>
<event>
 5   0  0.4077370E-07  0.2666957E+04  0.7818609E-02  0.8345807E-01
        2   -1    0    0  501    0  0.00000000000E+00  0.00000000000E+00  0.22971985046E+04  0.22971985046E+04  0.25500000920E-02 0.  1.
       -2   -1    0    0    0  501  0.00000000000E+00  0.00000000000E+00 -0.77405787444E+03  0.77405787445E+03  0.25500000920E-02 0. -1.
    10030    2    1    2    0    0  0.00000000000E+00  0.00000000000E+00  0.15231406301E+04  0.30712563790E+04  0.26669567613E+04 0.  0.
        3    1    3    3  502    0 -0.11620655672E+04 -0.61654956795E+03  0.10129107737E+04  0.16602764824E+04  0.10100000352E+00 0. -1.
       -3    1    3    3    0  502  0.11620655672E+04  0.61654956795E+03  0.51022985639E+03  0.14109798966E+04  0.10100000352E+00 0.  1.
</event>
<event>
 5   0  0.1351000E-07  0.3985944E+04  0.7818609E-02  0.8007388E-01
       -1   -1    0    0    0  501  0.00000000000E+00  0.00000000000E+00  0.19626931246E+04  0.19626931246E+04  0.50400001928E-02 0.  1.
        1   -1    0    0  501    0  0.00000000000E+00  0.00000000000E+00 -0.20237177596E+04  0.20237177596E+04  0.50400001928E-02 0. -1.
    10030    2    1    2    0    0  0.00000000000E+00  0.00000000000E+00 -0.61024635041E+02  0.39864108842E+04  0.39859437692E+04 0.  0.
        4    1    3    3  502    0  0.19058934713E+04  0.54923960567E+03  0.16403875931E+03  0.19902272221E+04  0.12699999809E+01 0.  1.
       -4    1    3    3    0  502 -0.19058934713E+04 -0.54923960567E+03 -0.22506339435E+03  0.19961836621E+04  0.12699999809E+01 0. -1.
</event>
<event>
 5   0  0.4077370E-07  0.3992932E+04  0.7818609E-02  0.8005974E-01
       -2   -1    0    0    0  501  0.00000000000E+00  0.00000000000E+00  0.15239068446E+04  0.15239068446E+04  0.25500000920E-02 0. -1.
        2   -1    0    0  501    0  0.00000000000E+00  0.00000000000E+00 -0.26155641859E+04  0.26155641859E+04  0.25500000920E-02 0.  1.
    10030    2    1    2    0    0  0.00000000000E+00  0.00000000000E+00 -0.10916573412E+04  0.41394710305E+04  0.39929318379E+04 0.  0.
        3    1    3    3  502    0 -0.13735192261E+04  0.13584156470E+04 -0.23319685012E+02  0.19319399453E+04  0.10100000352E+00 0. -1.
       -3    1    3    3    0  502  0.13735192261E+04 -0.13584156470E+04 -0.10683376562E+04  0.22075310852E+04  0.10100000352E+00 0.  1.
</event>
<event>
 5   0  0.4079777E-07  0.3836383E+04  0.7818609E-02  0.8038392E-01
        2   -1    0    0  501    0  0.00000000000E+00  0.00000000000E+00  0.30188384155E+04  0.30188384155E+04  0.25500000920E-02 0. -1.
       -2   -1    0    0    0  501  0.00000000000E+00  0.00000000000E+00 -0.12188326065E+04  0.12188326065E+04  0.25500000920E-02 0.  1.
    10030    2    1    2    0    0  0.00000000000E+00  0.00000000000E+00  0.18000058090E+04  0.42376710220E+04  0.38363830333E+04 0.  0.
        4    1    3    3  502    0 -0.12666267372E+04  0.11347552391E+04 -0.80198248877E+02  0.17024823394E+04  0.12699999809E+01 0.  1.
       -4    1    3    3    0  502  0.12666267372E+04 -0.11347552391E+04  0.18802040579E+04  0.25351886826E+04  0.12699999809E+01 0. -1.
</event>
<event>
 5   0  0.4149487E-07  0.2612776E+04  0.7818609E-02  0.8363874E-01
        2   -1    0    0  501    0  0.00000000000E+00  0.00000000000E+00  0.24948991384E+04  0.24948991384E+04  0.25500000920E-02 0.  1.
       -2   -1    0    0    0  501  0.00000000000E+00  0.00000000000E+00 -0.68405575575E+03  0.68405575576E+03  0.25500000920E-02 0. -1.
    10030    2    1    2    0    0  0.00000000000E+00  0.00000000000E+00  0.18108433826E+04  0.31789548941E+04  0.26127763897E+04 0.  0.
        2    1    3    3  502    0 -0.62023023892E+02 -0.51307276964E+03  0.23652337503E+04  0.24210372191E+04  0.25500000920E-02 0.  1.
       -2    1    3    3    0  502  0.62023023892E+02  0.51307276964E+03 -0.55439036767E+03  0.75791767509E+03  0.25500000920E-02 0. -1.
</event>
<event>
 5   0  0.4149487E-07  0.4053592E+04  0.7818609E-02  0.7993822E-01
        2   -1    0    0  501    0  0.00000000000E+00  0.00000000000E+00  0.21241943866E+04  0.21241943866E+04  0.25500000920E-02 0.  1.
       -2   -1    0    0    0  501  0.00000000000E+00  0.00000000000E+00 -0.19338634706E+04  0.19338634706E+04  0.25500000920E-02 0. -1.
    10030    2    1    2    0    0  0.00000000000E+00  0.00000000000E+00  0.19033091608E+03  0.40580578572E+04  0.40535919522E+04 0.  0.
        2    1    3    3  502    0 -0.75891921514E+03 -0.59918346629E+03  0.18783978867E+04  0.21126660461E+04  0.25500000920E-02 0.  1.
       -2    1    3    3    0  502  0.75891921514E+03  0.59918346629E+03 -0.16880669707E+04  0.19453918111E+04  0.25500000920E-02 0. -1.
</event>
<event>
 5   0  0.1351000E-07  0.3953458E+04  0.7818609E-02  0.8014002E-01
        1   -1    0    0  501    0  0.00000000000E+00  0.00000000000E+00  0.14750293940E+04  0.14750293940E+04  0.50400001928E-02 0.  1.
       -1   -1    0    0    0  501  0.00000000000E+00  0.00000000000E+00 -0.26490708917E+04  0.26490708917E+04  0.50400001928E-02 0. -1.
    10030    2    1    2    0    0  0.00000000000E+00  0.00000000000E+00 -0.11740414977E+04  0.41241002857E+04  0.39534579457E+04 0.  0.
        4    1    3    3  502    0  0.25668271840E+03 -0.11721498539E+04 -0.22256945588E+04  0.25285448740E+04  0.12699999809E+01 0. -1.
       -4    1    3    3    0  502 -0.25668271840E+03  0.11721498539E+04  0.10516530611E+04  0.15955554117E+04  0.12699999809E+01 0.  1.
</event>
<event>
 5   0  0.4149487E-07  0.2859449E+04  0.7818609E-02  0.8285046E-01
       -2   -1    0    0    0  501  0.00000000000E+00  0.00000000000E+00  0.93802029328E+03  0.93802029329E+03  0.25500000920E-02 0.  1.
        2   -1    0    0  501    0  0.00000000000E+00  0.00000000000E+00 -0.21791772788E+04  0.21791772788E+04  0.25500000920E-02 0. -1.
    10030    2    1    2    0    0  0.00000000000E+00  0.00000000000E+00 -0.12411569855E+04  0.31171975721E+04  0.28594492548E+04 0.  0.
        2    1    3    3  502    0 -0.76359952966E+03 -0.10230561518E+04 -0.13223304347E+04  0.18380114010E+04  0.25500000920E-02 0.  1.
       -2    1    3    3    0  502  0.76359952966E+03  0.10230561518E+04  0.81173449249E+02  0.12791861711E+04  0.25500000920E-02 0. -1.
</event>
<event>
 5   0  0.4047916E-07  0.3869127E+04  0.7818609E-02  0.8031481E-01
        2   -1    0    0  501    0  0.00000000000E+00  0.00000000000E+00  0.15380971664E+04  0.15380971664E+04  0.25500000920E-02 0. -1.
       -2   -1    0    0    0  501  0.00000000000E+00  0.00000000000E+00 -0.24332250575E+04  0.24332250575E+04  0.25500000920E-02 0.  1.
    10030    2    1    2    0    0  0.00000000000E+00  0.00000000000E+00 -0.89512789114E+03  0.39713222239E+04  0.38691273259E+04 0.  0.
        5    1    3    3  502    0 -0.12052729043E+04 -0.11573702705E+04  0.55303111573E+03  0.17601290356E+04  0.46999998093E+01 0. -1.
       -5    1    3    3    0  502  0.12052729043E+04  0.11573702705E+04 -0.14481590069E+04  0.22111931883E+04  0.46999998093E+01 0.  1.
</event>
<event>
 5   0  0.4047916E-07  0.3959738E+04  0.7818609E-02  0.8012718E-01
        2   -1    0    0  501    0  0.00000000000E+00  0.00000000000E+00  0.14603720523E+04  0.14603720523E+04  0.25500000920E-02 0. -1.
       -2   -1    0    0    0  501  0.00000000000E+00  0.00000000000E+00 -0.26841666205E+04  0.26841666205E+04  0.25500000920E-02 0.  1.
    10030    2    1    2    0    0  0.00000000000E+00  0.00000000000E+00 -0.12237945682E+04  0.41445386729E+04  0.39597383330E+04 0.  0.
        5    1    3    3  502    0 -0.12730525107E+04 -0.44901117801E+03  0.90399941085E+03  0.16246571201E+04  0.46999998093E+01 0. -1.
       -5    1    3    3    0  502  0.12730525107E+04  0.44901117801E+03 -0.21277939790E+04  0.25198815528E+04  0.46999998093E+01 0.  1.
</event>
<event>
 5   0  0.4077370E-07  0.4009239E+04  0.7818609E-02  0.8002685E-01
        2   -1    0    0  501    0  0.00000000000E+00  0.00000000000E+00  0.15613031031E+04  0.15613031031E+04  0.25500000920E-02 0.  1.
       -2   -1    0    0    0  501  0.00000000000E+00  0.00000000000E+00 -0.25738114432E+04  0.25738114432E+04  0.25500000920E-02 0. -1.
    10030    2    1    2    0    0  0.00000000000E+00  0.00000000000E+00 -0.10125083401E+04  0.41351145462E+04  0.40092392260E+04 0.  0.
        3    1    3    3  502    0 -0.64321933903E+03 -0.11446198708E+04 -0.20686115911E+04  0.24501101387E+04  0.10100000352E+00 0. -1.
       -3    1    3    3    0  502  0.64321933903E+03  0.11446198708E+04  0.10561032510E+04  0.16850044076E+04  0.10100000352E+00 0.  1.
</event>
<event>
 5   0  0.1742634E-07  0.2506493E+04  0.7818609E-02  0.8400676E-01
        1   -1    0    0  501    0  0.00000000000E+00  0.00000000000E+00  0.12625573091E+04  0.12625573091E+04  0.50400001928E-02 0.  1.
       -1   -1    0    0    0  501  0.00000000000E+00  0.00000000000E+00 -0.12440039841E+04  0.12440039842E+04  0.50400001928E-02 0. -1.
    10030    2    1    2    0    0  0.00000000000E+00  0.00000000000E+00  0.18553324964E+02  0.25065612933E+04  0.25064926274E+04 0.  0.
        5    1    3    3  502    0 -0.67816225894E+03 -0.46982280257E+03 -0.93412965498E+03  0.12462976441E+04  0.46999998093E+01 0. -1.
       -5    1    3    3    0  502  0.67816225894E+03  0.46982280257E+03  0.95268297994E+03  0.12602636492E+04  0.46999998093E+01 0.  1.
</event>
<event>
 5   0  0.1372952E-07  0.4056864E+04  0.7818609E-02  0.7993173E-01
       -1   -1    0    0    0  501  0.00000000000E+00  0.00000000000E+00  0.15942821749E+04  0.15942821749E+04  0.50400001928E-02 0. -1.
        1   -1    0    0  501    0  0.00000000000E+00  0.00000000000E+00 -0.25808079391E+04  0.25808079391E+04  0.50400001928E-02 0.  1.
    10030    2    1    2    0    0  0.00000000000E+00  0.00000000000E+00 -0.98652576424E+03  0.41750901140E+04  0.40568638598E+04 0.  0.
        1    1    3    3  502    0 -0.10062975690E+04 -0.16307892736E+04  0.19127351729E+03  0.19257969807E+04  0.50400001928E-02 0. -1.
       -1    1    3    3    0  502  0.10062975690E+04  0.16307892736E+04 -0.11777992815E+04  0.22492931334E+04  0.50400001928E-02 0.  1.
</event>
<event>
 5   0  0.4077370E-07  0.3957076E+04  0.7818609E-02  0.8013262E-01
        2   -1    0    0  501    0  0.00000000000E+00  0.00000000000E+00  0.19549682194E+04  0.19549682194E+04  0.25500000920E-02 0. -1.
       -2   -1    0    0    0  501  0.00000000000E+00  0.00000000000E+00 -0.20023914573E+04  0.20023914573E+04  0.25500000920E-02 0.  1.
    10030    2    1    2    0    0  0.00000000000E+00  0.00000000000E+00 -0.47423237894E+02  0.39573596767E+04  0.39570755170E+04 0.  0.
        3    1    3    3  502    0  0.66237773749E+03 -0.12866420975E+04  0.13256144934E+04  0.19625101145E+04  0.10100000352E+00 0. -1.
       -3    1    3    3    0  502 -0.66237773749E+03  0.12866420975E+04 -0.13730377313E+04  0.19948495622E+04  0.10100000352E+00 0.  1.
</event>
<event>
 5   0  0.1351000E-07  0.2585630E+04  0.7818609E-02  0.8373099E-01
        4   -1    0    0  501    0  0.00000000000E+00  0.00000000000E+00  0.11827371214E+04  0.11827378032E+04  0.12699999809E+01 0.  1.
       -4   -1    0    0    0  501  0.00000000000E+00  0.00000000000E+00 -0.14131359738E+04  0.14131365445E+04  0.12699999809E+01 0. -1.
    10030    2    1    2    0    0  0.00000000000E+00  0.00000000000E+00 -0.23039885245E+03  0.25958743477E+04  0.25856295168E+04 0.  0.
        2    1    3    3  502    0 -0.96807363536E+03  0.63836387564E+03 -0.68903651245E+03  0.13488685320E+04  0.25500000920E-02 0. -1.
       -2    1    3    3    0  502  0.96807363536E+03 -0.63836387564E+03  0.45863765999E+03  0.12470058157E+04  0.25500000920E-02 0.  1.
</event>
<event>
 5   0  0.4079777E-07  0.3923445E+04  0.7818609E-02  0.8020171E-01
        2   -1    0    0  501    0  0.00000000000E+00  0.00000000000E+00  0.26593187345E+04  0.26593187345E+04  0.25500000920E-02 0.  1.
       -2   -1    0    0    0  501  0.00000000000E+00  0.00000000000E+00 -0.14471209089E+04  0.14471209089E+04  0.25500000920E-02 0. -1.
    10030    2    1    2    0    0  0.00000000000E+00  0.00000000000E+00  0.12121978256E+04  0.41064396434E+04  0.39234452942E+04 0.  0.
        4    1    3    3  502    0 -0.10506268231E+04 -0.40888644959E+03 -0.10741920105E+04  0.15572074167E+04  0.12699999809E+01 0. -1.
       -4    1    3    3    0  502  0.10506268231E+04  0.40888644959E+03  0.22863898361E+04  0.25492322267E+04  0.12699999809E+01 0.  1.
</event>
<event>
 5   0  0.1351000E-07  0.4182231E+04  0.7818609E-02  0.7968761E-01
       -1   -1    0    0    0  501  0.00000000000E+00  0.00000000000E+00  0.21327683569E+04  0.21327683569E+04  0.50400001928E-02 0.  1.
        1   -1    0    0  501    0  0.00000000000E+00  0.00000000000E+00 -0.20502760679E+04  0.20502760679E+04  0.50400001928E-02 0. -1.
    10030    2    1    2    0    0  0.00000000000E+00  0.00000000000E+00  0.82492288917E+02  0.41830444248E+04  0.41822309456E+04 0.  0.
        4    1    3    3  502    0  0.14788635453E+04 -0.36798418547E+03 -0.13909236238E+04  0.20632789163E+04  0.12699999809E+01 0. -1.
       -4    1    3    3    0  502 -0.14788635453E+04  0.36798418547E+03  0.14734159127E+04  0.21197655085E+04  0.12699999809E+01 0.  1.
</event>
<event>
 5   0  0.4079777E-07  0.3121971E+04  0.7818609E-02  0.8209734E-01
       -2   -1    0    0    0  501  0.00000000000E+00  0.00000000000E+00  0.10556974678E+04  0.10556974678E+04  0.25500000920E-02 0.  1.
        2   -1    0    0  501    0  0.00000000000E+00  0.00000000000E+00 -0.23081189689E+04  0.23081189689E+04  0.25500000920E-02 0. -1.
    10030    2    1    2    0    0  0.00000000000E+00  0.00000000000E+00 -0.12524215011E+04  0.33638164368E+04  0.31219707564E+04 0.  0.
        4    1    3    3  502    0 -0.42785494753E+03  0.56566263236E+03  0.87206320807E+03  0.11240684683E+04  0.12699999809E+01 0.  1.
       -4    1    3    3    0  502  0.42785494753E+03 -0.56566263236E+03 -0.21244847091E+04  0.22397479684E+04  0.12699999809E+01 0. -1.
</event>
<event>
 5   0  0.4301754E-07  0.2563715E+04  0.7818609E-02  0.8380632E-01
        2   -1    0    0  501    0  0.00000000000E+00  0.00000000000E+00  0.24091928097E+04  0.24091928097E+04  0.25500000920E-02 0.  1.
       -2   -1    0    0    0  501  0.00000000000E+00  0.00000000000E+00 -0.68203683763E+03  0.68203683763E+03  0.25500000920E-02 0. -1.
    10030    2    1    2    0    0  0.00000000000E+00  0.00000000000E+00  0.17271559721E+04  0.30912296474E+04  0.25637146840E+04 0.  0.
        1    1    3    3  502    0 -0.87858333713E+03  0.92952485196E+03  0.96612529030E+03  0.16029108544E+04  0.50400001928E-02 0. -1.
       -1    1    3    3    0  502  0.87858333713E+03 -0.92952485196E+03  0.76103068180E+03  0.14883187929E+04  0.50400001928E-02 0.  1.
</event>
<event>
 5   0  0.4149487E-07  0.3991769E+04  0.7818609E-02  0.8006209E-01
        2   -1    0    0  501    0  0.00000000000E+00  0.00000000000E+00  0.20671308635E+04  0.20671308635E+04  0.25500000920E-02 0. -1.
       -2   -1    0    0    0  501  0.00000000000E+00  0.00000000000E+00 -0.19270941813E+04  0.19270941813E+04  0.25500000920E-02 0.  1.
    10030    2    1    2    0    0  0.00000000000E+00  0.00000000000E+00  0.14003668219E+03  0.39942250448E+04  0.39917694618E+04 0.  0.
        2    1    3    3  502    0 -0.19538000167E+03 -0.19820515206E+04  0.19992225249E+03  0.20016669260E+04  0.25500000920E-02 0.  1.
       -2    1    3    3    0  502  0.19538000167E+03  0.19820515206E+04 -0.59885570303E+02  0.19925581189E+04  0.25500000920E-02 0. -1.
</event>
<event>
 5   0  0.1351000E-07  0.4012983E+04  0.7818609E-02  0.8001932E-01
        1   -1    0    0  501    0  0.00000000000E+00  0.00000000000E+00  0.16880493639E+04  0.16880493639E+04  0.50400001928E-02 0.  1.
       -1   -1    0    0    0  501  0.00000000000E+00  0.00000000000E+00 -0.23850067446E+04  0.23850067447E+04  0.50400001928E-02 0. -1.
    10030    2    1    2    0    0  0.00000000000E+00  0.00000000000E+00 -0.69695738076E+03  0.40730561085E+04  0.40129834877E+04 0.  0.
        3    1    3    3  502    0  0.47569518769E+03  0.19484900020E+04 -0.40508004638E+03  0.20462133451E+04  0.10100000352E+00 0. -1.
       -3    1    3    3    0  502 -0.47569518769E+03 -0.19484900020E+04 -0.29187733438E+03  0.20268427635E+04  0.10100000352E+00 0.  1.
</event>
<event>
 5   0  0.1372952E-07  0.3910623E+04  0.7818609E-02  0.8022823E-01
       -1   -1    0    0    0  501  0.00000000000E+00  0.00000000000E+00  0.17452865122E+04  0.17452865122E+04  0.50400001928E-02 0.  1.
        1   -1    0    0  501    0  0.00000000000E+00  0.00000000000E+00 -0.21906102967E+04  0.21906102967E+04  0.50400001928E-02 0. -1.
    10030    2    1    2    0    0  0.00000000000E+00  0.00000000000E+00 -0.44532378450E+03  0.39358968088E+04  0.39106227659E+04 0.  0.
        1    1    3    3  502    0  0.13397262345E+04  0.13598068663E+04  0.20351485387E+03  0.19197289895E+04  0.50400001928E-02 0.  1.
       -1    1    3    3    0  502 -0.13397262345E+04 -0.13598068663E+04 -0.64883863837E+03  0.20161678194E+04  0.50400001928E-02 0. -1.
</event>
<event>
 5   0  0.1421304E-07  0.3977498E+04  0.7818609E-02  0.8009101E-01
       -1   -1    0    0    0  501  0.00000000000E+00  0.00000000000E+00  0.12208381542E+04  0.12208381543E+04  0.50400001928E-02 0.  1.
        1   -1    0    0  501    0  0.00000000000E+00  0.00000000000E+00 -0.32396773473E+04  0.32396773473E+04  0.50400001928E-02 0. -1.
    10030    2    1    2    0    0  0.00000000000E+00  0.00000000000E+00 -0.20188391930E+04  0.44605155015E+04  0.39774975615E+04 0.  0.
        2    1    3    3  502    0  0.18779407986E+03  0.19377349674E+04 -0.14650025776E+04  0.24364556168E+04  0.25500000920E-02 0. -1.
       -2    1    3    3    0  502 -0.18779407986E+03 -0.19377349674E+04 -0.55383661540E+03  0.20240598847E+04  0.25500000920E-02 0.  1.
</event>
<event>
 5   0  0.4149487E-07  0.3814774E+04  0.7818609E-02  0.8042992E-01
       -2   -1    0    0    0  501  0.00000000000E+00  0.00000000000E+00  0.31073582832E+04  0.31073582832E+04  0.25500000920E-02 0.  1.
        2   -1    0    0  501    0  0.00000000000E+00  0.00000000000E+00 -0.11708093932E+04  0.11708093932E+04  0.25500000920E-02 0. -1.
    10030    2    1    2    0    0  0.00000000000E+00  0.00000000000E+00  0.19365488901E+04  0.42781676764E+04  0.38147735272E+04 0.  0.
        2    1    3    3  502    0 -0.13740687744E+04  0.12406899651E+03  0.24453305576E+04  0.28076858173E+04  0.25500000920E-02 0.  1.
       -2    1    3    3    0  502  0.13740687744E+04 -0.12406899651E+03 -0.50878166750E+03  0.14704818591E+04  0.25500000920E-02 0. -1.
</event>
<event>
 5   0  0.4047916E-07  0.4007956E+04  0.7818609E-02  0.8002944E-01
       -2   -1    0    0    0  501  0.00000000000E+00  0.00000000000E+00  0.18089283550E+04  0.18089283550E+04  0.25500000920E-02 0.  1.
        2   -1    0    0  501    0  0.00000000000E+00  0.00000000000E+00 -0.22200586436E+04  0.22200586436E+04  0.25500000920E-02 0. -1.
    10030    2    1    2    0    0  0.00000000000E+00  0.00000000000E+00 -0.41113028861E+03  0.40289869986E+04  0.40079556037E+04 0.  0.
        5    1    3    3  502    0 -0.17610449611E+04  0.52950227135E+03  0.59501387578E+03  0.19327999412E+04  0.46999998093E+01 0.  1.
       -5    1    3    3    0  502  0.17610449611E+04 -0.52950227135E+03 -0.10061441644E+04  0.20961870574E+04  0.46999998093E+01 0. -1.
</event>
<event>
 5   0  0.1372952E-07  0.4022006E+04  0.7818609E-02  0.8000122E-01
       -1   -1    0    0    0  501  0.00000000000E+00  0.00000000000E+00  0.21047881077E+04  0.21047881077E+04  0.50400001928E-02 0. -1.
        1   -1    0    0  501    0  0.00000000000E+00  0.00000000000E+00 -0.19213963048E+04  0.19213963048E+04  0.50400001928E-02 0.  1.
    10030    2    1    2    0    0  0.00000000000E+00  0.00000000000E+00  0.18339180296E+03  0.40261844125E+04  0.40220055159E+04 0.  0.
        1    1    3    3  502    0  0.14304325797E+04 -0.62701698365E+03  0.13598366883E+04  0.20708557365E+04  0.50400001928E-02 0. -1.
       -1    1    3    3    0  502 -0.14304325797E+04  0.62701698365E+03 -0.11764448853E+04  0.19553286759E+04  0.50400001928E-02 0.  1.
</event>
<event>
 5   0  0.4301754E-07  0.3996631E+04  0.7818609E-02  0.8005227E-01
        2   -1    0    0  501    0  0.00000000000E+00  0.00000000000E+00  0.29450997462E+04  0.29450997462E+04  0.25500000920E-02 0. -1.
       -2   -1    0    0    0  501  0.00000000000E+00  0.00000000000E+00 -0.13559013808E+04  0.13559013808E+04  0.25500000920E-02 0.  1.
    10030    2    1    2    0    0  0.00000000000E+00  0.00000000000E+00  0.15891983655E+04  0.43010011270E+04  0.39966309874E+04 0.  0.
        1    1    3    3  502    0 -0.17018647429E+04  0.59303811199E+03  0.17236079183E+04  0.24937646363E+04  0.50400001928E-02 0. -1.
       -1    1    3    3    0  502  0.17018647429E+04 -0.59303811199E+03 -0.13440955280E+03  0.18072364907E+04  0.50400001928E-02 0.  1.
</event>
<event>
 5   0  0.1372952E-07  0.4125285E+04  0.7818609E-02  0.7979739E-01
        1   -1    0    0  501    0  0.00000000000E+00  0.00000000000E+00  0.20321072083E+04  0.20321072083E+04  0.50400001928E-02 0. -1.
       -1   -1    0    0    0  501  0.00000000000E+00  0.00000000000E+00 -0.20936366715E+04  0.20936366715E+04  0.50400001928E-02 0.  1.
    10030    2    1    2    0    0  0.00000000000E+00  0.00000000000E+00 -0.61529463204E+02  0.41257438797E+04  0.41252850430E+04 0.  0.
        1    1    3    3  502    0  0.14464768314E+04 -0.14613726153E+04  0.13231482599E+03  0.20604398457E+04  0.50400001928E-02 0.  1.
       -1    1    3    3    0  502 -0.14464768314E+04  0.14613726153E+04 -0.19384428919E+03  0.20653040340E+04  0.50400001928E-02 0. -1.
</event>
<event>
 5   0  0.4047916E-07  0.3963435E+04  0.7818609E-02  0.8011964E-01
       -2   -1    0    0    0  501  0.00000000000E+00  0.00000000000E+00  0.16108345231E+04  0.16108345231E+04  0.25500000920E-02 0.  1.
        2   -1    0    0  501    0  0.00000000000E+00  0.00000000000E+00 -0.24379941341E+04  0.24379941341E+04  0.25500000920E-02 0. -1.
    10030    2    1    2    0    0  0.00000000000E+00  0.00000000000E+00 -0.82715961104E+03  0.40488286572E+04  0.39634354383E+04 0.  0.
        5    1    3    3  502    0  0.13200998047E+04 -0.38621768585E+03  0.10438167555E+04  0.17266740006E+04  0.46999998093E+01 0.  1.
       -5    1    3    3    0  502 -0.13200998047E+04  0.38621768585E+03 -0.18709763666E+04  0.23221546567E+04  0.46999998093E+01 0. -1.
</event>
<event>
 5   0  0.4079777E-07  0.4009112E+04  0.7818609E-02  0.8002711E-01
       -2   -1    0    0    0  501  0.00000000000E+00  0.00000000000E+00  0.16661616478E+04  0.16661616478E+04  0.25500000920E-02 0.  1.
        2   -1    0    0  501    0  0.00000000000E+00  0.00000000000E+00 -0.24116771370E+04  0.24116771370E+04  0.25500000920E-02 0. -1.
    10030    2    1    2    0    0  0.00000000000E+00  0.00000000000E+00 -0.74551548917E+03  0.40778387848E+04  0.40091115986E+04 0.  0.
        4    1    3    3  502    0  0.19243006188E+03 -0.15859054251E+04 -0.16043479332E+04  0.22640802215E+04  0.12699999809E+01 0. -1.
       -4    1    3    3    0  502 -0.19243006188E+03  0.15859054251E+04  0.85883244402E+03  0.18137585632E+04  0.12699999809E+01 0.  1.
</event>
<event>
 5   0  0.4047916E-07  0.4043431E+04  0.7818609E-02  0.7995842E-01
        2   -1    0    0  501    0  0.00000000000E+00  0.00000000000E+00  0.24743512693E+04  0.24743512693E+04  0.25500000920E-02 0. -1.
       -2   -1    0    0    0  501  0.00000000000E+00  0.00000000000E+00 -0.16518808017E+04  0.16518808017E+04  0.25500000920E-02 0.  1.
    10030    2    1    2    0    0  0.00000000000E+00  0.00000000000E+00  0.82247046758E+03  0.41262320709E+04  0.40434308988E+04 0.  0.
        5    1    3    3  502    0 -0.34563583015E+03  0.17626970316E+04  0.13579980897E+04  0.22518316664E+04  0.46999998093E+01 0. -1.
       -5    1    3    3    0  502  0.34563583015E+03 -0.17626970316E+04 -0.53552762213E+03  0.18744004045E+04  0.46999998093E+01 0.  1.
</event>
<event>
 5   0  0.4047916E-07  0.2591447E+04  0.7818609E-02  0.8371112E-01
        2   -1    0    0  501    0  0.00000000000E+00  0.00000000000E+00  0.24959826295E+04  0.24959826295E+04  0.25500000920E-02 0.  1.
       -2   -1    0    0    0  501  0.00000000000E+00  0.00000000000E+00 -0.67264041575E+03  0.67264041576E+03  0.25500000920E-02 0. -1.
    10030    2    1    2    0    0  0.00000000000E+00  0.00000000000E+00  0.18233422137E+04  0.31686230453E+04  0.25914465409E+04 0.  0.
        5    1    3    3  502    0  0.38221297357E+03 -0.11129044957E+04  0.15749167462E+04  0.19659674517E+04  0.46999998093E+01 0.  1.
       -5    1    3    3    0  502 -0.38221297357E+03  0.11129044957E+04  0.24842546756E+03  0.12026555935E+04  0.46999998093E+01 0. -1.
</event>
<event>
 5   0  0.4047916E-07  0.3909412E+04  0.7818609E-02  0.8023074E-01
       -2   -1    0    0    0  501  0.00000000000E+00  0.00000000000E+00  0.25746815895E+04  0.25746815895E+04  0.25500000920E-02 0. -1.
        2   -1    0    0  501    0  0.00000000000E+00  0.00000000000E+00 -0.14840190432E+04  0.14840190432E+04  0.25500000920E-02 0.  1.
    10030    2    1    2    0    0  0.00000000000E+00  0.00000000000E+00  0.10906625464E+04  0.40587006327E+04  0.39094124924E+04 0.  0.
        5    1    3    3  502    0  0.18475638565E+04 -0.23258289675E+03 -0.71728607246E+02  0.18635326911E+04  0.46999998093E+01 0.  1.
       -5    1    3    3    0  502 -0.18475638565E+04  0.23258289675E+03  0.11623911536E+04  0.21951679416E+04  0.46999998093E+01 0. -1.
</event>
<event>
 5   0  0.4301754E-07  0.4039686E+04  0.7818609E-02  0.7996588E-01
       -2   -1    0    0    0  501  0.00000000000E+00  0.00000000000E+00  0.28717938946E+04  0.28717938946E+04  0.25500000920E-02 0. -1.
        2   -1    0    0  501    0  0.00000000000E+00  0.00000000000E+00 -0.14206331607E+04  0.14206331607E+04  0.25500000920E-02 0.  1.
    10030    2    1    2    0    0  0.00000000000E+00  0.00000000000E+00  0.14511607339E+04  0.42924270554E+04  0.40396859469E+04 0.  0.
        1    1    3    3  502    0 -0.11610138308E+04  0.31616787527E+03 -0.99821583502E+03  0.15634417463E+04  0.50400001928E-02 0.  1.
       -1    1    3    3    0  502  0.11610138308E+04 -0.31616787527E+03  0.24493765689E+04  0.27289853091E+04  0.50400001928E-02 0. -1.
</event>
<event>
 5   0  0.1421304E-07  0.3515800E+04  0.7818609E-02  0.8110056E-01
       -1   -1    0    0    0  501  0.00000000000E+00  0.00000000000E+00  0.28084527559E+04  0.28084527559E+04  0.50400001928E-02 0.  1.
        1   -1    0    0  501    0  0.00000000000E+00  0.00000000000E+00 -0.11003254859E+04  0.11003254859E+04  0.50400001928E-02 0. -1.
    10030    2    1    2    0    0  0.00000000000E+00  0.00000000000E+00  0.17081272701E+04  0.39087782418E+04  0.35157998482E+04 0.  0.
        2    1    3    3  502    0  0.68031799003E+03  0.11666300955E+04 -0.39704325933E+03  0.14076582316E+04  0.25500000920E-02 0. -1.
       -2    1    3    3    0  502 -0.68031799003E+03 -0.11666300955E+04  0.21051705294E+04  0.25011200102E+04  0.25500000920E-02 0.  1.
</event>
<event>
 5   0  0.4079777E-07  0.4027793E+04  0.7818609E-02  0.7998963E-01
       -2   -1    0    0    0  501  0.00000000000E+00  0.00000000000E+00  0.22739815801E+04  0.22739815801E+04  0.25500000920E-02 0. -1.
        2   -1    0    0  501    0  0.00000000000E+00  0.00000000000E+00 -0.17835584471E+04  0.17835584471E+04  0.25500000920E-02 0.  1.
    10030    2    1    2    0    0  0.00000000000E+00  0.00000000000E+00  0.49042313298E+03  0.40575400272E+04  0.40277929717E+04 0.  0.
        4    1    3    3  502    0  0.12304754283E+04 -0.67264022929E+03  0.17013149374E+04  0.22047650185E+04  0.12699999809E+01 0. -1.
       -4    1    3    3    0  502 -0.12304754283E+04  0.67264022929E+03 -0.12108918044E+04  0.18527750087E+04  0.12699999809E+01 0.  1.
</event>
<event>
 5   0  0.1351000E-07  0.3383420E+04  0.7818609E-02  0.8141988E-01
       -1   -1    0    0    0  501  0.00000000000E+00  0.00000000000E+00  0.14621625371E+04  0.14621625371E+04  0.50400001928E-02 0. -1.
        1   -1    0    0  501    0  0.00000000000E+00  0.00000000000E+00 -0.19572946279E+04  0.19572946279E+04  0.50400001928E-02 0.  1.
    10030    2    1    2    0    0  0.00000000000E+00  0.00000000000E+00 -0.49513209074E+03  0.34194571650E+04  0.33834200916E+04 0.  0.
        3    1    3    3  502    0 -0.31160443806E+03 -0.16620923303E+04 -0.29534140095E+03  0.17166463799E+04  0.10100000352E+00 0. -1.
       -3    1    3    3    0  502  0.31160443806E+03  0.16620923303E+04 -0.19979068979E+03  0.17028107852E+04  0.10100000352E+00 0.  1.
</event>
<event>
 5   0  0.4077370E-07  0.4020682E+04  0.7818609E-02  0.8000387E-01
        2   -1    0    0  501    0  0.00000000000E+00  0.00000000000E+00  0.23257239011E+04  0.23257239011E+04  0.25500000920E-02 0. -1.
       -2   -1    0    0    0  501  0.00000000000E+00  0.00000000000E+00 -0.17377261066E+04  0.17377261066E+04  0.25500000920E-02 0.  1.
    10030    2    1    2    0    0  0.00000000000E+00  0.00000000000E+00  0.58799779448E+03  0.40634500077E+04  0.40206821012E+04 0.  0.
        3    1    3    3  502    0  0.12616687112E+04  0.46187333110E+03 -0.12173465191E+04  0.18130271560E+04  0.10100000352E+00 0.  1.
       -3    1    3    3    0  502 -0.12616687112E+04 -0.46187333110E+03  0.18053443136E+04  0.22504228517E+04  0.10100000352E+00 0. -1.
</event>
<event>
 5   0  0.1351000E-07  0.4030494E+04  0.7818609E-02  0.7998423E-01
       -1   -1    0    0    0  501  0.00000000000E+00  0.00000000000E+00  0.23473392890E+04  0.23473392890E+04  0.50400001928E-02 0.  1.
        1   -1    0    0  501    0  0.00000000000E+00  0.00000000000E+00 -0.17301378966E+04  0.17301378966E+04  0.50400001928E-02 0. -1.
    10030    2    1    2    0    0  0.00000000000E+00  0.00000000000E+00  0.61720139240E+03  0.40774771856E+04  0.40304940938E+04 0.  0.
        4    1    3    3  502    0  0.11003203902E+04  0.16822321807E+04  0.16336898376E+03  0.20167550939E+04  0.12699999809E+01 0.  1.
       -4    1    3    3    0  502 -0.11003203902E+04 -0.16822321807E+04  0.45383240864E+03  0.20607220917E+04  0.12699999809E+01 0. -1.
</event>
<event>
 5   0  0.4301754E-07  0.4051593E+04  0.7818609E-02  0.7994219E-01
       -2   -1    0    0    0  501  0.00000000000E+00  0.00000000000E+00  0.30068820454E+04  0.30068820454E+04  0.25500000920E-02 0. -1.
        2   -1    0    0  501    0  0.00000000000E+00  0.00000000000E+00 -0.13648196320E+04  0.13648196320E+04  0.25500000920E-02 0.  1.
    10030    2    1    2    0    0  0.00000000000E+00  0.00000000000E+00  0.16420624134E+04  0.43717016774E+04  0.40515930924E+04 0.  0.
        1    1    3    3  502    0  0.14218479759E+04 -0.10966241980E+04 -0.19094685002E+03  0.18057400139E+04  0.50400001928E-02 0.  1.
       -1    1    3    3    0  502 -0.14218479759E+04  0.10966241980E+04  0.18330092634E+04  0.25659616634E+04  0.50400001928E-02 0. -1.
</event>
<event>
 5   0  0.1368865E-07  0.4045855E+04  0.7818609E-02  0.7995359E-01
        1   -1    0    0  501    0  0.00000000000E+00  0.00000000000E+00  0.21108069371E+04  0.21108069371E+04  0.50400001928E-02 0. -1.
       -1   -1    0    0    0  501  0.00000000000E+00  0.00000000000E+00 -0.19387070017E+04  0.19387070017E+04  0.50400001928E-02 0.  1.
    10030    2    1    2    0    0  0.00000000000E+00  0.00000000000E+00  0.17209993538E+03  0.40495139388E+04  0.40458552561E+04 0.  0.
        5    1    3    3  502    0 -0.13648466767E+04  0.11635251927E+04  0.10226401325E+04  0.20645610321E+04  0.46999998093E+01 0. -1.
       -5    1    3    3    0  502  0.13648466767E+04 -0.11635251927E+04 -0.85054019711E+03  0.19849529067E+04  0.46999998093E+01 0.  1.
</event>
<event>
 5   0  0.1351000E-07  0.3895822E+04  0.7818609E-02  0.8025899E-01
       -1   -1    0    0    0  501  0.00000000000E+00  0.00000000000E+00  0.20763553272E+04  0.20763553272E+04  0.50400001928E-02 0.  1.
        1   -1    0    0  501    0  0.00000000000E+00  0.00000000000E+00 -0.18274126658E+04  0.18274126658E+04  0.50400001928E-02 0. -1.
    10030    2    1    2    0    0  0.00000000000E+00  0.00000000000E+00  0.24894266141E+03  0.39037679930E+04  0.38958223900E+04 0.  0.
        4    1    3    3  502    0  0.15676302476E+04  0.12575929341E+03  0.12761963991E+04  0.20253293202E+04  0.12699999809E+01 0.  1.
       -4    1    3    3    0  502 -0.15676302476E+04 -0.12575929341E+03 -0.10272537377E+04  0.18784386728E+04  0.12699999809E+01 0. -1.
</event>
<event>
 5   0  0.4077370E-07  0.4035980E+04  0.7818609E-02  0.7997327E-01
        2   -1    0    0  501    0  0.00000000000E+00  0.00000000000E+00  0.22716532240E+04  0.22716532240E+04  0.25500000920E-02 0. -1.
       -2   -1    0    0    0  501  0.00000000000E+00  0.00000000000E+00 -0.17926516579E+04  0.17926516579E+04  0.25500000920E-02 0.  1.
    10030    2    1    2    0    0  0.00000000000E+00  0.00000000000E+00  0.47900156610E+03  0.40643048819E+04  0.40359796423E+04 0.  0.
        3    1    3    3  502    0 -0.32441039979E+03 -0.53030152925E+03 -0.16938223042E+04  0.18042992623E+04  0.10100000352E+00 0.  1.
       -3    1    3    3    0  502  0.32441039979E+03  0.53030152925E+03  0.21728238703E+04  0.22600056197E+04  0.10100000352E+00 0. -1.
</event>
<event>
 5   0  0.1368865E-07  0.3979712E+04  0.7818609E-02  0.8008652E-01
        1   -1    0    0  501    0  0.00000000000E+00  0.00000000000E+00  0.27677788783E+04  0.27677788783E+04  0.50400001928E-02 0.  1.
       -1   -1    0    0    0  501  0.00000000000E+00  0.00000000000E+00 -0.14305791392E+04  0.14305791392E+04  0.50400001928E-02 0. -1.
    10030    2    1    2    0    0  0.00000000000E+00  0.00000000000E+00  0.13371997392E+04  0.41983580175E+04  0.39797119118E+04 0.  0.
        5    1    3    3  502    0  0.25939901277E+03 -0.15811040504E+04 -0.57619681254E+03  0.17027045319E+04  0.46999998093E+01 0. -1.
       -5    1    3    3    0  502 -0.25939901277E+03  0.15811040504E+04  0.19133965517E+04  0.24956534856E+04  0.46999998093E+01 0.  1.
</event>
<event>
 5   0  0.1351000E-07  0.3166281E+04  0.7818609E-02  0.8197779E-01
       -1   -1    0    0    0  501  0.00000000000E+00  0.00000000000E+00  0.15468805616E+04  0.15468805616E+04  0.50400001928E-02 0.  1.
        1   -1    0    0  501    0  0.00000000000E+00  0.00000000000E+00 -0.16202506493E+04  0.16202506493E+04  0.50400001928E-02 0. -1.
    10030    2    1    2    0    0  0.00000000000E+00  0.00000000000E+00 -0.73370087729E+02  0.31671312109E+04  0.31662812473E+04 0.  0.
        3    1    3    3  502    0 -0.14872171540E+04  0.20477185141E+03 -0.53940114531E+03  0.15952115784E+04  0.10100000352E+00 0. -1.
       -3    1    3    3    0  502  0.14872171540E+04 -0.20477185141E+03  0.46603105758E+03  0.15719196325E+04  0.10100000352E+00 0.  1.
</event>
<event>
 5   0  0.1421304E-07  0.3759295E+04  0.7818609E-02  0.8054947E-01
       -1   -1    0    0    0  501  0.00000000000E+00  0.00000000000E+00  0.16950457196E+04  0.16950457196E+04  0.50400001928E-02 0. -1.
        1   -1    0    0  501    0  0.00000000000E+00  0.00000000000E+00 -0.20843537978E+04  0.20843537978E+04  0.50400001928E-02 0.  1.
    10030    2    1    2    0    0  0.00000000000E+00  0.00000000000E+00 -0.38930807828E+03  0.37793995174E+04  0.37592951377E+04 0.  0.
        2    1    3    3  502    0 -0.74929018302E+03  0.13655493812E+04  0.86307234723E+03  0.17807455651E+04  0.25500000920E-02 0. -1.
       -2    1    3    3    0  502  0.74929018302E+03 -0.13655493812E+04 -0.12523804255E+04  0.19986539523E+04  0.25500000920E-02 0.  1.
</event>
<event>
 5   0  0.4149487E-07  0.4030656E+04  0.7818609E-02  0.7998391E-01
        2   -1    0    0  501    0  0.00000000000E+00  0.00000000000E+00  0.28538007282E+04  0.28538007282E+04  0.25500000920E-02 0.  1.
       -2   -1    0    0    0  501  0.00000000000E+00  0.00000000000E+00 -0.14232064549E+04  0.14232064549E+04  0.25500000920E-02 0. -1.
    10030    2    1    2    0    0  0.00000000000E+00  0.00000000000E+00  0.14305942734E+04  0.42770071831E+04  0.40306563324E+04 0.  0.
        2    1    3    3  502    0  0.16705512635E+04 -0.38396245135E+03  0.18399729259E+04  0.25146906482E+04  0.25500000920E-02 0.  1.
       -2    1    3    3    0  502 -0.16705512635E+04  0.38396245135E+03 -0.40937865258E+03  0.17623165349E+04  0.25500000920E-02 0. -1.
</event>
<event>
 5   0  0.1421304E-07  0.3875861E+04  0.7818609E-02  0.8030069E-01
        1   -1    0    0  501    0  0.00000000000E+00  0.00000000000E+00  0.12705131130E+04  0.12705131130E+04  0.50400001928E-02 0. -1.
       -1   -1    0    0    0  501  0.00000000000E+00  0.00000000000E+00 -0.29559504640E+04  0.29559504640E+04  0.50400001928E-02 0.  1.
    10030    2    1    2    0    0  0.00000000000E+00  0.00000000000E+00 -0.16854373509E+04  0.42264635770E+04  0.38758605888E+04 0.  0.
        2    1    3    3  502    0  0.13775239966E+04 -0.48476511872E+03 -0.22319315867E+04  0.26672248104E+04  0.25500000920E-02 0.  1.
       -2    1    3    3    0  502 -0.13775239966E+04  0.48476511872E+03  0.54649423581E+03  0.15592387666E+04  0.25500000920E-02 0. -1.
</event>
<event>
 5   0  0.1421304E-07  0.3996286E+04  0.7818609E-02  0.8005296E-01
        1   -1    0    0  501    0  0.00000000000E+00  0.00000000000E+00  0.20788948716E+04  0.20788948716E+04  0.50400001928E-02 0. -1.
       -1   -1    0    0    0  501  0.00000000000E+00  0.00000000000E+00 -0.19205274143E+04  0.19205274143E+04  0.50400001928E-02 0.  1.
    10030    2    1    2    0    0  0.00000000000E+00  0.00000000000E+00  0.15836745736E+03  0.39994222859E+04  0.39962855716E+04 0.  0.
        2    1    3    3  502    0 -0.12106000684E+04  0.96496466634E+03  0.13434508903E+04  0.20497730673E+04  0.25500000920E-02 0. -1.
       -2    1    3    3    0  502  0.12106000684E+04 -0.96496466634E+03 -0.11850834329E+04  0.19496492186E+04  0.25500000920E-02 0.  1.
</event>
<event>
 5   0  0.1351000E-07  0.3149703E+04  0.7818609E-02  0.8202228E-01
       -1   -1    0    0    0  501  0.00000000000E+00  0.00000000000E+00  0.17602752209E+04  0.17602752209E+04  0.50400001928E-02 0.  1.
        1   -1    0    0  501    0  0.00000000000E+00  0.00000000000E+00 -0.14089596266E+04  0.14089596266E+04  0.50400001928E-02 0. -1.
    10030    2    1    2    0    0  0.00000000000E+00  0.00000000000E+00  0.35131559431E+03  0.31692348475E+04  0.31497026640E+04 0.  0.
        3    1    3    3  502    0  0.35718155012E+03  0.12547686560E+04 -0.71193131887E+03  0.14862265146E+04  0.10100000352E+00 0. -1.
       -3    1    3    3    0  502 -0.35718155012E+03 -0.12547686560E+04  0.10632469132E+04  0.16830083328E+04  0.10100000352E+00 0.  1.
</event>
<event>
 5   0  0.4301754E-07  0.3946548E+04  0.7818609E-02  0.8015417E-01
        2   -1    0    0  501    0  0.00000000000E+00  0.00000000000E+00  0.17505757948E+04  0.17505757948E+04  0.25500000920E-02 0. -1.
       -2   -1    0    0    0  501  0.00000000000E+00  0.00000000000E+00 -0.22243029257E+04  0.22243029257E+04  0.25500000920E-02 0.  1.
    10030    2    1    2    0    0  0.00000000000E+00  0.00000000000E+00 -0.47372713092E+03  0.39748787206E+04  0.39465482955E+04 0.  0.
        1    1    3    3  502    0 -0.87812835248E+03 -0.17353034714E+04 -0.57306108874E+03  0.20275074729E+04  0.50400001928E-02 0. -1.
       -1    1    3    3    0  502  0.87812835248E+03  0.17353034714E+04  0.99333957811E+02  0.19473712477E+04  0.50400001928E-02 0.  1.
</event>
<event>
 5   0  0.4079777E-07  0.3909471E+04  0.7818609E-02  0.8023062E-01
       -2   -1    0    0    0  501  0.00000000000E+00  0.00000000000E+00  0.23107788491E+04  0.23107788491E+04  0.25500000920E-02 0. -1.
        2   -1    0    0  501    0  0.00000000000E+00  0.00000000000E+00 -0.16535510591E+04  0.16535510591E+04  0.25500000920E-02 0.  1.
    10030    2    1    2    0    0  0.00000000000E+00  0.00000000000E+00  0.65722779007E+03  0.39643299082E+04  0.39094709684E+04 0.  0.
        4    1    3    3  502    0 -0.15689844864E+04  0.64468055317E+03 -0.65644105875E+03  0.18188572816E+04  0.12699999809E+01 0.  1.
       -4    1    3    3    0  502  0.15689844864E+04 -0.64468055317E+03  0.13136688488E+04  0.21454726266E+04  0.12699999809E+01 0. -1.
</event>
<event>
 5   0  0.1372952E-07  0.2463739E+04  0.7818609E-02  0.8416019E-01
        1   -1    0    0  501    0  0.00000000000E+00  0.00000000000E+00  0.24249330251E+04  0.24249330251E+04  0.50400001928E-02 0.  1.
       -1   -1    0    0    0  501  0.00000000000E+00  0.00000000000E+00 -0.62579137230E+03  0.62579137232E+03  0.50400001928E-02 0. -1.
    10030    2    1    2    0    0  0.00000000000E+00  0.00000000000E+00  0.17991416528E+04  0.30507243975E+04  0.24637387569E+04 0.  0.
        1    1    3    3  502    0 -0.19584700699E+03  0.33511394171E+03  0.23472352980E+04  0.23791113779E+04  0.50400001928E-02 0.  1.
       -1    1    3    3    0  502  0.19584700699E+03 -0.33511394171E+03 -0.54809364521E+03  0.67161301955E+03  0.50400001928E-02 0. -1.
</event>
<event>
 5   0  0.4301754E-07  0.4040895E+04  0.7818609E-02  0.7996347E-01
        2   -1    0    0  501    0  0.00000000000E+00  0.00000000000E+00  0.19157910780E+04  0.19157910780E+04  0.25500000920E-02 0. -1.
       -2   -1    0    0    0  501  0.00000000000E+00  0.00000000000E+00 -0.21308213175E+04  0.21308213175E+04  0.25500000920E-02 0.  1.
    10030    2    1    2    0    0  0.00000000000E+00  0.00000000000E+00 -0.21503023948E+03  0.40466123955E+04  0.40408951825E+04 0.  0.
        1    1    3    3  502    0 -0.17470385421E+04 -0.69634982931E+02 -0.11214770774E+04  0.20771864465E+04  0.50400001928E-02 0.  1.
       -1    1    3    3    0  502  0.17470385421E+04  0.69634982931E+02  0.90644683796E+03  0.19694259490E+04  0.50400001928E-02 0. -1.
</event>
<event>
 5   0  0.4079777E-07  0.4030538E+04  0.7818609E-02  0.7998414E-01
        2   -1    0    0  501    0  0.00000000000E+00  0.00000000000E+00  0.33872399903E+04  0.33872399903E+04  0.25500000920E-02 0.  1.
       -2   -1    0    0    0  501  0.00000000000E+00  0.00000000000E+00 -0.11990027150E+04  0.11990027150E+04  0.25500000920E-02 0. -1.
    10030    2    1    2    0    0  0.00000000000E+00  0.00000000000E+00  0.21882372753E+04  0.45862427053E+04  0.40305383981E+04 0.  0.
        4    1    3    3  502    0 -0.63300045659E+03  0.17275990674E+04  0.15855396834E+03  0.18467347101E+04  0.12699999809E+01 0.  1.
       -4    1    3    3    0  502  0.63300045659E+03 -0.17275990674E+04  0.20296833070E+04  0.27395079951E+04  0.12699999809E+01 0. -1.
</event>
<event>
 5   0  0.4047916E-07  0.4055878E+04  0.7818609E-02  0.7993368E-01
       -2   -1    0    0    0  501  0.00000000000E+00  0.00000000000E+00  0.33060507778E+04  0.33060507778E+04  0.25500000920E-02 0. -1.
        2   -1    0    0  501    0  0.00000000000E+00  0.00000000000E+00 -0.12439420588E+04  0.12439420588E+04  0.25500000920E-02 0.  1.
    10030    2    1    2    0    0  0.00000000000E+00  0.00000000000E+00  0.20621087191E+04  0.45499928366E+04  0.40558775183E+04 0.  0.
        5    1    3    3  502    0 -0.26333000859E+03  0.14396321170E+03  0.32809944876E+04  0.32946949809E+04  0.46999998093E+01 0. -1.
       -5    1    3    3    0  502  0.26333000859E+03 -0.14396321170E+03 -0.12188857685E+04  0.12552978557E+04  0.46999998093E+01 0.  1.
</event>
<event>
 5   0  0.4301754E-07  0.3021367E+04  0.7818609E-02  0.8237656E-01
        2   -1    0    0  501    0  0.00000000000E+00  0.00000000000E+00  0.18233925667E+04  0.18233925667E+04  0.25500000920E-02 0.  1.
       -2   -1    0    0    0  501  0.00000000000E+00  0.00000000000E+00 -0.12516034095E+04  0.12516034095E+04  0.25500000920E-02 0. -1.
    10030    2    1    2    0    0  0.00000000000E+00  0.00000000000E+00  0.57178915719E+03  0.30749959762E+04  0.30213668121E+04 0.  0.
        1    1    3    3  502    0  0.12279147752E+04  0.78877148197E+02  0.11779035417E+04  0.17033652143E+04  0.50400001928E-02 0.  1.
       -1    1    3    3    0  502 -0.12279147752E+04 -0.78877148197E+02 -0.60611438455E+03  0.13716307619E+04  0.50400001928E-02 0. -1.
</event>
<event>
 5   0  0.4047916E-07  0.3811998E+04  0.7818609E-02  0.8043585E-01
       -2   -1    0    0    0  501  0.00000000000E+00  0.00000000000E+00  0.18877731629E+04  0.18877731629E+04  0.25500000920E-02 0.  1.
        2   -1    0    0  501    0  0.00000000000E+00  0.00000000000E+00 -0.19244011149E+04  0.19244011149E+04  0.25500000920E-02 0. -1.
    10030    2    1    2    0    0  0.00000000000E+00  0.00000000000E+00 -0.36627951995E+02  0.38121742777E+04  0.38119983102E+04 0.  0.
        5    1    3    3  502    0  0.61508803521E+03  0.98729489451E+03 -0.15282598907E+04  0.19205949295E+04  0.46999998093E+01 0. -1.
       -5    1    3    3    0  502 -0.61508803521E+03 -0.98729489451E+03  0.14916319387E+04  0.18915793482E+04  0.46999998093E+01 0.  1.
</event>
<event>
 5   0  0.4301754E-07  0.3955989E+04  0.7818609E-02  0.8013484E-01
       -2   -1    0    0    0  501  0.00000000000E+00  0.00000000000E+00  0.18715215650E+04  0.18715215650E+04  0.25500000920E-02 0.  1.
        2   -1    0    0  501    0  0.00000000000E+00  0.00000000000E+00 -0.20905252374E+04  0.20905252374E+04  0.25500000920E-02 0. -1.
    10030    2    1    2    0    0  0.00000000000E+00  0.00000000000E+00 -0.21900367246E+03  0.39620468024E+04  0.39559894155E+04 0.  0.
        1    1    3    3  502    0 -0.18250782356E+04  0.38443874665E+03 -0.76911437729E+03  0.20174837400E+04  0.50400001928E-02 0.  1.
       -1    1    3    3    0  502  0.18250782356E+04 -0.38443874665E+03  0.55011070482E+03  0.19445630624E+04  0.50400001928E-02 0. -1.
</event>
<event>
 5   0  0.1351000E-07  0.4011173E+04  0.7818609E-02  0.8002296E-01
       -1   -1    0    0    0  501  0.00000000000E+00  0.00000000000E+00  0.17418464752E+04  0.17418464752E+04  0.50400001928E-02 0.  1.
        1   -1    0    0  501    0  0.00000000000E+00  0.00000000000E+00 -0.23092600871E+04  0.23092600871E+04  0.50400001928E-02 0. -1.
    10030    2    1    2    0    0  0.00000000000E+00  0.00000000000E+00 -0.56741361194E+03  0.40511065624E+04  0.40111726680E+04 0.  0.
        4    1    3    3  502    0 -0.66636228027E+03 -0.13703807593E+04 -0.16006800161E+04  0.22100136291E+04  0.12699999809E+01 0. -1.
       -4    1    3    3    0  502  0.66636228027E+03  0.13703807593E+04  0.10332664041E+04  0.18410929333E+04  0.12699999809E+01 0.  1.
</event>
<event>
 5   0  0.1351000E-07  0.3828763E+04  0.7818609E-02  0.8040010E-01
        1   -1    0    0  501    0  0.00000000000E+00  0.00000000000E+00  0.25331511668E+04  0.25331511668E+04  0.50400001928E-02 0.  1.
       -1   -1    0    0    0  501  0.00000000000E+00  0.00000000000E+00 -0.14467582867E+04  0.14467582867E+04  0.50400001928E-02 0. -1.
    10030    2    1    2    0    0  0.00000000000E+00  0.00000000000E+00  0.10863928800E+04  0.39799094535E+04  0.38287634777E+04 0.  0.
        3    1    3    3  502    0 -0.66068915226E+03  0.26438040090E+02 -0.13242912869E+04  0.14801880112E+04  0.10100000352E+00 0. -1.
       -3    1    3    3    0  502  0.66068915226E+03 -0.26438040090E+02  0.24106841669E+04  0.24997214422E+04  0.10100000352E+00 0.  1.
</event>
<event>
 5   0  0.4301754E-07  0.3018906E+04  0.7818609E-02  0.8238353E-01
       -2   -1    0    0    0  501  0.00000000000E+00  0.00000000000E+00  0.11211474174E+04  0.11211474174E+04  0.25500000920E-02 0. -1.
        2   -1    0    0  501    0  0.00000000000E+00  0.00000000000E+00 -0.20322464488E+04  0.20322464488E+04  0.25500000920E-02 0.  1.
    10030    2    1    2    0    0  0.00000000000E+00  0.00000000000E+00 -0.91109903139E+03  0.31533938662E+04  0.30189056677E+04 0.  0.
        1    1    3    3  502    0  0.85180071657E+03  0.11961410478E+04 -0.90510035342E+02  0.14712273562E+04  0.50400001928E-02 0. -1.
       -1    1    3    3    0  502 -0.85180071657E+03 -0.11961410478E+04 -0.82058899605E+03  0.16821665100E+04  0.50400001928E-02 0.  1.
</event>
<event>
 5   0  0.1421304E-07  0.3989392E+04  0.7818609E-02  0.8006690E-01
       -1   -1    0    0    0  501  0.00000000000E+00  0.00000000000E+00  0.11141554435E+04  0.11141554435E+04  0.50400001928E-02 0.  1.
        1   -1    0    0  501    0  0.00000000000E+00  0.00000000000E+00 -0.35711468366E+04  0.35711468366E+04  0.50400001928E-02 0. -1.
    10030    2    1    2    0    0  0.00000000000E+00  0.00000000000E+00 -0.24569913931E+04  0.46853022801E+04  0.39893922783E+04 0.  0.
        2    1    3    3  502    0 -0.62771264429E+03  0.41633439192E+03 -0.33977012553E+04  0.34801912749E+04  0.25500000920E-02 0. -1.
       -2    1    3    3    0  502  0.62771264429E+03 -0.41633439192E+03  0.94070986225E+03  0.12051110051E+04  0.25500000920E-02 0.  1.
</event>
<event>
 5   0  0.4149487E-07  0.4009512E+04  0.7818609E-02  0.8002630E-01
       -2   -1    0    0    0  501  0.00000000000E+00  0.00000000000E+00  0.17927712809E+04  0.17927712809E+04  0.25500000920E-02 0. -1.
        2   -1    0    0  501    0  0.00000000000E+00  0.00000000000E+00 -0.22418070322E+04  0.22418070322E+04  0.25500000920E-02 0.  1.
    10030    2    1    2    0    0  0.00000000000E+00  0.00000000000E+00 -0.44903575131E+03  0.40345783131E+04  0.40095123217E+04 0.  0.
        2    1    3    3  502    0 -0.62821578799E+03  0.63922330632E+03  0.15799541376E+04  0.18164571530E+04  0.25500000920E-02 0. -1.
       -2    1    3    3    0  502  0.62821578799E+03 -0.63922330632E+03 -0.20289898889E+04  0.22181211601E+04  0.25500000920E-02 0.  1.
</event>
<event>
 5   0  0.1351000E-07  0.2976951E+04  0.7818609E-02  0.8250343E-01
       -1   -1    0    0    0  501  0.00000000000E+00  0.00000000000E+00  0.17498723588E+04  0.17498723589E+04  0.50400001928E-02 0.  1.
        1   -1    0    0  501    0  0.00000000000E+00  0.00000000000E+00 -0.12661260683E+04  0.12661260683E+04  0.50400001928E-02 0. -1.
    10030    2    1    2    0    0  0.00000000000E+00  0.00000000000E+00  0.48374629055E+03  0.30159984272E+04  0.29769507955E+04 0.  0.
        4    1    3    3  502    0 -0.14227196941E+04  0.40521427644E+03  0.40904494217E+03  0.15348124692E+04  0.12699999809E+01 0. -1.
       -4    1    3    3    0  502  0.14227196941E+04 -0.40521427644E+03  0.74701348384E+02  0.14811859580E+04  0.12699999809E+01 0.  1.
</event>
<event>
 5   0  0.4047916E-07  0.3028829E+04  0.7818609E-02  0.8235546E-01
       -2   -1    0    0    0  501  0.00000000000E+00  0.00000000000E+00  0.10036753722E+04  0.10036753722E+04  0.25500000920E-02 0. -1.
        2   -1    0    0  501    0  0.00000000000E+00  0.00000000000E+00 -0.22850525850E+04  0.22850525850E+04  0.25500000920E-02 0.  1.
    10030    2    1    2    0    0  0.00000000000E+00  0.00000000000E+00 -0.12813772127E+04  0.32887279572E+04  0.30288288191E+04 0.  0.
        5    1    3    3  502    0  0.17736860895E+03 -0.17482481961E+03  0.98128012672E+03  0.10124011646E+04  0.46999998093E+01 0. -1.
       -5    1    3    3    0  502 -0.17736860895E+03  0.17482481961E+03 -0.22626573394E+04  0.22763267926E+04  0.46999998093E+01 0.  1.
</event>
<event>
 5   0  0.1351000E-07  0.4011582E+04  0.7818609E-02  0.8002214E-01
       -1   -1    0    0    0  501  0.00000000000E+00  0.00000000000E+00  0.17957436109E+04  0.17957436109E+04  0.50400001928E-02 0.  1.
        1   -1    0    0  501    0  0.00000000000E+00  0.00000000000E+00 -0.22404080630E+04  0.22404080630E+04  0.50400001928E-02 0. -1.
    10030    2    1    2    0    0  0.00000000000E+00  0.00000000000E+00 -0.44466445216E+03  0.40361516739E+04  0.40115824633E+04 0.  0.
        4    1    3    3  502    0 -0.18602924368E+04  0.66876151651E+03 -0.56392142317E+03  0.20557088561E+04  0.12699999809E+01 0. -1.
       -4    1    3    3    0  502  0.18602924368E+04 -0.66876151651E+03  0.11925697101E+03  0.19804428178E+04  0.12699999809E+01 0.  1.
</event>
<event>
 5   0  0.4301754E-07  0.4025108E+04  0.7818609E-02  0.7999501E-01
       -2   -1    0    0    0  501  0.00000000000E+00  0.00000000000E+00  0.31590657990E+04  0.31590657990E+04  0.25500000920E-02 0. -1.
        2   -1    0    0  501    0  0.00000000000E+00  0.00000000000E+00 -0.12821429706E+04  0.12821429706E+04  0.25500000920E-02 0.  1.
    10030    2    1    2    0    0  0.00000000000E+00  0.00000000000E+00  0.18769228284E+04  0.44412087695E+04  0.40251082011E+04 0.  0.
        1    1    3    3  502    0  0.17690199426E+04  0.89105848010E+03  0.54531677536E+03  0.20544554407E+04  0.50400001928E-02 0. -1.
       -1    1    3    3    0  502 -0.17690199426E+04 -0.89105848010E+03  0.13316060531E+04  0.23867533289E+04  0.50400001928E-02 0.  1.
</event>
<event>
 5   0  0.1421304E-07  0.3645299E+04  0.7818609E-02  0.8080193E-01
       -1   -1    0    0    0  501  0.00000000000E+00  0.00000000000E+00  0.18471987901E+04  0.18471987901E+04  0.50400001928E-02 0.  1.
        1   -1    0    0  501    0  0.00000000000E+00  0.00000000000E+00 -0.17984265837E+04  0.17984265837E+04  0.50400001928E-02 0. -1.
    10030    2    1    2    0    0  0.00000000000E+00  0.00000000000E+00  0.48772206393E+02  0.36456253738E+04  0.36452991150E+04 0.  0.
        2    1    3    3  502    0 -0.26205936910E+03 -0.12872284679E+04 -0.12392218042E+04  0.18059077832E+04  0.25500000920E-02 0. -1.
       -2    1    3    3    0  502  0.26205936910E+03  0.12872284679E+04  0.12879940106E+04  0.18397175905E+04  0.25500000920E-02 0.  1.
</event>
<event>
 5   0  0.1421304E-07  0.3102008E+04  0.7818609E-02  0.8215187E-01
        1   -1    0    0  501    0  0.00000000000E+00  0.00000000000E+00  0.15610772125E+04  0.15610772125E+04  0.50400001928E-02 0. -1.
       -1   -1    0    0    0  501  0.00000000000E+00  0.00000000000E+00 -0.15409956896E+04  0.15409956896E+04  0.50400001928E-02 0.  1.
    10030    2    1    2    0    0  0.00000000000E+00  0.00000000000E+00  0.20081522929E+02  0.31020729021E+04  0.31020079017E+04 0.  0.
        2    1    3    3  502    0 -0.13605464350E+04  0.53659670183E+03 -0.50629421312E+03  0.15476939143E+04  0.25500000920E-02 0.  1.
       -2    1    3    3    0  502  0.13605464350E+04 -0.53659670183E+03  0.52637573605E+03  0.15543789878E+04  0.25500000920E-02 0. -1.
</event>
<event>
 5   0  0.1351000E-07  0.4078581E+04  0.7818609E-02  0.7988879E-01
        1   -1    0    0  501    0  0.00000000000E+00  0.00000000000E+00  0.31917054742E+04  0.31917054742E+04  0.50400001928E-02 0. -1.
       -1   -1    0    0    0  501  0.00000000000E+00  0.00000000000E+00 -0.13029726545E+04  0.13029726545E+04  0.50400001928E-02 0.  1.
    10030    2    1    2    0    0  0.00000000000E+00  0.00000000000E+00  0.18887328197E+04  0.44946781287E+04  0.40785806129E+04 0.  0.
        3    1    3    3  502    0  0.18067138891E+04 -0.45378904895E+03  0.29911842624E+02  0.18630712027E+04  0.10100000352E+00 0.  1.
       -3    1    3    3    0  502 -0.18067138891E+04  0.45378904895E+03  0.18588209771E+04  0.26316069260E+04  0.10100000352E+00 0. -1.
</event>
<event>
 5   0  0.1368865E-07  0.3902867E+04  0.7818609E-02  0.8024433E-01
        1   -1    0    0  501    0  0.00000000000E+00  0.00000000000E+00  0.15304461523E+04  0.15304461523E+04  0.50400001928E-02 0.  1.
       -1   -1    0    0    0  501  0.00000000000E+00  0.00000000000E+00 -0.24882239197E+04  0.24882239197E+04  0.50400001928E-02 0. -1.
    10030    2    1    2    0    0  0.00000000000E+00  0.00000000000E+00 -0.95777776737E+03  0.40186700720E+04  0.39028670098E+04 0.  0.
        5    1    3    3  502    0 -0.42748427953E+03  0.15853793970E+04 -0.15646429468E+04  0.22681049982E+04  0.46999998093E+01 0. -1.
       -5    1    3    3    0  502  0.42748427953E+03 -0.15853793970E+04  0.60686517946E+03  0.17505650739E+04  0.46999998093E+01 0.  1.
</event>
<event>
 5   0  0.1647436E-07  0.2506760E+04  0.7818609E-02  0.8400581E-01
        1   -1    0    0  501    0  0.00000000000E+00  0.00000000000E+00  0.19890109728E+04  0.19890109729E+04  0.50400001928E-02 0. -1.
       -1   -1    0    0    0  501  0.00000000000E+00  0.00000000000E+00 -0.78982030904E+03  0.78982030906E+03  0.50400001928E-02 0.  1.
    10030    2    1    2    0    0  0.00000000000E+00  0.00000000000E+00  0.11991906638E+04  0.27788312819E+04  0.25067598699E+04 0.  0.
        4    1    3    3  502    0 -0.11999074880E+03 -0.58256933424E+03  0.18225938443E+04  0.19171944980E+04  0.12699999809E+01 0. -1.
       -4    1    3    3    0  502  0.11999074880E+03  0.58256933424E+03 -0.62340318051E+03  0.86163678390E+03  0.12699999809E+01 0.  1.
</event>
<event>
 5   0  0.4079777E-07  0.2690504E+04  0.7818609E-02  0.8338093E-01
        2   -1    0    0  501    0  0.00000000000E+00  0.00000000000E+00  0.12192671955E+04  0.12192671955E+04  0.25500000920E-02 0. -1.
       -2   -1    0    0    0  501  0.00000000000E+00  0.00000000000E+00 -0.14842545784E+04  0.14842545784E+04  0.25500000920E-02 0.  1.
    10030    2    1    2    0    0  0.00000000000E+00  0.00000000000E+00 -0.26498738294E+03  0.27035217739E+04  0.26905039804E+04 0.  0.
        4    1    3    3  502    0 -0.45809801661E+03 -0.11242773733E+04  0.44983414521E+03  0.12946836587E+04  0.12699999809E+01 0. -1.
       -4    1    3    3    0  502  0.45809801661E+03  0.11242773733E+04 -0.71482152814E+03  0.14088381152E+04  0.12699999809E+01 0.  1.
</event>
<event>
 5   0  0.4301754E-07  0.4043779E+04  0.7818609E-02  0.7995773E-01
       -2   -1    0    0    0  501  0.00000000000E+00  0.00000000000E+00  0.23143361444E+04  0.23143361444E+04  0.25500000920E-02 0. -1.
        2   -1    0    0  501    0  0.00000000000E+00  0.00000000000E+00 -0.17663974934E+04  0.17663974934E+04  0.25500000920E-02 0.  1.
    10030    2    1    2    0    0  0.00000000000E+00  0.00000000000E+00  0.54793865099E+03  0.40807336379E+04  0.40437792049E+04 0.  0.
        1    1    3    3  502    0 -0.14505211804E+04 -0.84144537741E+03 -0.86595334968E+03  0.18873042208E+04  0.50400001928E-02 0.  1.
       -1    1    3    3    0  502  0.14505211804E+04  0.84144537741E+03  0.14138920007E+04  0.21934294171E+04  0.50400001928E-02 0. -1.
</event>
<event>
 5   0  0.4047916E-07  0.3962454E+04  0.7818609E-02  0.8012164E-01
       -2   -1    0    0    0  501  0.00000000000E+00  0.00000000000E+00  0.17789869444E+04  0.17789869444E+04  0.25500000920E-02 0.  1.
        2   -1    0    0  501    0  0.00000000000E+00  0.00000000000E+00 -0.22064582770E+04  0.22064582770E+04  0.25500000920E-02 0. -1.
    10030    2    1    2    0    0  0.00000000000E+00  0.00000000000E+00 -0.42747133254E+03  0.39854452214E+04  0.39624540215E+04 0.  0.
        5    1    3    3  502    0 -0.91684447216E+03 -0.37464099870E+03 -0.19395817762E+04  0.21778336072E+04  0.46999998093E+01 0. -1.
       -5    1    3    3    0  502  0.91684447216E+03  0.37464099870E+03  0.15121104437E+04  0.18076116142E+04  0.46999998093E+01 0.  1.
</event>
<event>
 5   0  0.4149487E-07  0.4000137E+04  0.7818609E-02  0.8004519E-01
       -2   -1    0    0    0  501  0.00000000000E+00  0.00000000000E+00  0.15437884470E+04  0.15437884470E+04  0.25500000920E-02 0.  1.
        2   -1    0    0  501    0  0.00000000000E+00  0.00000000000E+00 -0.25912061250E+04  0.25912061250E+04  0.25500000920E-02 0. -1.
    10030    2    1    2    0    0  0.00000000000E+00  0.00000000000E+00 -0.10474176780E+04  0.41349945719E+04  0.40001370374E+04 0.  0.
        2    1    3    3  502    0  0.83622879177E+03  0.96462787757E+02  0.13517587604E+04  0.15924306604E+04  0.25500000920E-02 0.  1.
       -2    1    3    3    0  502 -0.83622879177E+03 -0.96462787757E+02 -0.23991764385E+04  0.25425639116E+04  0.25500000920E-02 0. -1.
</event>
<event>
 5   0  0.1421304E-07  0.3935540E+04  0.7818609E-02  0.8017678E-01
        1   -1    0    0  501    0  0.00000000000E+00  0.00000000000E+00  0.29147398563E+04  0.29147398563E+04  0.50400001928E-02 0. -1.
       -1   -1    0    0    0  501  0.00000000000E+00  0.00000000000E+00 -0.13284614722E+04  0.13284614722E+04  0.50400001928E-02 0.  1.
    10030    2    1    2    0    0  0.00000000000E+00  0.00000000000E+00  0.15862783841E+04  0.42432013285E+04  0.39355404206E+04 0.  0.
        2    1    3    3  502    0 -0.13242442776E+04 -0.12409557492E+04  0.16132084329E+04  0.24281753491E+04  0.25500000920E-02 0. -1.
       -2    1    3    3    0  502  0.13242442776E+04  0.12409557492E+04 -0.26930048744E+02  0.18150259794E+04  0.25500000920E-02 0.  1.
</event>
<event>
 5   0  0.1372952E-07  0.3981613E+04  0.7818609E-02  0.8008266E-01
       -1   -1    0    0    0  501  0.00000000000E+00  0.00000000000E+00  0.22377293235E+04  0.22377293235E+04  0.50400001928E-02 0. -1.
        1   -1    0    0  501    0  0.00000000000E+00  0.00000000000E+00 -0.17711308361E+04  0.17711308361E+04  0.50400001928E-02 0.  1.
    10030    2    1    2    0    0  0.00000000000E+00  0.00000000000E+00  0.46659848748E+03  0.40088601596E+04  0.39816134457E+04 0.  0.
        1    1    3    3  502    0  0.86570887103E+03  0.11972766604E+04 -0.11101434974E+04  0.18480643484E+04  0.50400001928E-02 0.  1.
       -1    1    3    3    0  502 -0.86570887103E+03 -0.11972766604E+04  0.15767419849E+04  0.21607958112E+04  0.50400001928E-02 0. -1.
</event>
<event>
 5   0  0.4047916E-07  0.3794440E+04  0.7818609E-02  0.8047349E-01
        2   -1    0    0  501    0  0.00000000000E+00  0.00000000000E+00  0.16199964568E+04  0.16199964569E+04  0.25500000920E-02 0.  1.
       -2   -1    0    0    0  501  0.00000000000E+00  0.00000000000E+00 -0.22218839526E+04  0.22218839526E+04  0.25500000920E-02 0. -1.
    10030    2    1    2    0    0  0.00000000000E+00  0.00000000000E+00 -0.60188749578E+03  0.38418804095E+04  0.37944402121E+04 0.  0.
        5    1    3    3  502    0 -0.19657041376E+03  0.11475798543E+04  0.12157305302E+04  0.16833307047E+04  0.46999998093E+01 0.  1.
       -5    1    3    3    0  502  0.19657041376E+03 -0.11475798543E+04 -0.18176180260E+04  0.21585497047E+04  0.46999998093E+01 0. -1.
</event>
<event>
 5   0  0.4301754E-07  0.3972792E+04  0.7818609E-02  0.8010058E-01
        2   -1    0    0  501    0  0.00000000000E+00  0.00000000000E+00  0.16834363245E+04  0.16834363245E+04  0.25500000920E-02 0. -1.
       -2   -1    0    0    0  501  0.00000000000E+00  0.00000000000E+00 -0.23438783818E+04  0.23438783818E+04  0.25500000920E-02 0.  1.
    10030    2    1    2    0    0  0.00000000000E+00  0.00000000000E+00 -0.66044205721E+03  0.40273147063E+04  0.39727924729E+04 0.  0.
        1    1    3    3  502    0  0.57653822176E+03 -0.18945975267E+04 -0.17358871488E+03  0.19879711143E+04  0.50400001928E-02 0.  1.
       -1    1    3    3    0  502 -0.57653822176E+03  0.18945975267E+04 -0.48685334234E+03  0.20393435920E+04  0.50400001928E-02 0. -1.
</event>
<event>
 5   0  0.1368865E-07  0.4165847E+04  0.7818609E-02  0.7971901E-01
       -1   -1    0    0    0  501  0.00000000000E+00  0.00000000000E+00  0.28092049630E+04  0.28092049630E+04  0.50400001928E-02 0.  1.
        1   -1    0    0  501    0  0.00000000000E+00  0.00000000000E+00 -0.15444120795E+04  0.15444120795E+04  0.50400001928E-02 0. -1.
    10030    2    1    2    0    0  0.00000000000E+00  0.00000000000E+00  0.12647928835E+04  0.43536170425E+04  0.41658468904E+04 0.  0.
        5    1    3    3  502    0  0.99952836007E+03  0.15796823320E+04 -0.32776116445E+03  0.18978679310E+04  0.46999998093E+01 0. -1.
       -5    1    3    3    0  502 -0.99952836007E+03 -0.15796823320E+04  0.15925540480E+04  0.24557491115E+04  0.46999998093E+01 0.  1.
</event>
<event>
 5   0  0.1351000E-07  0.3984844E+04  0.7818609E-02  0.8007611E-01
        1   -1    0    0  501    0  0.00000000000E+00  0.00000000000E+00  0.17354037126E+04  0.17354037126E+04  0.50400001928E-02 0. -1.
       -1   -1    0    0    0  501  0.00000000000E+00  0.00000000000E+00 -0.22875052836E+04  0.22875052836E+04  0.50400001928E-02 0.  1.
    10030    2    1    2    0    0  0.00000000000E+00  0.00000000000E+00 -0.55210157104E+03  0.40229089962E+04  0.39848438673E+04 0.  0.
        3    1    3    3  502    0 -0.60168186306E+03  0.14506658356E+04  0.96174977747E+03  0.18415795056E+04  0.10100000352E+00 0. -1.
       -3    1    3    3    0  502  0.60168186306E+03 -0.14506658356E+04 -0.15138513485E+04  0.21813294906E+04  0.10100000352E+00 0.  1.
</event>
<event>
 5   0  0.4047916E-07  0.3804121E+04  0.7818609E-02  0.8045271E-01
       -2   -1    0    0    0  501  0.00000000000E+00  0.00000000000E+00  0.18428834107E+04  0.18428834107E+04  0.25500000920E-02 0. -1.
        2   -1    0    0  501    0  0.00000000000E+00  0.00000000000E+00 -0.19631373985E+04  0.19631373985E+04  0.25500000920E-02 0.  1.
    10030    2    1    2    0    0  0.00000000000E+00  0.00000000000E+00 -0.12025398774E+03  0.38060208092E+04  0.38041205788E+04 0.  0.
        5    1    3    3  502    0 -0.11061026055E+04  0.52050697648E+03  0.13977971042E+04  0.18569462354E+04  0.46999998093E+01 0. -1.
       -5    1    3    3    0  502  0.11061026055E+04 -0.52050697648E+03 -0.15180510919E+04  0.19490745738E+04  0.46999998093E+01 0.  1.
</event>
<event>
 5   0  0.1351000E-07  0.3300709E+04  0.7818609E-02  0.8162715E-01
        1   -1    0    0  501    0  0.00000000000E+00  0.00000000000E+00  0.74820384536E+03  0.74820384538E+03  0.50400001928E-02 0.  1.
       -1   -1    0    0    0  501  0.00000000000E+00  0.00000000000E+00 -0.36402769534E+04  0.36402769534E+04  0.50400001928E-02 0. -1.
    10030    2    1    2    0    0  0.00000000000E+00  0.00000000000E+00 -0.28920731081E+04  0.43884807988E+04  0.33007085390E+04 0.  0.
        3    1    3    3  502    0  0.11024229966E+04 -0.10433924287E+04 -0.23073443757E+04  0.27618548663E+04  0.10100000352E+00 0. -1.
       -3    1    3    3    0  502 -0.11024229966E+04  0.10433924287E+04 -0.58472873233E+03  0.16266259326E+04  0.10100000352E+00 0.  1.
</event>
<event>
 5   0  0.4077370E-07  0.3977285E+04  0.7818609E-02  0.8009145E-01
        2   -1    0    0  501    0  0.00000000000E+00  0.00000000000E+00  0.14606528210E+04  0.14606528210E+04  0.25500000920E-02 0. -1.
       -2   -1    0    0    0  501  0.00000000000E+00  0.00000000000E+00 -0.27074872936E+04  0.27074872936E+04  0.25500000920E-02 0.  1.
    10030    2    1    2    0    0  0.00000000000E+00  0.00000000000E+00 -0.12468344725E+04  0.41681401146E+04  0.39772849801E+04 0.  0.
        3    1    3    3  502    0 -0.10782384054E+04  0.10119550832E+04  0.77006873157E+03  0.16672303413E+04  0.10100000352E+00 0. -1.
       -3    1    3    3    0  502  0.10782384054E+04 -0.10119550832E+04 -0.20169032041E+04  0.25009097733E+04  0.10100000352E+00 0.  1.
</event>
<event>
 5   0  0.1421304E-07  0.3342273E+04  0.7818609E-02  0.8152222E-01
       -1   -1    0    0    0  501  0.00000000000E+00  0.00000000000E+00  0.12491825416E+04  0.12491825416E+04  0.50400001928E-02 0.  1.
        1   -1    0    0  501    0  0.00000000000E+00  0.00000000000E+00 -0.22356199791E+04  0.22356199791E+04  0.50400001928E-02 0. -1.
    10030    2    1    2    0    0  0.00000000000E+00  0.00000000000E+00 -0.98643743751E+03  0.34848025206E+04  0.33422731471E+04 0.  0.
        2    1    3    3  502    0  0.10850500046E+04 -0.73832462687E+03 -0.15718598074E+04  0.20477304562E+04  0.25500000920E-02 0. -1.
       -2    1    3    3    0  502 -0.10850500046E+04  0.73832462687E+03  0.58542236986E+03  0.14370720644E+04  0.25500000920E-02 0.  1.
</event>
<event>
 5   0  0.4301754E-07  0.4004299E+04  0.7818609E-02  0.8003680E-01
       -2   -1    0    0    0  501  0.00000000000E+00  0.00000000000E+00  0.18733053059E+04  0.18733053059E+04  0.25500000920E-02 0.  1.
        2   -1    0    0  501    0  0.00000000000E+00  0.00000000000E+00 -0.21398554816E+04  0.21398554816E+04  0.25500000920E-02 0. -1.
    10030    2    1    2    0    0  0.00000000000E+00  0.00000000000E+00 -0.26655017571E+03  0.40131607874E+04  0.40042990035E+04 0.  0.
        1    1    3    3  502    0 -0.34495088943E+02  0.89892835595E+03 -0.19259035796E+04  0.21256450076E+04  0.50400001928E-02 0. -1.
       -1    1    3    3    0  502  0.34495088943E+02 -0.89892835595E+03  0.16593534039E+04  0.18875157799E+04  0.50400001928E-02 0.  1.
</event>
<event>
 5   0  0.1421304E-07  0.3965235E+04  0.7818609E-02  0.8011597E-01
        1   -1    0    0  501    0  0.00000000000E+00  0.00000000000E+00  0.21240089129E+04  0.21240089130E+04  0.50400001928E-02 0.  1.
       -1   -1    0    0    0  501  0.00000000000E+00  0.00000000000E+00 -0.18506381121E+04  0.18506381121E+04  0.50400001928E-02 0. -1.
    10030    2    1    2    0    0  0.00000000000E+00  0.00000000000E+00  0.27337080083E+03  0.39746470251E+04  0.39652348454E+04 0.  0.
        2    1    3    3  502    0  0.99328885541E+03  0.11937457786E+03 -0.15790723240E+04  0.18693160366E+04  0.25500000920E-02 0. -1.
       -2    1    3    3    0  502 -0.99328885541E+03 -0.11937457786E+03  0.18524431249E+04  0.21053309885E+04  0.25500000920E-02 0.  1.
</event>
<event>
 5   0  0.4079777E-07  0.4038124E+04  0.7818609E-02  0.7996900E-01
        2   -1    0    0  501    0  0.00000000000E+00  0.00000000000E+00  0.27252927789E+04  0.27252927789E+04  0.25500000920E-02 0. -1.
       -2   -1    0    0    0  501  0.00000000000E+00  0.00000000000E+00 -0.14958434861E+04  0.14958434861E+04  0.25500000920E-02 0.  1.
    10030    2    1    2    0    0  0.00000000000E+00  0.00000000000E+00  0.12294492928E+04  0.42211362650E+04  0.40381240451E+04 0.  0.
        4    1    3    3  502    0 -0.35386856963E+02 -0.16953026308E+04  0.17604397747E+04  0.24442694313E+04  0.12699999809E+01 0. -1.
       -4    1    3    3    0  502  0.35386856963E+02  0.16953026308E+04 -0.53099048188E+03  0.17768668336E+04  0.12699999809E+01 0.  1.
</event>
<event>
 5   0  0.1351000E-07  0.4019755E+04  0.7818609E-02  0.8000573E-01
       -1   -1    0    0    0  501  0.00000000000E+00  0.00000000000E+00  0.14398256279E+04  0.14398256280E+04  0.50400001928E-02 0. -1.
        1   -1    0    0  501    0  0.00000000000E+00  0.00000000000E+00 -0.28056227965E+04  0.28056227965E+04  0.50400001928E-02 0.  1.
    10030    2    1    2    0    0  0.00000000000E+00  0.00000000000E+00 -0.13657971685E+04  0.42454484244E+04  0.40197550198E+04 0.  0.
        4    1    3    3  502    0  0.11251267873E+04  0.14499145628E+04 -0.15483221334E+04  0.24011383901E+04  0.12699999809E+01 0.  1.
       -4    1    3    3    0  502 -0.11251267873E+04 -0.14499145628E+04  0.18252496481E+03  0.18443100343E+04  0.12699999809E+01 0. -1.
</event>
<event>
 5   0  0.4047916E-07  0.3056894E+04  0.7818609E-02  0.8227668E-01
       -2   -1    0    0    0  501  0.00000000000E+00  0.00000000000E+00  0.15857499950E+04  0.15857499950E+04  0.25500000920E-02 0. -1.
        2   -1    0    0  501    0  0.00000000000E+00  0.00000000000E+00 -0.14732149882E+04  0.14732149882E+04  0.25500000920E-02 0.  1.
    10030    2    1    2    0    0  0.00000000000E+00  0.00000000000E+00  0.11253500682E+03  0.30589649832E+04  0.30568942802E+04 0.  0.
        5    1    3    3  502    0  0.12121629978E+04 -0.45645397292E+03 -0.75572482848E+03  0.14996104391E+04  0.46999998093E+01 0.  1.
       -5    1    3    3    0  502 -0.12121629978E+04  0.45645397292E+03  0.86825983530E+03  0.15593545441E+04  0.46999998093E+01 0. -1.
</event>
<event>
 5   0  0.1368865E-07  0.3984057E+04  0.7818609E-02  0.8007770E-01
        1   -1    0    0  501    0  0.00000000000E+00  0.00000000000E+00  0.14523704113E+04  0.14523704113E+04  0.50400001928E-02 0. -1.
       -1   -1    0    0    0  501  0.00000000000E+00  0.00000000000E+00 -0.27322082168E+04  0.27322082168E+04  0.50400001928E-02 0.  1.
    10030    2    1    2    0    0  0.00000000000E+00  0.00000000000E+00 -0.12798378055E+04  0.41845786281E+04  0.39840574151E+04 0.  0.
        5    1    3    3  502    0  0.13951360882E+03 -0.12595023920E+04 -0.22542696302E+04  0.25860324782E+04  0.46999998093E+01 0.  1.
       -5    1    3    3    0  502 -0.13951360882E+03  0.12595023920E+04  0.97443182466E+03  0.15985461499E+04  0.46999998093E+01 0. -1.
</event>
<event>
 5   0  0.1421304E-07  0.4025969E+04  0.7818609E-02  0.7999328E-01
        1   -1    0    0  501    0  0.00000000000E+00  0.00000000000E+00  0.19302223422E+04  0.19302223422E+04  0.50400001928E-02 0.  1.
       -1   -1    0    0    0  501  0.00000000000E+00  0.00000000000E+00 -0.20992954036E+04  0.20992954036E+04  0.50400001928E-02 0. -1.
    10030    2    1    2    0    0  0.00000000000E+00  0.00000000000E+00 -0.16907306140E+03  0.40295177458E+04  0.40259691458E+04 0.  0.
        2    1    3    3  502    0  0.19093178484E+04 -0.19245694773E+03  0.52392411535E+03  0.19892286952E+04  0.25500000920E-02 0.  1.
       -2    1    3    3    0  502 -0.19093178484E+04  0.19245694773E+03 -0.69299717675E+03  0.20402890506E+04  0.25500000920E-02 0. -1.
</event>
<event>
 5   0  0.1351000E-07  0.4149251E+04  0.7818609E-02  0.7975096E-01
       -1   -1    0    0    0  501  0.00000000000E+00  0.00000000000E+00  0.17373651089E+04  0.17373651089E+04  0.50400001928E-02 0.  1.
        1   -1    0    0  501    0  0.00000000000E+00  0.00000000000E+00 -0.24773558438E+04  0.24773558438E+04  0.50400001928E-02 0. -1.
    10030    2    1    2    0    0  0.00000000000E+00  0.00000000000E+00 -0.73999073495E+03  0.42147209527E+04  0.41492513085E+04 0.  0.
        3    1    3    3  502    0  0.93605812357E+03  0.11610958463E+04  0.10948839828E+04  0.18501673765E+04  0.10100000352E+00 0.  1.
       -3    1    3    3    0  502 -0.93605812357E+03 -0.11610958463E+04 -0.18348747177E+04  0.23645535763E+04  0.10100000352E+00 0. -1.
</event>
<event>
 5   0  0.1368865E-07  0.3918241E+04  0.7818609E-02  0.8021246E-01
       -1   -1    0    0    0  501  0.00000000000E+00  0.00000000000E+00  0.17898802661E+04  0.17898802661E+04  0.50400001928E-02 0. -1.
        1   -1    0    0  501    0  0.00000000000E+00  0.00000000000E+00 -0.21443635277E+04  0.21443635277E+04  0.50400001928E-02 0.  1.
    10030    2    1    2    0    0  0.00000000000E+00  0.00000000000E+00 -0.35448326167E+03  0.39342437938E+04  0.39182414226E+04 0.  0.
        5    1    3    3  502    0  0.99117673072E+03  0.36070992490E+03  0.14804366739E+04  0.18177617547E+04  0.46999998093E+01 0. -1.
       -5    1    3    3    0  502 -0.99117673072E+03 -0.36070992490E+03 -0.18349199356E+04  0.21164820390E+04  0.46999998093E+01 0.  1.
</event>
<event>
 5   0  0.1368865E-07  0.3622594E+04  0.7818609E-02  0.8085336E-01
        1   -1    0    0  501    0  0.00000000000E+00  0.00000000000E+00  0.15979467092E+04  0.15979467092E+04  0.50400001928E-02 0.  1.
       -1   -1    0    0    0  501  0.00000000000E+00  0.00000000000E+00 -0.20531329971E+04  0.20531329971E+04  0.50400001928E-02 0. -1.
    10030    2    1    2    0    0  0.00000000000E+00  0.00000000000E+00 -0.45518628784E+03  0.36510797063E+04  0.36225941624E+04 0.  0.
        5    1    3    3  502    0  0.14233867561E+03  0.12917916781E+04  0.10439888782E+04  0.16670095698E+04  0.46999998093E+01 0.  1.
       -5    1    3    3    0  502 -0.14233867561E+03 -0.12917916781E+04 -0.14991751660E+04  0.19840701365E+04  0.46999998093E+01 0. -1.
</event>
<event>
 5   0  0.1368865E-07  0.3808593E+04  0.7818609E-02  0.8044313E-01
       -1   -1    0    0    0  501  0.00000000000E+00  0.00000000000E+00  0.14683408726E+04  0.14683408726E+04  0.50400001928E-02 0. -1.
        1   -1    0    0  501    0  0.00000000000E+00  0.00000000000E+00 -0.24696883584E+04  0.24696883584E+04  0.50400001928E-02 0.  1.
    10030    2    1    2    0    0  0.00000000000E+00  0.00000000000E+00 -0.10013474857E+04  0.39380292310E+04  0.38085925795E+04 0.  0.
        5    1    3    3  502    0 -0.11192321863E+04 -0.14324916113E+04 -0.10870532208E+04  0.21181170171E+04  0.46999998093E+01 0.  1.
       -5    1    3    3    0  502  0.11192321863E+04  0.14324916113E+04  0.85705735027E+02  0.18199122139E+04  0.46999998093E+01 0. -1.
</event>
<event>
 5   0  0.4079777E-07  0.3865366E+04  0.7818609E-02  0.8032271E-01
       -2   -1    0    0    0  501  0.00000000000E+00  0.00000000000E+00  0.35336095480E+04  0.35336095480E+04  0.25500000920E-02 0. -1.
        2   -1    0    0  501    0  0.00000000000E+00  0.00000000000E+00 -0.10570672841E+04  0.10570672841E+04  0.25500000920E-02 0.  1.
    10030    2    1    2    0    0  0.00000000000E+00  0.00000000000E+00  0.24765422639E+04  0.45906768322E+04  0.38653657256E+04 0.  0.
        4    1    3    3  502    0  0.15735482455E+04  0.11080029372E+04  0.14491802008E+04  0.24091179832E+04  0.12699999809E+01 0. -1.
       -4    1    3    3    0  502 -0.15735482455E+04 -0.11080029372E+04  0.10273620631E+04  0.21815588489E+04  0.12699999809E+01 0.  1.
</event>
<event>
 5   0  0.1351000E-07  0.4007303E+04  0.7818609E-02  0.8003075E-01
       -1   -1    0    0    0  501  0.00000000000E+00  0.00000000000E+00  0.19614045668E+04  0.19614045668E+04  0.50400001928E-02 0. -1.
        1   -1    0    0  501    0  0.00000000000E+00  0.00000000000E+00 -0.20468080541E+04  0.20468080541E+04  0.50400001928E-02 0.  1.
    10030    2    1    2    0    0  0.00000000000E+00  0.00000000000E+00 -0.85403487277E+02  0.40082126209E+04  0.40073026662E+04 0.  0.
        4    1    3    3  502    0  0.69097754035E+03 -0.10856896543E+04  0.14933699573E+04  0.19713770387E+04  0.12699999809E+01 0. -1.
       -4    1    3    3    0  502 -0.69097754035E+03  0.10856896543E+04 -0.15787734446E+04  0.20368355822E+04  0.12699999809E+01 0.  1.
</event>
<event>
 5   0  0.4077370E-07  0.2514520E+04  0.7818609E-02  0.8397831E-01
       -2   -1    0    0    0  501  0.00000000000E+00  0.00000000000E+00  0.88761232510E+03  0.88761232510E+03  0.25500000920E-02 0.  1.
        2   -1    0    0  501    0  0.00000000000E+00  0.00000000000E+00 -0.17808474144E+04  0.17808474144E+04  0.25500000920E-02 0. -1.
    10030    2    1    2    0    0  0.00000000000E+00  0.00000000000E+00 -0.89323508933E+03  0.26684597395E+04  0.25145195280E+04 0.  0.
        3    1    3    3  502    0  0.46532977789E+03 -0.11030919725E+04 -0.85399134398E+03  0.14705933931E+04  0.10100000352E+00 0.  1.
       -3    1    3    3    0  502 -0.46532977789E+03  0.11030919725E+04 -0.39243745344E+02  0.11978663464E+04  0.10100000352E+00 0. -1.
</event>
<event>
 5   0  0.4301754E-07  0.4039427E+04  0.7818609E-02  0.7996640E-01
        2   -1    0    0  501    0  0.00000000000E+00  0.00000000000E+00  0.12641233487E+04  0.12641233487E+04  0.25500000920E-02 0. -1.
       -2   -1    0    0    0  501  0.00000000000E+00  0.00000000000E+00 -0.32269339637E+04  0.32269339637E+04  0.25500000920E-02 0.  1.
    10030    2    1    2    0    0  0.00000000000E+00  0.00000000000E+00 -0.19628106149E+04  0.44910573124E+04  0.40394269734E+04 0.  0.
        1    1    3    3  502    0 -0.10191324874E+04 -0.12541441990E+04  0.36554785480E+03  0.16568445712E+04  0.50400001928E-02 0. -1.
       -1    1    3    3    0  502  0.10191324874E+04  0.12541441990E+04 -0.23283584697E+04  0.28342127412E+04  0.50400001928E-02 0.  1.
</event>
<event>
 5   0  0.1351000E-07  0.2917923E+04  0.7818609E-02  0.8267565E-01
        1   -1    0    0  501    0  0.00000000000E+00  0.00000000000E+00  0.11275058043E+04  0.11275058043E+04  0.50400001928E-02 0.  1.
       -1   -1    0    0    0  501  0.00000000000E+00  0.00000000000E+00 -0.18878555562E+04  0.18878555563E+04  0.50400001928E-02 0. -1.
    10030    2    1    2    0    0  0.00000000000E+00  0.00000000000E+00 -0.76034975194E+03  0.30153613606E+04  0.29179226154E+04 0.  0.
        4    1    3    3  502    0  0.78041381692E+03 -0.11417548088E+04 -0.86036002907E+03  0.16287635683E+04  0.12699999809E+01 0. -1.
       -4    1    3    3    0  502 -0.78041381692E+03  0.11417548088E+04  0.10001027713E+03  0.13865977922E+04  0.12699999809E+01 0.  1.
</event>
<event>
 5   0  0.4301754E-07  0.4130210E+04  0.7818609E-02  0.7978782E-01
        2   -1    0    0  501    0  0.00000000000E+00  0.00000000000E+00  0.16950857567E+04  0.16950857567E+04  0.25500000920E-02 0.  1.
       -2   -1    0    0    0  501  0.00000000000E+00  0.00000000000E+00 -0.25158953883E+04  0.25158953883E+04  0.25500000920E-02 0. -1.
    10030    2    1    2    0    0  0.00000000000E+00  0.00000000000E+00 -0.82080963166E+03  0.42109811450E+04  0.41302098920E+04 0.  0.
        1    1    3    3  502    0  0.20342688637E+04 -0.15866937218E+03 -0.73479783141E+03  0.21687216587E+04  0.50400001928E-02 0.  1.
       -1    1    3    3    0  502 -0.20342688637E+04  0.15866937218E+03 -0.86011800247E+02  0.20422594863E+04  0.50400001928E-02 0. -1.
</event>
<event>
 5   0  0.4301754E-07  0.3936295E+04  0.7818609E-02  0.8017523E-01
        2   -1    0    0  501    0  0.00000000000E+00  0.00000000000E+00  0.16792548588E+04  0.16792548588E+04  0.25500000920E-02 0. -1.
       -2   -1    0    0    0  501  0.00000000000E+00  0.00000000000E+00 -0.23067406723E+04  0.23067406723E+04  0.25500000920E-02 0.  1.
    10030    2    1    2    0    0  0.00000000000E+00  0.00000000000E+00 -0.62748581356E+03  0.39859955311E+04  0.39362954574E+04 0.  0.
        1    1    3    3  502    0 -0.17778896428E+04 -0.31336490300E+03 -0.11075515718E+04  0.21179611962E+04  0.50400001928E-02 0.  1.
       -1    1    3    3    0  502  0.17778896428E+04  0.31336490300E+03  0.48006575819E+03  0.18680343349E+04  0.50400001928E-02 0. -1.
</event>
<event>
 5   0  0.1421304E-07  0.3817518E+04  0.7818609E-02  0.8042406E-01
        1   -1    0    0  501    0  0.00000000000E+00  0.00000000000E+00  0.27556074337E+04  0.27556074337E+04  0.50400001928E-02 0.  1.
       -1   -1    0    0    0  501  0.00000000000E+00  0.00000000000E+00 -0.13221627488E+04  0.13221627489E+04  0.50400001928E-02 0. -1.
    10030    2    1    2    0    0  0.00000000000E+00  0.00000000000E+00  0.14334446849E+04  0.40777701826E+04  0.38175183035E+04 0.  0.
        2    1    3    3  502    0  0.11326178333E+04  0.13756780433E+04  0.14475028207E+04  0.22957738676E+04  0.25500000920E-02 0.  1.
       -2    1    3    3    0  502 -0.11326178333E+04 -0.13756780433E+04 -0.14058135896E+02  0.17819963149E+04  0.25500000920E-02 0. -1.
</event>
<event>
 5   0  0.4301754E-07  0.4256855E+04  0.7818609E-02  0.7954645E-01
        2   -1    0    0  501    0  0.00000000000E+00  0.00000000000E+00  0.17255153400E+04  0.17255153400E+04  0.25500000920E-02 0.  1.
       -2   -1    0    0    0  501  0.00000000000E+00  0.00000000000E+00 -0.26254206919E+04  0.26254206919E+04  0.25500000920E-02 0. -1.
    10030    2    1    2    0    0  0.00000000000E+00  0.00000000000E+00 -0.89990535187E+03  0.43509360319E+04  0.42568550259E+04 0.  0.
        1    1    3    3  502    0  0.11743113534E+04 -0.79898345454E+03 -0.20701753220E+04  0.25105791322E+04  0.50400001928E-02 0. -1.
       -1    1    3    3    0  502 -0.11743113534E+04  0.79898345454E+03  0.11702699701E+04  0.18403568997E+04  0.50400001928E-02 0.  1.
</event>
<event>
 5   0  0.1351000E-07  0.4021310E+04  0.7818609E-02  0.8000262E-01
       -1   -1    0    0    0  501  0.00000000000E+00  0.00000000000E+00  0.24589341429E+04  0.24589341429E+04  0.50400001928E-02 0. -1.
        1   -1    0    0  501    0  0.00000000000E+00  0.00000000000E+00 -0.16440995550E+04  0.16440995550E+04  0.50400001928E-02 0.  1.
    10030    2    1    2    0    0  0.00000000000E+00  0.00000000000E+00  0.81483458793E+03  0.41030336979E+04  0.40213095032E+04 0.  0.
        4    1    3    3  502    0 -0.12287467100E+04  0.11390411035E+04  0.15415361538E+04  0.22767451415E+04  0.12699999809E+01 0. -1.
       -4    1    3    3    0  502  0.12287467100E+04 -0.11390411035E+04 -0.72670156587E+03  0.18262885565E+04  0.12699999809E+01 0.  1.
</event>
<event>
 5   0  0.1421304E-07  0.4079496E+04  0.7818609E-02  0.7988699E-01
        1   -1    0    0  501    0  0.00000000000E+00  0.00000000000E+00  0.15965997540E+04  0.15965997540E+04  0.50400001928E-02 0.  1.
       -1   -1    0    0    0  501  0.00000000000E+00  0.00000000000E+00 -0.26058947817E+04  0.26058947817E+04  0.50400001928E-02 0. -1.
    10030    2    1    2    0    0  0.00000000000E+00  0.00000000000E+00 -0.10092950277E+04  0.42024945357E+04  0.40794955411E+04 0.  0.
        2    1    3    3  502    0  0.11012600172E+04 -0.57088656931E+03 -0.21726918347E+04  0.25018542941E+04  0.25500000920E-02 0. -1.
       -2    1    3    3    0  502 -0.11012600172E+04  0.57088656931E+03  0.11633968071E+04  0.17006402415E+04  0.25500000920E-02 0.  1.
</event>
<event>
 5   0  0.1351000E-07  0.3969423E+04  0.7818609E-02  0.8010743E-01
        1   -1    0    0  501    0  0.00000000000E+00  0.00000000000E+00  0.24361823354E+04  0.24361823354E+04  0.50400001928E-02 0.  1.
       -1   -1    0    0    0  501  0.00000000000E+00  0.00000000000E+00 -0.16169069018E+04  0.16169069018E+04  0.50400001928E-02 0. -1.
    10030    2    1    2    0    0  0.00000000000E+00  0.00000000000E+00  0.81927543360E+03  0.40530892373E+04  0.39694231482E+04 0.  0.
        4    1    3    3  502    0 -0.98760328638E+03  0.16909333216E+04  0.79618424268E+02  0.19598358236E+04  0.12699999809E+01 0. -1.
       -4    1    3    3    0  502  0.98760328638E+03 -0.16909333216E+04  0.73965700933E+03  0.20932534136E+04  0.12699999809E+01 0.  1.
</event>
<event>
 5   0  0.4301754E-07  0.3992211E+04  0.7818609E-02  0.8006120E-01
       -2   -1    0    0    0  501  0.00000000000E+00  0.00000000000E+00  0.15843350265E+04  0.15843350265E+04  0.25500000920E-02 0. -1.
        2   -1    0    0  501    0  0.00000000000E+00  0.00000000000E+00 -0.25148957763E+04  0.25148957763E+04  0.25500000920E-02 0.  1.
    10030    2    1    2    0    0  0.00000000000E+00  0.00000000000E+00 -0.93056074983E+03  0.40992308028E+04  0.39922111499E+04 0.  0.
        1    1    3    3  502    0  0.72465200447E+03  0.18377373284E+04 -0.75938211432E+03  0.21163790330E+04  0.50400001928E-02 0.  1.
       -1    1    3    3    0  502 -0.72465200447E+03 -0.18377373284E+04 -0.17117863551E+03  0.19828517698E+04  0.50400001928E-02 0. -1.
</event>
<event>
 5   0  0.1372952E-07  0.2894069E+04  0.7818609E-02  0.8274644E-01
        1   -1    0    0  501    0  0.00000000000E+00  0.00000000000E+00  0.14850491576E+04  0.14850491576E+04  0.50400001928E-02 0. -1.
       -1   -1    0    0    0  501  0.00000000000E+00  0.00000000000E+00 -0.14099933809E+04  0.14099933809E+04  0.50400001928E-02 0.  1.
    10030    2    1    2    0    0  0.00000000000E+00  0.00000000000E+00  0.75055776661E+02  0.28950425385E+04  0.28940694411E+04 0.  0.
        1    1    3    3  502    0  0.72956873864E+03  0.84735361432E+03 -0.88127470632E+03  0.14237007411E+04  0.50400001928E-02 0.  1.
       -1    1    3    3    0  502 -0.72956873864E+03 -0.84735361432E+03  0.95633048298E+03  0.14713417974E+04  0.50400001928E-02 0. -1.
</event>
<event>
 5   0  0.1351000E-07  0.3898774E+04  0.7818609E-02  0.8025284E-01
       -1   -1    0    0    0  501  0.00000000000E+00  0.00000000000E+00  0.23545393535E+04  0.23545393535E+04  0.50400001928E-02 0.  1.
        1   -1    0    0  501    0  0.00000000000E+00  0.00000000000E+00 -0.16139501381E+04  0.16139501381E+04  0.50400001928E-02 0. -1.
    10030    2    1    2    0    0  0.00000000000E+00  0.00000000000E+00  0.74058921534E+03  0.39684894916E+04  0.38987737122E+04 0.  0.
        4    1    3    3  502    0 -0.12674627246E+02  0.14132001121E+04 -0.99640308621E+03  0.17291951671E+04  0.12699999809E+01 0. -1.
       -4    1    3    3    0  502  0.12674627246E+02 -0.14132001121E+04  0.17369923015E+04  0.22392943244E+04  0.12699999809E+01 0.  1.
</event>
<event>
 5   0  0.4149487E-07  0.2936135E+04  0.7818609E-02  0.8262207E-01
       -2   -1    0    0    0  501  0.00000000000E+00  0.00000000000E+00  0.13306720033E+04  0.13306720033E+04  0.25500000920E-02 0.  1.
        2   -1    0    0  501    0  0.00000000000E+00  0.00000000000E+00 -0.16196499827E+04  0.16196499827E+04  0.25500000920E-02 0. -1.
    10030    2    1    2    0    0  0.00000000000E+00  0.00000000000E+00 -0.28897797941E+03  0.29503219860E+04  0.29361354785E+04 0.  0.
        2    1    3    3  502    0 -0.72738739762E+03  0.56443307243E+03 -0.12934936085E+04  0.15877036357E+04  0.25500000920E-02 0. -1.
       -2    1    3    3    0  502  0.72738739762E+03 -0.56443307243E+03  0.10045156291E+04  0.13626183503E+04  0.25500000920E-02 0.  1.
</event>
<event>
 5   0  0.4149487E-07  0.3928714E+04  0.7818609E-02  0.8019084E-01
        2   -1    0    0  501    0  0.00000000000E+00  0.00000000000E+00  0.30298891332E+04  0.30298891332E+04  0.25500000920E-02 0.  1.
       -2   -1    0    0    0  501  0.00000000000E+00  0.00000000000E+00 -0.12735444412E+04  0.12735444412E+04  0.25500000920E-02 0. -1.
    10030    2    1    2    0    0  0.00000000000E+00  0.00000000000E+00  0.17563446920E+04  0.43034335744E+04  0.39287140201E+04 0.  0.
        2    1    3    3  502    0 -0.14400203581E+04 -0.11246773811E+04  0.88176018289E+02  0.18292984594E+04  0.25500000920E-02 0. -1.
       -2    1    3    3    0  502  0.14400203581E+04  0.11246773811E+04  0.16681686737E+04  0.24741351150E+04  0.25500000920E-02 0.  1.
</event>
<event>
 5   0  0.4047916E-07  0.4041561E+04  0.7818609E-02  0.7996215E-01
       -2   -1    0    0    0  501  0.00000000000E+00  0.00000000000E+00  0.26612206216E+04  0.26612206216E+04  0.25500000920E-02 0. -1.
        2   -1    0    0  501    0  0.00000000000E+00  0.00000000000E+00 -0.15344663396E+04  0.15344663396E+04  0.25500000920E-02 0.  1.
    10030    2    1    2    0    0  0.00000000000E+00  0.00000000000E+00  0.11267542820E+04  0.41956869613E+04  0.40415608204E+04 0.  0.
        5    1    3    3  502    0 -0.96096602089E+03 -0.16864135356E+04 -0.20277509992E+02  0.19411026696E+04  0.46999998093E+01 0.  1.
       -5    1    3    3    0  502  0.96096602089E+03  0.16864135356E+04  0.11470317919E+04  0.22545842917E+04  0.46999998093E+01 0. -1.
</event>
<event>
 5   0  0.4301754E-07  0.3951516E+04  0.7818609E-02  0.8014399E-01
        2   -1    0    0  501    0  0.00000000000E+00  0.00000000000E+00  0.25208966546E+04  0.25208966546E+04  0.25500000920E-02 0.  1.
       -2   -1    0    0    0  501  0.00000000000E+00  0.00000000000E+00 -0.15485045838E+04  0.15485045838E+04  0.25500000920E-02 0. -1.
    10030    2    1    2    0    0  0.00000000000E+00  0.00000000000E+00  0.97239207073E+03  0.40694012384E+04  0.39515161773E+04 0.  0.
        1    1    3    3  502    0  0.69901547408E+03 -0.14185222584E+04  0.17059251432E+04  0.23261574806E+04  0.50400001928E-02 0.  1.
       -1    1    3    3    0  502 -0.69901547408E+03  0.14185222584E+04 -0.73353307243E+03  0.17432437578E+04  0.50400001928E-02 0. -1.
</event>
<event>
 5   0  0.1351000E-07  0.3801171E+04  0.7818609E-02  0.8045904E-01
        1   -1    0    0  501    0  0.00000000000E+00  0.00000000000E+00  0.21912716219E+04  0.21912716219E+04  0.50400001928E-02 0.  1.
       -1   -1    0    0    0  501  0.00000000000E+00  0.00000000000E+00 -0.16484606791E+04  0.16484606791E+04  0.50400001928E-02 0. -1.
    10030    2    1    2    0    0  0.00000000000E+00  0.00000000000E+00  0.54281094284E+03  0.38397323010E+04  0.38011709279E+04 0.  0.
        3    1    3    3  502    0  0.54689908894E+03  0.10803907690E+04  0.17511491514E+04  0.21290528852E+04  0.10100000352E+00 0.  1.
       -3    1    3    3    0  502 -0.54689908894E+03 -0.10803907690E+04 -0.12083382085E+04  0.17106794158E+04  0.10100000352E+00 0. -1.
</event>
<event>
 5   0  0.4079777E-07  0.4022162E+04  0.7818609E-02  0.8000091E-01
       -2   -1    0    0    0  501  0.00000000000E+00  0.00000000000E+00  0.34110579373E+04  0.34110579373E+04  0.25500000920E-02 0.  1.
        2   -1    0    0  501    0  0.00000000000E+00  0.00000000000E+00 -0.11856869054E+04  0.11856869054E+04  0.25500000920E-02 0. -1.
    10030    2    1    2    0    0  0.00000000000E+00  0.00000000000E+00  0.22253710319E+04  0.45967448427E+04  0.40221619708E+04 0.  0.
        4    1    3    3  502    0 -0.59932917616E+03  0.91200003911E+03 -0.81786071164E+03  0.13637585157E+04  0.12699999809E+01 0. -1.
       -4    1    3    3    0  502  0.59932917616E+03 -0.91200003911E+03  0.30432317435E+04  0.32329863270E+04  0.12699999809E+01 0.  1.
</event>
<event>
 5   0  0.4047916E-07  0.3992694E+04  0.7818609E-02  0.8006022E-01
       -2   -1    0    0    0  501  0.00000000000E+00  0.00000000000E+00  0.21567341475E+04  0.21567341475E+04  0.25500000920E-02 0. -1.
        2   -1    0    0  501    0  0.00000000000E+00  0.00000000000E+00 -0.18478875372E+04  0.18478875372E+04  0.25500000920E-02 0.  1.
    10030    2    1    2    0    0  0.00000000000E+00  0.00000000000E+00  0.30884661036E+03  0.40046216847E+04  0.39926944046E+04 0.  0.
        5    1    3    3  502    0  0.12999968661E+04 -0.55226203540E+03 -0.12606047278E+04  0.18931802812E+04  0.46999998093E+01 0.  1.
       -5    1    3    3    0  502 -0.12999968661E+04  0.55226203540E+03  0.15694513381E+04  0.21114414035E+04  0.46999998093E+01 0. -1.
</event>
<event>
 5   0  0.4301754E-07  0.4059445E+04  0.7818609E-02  0.7992661E-01
        2   -1    0    0  501    0  0.00000000000E+00  0.00000000000E+00  0.18192015862E+04  0.18192015862E+04  0.25500000920E-02 0. -1.
       -2   -1    0    0    0  501  0.00000000000E+00  0.00000000000E+00 -0.22646053113E+04  0.22646053113E+04  0.25500000920E-02 0.  1.
    10030    2    1    2    0    0  0.00000000000E+00  0.00000000000E+00 -0.44540372508E+03  0.40838068976E+04  0.40594450727E+04 0.  0.
        1    1    3    3  502    0 -0.82695610396E+03 -0.15294093536E+04 -0.12762807082E+04  0.21568128836E+04  0.50400001928E-02 0.  1.
       -1    1    3    3    0  502  0.82695610396E+03  0.15294093536E+04  0.83087698313E+03  0.19269940140E+04  0.50400001928E-02 0. -1.
</event>
<event>
 5   0  0.1372952E-07  0.3986733E+04  0.7818609E-02  0.8007228E-01
        1   -1    0    0  501    0  0.00000000000E+00  0.00000000000E+00  0.15436577291E+04  0.15436577291E+04  0.50400001928E-02 0. -1.
       -1   -1    0    0    0  501  0.00000000000E+00  0.00000000000E+00 -0.25740871999E+04  0.25740871999E+04  0.50400001928E-02 0.  1.
    10030    2    1    2    0    0  0.00000000000E+00  0.00000000000E+00 -0.10304294707E+04  0.41177449290E+04  0.39867327985E+04 0.  0.
        1    1    3    3  502    0 -0.12784145829E+04 -0.12616958815E+04  0.37765207938E+03  0.18354403930E+04  0.50400001928E-02 0. -1.
       -1    1    3    3    0  502  0.12784145829E+04  0.12616958815E+04 -0.14080815501E+04  0.22823045360E+04  0.50400001928E-02 0.  1.
</event>
<event>
 5   0  0.4047916E-07  0.3754717E+04  0.7818609E-02  0.8055943E-01
       -2   -1    0    0    0  501  0.00000000000E+00  0.00000000000E+00  0.24775494936E+04  0.24775494936E+04  0.25500000920E-02 0. -1.
        2   -1    0    0  501    0  0.00000000000E+00  0.00000000000E+00 -0.14225650869E+04  0.14225650869E+04  0.25500000920E-02 0.  1.
    10030    2    1    2    0    0  0.00000000000E+00  0.00000000000E+00  0.10549844067E+04  0.39001145805E+04  0.37547172521E+04 0.  0.
        5    1    3    3  502    0 -0.11614720958E+04  0.13084205827E+03 -0.99851881042E+03  0.15372699758E+04  0.46999998093E+01 0.  1.
       -5    1    3    3    0  502  0.11614720958E+04 -0.13084205827E+03  0.20535032171E+04  0.23628446048E+04  0.46999998093E+01 0. -1.
</event>
<event>
 5   0  0.1421304E-07  0.4036453E+04  0.7818609E-02  0.7997233E-01
       -1   -1    0    0    0  501  0.00000000000E+00  0.00000000000E+00  0.32464748270E+04  0.32464748270E+04  0.50400001928E-02 0.  1.
        1   -1    0    0  501    0  0.00000000000E+00  0.00000000000E+00 -0.12546650640E+04  0.12546650640E+04  0.50400001928E-02 0. -1.
    10030    2    1    2    0    0  0.00000000000E+00  0.00000000000E+00  0.19918097630E+04  0.45011398910E+04  0.40364531691E+04 0.  0.
        2    1    3    3  502    0  0.71909882024E+03 -0.17096014220E+04  0.10841976748E+03  0.18578468670E+04  0.25500000920E-02 0. -1.
       -2    1    3    3    0  502 -0.71909882024E+03  0.17096014220E+04  0.18833899955E+04  0.26432930240E+04  0.25500000920E-02 0.  1.
</event>
<event>
 5   0  0.4149487E-07  0.3970750E+04  0.7818609E-02  0.8010473E-01
        2   -1    0    0  501    0  0.00000000000E+00  0.00000000000E+00  0.21283903635E+04  0.21283903635E+04  0.25500000920E-02 0. -1.
       -2   -1    0    0    0  501  0.00000000000E+00  0.00000000000E+00 -0.18519696166E+04  0.18519696166E+04  0.25500000920E-02 0.  1.
    10030    2    1    2    0    0  0.00000000000E+00  0.00000000000E+00  0.27642074692E+03  0.39803599801E+04  0.39707501989E+04 0.  0.
        2    1    3    3  502    0 -0.12122419909E+04 -0.14423208324E+04 -0.48931925344E+03  0.19466004623E+04  0.25500000920E-02 0.  1.
       -2    1    3    3    0  502  0.12122419909E+04  0.14423208324E+04  0.76574000036E+03  0.20337595178E+04  0.25500000920E-02 0. -1.
</event>
<event>
 5   0  0.4079777E-07  0.3985713E+04  0.7818609E-02  0.8007435E-01
       -2   -1    0    0    0  501  0.00000000000E+00  0.00000000000E+00  0.27863145248E+04  0.27863145248E+04  0.25500000920E-02 0.  1.
        2   -1    0    0  501    0  0.00000000000E+00  0.00000000000E+00 -0.14253514247E+04  0.14253514247E+04  0.25500000920E-02 0. -1.
    10030    2    1    2    0    0  0.00000000000E+00  0.00000000000E+00  0.13609631001E+04  0.42116659495E+04  0.39857131746E+04 0.  0.
        4    1    3    3  502    0 -0.18577322595E+04 -0.41624185252E+03  0.57975631583E+02  0.19046756192E+04  0.12699999809E+01 0. -1.
       -4    1    3    3    0  502  0.18577322595E+04  0.41624185252E+03  0.13029874685E+04  0.23069903302E+04  0.12699999809E+01 0.  1.
</event>
<event>
 5   0  0.4047916E-07  0.2564548E+04  0.7818609E-02  0.8380344E-01
       -2   -1    0    0    0  501  0.00000000000E+00  0.00000000000E+00  0.18257016914E+04  0.18257016914E+04  0.25500000920E-02 0.  1.
        2   -1    0    0  501    0  0.00000000000E+00  0.00000000000E+00 -0.90059953863E+03  0.90059953863E+03  0.25500000920E-02 0. -1.
    10030    2    1    2    0    0  0.00000000000E+00  0.00000000000E+00  0.92510215274E+03  0.27263012300E+04  0.25645476022E+04 0.  0.
        5    1    3    3  502    0 -0.80379849117E+03  0.99473540043E+03  0.56121363893E+03  0.13966292886E+04  0.46999998093E+01 0. -1.
       -5    1    3    3    0  502  0.80379849117E+03 -0.99473540043E+03  0.36388851381E+03  0.13296719414E+04  0.46999998093E+01 0.  1.
</event>
<event>
 5   0  0.1372952E-07  0.4023946E+04  0.7818609E-02  0.7999733E-01
        1   -1    0    0  501    0  0.00000000000E+00  0.00000000000E+00  0.15832928638E+04  0.15832928639E+04  0.50400001928E-02 0. -1.
       -1   -1    0    0    0  501  0.00000000000E+00  0.00000000000E+00 -0.25567196112E+04  0.25567196112E+04  0.50400001928E-02 0.  1.
    10030    2    1    2    0    0  0.00000000000E+00  0.00000000000E+00 -0.97342674736E+03  0.41400124751E+04  0.40239462796E+04 0.  0.
        1    1    3    3  502    0 -0.28971524627E+03 -0.53874364257E+03  0.14853031834E+04  0.16063328369E+04  0.50400001928E-02 0. -1.
       -1    1    3    3    0  502  0.28971524627E+03  0.53874364257E+03 -0.24587299308E+04  0.25336796382E+04  0.50400001928E-02 0.  1.
</event>
<event>
 5   0  0.1351000E-07  0.2906144E+04  0.7818609E-02  0.8271052E-01
        1   -1    0    0  501    0  0.00000000000E+00  0.00000000000E+00  0.14130649012E+04  0.14130649012E+04  0.50400001928E-02 0. -1.
       -1   -1    0    0    0  501  0.00000000000E+00  0.00000000000E+00 -0.14942115969E+04  0.14942115969E+04  0.50400001928E-02 0.  1.
    10030    2    1    2    0    0  0.00000000000E+00  0.00000000000E+00 -0.81146695746E+02  0.29072764981E+04  0.29061438110E+04 0.  0.
        4    1    3    3  502    0  0.50052814345E+03 -0.13015773923E+03  0.13178759700E+04  0.14157217751E+04  0.12699999809E+01 0. -1.
       -4    1    3    3    0  502 -0.50052814345E+03  0.13015773923E+03 -0.13990226657E+04  0.14915547230E+04  0.12699999809E+01 0.  1.
</event>
<event>
 5   0  0.4149487E-07  0.3942803E+04  0.7818609E-02  0.8016185E-01
        2   -1    0    0  501    0  0.00000000000E+00  0.00000000000E+00  0.14903589052E+04  0.14903589052E+04  0.25500000920E-02 0. -1.
       -2   -1    0    0    0  501  0.00000000000E+00  0.00000000000E+00 -0.26077103351E+04  0.26077103351E+04  0.25500000920E-02 0.  1.
    10030    2    1    2    0    0  0.00000000000E+00  0.00000000000E+00 -0.11173514299E+04  0.40980692403E+04  0.39428032262E+04 0.  0.
        2    1    3    3  502    0 -0.12241961002E+04  0.45677064123E+03  0.97564320302E+03  0.16306977555E+04  0.25500000920E-02 0. -1.
       -2    1    3    3    0  502  0.12241961002E+04 -0.45677064123E+03 -0.20929946329E+04  0.24673714848E+04  0.25500000920E-02 0.  1.
</event>
<event>
 5   0  0.4301754E-07  0.4083089E+04  0.7818609E-02  0.7987992E-01
       -2   -1    0    0    0  501  0.00000000000E+00  0.00000000000E+00  0.18607145301E+04  0.18607145301E+04  0.25500000920E-02 0.  1.
        2   -1    0    0  501    0  0.00000000000E+00  0.00000000000E+00 -0.22399478296E+04  0.22399478296E+04  0.25500000920E-02 0. -1.
    10030    2    1    2    0    0  0.00000000000E+00  0.00000000000E+00 -0.37923329946E+03  0.41006623597E+04  0.40830887687E+04 0.  0.
        1    1    3    3  502    0 -0.86829953842E+03 -0.18340639683E+04  0.35331180490E+02  0.20295277826E+04  0.50400001928E-02 0. -1.
       -1    1    3    3    0  502  0.86829953842E+03  0.18340639683E+04 -0.41456447995E+03  0.20711345771E+04  0.50400001928E-02 0.  1.
</event>
<event>
 5   0  0.4079777E-07  0.4022385E+04  0.7818609E-02  0.8000046E-01
        2   -1    0    0  501    0  0.00000000000E+00  0.00000000000E+00  0.11538287436E+04  0.11538287436E+04  0.25500000920E-02 0.  1.
       -2   -1    0    0    0  501  0.00000000000E+00  0.00000000000E+00 -0.35056280441E+04  0.35056280441E+04  0.25500000920E-02 0. -1.
    10030    2    1    2    0    0  0.00000000000E+00  0.00000000000E+00 -0.23517993006E+04  0.46594567877E+04  0.40223845672E+04 0.  0.
        4    1    3    3  502    0 -0.19803992171E+04 -0.15684779476E+03 -0.81269479189E+03  0.21464055365E+04  0.12699999809E+01 0. -1.
       -4    1    3    3    0  502  0.19803992171E+04  0.15684779476E+03 -0.15391045087E+04  0.25130512512E+04  0.12699999809E+01 0.  1.
</event>
<event>
 5   0  0.1421304E-07  0.3801630E+04  0.7818609E-02  0.8045805E-01
        1   -1    0    0  501    0  0.00000000000E+00  0.00000000000E+00  0.21240090918E+04  0.21240090918E+04  0.50400001928E-02 0.  1.
       -1   -1    0    0    0  501  0.00000000000E+00  0.00000000000E+00 -0.17010748791E+04  0.17010748791E+04  0.50400001928E-02 0. -1.
    10030    2    1    2    0    0  0.00000000000E+00  0.00000000000E+00  0.42293421265E+03  0.38250839709E+04  0.38016304444E+04 0.  0.
        2    1    3    3  502    0 -0.13754020358E+04 -0.12956927971E+04  0.39230667433E+01  0.18895941298E+04  0.25500000920E-02 0. -1.
       -2    1    3    3    0  502  0.13754020358E+04  0.12956927971E+04  0.41901114591E+03  0.19354898411E+04  0.25500000920E-02 0.  1.
</event>
<event>
 5   0  0.4047916E-07  0.2733544E+04  0.7818609E-02  0.8324202E-01
       -2   -1    0    0    0  501  0.00000000000E+00  0.00000000000E+00  0.11425067675E+04  0.11425067675E+04  0.25500000920E-02 0. -1.
        2   -1    0    0  501    0  0.00000000000E+00  0.00000000000E+00 -0.16350593113E+04  0.16350593113E+04  0.25500000920E-02 0.  1.
    10030    2    1    2    0    0  0.00000000000E+00  0.00000000000E+00 -0.49255254373E+03  0.27775660788E+04  0.27335444598E+04 0.  0.
        5    1    3    3  502    0 -0.52983043027E+03 -0.12553108203E+04 -0.13722268471E+03  0.13694443017E+04  0.46999998093E+01 0.  1.
       -5    1    3    3    0  502  0.52983043027E+03  0.12553108203E+04 -0.35532985902E+03  0.14081217771E+04  0.46999998093E+01 0. -1.
</event>
<event>
 5   0  0.1351000E-07  0.4006054E+04  0.7818609E-02  0.8003326E-01
        1   -1    0    0  501    0  0.00000000000E+00  0.00000000000E+00  0.20393357496E+04  0.20393357496E+04  0.50400001928E-02 0. -1.
       -1   -1    0    0    0  501  0.00000000000E+00  0.00000000000E+00 -0.19673647005E+04  0.19673647005E+04  0.50400001928E-02 0.  1.
    10030    2    1    2    0    0  0.00000000000E+00  0.00000000000E+00  0.71971049021E+02  0.40067004501E+04  0.40060540018E+04 0.  0.
        4    1    3    3  502    0 -0.19781129754E+04 -0.14771690103E+03 -0.24220379499E+03  0.19983532013E+04  0.12699999809E+01 0.  1.
       -4    1    3    3    0  502  0.19781129754E+04  0.14771690103E+03  0.31417484401E+03  0.20083472488E+04  0.12699999809E+01 0. -1.
</event>
<event>
 5   0  0.1372952E-07  0.4366895E+04  0.7818609E-02  0.7934363E-01
       -1   -1    0    0    0  501  0.00000000000E+00  0.00000000000E+00  0.19285535093E+04  0.19285535093E+04  0.50400001928E-02 0. -1.
        1   -1    0    0  501    0  0.00000000000E+00  0.00000000000E+00 -0.24720302977E+04  0.24720302978E+04  0.50400001928E-02 0.  1.
    10030    2    1    2    0    0  0.00000000000E+00  0.00000000000E+00 -0.54347678841E+03  0.44005838071E+04  0.43668948721E+04 0.  0.
        1    1    3    3  502    0 -0.17607400111E+04  0.18772747179E+03  0.10156128782E+04  0.20413026499E+04  0.50400001928E-02 0. -1.
       -1    1    3    3    0  502  0.17607400111E+04 -0.18772747179E+03 -0.15590896666E+04  0.23592811572E+04  0.50400001928E-02 0.  1.
</event>
<event>
 5   0  0.1372952E-07  0.4025621E+04  0.7818609E-02  0.7999398E-01
        1   -1    0    0  501    0  0.00000000000E+00  0.00000000000E+00  0.17876222432E+04  0.17876222432E+04  0.50400001928E-02 0. -1.
       -1   -1    0    0    0  501  0.00000000000E+00  0.00000000000E+00 -0.22663661720E+04  0.22663661720E+04  0.50400001928E-02 0.  1.
    10030    2    1    2    0    0  0.00000000000E+00  0.00000000000E+00 -0.47874392877E+03  0.40539884152E+04  0.40256212342E+04 0.  0.
        1    1    3    3  502    0 -0.28105229631E+03 -0.19765624930E+04  0.18591049331E+02  0.19965308185E+04  0.50400001928E-02 0. -1.
       -1    1    3    3    0  502  0.28105229631E+03  0.19765624930E+04 -0.49733497810E+03  0.20574575967E+04  0.50400001928E-02 0.  1.
</event>
<event>
 5   0  0.1421304E-07  0.3279186E+04  0.7818609E-02  0.8168212E-01
        1   -1    0    0  501    0  0.00000000000E+00  0.00000000000E+00  0.19516633183E+04  0.19516633183E+04  0.50400001928E-02 0. -1.
       -1   -1    0    0    0  501  0.00000000000E+00  0.00000000000E+00 -0.13774223515E+04  0.13774223515E+04  0.50400001928E-02 0.  1.
    10030    2    1    2    0    0  0.00000000000E+00  0.00000000000E+00  0.57424096688E+03  0.33290856698E+04  0.32791856777E+04 0.  0.
        2    1    3    3  502    0  0.88069357189E+03 -0.33671231063E+03  0.16489004179E+04  0.18994391109E+04  0.25500000920E-02 0. -1.
       -2    1    3    3    0  502 -0.88069357189E+03  0.33671231063E+03 -0.10746594511E+04  0.14296465589E+04  0.25500000920E-02 0.  1.
</event>
<event>
 5   0  0.1351000E-07  0.3368226E+04  0.7818609E-02  0.8145749E-01
        1   -1    0    0  501    0  0.00000000000E+00  0.00000000000E+00  0.16173281574E+04  0.16173281574E+04  0.50400001928E-02 0. -1.
       -1   -1    0    0    0  501  0.00000000000E+00  0.00000000000E+00 -0.17536558541E+04  0.17536558541E+04  0.50400001928E-02 0.  1.
    10030    2    1    2    0    0  0.00000000000E+00  0.00000000000E+00 -0.13632769672E+03  0.33709840115E+04  0.33682262342E+04 0.  0.
        3    1    3    3  502    0 -0.10010823567E+04  0.13423636396E+04  0.11123401113E+03  0.16782368847E+04  0.10100000352E+00 0. -1.
       -3    1    3    3    0  502  0.10010823567E+04 -0.13423636396E+04 -0.24756170785E+03  0.16927471268E+04  0.10100000352E+00 0.  1.
</event>
<event>
 5   0  0.4301754E-07  0.4049394E+04  0.7818609E-02  0.7994656E-01
       -2   -1    0    0    0  501  0.00000000000E+00  0.00000000000E+00  0.16628986417E+04  0.16628986417E+04  0.25500000920E-02 0. -1.
        2   -1    0    0  501    0  0.00000000000E+00  0.00000000000E+00 -0.24652117013E+04  0.24652117013E+04  0.25500000920E-02 0.  1.
    10030    2    1    2    0    0  0.00000000000E+00  0.00000000000E+00 -0.80231305963E+03  0.41281103430E+04  0.40493936285E+04 0.  0.
        1    1    3    3  502    0 -0.18666320533E+04  0.74343410085E+03 -0.14652580488E+03  0.20145667763E+04  0.50400001928E-02 0.  1.
       -1    1    3    3    0  502  0.18666320533E+04 -0.74343410085E+03 -0.65578725476E+03  0.21135435667E+04  0.50400001928E-02 0. -1.
</event>
<event>
 5   0  0.1351000E-07  0.4003062E+04  0.7818609E-02  0.8003929E-01
        1   -1    0    0  501    0  0.00000000000E+00  0.00000000000E+00  0.22716656337E+04  0.22716656337E+04  0.50400001928E-02 0. -1.
       -1   -1    0    0    0  501  0.00000000000E+00  0.00000000000E+00 -0.17635190813E+04  0.17635190814E+04  0.50400001928E-02 0.  1.
    10030    2    1    2    0    0  0.00000000000E+00  0.00000000000E+00  0.50814655237E+03  0.40351847151E+04  0.40030616740E+04 0.  0.
        3    1    3    3  502    0  0.52021776610E+02 -0.16710522876E+04 -0.85521358212E+03  0.18779010342E+04  0.10100000352E+00 0.  1.
       -3    1    3    3    0  502 -0.52021776610E+02  0.16710522876E+04  0.13633601345E+04  0.21572836808E+04  0.10100000352E+00 0. -1.
</event>
<event>
 5   0  0.4079777E-07  0.3982814E+04  0.7818609E-02  0.8008023E-01
       -2   -1    0    0    0  501  0.00000000000E+00  0.00000000000E+00  0.15897592515E+04  0.15897592515E+04  0.25500000920E-02 0.  1.
        2   -1    0    0  501    0  0.00000000000E+00  0.00000000000E+00 -0.24945293065E+04  0.24945293065E+04  0.25500000920E-02 0. -1.
    10030    2    1    2    0    0  0.00000000000E+00  0.00000000000E+00 -0.90477005499E+03  0.40842885580E+04  0.39828136000E+04 0.  0.
        4    1    3    3  502    0 -0.13723109018E+02 -0.42551613251E+02 -0.24940141414E+04  0.24944151848E+04  0.12699999809E+01 0. -1.
       -4    1    3    3    0  502  0.13723109018E+02  0.42551613251E+02  0.15892440865E+04  0.15898733732E+04  0.12699999809E+01 0.  1.
</event>
<event>
 5   0  0.4077370E-07  0.2503447E+04  0.7818609E-02  0.8401759E-01
        2   -1    0    0  501    0  0.00000000000E+00  0.00000000000E+00  0.11088522059E+04  0.11088522059E+04  0.25500000920E-02 0.  1.
       -2   -1    0    0    0  501  0.00000000000E+00  0.00000000000E+00 -0.14130030956E+04  0.14130030957E+04  0.25500000920E-02 0. -1.
    10030    2    1    2    0    0  0.00000000000E+00  0.00000000000E+00 -0.30415088977E+03  0.25218553015E+04  0.25034469034E+04 0.  0.
        3    1    3    3  502    0  0.64833927439E+02  0.12353631335E+04  0.40342414996E+02  0.12377209017E+04  0.10100000352E+00 0.  1.
       -3    1    3    3    0  502 -0.64833927439E+02 -0.12353631335E+04 -0.34449330477E+03  0.12841343999E+04  0.10100000352E+00 0. -1.
</event>
<event>
 5   0  0.4149487E-07  0.4148189E+04  0.7818609E-02  0.7975302E-01
       -2   -1    0    0    0  501  0.00000000000E+00  0.00000000000E+00  0.17589864360E+04  0.17589864360E+04  0.25500000920E-02 0.  1.
        2   -1    0    0  501    0  0.00000000000E+00  0.00000000000E+00 -0.24456510782E+04  0.24456510782E+04  0.25500000920E-02 0. -1.
    10030    2    1    2    0    0  0.00000000000E+00  0.00000000000E+00 -0.68666464222E+03  0.42046375142E+04  0.41481885559E+04 0.  0.
        2    1    3    3  502    0  0.18447528780E+04  0.69479960818E+03  0.31043107123E+03  0.19955518350E+04  0.25500000920E-02 0.  1.
       -2    1    3    3    0  502 -0.18447528780E+04 -0.69479960818E+03 -0.99709571345E+03  0.22090856792E+04  0.25500000920E-02 0. -1.
</event>
<event>
 5   0  0.1368865E-07  0.3146785E+04  0.7818609E-02  0.8203014E-01
        1   -1    0    0  501    0  0.00000000000E+00  0.00000000000E+00  0.10905483219E+04  0.10905483219E+04  0.50400001928E-02 0. -1.
       -1   -1    0    0    0  501  0.00000000000E+00  0.00000000000E+00 -0.22700171245E+04  0.22700171245E+04  0.50400001928E-02 0.  1.
    10030    2    1    2    0    0  0.00000000000E+00  0.00000000000E+00 -0.11794688026E+04  0.33605654464E+04  0.31467846229E+04 0.  0.
        5    1    3    3  502    0  0.92319553041E+03 -0.61535811761E+02 -0.19487707492E+04  0.21572682185E+04  0.46999998093E+01 0.  1.
       -5    1    3    3    0  502 -0.92319553041E+03  0.61535811761E+02  0.76930194665E+03  0.12032972279E+04  0.46999998093E+01 0. -1.
</event>
<event>
 5   0  0.1372952E-07  0.3507164E+04  0.7818609E-02  0.8112094E-01
        1   -1    0    0  501    0  0.00000000000E+00  0.00000000000E+00  0.10450639448E+04  0.10450639448E+04  0.50400001928E-02 0. -1.
       -1   -1    0    0    0  501  0.00000000000E+00  0.00000000000E+00 -0.29424509102E+04  0.29424509102E+04  0.50400001928E-02 0.  1.
    10030    2    1    2    0    0  0.00000000000E+00  0.00000000000E+00 -0.18973869654E+04  0.39875148551E+04  0.35071637291E+04 0.  0.
        1    1    3    3  502    0 -0.48990413832E+03 -0.69863984825E+02  0.96402892116E+03  0.10836229981E+04  0.50400001928E-02 0. -1.
       -1    1    3    3    0  502  0.48990413832E+03  0.69863984825E+02 -0.28614158866E+04  0.29038918570E+04  0.50400001928E-02 0.  1.
</event>
<event>
 5   0  0.4079777E-07  0.4012065E+04  0.7818609E-02  0.8002117E-01
        2   -1    0    0  501    0  0.00000000000E+00  0.00000000000E+00  0.16134600758E+04  0.16134600758E+04  0.25500000920E-02 0. -1.
       -2   -1    0    0    0  501  0.00000000000E+00  0.00000000000E+00 -0.24941216027E+04  0.24941216027E+04  0.25500000920E-02 0.  1.
    10030    2    1    2    0    0  0.00000000000E+00  0.00000000000E+00 -0.88066152682E+03  0.41075816785E+04  0.40120646207E+04 0.  0.
        4    1    3    3  502    0 -0.16316264194E+04 -0.67657199619E+03 -0.14138686120E+04  0.22625164095E+04  0.12699999809E+01 0.  1.
       -4    1    3    3    0  502  0.16316264194E+04  0.67657199619E+03  0.53320708514E+03  0.18450652690E+04  0.12699999809E+01 0. -1.
</event>
<event>
 5   0  0.4079777E-07  0.3912425E+04  0.7818609E-02  0.8022450E-01
        2   -1    0    0  501    0  0.00000000000E+00  0.00000000000E+00  0.17267207183E+04  0.17267207183E+04  0.25500000920E-02 0.  1.
       -2   -1    0    0    0  501  0.00000000000E+00  0.00000000000E+00 -0.22162052305E+04  0.22162052305E+04  0.25500000920E-02 0. -1.
    10030    2    1    2    0    0  0.00000000000E+00  0.00000000000E+00 -0.48948451219E+03  0.39429259488E+04  0.39124250728E+04 0.  0.
        4    1    3    3  502    0 -0.74190374305E+03 -0.18070175807E+04 -0.35059524714E+03  0.19846038247E+04  0.12699999809E+01 0.  1.
       -4    1    3    3    0  502  0.74190374305E+03  0.18070175807E+04 -0.13888926505E+03  0.19583221241E+04  0.12699999809E+01 0. -1.
</event>
<event>
 5   0  0.4047916E-07  0.3900205E+04  0.7818609E-02  0.8024987E-01
        2   -1    0    0  501    0  0.00000000000E+00  0.00000000000E+00  0.18510504339E+04  0.18510504339E+04  0.25500000920E-02 0. -1.
       -2   -1    0    0    0  501  0.00000000000E+00  0.00000000000E+00 -0.20544545240E+04  0.20544545240E+04  0.25500000920E-02 0.  1.
    10030    2    1    2    0    0  0.00000000000E+00  0.00000000000E+00 -0.20340409013E+03  0.39055049580E+04  0.39002045783E+04 0.  0.
        5    1    3    3  502    0 -0.18304457299E+04  0.64764361848E+03 -0.28334045756E+03  0.19622124583E+04  0.46999998093E+01 0.  1.
       -5    1    3    3    0  502  0.18304457299E+04 -0.64764361848E+03  0.79936367433E+02  0.19432924997E+04  0.46999998093E+01 0. -1.
</event>
<event>
 5   0  0.4077370E-07  0.4015830E+04  0.7818609E-02  0.8001361E-01
       -2   -1    0    0    0  501  0.00000000000E+00  0.00000000000E+00  0.17759952887E+04  0.17759952887E+04  0.25500000920E-02 0.  1.
        2   -1    0    0  501    0  0.00000000000E+00  0.00000000000E+00 -0.22701201440E+04  0.22701201440E+04  0.25500000920E-02 0. -1.
    10030    2    1    2    0    0  0.00000000000E+00  0.00000000000E+00 -0.49412485527E+03  0.40461154328E+04  0.40158300166E+04 0.  0.
        3    1    3    3  502    0 -0.56978345550E+03 -0.86328163820E+03  0.14869086921E+04  0.18112994898E+04  0.10100000352E+00 0.  1.
       -3    1    3    3    0  502  0.56978345550E+03  0.86328163820E+03 -0.19810335473E+04  0.22348159430E+04  0.10100000352E+00 0. -1.
</event>
<event>
 5   0  0.4079777E-07  0.2981858E+04  0.7818609E-02  0.8248931E-01
       -2   -1    0    0    0  501  0.00000000000E+00  0.00000000000E+00  0.12732142691E+04  0.12732142691E+04  0.25500000920E-02 0.  1.
        2   -1    0    0  501    0  0.00000000000E+00  0.00000000000E+00 -0.17458719958E+04  0.17458719958E+04  0.25500000920E-02 0. -1.
    10030    2    1    2    0    0  0.00000000000E+00  0.00000000000E+00 -0.47265772670E+03  0.30190862649E+04  0.29818579021E+04 0.  0.
        4    1    3    3  502    0 -0.67693635545E+03 -0.36100777905E+03  0.10580285449E+04  0.13069030035E+04  0.12699999809E+01 0.  1.
       -4    1    3    3    0  502  0.67693635545E+03  0.36100777905E+03 -0.15306862716E+04  0.17121832614E+04  0.12699999809E+01 0. -1.
</event>
<event>
 5   0  0.1368865E-07  0.2878784E+04  0.7818609E-02  0.8279218E-01
       -1   -1    0    0    0  501  0.00000000000E+00  0.00000000000E+00  0.12414756470E+04  0.12414756470E+04  0.50400001928E-02 0.  1.
        1   -1    0    0  501    0  0.00000000000E+00  0.00000000000E+00 -0.16688602805E+04  0.16688602805E+04  0.50400001928E-02 0. -1.
    10030    2    1    2    0    0  0.00000000000E+00  0.00000000000E+00 -0.42738463346E+03  0.29103359275E+04  0.28787840465E+04 0.  0.
        5    1    3    3  502    0  0.72517619914E+03 -0.11944958865E+04 -0.56262204824E+03  0.15064085110E+04  0.46999998093E+01 0. -1.
       -5    1    3    3    0  502 -0.72517619914E+03  0.11944958865E+04  0.13523741478E+03  0.14039274166E+04  0.46999998093E+01 0.  1.
</event>
<event>
 5   0  0.1649011E-07  0.2456999E+04  0.7818609E-02  0.8418467E-01
       -1   -1    0    0    0  501  0.00000000000E+00  0.00000000000E+00  0.94238183289E+03  0.94238183290E+03  0.50400001928E-02 0. -1.
        1   -1    0    0  501    0  0.00000000000E+00  0.00000000000E+00 -0.16014858286E+04  0.16014858286E+04  0.50400001928E-02 0.  1.
    10030    2    1    2    0    0  0.00000000000E+00  0.00000000000E+00 -0.65910399569E+03  0.25438676615E+04  0.24569991050E+04 0.  0.
        2    1    3    3  502    0  0.22198426857E+03 -0.12053008178E+04 -0.41730761014E+03  0.12946708919E+04  0.25500000920E-02 0. -1.
       -2    1    3    3    0  502 -0.22198426857E+03  0.12053008178E+04 -0.24179638555E+03  0.12491967695E+04  0.25500000920E-02 0.  1.
</event>
<event>
 5   0  0.4079777E-07  0.3795893E+04  0.7818609E-02  0.8047037E-01
        2   -1    0    0  501    0  0.00000000000E+00  0.00000000000E+00  0.34205394711E+04  0.34205394711E+04  0.25500000920E-02 0. -1.
       -2   -1    0    0    0  501  0.00000000000E+00  0.00000000000E+00 -0.10531088210E+04  0.10531088210E+04  0.25500000920E-02 0.  1.
    10030    2    1    2    0    0  0.00000000000E+00  0.00000000000E+00  0.23674306502E+04  0.44736482921E+04  0.37958926694E+04 0.  0.
        4    1    3    3  502    0  0.10315460460E+04  0.26798575328E+03  0.30345619485E+04  0.32162822391E+04  0.12699999809E+01 0. -1.
       -4    1    3    3    0  502 -0.10315460460E+04 -0.26798575328E+03 -0.66713129838E+03  0.12573660530E+04  0.12699999809E+01 0.  1.
</event>
<event>
 5   0  0.4077370E-07  0.4051472E+04  0.7818609E-02  0.7994243E-01
        2   -1    0    0  501    0  0.00000000000E+00  0.00000000000E+00  0.26324753782E+04  0.26324753782E+04  0.25500000920E-02 0. -1.
       -2   -1    0    0    0  501  0.00000000000E+00  0.00000000000E+00 -0.15588393295E+04  0.15588393295E+04  0.25500000920E-02 0.  1.
    10030    2    1    2    0    0  0.00000000000E+00  0.00000000000E+00  0.10736360486E+04  0.41913147077E+04  0.40514719071E+04 0.  0.
        3    1    3    3  502    0  0.67854233405E+02  0.13170641968E+04 -0.10538983726E+04  0.16881836646E+04  0.10100000352E+00 0.  1.
       -3    1    3    3    0  502 -0.67854233405E+02 -0.13170641968E+04  0.21275344212E+04  0.25031310431E+04  0.10100000352E+00 0. -1.
</event>
<event>
 5   0  0.1351000E-07  0.3580243E+04  0.7818609E-02  0.8095032E-01
        3   -1    0    0  501    0  0.00000000000E+00  0.00000000000E+00  0.18631117578E+04  0.18631117606E+04  0.10100000352E+00 0. -1.
       -3   -1    0    0    0  501  0.00000000000E+00  0.00000000000E+00 -0.17199905928E+04  0.17199905958E+04  0.10100000352E+00 0.  1.
    10030    2    1    2    0    0  0.00000000000E+00  0.00000000000E+00  0.14312116504E+03  0.35831023564E+04  0.35802428449E+04 0.  0.
        3    1    3    3  502    0  0.24571564147E+03  0.57122666287E+03  0.17515491599E+04  0.18586555750E+04  0.10100000352E+00 0. -1.
       -3    1    3    3    0  502 -0.24571564147E+03 -0.57122666287E+03 -0.16084279949E+04  0.17244467813E+04  0.10100000352E+00 0.  1.
</event>
<event>
 5   0  0.4149487E-07  0.2523396E+04  0.7818609E-02  0.8394698E-01
       -2   -1    0    0    0  501  0.00000000000E+00  0.00000000000E+00  0.79309906612E+03  0.79309906612E+03  0.25500000920E-02 0. -1.
        2   -1    0    0  501    0  0.00000000000E+00  0.00000000000E+00 -0.20071659736E+04  0.20071659736E+04  0.25500000920E-02 0.  1.
    10030    2    1    2    0    0  0.00000000000E+00  0.00000000000E+00 -0.12140669075E+04  0.28002650397E+04  0.25233956956E+04 0.  0.
        2    1    3    3  502    0  0.75512183745E+03  0.85158654672E+03 -0.27979708014E+01  0.11381636370E+04  0.25500000920E-02 0. -1.
       -2    1    3    3    0  502 -0.75512183745E+03 -0.85158654672E+03 -0.12112689367E+04  0.16621014027E+04  0.25500000920E-02 0.  1.
</event>
<event>
 5   0  0.4079777E-07  0.4101478E+04  0.7818609E-02  0.7984382E-01
       -2   -1    0    0    0  501  0.00000000000E+00  0.00000000000E+00  0.14973825524E+04  0.14973825524E+04  0.25500000920E-02 0. -1.
        2   -1    0    0  501    0  0.00000000000E+00  0.00000000000E+00 -0.28085876268E+04  0.28085876269E+04  0.25500000920E-02 0.  1.
    10030    2    1    2    0    0  0.00000000000E+00  0.00000000000E+00 -0.13112050744E+04  0.43059701793E+04  0.41014778358E+04 0.  0.
        4    1    3    3  502    0  0.13532141084E+04 -0.15088536975E+04 -0.32744736948E+03  0.20530590095E+04  0.12699999809E+01 0. -1.
       -4    1    3    3    0  502 -0.13532141084E+04  0.15088536975E+04 -0.98375770496E+03  0.22529111698E+04  0.12699999809E+01 0.  1.
</event>
<event>
 5   0  0.1372952E-07  0.3684625E+04  0.7818609E-02  0.8071378E-01
       -1   -1    0    0    0  501  0.00000000000E+00  0.00000000000E+00  0.15699586967E+04  0.15699586967E+04  0.50400001928E-02 0. -1.
        1   -1    0    0  501    0  0.00000000000E+00  0.00000000000E+00 -0.21619134078E+04  0.21619134078E+04  0.50400001928E-02 0.  1.
    10030    2    1    2    0    0  0.00000000000E+00  0.00000000000E+00 -0.59195471109E+03  0.37318721046E+04  0.36846246790E+04 0.  0.
        1    1    3    3  502    0  0.59115217800E+03  0.28656230249E+03  0.14472952530E+04  0.15894157417E+04  0.50400001928E-02 0. -1.
       -1    1    3    3    0  502 -0.59115217800E+03 -0.28656230249E+03 -0.20392499641E+04  0.21424563628E+04  0.50400001928E-02 0.  1.
</event>
<event>
 5   0  0.4149487E-07  0.3956352E+04  0.7818609E-02  0.8013410E-01
       -2   -1    0    0    0  501  0.00000000000E+00  0.00000000000E+00  0.20380072314E+04  0.20380072314E+04  0.25500000920E-02 0. -1.
        2   -1    0    0  501    0  0.00000000000E+00  0.00000000000E+00 -0.19201015843E+04  0.19201015843E+04  0.25500000920E-02 0.  1.
    10030    2    1    2    0    0  0.00000000000E+00  0.00000000000E+00  0.11790564714E+03  0.39581088157E+04  0.39563523169E+04 0.  0.
        2    1    3    3  502    0 -0.84376071275E+03  0.61585757440E+03 -0.16216644773E+04  0.19289915421E+04  0.25500000920E-02 0.  1.
       -2    1    3    3    0  502  0.84376071275E+03 -0.61585757440E+03  0.17395701245E+04  0.20291172737E+04  0.25500000920E-02 0. -1.
</event>
<event>
 5   0  0.1368865E-07  0.3950971E+04  0.7818609E-02  0.8014511E-01
       -1   -1    0    0    0  501  0.00000000000E+00  0.00000000000E+00  0.18311207514E+04  0.18311207514E+04  0.50400001928E-02 0. -1.
        1   -1    0    0  501    0  0.00000000000E+00  0.00000000000E+00 -0.21312322714E+04  0.21312322714E+04  0.50400001928E-02 0.  1.
    10030    2    1    2    0    0  0.00000000000E+00  0.00000000000E+00 -0.30011152003E+03  0.39623530229E+04  0.39509713430E+04 0.  0.
        5    1    3    3  502    0  0.15617243816E+04 -0.14080281818E+03  0.10549516861E+04  0.18899083649E+04  0.46999998093E+01 0.  1.
       -5    1    3    3    0  502 -0.15617243816E+04  0.14080281818E+03 -0.13550632062E+04  0.20724446580E+04  0.46999998093E+01 0. -1.
</event>
<event>
 5   0  0.1351000E-07  0.3684792E+04  0.7818609E-02  0.8071340E-01
        1   -1    0    0  501    0  0.00000000000E+00  0.00000000000E+00  0.26348898635E+04  0.26348898635E+04  0.50400001928E-02 0.  1.
       -1   -1    0    0    0  501  0.00000000000E+00  0.00000000000E+00 -0.12882599909E+04  0.12882599909E+04  0.50400001928E-02 0. -1.
    10030    2    1    2    0    0  0.00000000000E+00  0.00000000000E+00  0.13466298726E+04  0.39231498545E+04  0.36847920927E+04 0.  0.
        3    1    3    3  502    0 -0.57521178030E+03  0.12536919520E+04 -0.62709063893E+03  0.15152078347E+04  0.10100000352E+00 0. -1.
       -3    1    3    3    0  502  0.57521178030E+03 -0.12536919520E+04  0.19737205115E+04  0.24079420198E+04  0.10100000352E+00 0.  1.
</event>
<event>
 5   0  0.4047916E-07  0.3940776E+04  0.7818609E-02  0.8016602E-01
       -2   -1    0    0    0  501  0.00000000000E+00  0.00000000000E+00  0.14122671426E+04  0.14122671426E+04  0.25500000920E-02 0. -1.
        2   -1    0    0  501    0  0.00000000000E+00  0.00000000000E+00 -0.27490747468E+04  0.27490747468E+04  0.25500000920E-02 0.  1.
    10030    2    1    2    0    0  0.00000000000E+00  0.00000000000E+00 -0.13368076042E+04  0.41613418895E+04  0.39407755265E+04 0.  0.
        5    1    3    3  502    0  0.15603510383E+04  0.97633757530E+03 -0.14109509880E+04  0.23192100389E+04  0.46999998093E+01 0.  1.
       -5    1    3    3    0  502 -0.15603510383E+04 -0.97633757530E+03  0.74143383814E+02  0.18421318506E+04  0.46999998093E+01 0. -1.
</event>
<event>
 5   0  0.1368865E-07  0.3926575E+04  0.7818609E-02  0.8019525E-01
        1   -1    0    0  501    0  0.00000000000E+00  0.00000000000E+00  0.25586319628E+04  0.25586319628E+04  0.50400001928E-02 0.  1.
       -1   -1    0    0    0  501  0.00000000000E+00  0.00000000000E+00 -0.15064678720E+04  0.15064678720E+04  0.50400001928E-02 0. -1.
    10030    2    1    2    0    0  0.00000000000E+00  0.00000000000E+00  0.10521640908E+04  0.40650998348E+04  0.39265745114E+04 0.  0.
        5    1    3    3  502    0 -0.18702877891E+04 -0.39315734375E+03  0.60867682389E+02  0.19121391361E+04  0.46999998093E+01 0. -1.
       -5    1    3    3    0  502  0.18702877891E+04  0.39315734375E+03  0.99129640845E+03  0.21529606988E+04  0.46999998093E+01 0.  1.
</event>
<event>
 5   0  0.4077370E-07  0.2823241E+04  0.7818609E-02  0.8296089E-01
        2   -1    0    0  501    0  0.00000000000E+00  0.00000000000E+00  0.20035464601E+04  0.20035464601E+04  0.25500000920E-02 0.  1.
       -2   -1    0    0    0  501  0.00000000000E+00  0.00000000000E+00 -0.99457282483E+03  0.99457282483E+03  0.25500000920E-02 0. -1.
    10030    2    1    2    0    0  0.00000000000E+00  0.00000000000E+00  0.10089736353E+04  0.29981192850E+04  0.28232413021E+04 0.  0.
        3    1    3    3  502    0 -0.47627750823E+03 -0.12388174691E+04  0.10150633899E+04  0.16708867952E+04  0.10100000352E+00 0.  1.
       -3    1    3    3    0  502  0.47627750823E+03  0.12388174691E+04 -0.60897545728E+01  0.13272324898E+04  0.10100000352E+00 0. -1.
</event>
<event>
 5   0  0.1372952E-07  0.3269341E+04  0.7818609E-02  0.8170741E-01
        1   -1    0    0  501    0  0.00000000000E+00  0.00000000000E+00  0.19322506594E+04  0.19322506594E+04  0.50400001928E-02 0. -1.
       -1   -1    0    0    0  501  0.00000000000E+00  0.00000000000E+00 -0.13829193812E+04  0.13829193812E+04  0.50400001928E-02 0.  1.
    10030    2    1    2    0    0  0.00000000000E+00  0.00000000000E+00  0.54933127818E+03  0.33151700406E+04  0.32693405367E+04 0.  0.
        1    1    3    3  502    0 -0.85088317245E+03  0.52324086636E+01  0.16899809506E+04  0.18921060130E+04  0.50400001928E-02 0. -1.
       -1    1    3    3    0  502  0.85088317245E+03 -0.52324086636E+01 -0.11406496724E+04  0.14230640275E+04  0.50400001928E-02 0.  1.
</event>
<event>
 5   0  0.1368865E-07  0.3994283E+04  0.7818609E-02  0.8005701E-01
        1   -1    0    0  501    0  0.00000000000E+00  0.00000000000E+00  0.25238248661E+04  0.25238248661E+04  0.50400001928E-02 0. -1.
       -1   -1    0    0    0  501  0.00000000000E+00  0.00000000000E+00 -0.15803689815E+04  0.15803689815E+04  0.50400001928E-02 0.  1.
    10030    2    1    2    0    0  0.00000000000E+00  0.00000000000E+00  0.94345588459E+03  0.41041938477E+04  0.39942831814E+04 0.  0.
        5    1    3    3  502    0  0.13944491274E+03  0.23810721319E+03 -0.15606821044E+04  0.15848945232E+04  0.46999998093E+01 0.  1.
       -5    1    3    3    0  502 -0.13944491274E+03 -0.23810721319E+03  0.25041379890E+04  0.25192993245E+04  0.46999998093E+01 0. -1.
</event>
<event>
 5   0  0.4077370E-07  0.3938813E+04  0.7818609E-02  0.8017005E-01
        2   -1    0    0  501    0  0.00000000000E+00  0.00000000000E+00  0.21581643650E+04  0.21581643650E+04  0.25500000920E-02 0. -1.
       -2   -1    0    0    0  501  0.00000000000E+00  0.00000000000E+00 -0.17971576400E+04  0.17971576400E+04  0.25500000920E-02 0.  1.
    10030    2    1    2    0    0  0.00000000000E+00  0.00000000000E+00  0.36100672493E+03  0.39553220050E+04  0.39388128044E+04 0.  0.
        3    1    3    3  502    0  0.10389342937E+04 -0.13782638588E+04 -0.77192644993E+03  0.18907316534E+04  0.10100000352E+00 0.  1.
       -3    1    3    3    0  502 -0.10389342937E+04  0.13782638588E+04  0.11329331749E+04  0.20645903516E+04  0.10100000352E+00 0. -1.
</event>
<event>
 5   0  0.4047916E-07  0.3960389E+04  0.7818609E-02  0.8012585E-01
        2   -1    0    0  501    0  0.00000000000E+00  0.00000000000E+00  0.17833691608E+04  0.17833691608E+04  0.25500000920E-02 0.  1.
       -2   -1    0    0    0  501  0.00000000000E+00  0.00000000000E+00 -0.21987434267E+04  0.21987434267E+04  0.25500000920E-02 0. -1.
    10030    2    1    2    0    0  0.00000000000E+00  0.00000000000E+00 -0.41537426593E+03  0.39821125875E+04  0.39603894857E+04 0.  0.
        5    1    3    3  502    0 -0.75817821063E+03  0.93645364441E+02  0.16292285919E+04  0.17994475675E+04  0.46999998093E+01 0.  1.
       -5    1    3    3    0  502  0.75817821063E+03 -0.93645364441E+02 -0.20446028578E+04  0.21826650200E+04  0.46999998093E+01 0. -1.
</event>
<event>
 5   0  0.4047916E-07  0.3862636E+04  0.7818609E-02  0.8032845E-01
        2   -1    0    0  501    0  0.00000000000E+00  0.00000000000E+00  0.20966191812E+04  0.20966191812E+04  0.25500000920E-02 0.  1.
       -2   -1    0    0    0  501  0.00000000000E+00  0.00000000000E+00 -0.17790496506E+04  0.17790496506E+04  0.25500000920E-02 0. -1.
    10030    2    1    2    0    0  0.00000000000E+00  0.00000000000E+00  0.31756953054E+03  0.38756688318E+04  0.38626362095E+04 0.  0.
        5    1    3    3  502    0 -0.11832380347E+04 -0.14700082058E+04 -0.25368758960E+03  0.19040367263E+04  0.46999998093E+01 0.  1.
       -5    1    3    3    0  502  0.11832380347E+04  0.14700082058E+04  0.57125712015E+03  0.19716321055E+04  0.46999998093E+01 0. -1.
</event>
<event>
 5   0  0.1351000E-07  0.3742757E+04  0.7818609E-02  0.8058552E-01
        1   -1    0    0  501    0  0.00000000000E+00  0.00000000000E+00  0.23005713312E+04  0.23005713312E+04  0.50400001928E-02 0. -1.
       -1   -1    0    0    0  501  0.00000000000E+00  0.00000000000E+00 -0.15222557424E+04  0.15222557425E+04  0.50400001928E-02 0.  1.
    10030    2    1    2    0    0  0.00000000000E+00  0.00000000000E+00  0.77831558874E+03  0.38228270736E+04  0.37427572295E+04 0.  0.
        4    1    3    3  502    0  0.30942745941E+03 -0.16714795096E+04  0.11885030729E+04  0.20741577256E+04  0.12699999809E+01 0. -1.
       -4    1    3    3    0  502 -0.30942745941E+03  0.16714795096E+04 -0.41018748416E+03  0.17486693480E+04  0.12699999809E+01 0.  1.
</event>
<event>
 5   0  0.1351000E-07  0.3858008E+04  0.7818609E-02  0.8033820E-01
       -3   -1    0    0    0  501  0.00000000000E+00  0.00000000000E+00  0.17354012424E+04  0.17354012453E+04  0.10100000352E+00 0. -1.
        3   -1    0    0  501    0  0.00000000000E+00  0.00000000000E+00 -0.21442052309E+04  0.21442052333E+04  0.10100000352E+00 0.  1.
    10030    2    1    2    0    0  0.00000000000E+00  0.00000000000E+00 -0.40880398851E+03  0.38796064786E+04  0.38580080000E+04 0.  0.
        2    1    3    3  502    0  0.16519825909E+04  0.98066217550E+03 -0.37947908948E+03  0.19582515575E+04  0.25500000920E-02 0.  1.
       -2    1    3    3    0  502 -0.16519825909E+04 -0.98066217550E+03 -0.29324899031E+02  0.19213549211E+04  0.25500000920E-02 0. -1.
</event>
<event>
 5   0  0.1351000E-07  0.4001058E+04  0.7818609E-02  0.8004333E-01
       -1   -1    0    0    0  501  0.00000000000E+00  0.00000000000E+00  0.16399169411E+04  0.16399169411E+04  0.50400001928E-02 0.  1.
        1   -1    0    0  501    0  0.00000000000E+00  0.00000000000E+00 -0.24404380361E+04  0.24404380361E+04  0.50400001928E-02 0. -1.
    10030    2    1    2    0    0  0.00000000000E+00  0.00000000000E+00 -0.80052109499E+03  0.40803549771E+04  0.40010576996E+04 0.  0.
        4    1    3    3  502    0  0.91197379816E+03  0.96184656253E+03 -0.19283800808E+04  0.23399778562E+04  0.12699999809E+01 0. -1.
       -4    1    3    3    0  502 -0.91197379816E+03 -0.96184656253E+03  0.11278589858E+04  0.17403771210E+04  0.12699999809E+01 0.  1.
</event>
<event>
 5   0  0.1351000E-07  0.3934358E+04  0.7818609E-02  0.8017921E-01
        1   -1    0    0  501    0  0.00000000000E+00  0.00000000000E+00  0.21240002537E+04  0.21240002537E+04  0.50400001928E-02 0.  1.
       -1   -1    0    0    0  501  0.00000000000E+00  0.00000000000E+00 -0.18219361262E+04  0.18219361263E+04  0.50400001928E-02 0. -1.
    10030    2    1    2    0    0  0.00000000000E+00  0.00000000000E+00  0.30206412748E+03  0.39459363800E+04  0.39343577847E+04 0.  0.
        3    1    3    3  502    0  0.16452426407E+04  0.10757673827E+04  0.22671257155E+03  0.19787615846E+04  0.10100000352E+00 0. -1.
       -3    1    3    3    0  502 -0.16452426407E+04 -0.10757673827E+04  0.75351555929E+02  0.19671747954E+04  0.10100000352E+00 0.  1.
</event>
<event>
 5   0  0.1351000E-07  0.4004534E+04  0.7818609E-02  0.8003633E-01
       -1   -1    0    0    0  501  0.00000000000E+00  0.00000000000E+00  0.18148139738E+04  0.18148139738E+04  0.50400001928E-02 0.  1.
        1   -1    0    0  501    0  0.00000000000E+00  0.00000000000E+00 -0.22090816900E+04  0.22090816900E+04  0.50400001928E-02 0. -1.
    10030    2    1    2    0    0  0.00000000000E+00  0.00000000000E+00 -0.39426771618E+03  0.40238956638E+04  0.40045335910E+04 0.  0.
        4    1    3    3  502    0  0.11733091863E+04  0.12875060451E+04  0.79493120281E+03  0.19147437147E+04  0.12699999809E+01 0.  1.
       -4    1    3    3    0  502 -0.11733091863E+04 -0.12875060451E+04 -0.11891989190E+04  0.21091519491E+04  0.12699999809E+01 0. -1.
</event>
<event>
 5   0  0.4077370E-07  0.3979430E+04  0.7818609E-02  0.8008709E-01
        2   -1    0    0  501    0  0.00000000000E+00  0.00000000000E+00  0.15517298854E+04  0.15517298854E+04  0.25500000920E-02 0.  1.
       -2   -1    0    0    0  501  0.00000000000E+00  0.00000000000E+00 -0.25513246241E+04  0.25513246241E+04  0.25500000920E-02 0. -1.
    10030    2    1    2    0    0  0.00000000000E+00  0.00000000000E+00 -0.99959473871E+03  0.41030545095E+04  0.39794304449E+04 0.  0.
        3    1    3    3  502    0  0.41447654923E+03  0.28512353577E+03  0.14850726364E+04  0.15679690641E+04  0.10100000352E+00 0.  1.
       -3    1    3    3    0  502 -0.41447654923E+03 -0.28512353577E+03 -0.24846673751E+04  0.25350854454E+04  0.10100000352E+00 0. -1.
</event>
<event>
 5   0  0.4047916E-07  0.3412098E+04  0.7818609E-02  0.8134943E-01
       -2   -1    0    0    0  501  0.00000000000E+00  0.00000000000E+00  0.16390650509E+04  0.16390650509E+04  0.25500000920E-02 0.  1.
        2   -1    0    0  501    0  0.00000000000E+00  0.00000000000E+00 -0.17757706229E+04  0.17757706229E+04  0.25500000920E-02 0. -1.
    10030    2    1    2    0    0  0.00000000000E+00  0.00000000000E+00 -0.13670557199E+03  0.34148356738E+04  0.34120982204E+04 0.  0.
        5    1    3    3  502    0 -0.16021415869E+04 -0.50889735813E+03  0.22299464783E+03  0.16957543716E+04  0.46999998093E+01 0.  1.
       -5    1    3    3    0  502  0.16021415869E+04  0.50889735813E+03 -0.35970021982E+03  0.17190813023E+04  0.46999998093E+01 0. -1.
</event>
<event>
 5   0  0.4047916E-07  0.4090348E+04  0.7818609E-02  0.7986564E-01
        2   -1    0    0  501    0  0.00000000000E+00  0.00000000000E+00  0.11941704152E+04  0.11941704152E+04  0.25500000920E-02 0. -1.
       -2   -1    0    0    0  501  0.00000000000E+00  0.00000000000E+00 -0.35026295829E+04  0.35026295829E+04  0.25500000920E-02 0.  1.
    10030    2    1    2    0    0  0.00000000000E+00  0.00000000000E+00 -0.23084591677E+04  0.46967999981E+04  0.40903479673E+04 0.  0.
        5    1    3    3  502    0  0.16183078824E+04  0.41681864306E+03  0.19958134300E+03  0.16830071259E+04  0.46999998093E+01 0. -1.
       -5    1    3    3    0  502 -0.16183078824E+04 -0.41681864306E+03 -0.25080405107E+04  0.30137928722E+04  0.46999998093E+01 0.  1.
</event>
<event>
 5   0  0.1372952E-07  0.4053645E+04  0.7818609E-02  0.7993811E-01
       -1   -1    0    0    0  501  0.00000000000E+00  0.00000000000E+00  0.27017908430E+04  0.27017908430E+04  0.50400001928E-02 0. -1.
        1   -1    0    0  501    0  0.00000000000E+00  0.00000000000E+00 -0.15204767041E+04  0.15204767041E+04  0.50400001928E-02 0.  1.
    10030    2    1    2    0    0  0.00000000000E+00  0.00000000000E+00  0.11813141388E+04  0.42222675471E+04  0.40536452909E+04 0.  0.
        1    1    3    3  502    0  0.13112578525E+04  0.47133244444E+03 -0.94245959210E+03  0.16821954440E+04  0.50400001928E-02 0.  1.
       -1    1    3    3    0  502 -0.13112578525E+04 -0.47133244444E+03  0.21237737309E+04  0.25400721031E+04  0.50400001928E-02 0. -1.
</event>
<event>
 5   0  0.4301754E-07  0.3952948E+04  0.7818609E-02  0.8014106E-01
       -2   -1    0    0    0  501  0.00000000000E+00  0.00000000000E+00  0.18919445270E+04  0.18919445270E+04  0.25500000920E-02 0.  1.
        2   -1    0    0  501    0  0.00000000000E+00  0.00000000000E+00 -0.20647796298E+04  0.20647796298E+04  0.25500000920E-02 0. -1.
    10030    2    1    2    0    0  0.00000000000E+00  0.00000000000E+00 -0.17283510277E+03  0.39567241568E+04  0.39529475181E+04 0.  0.
        1    1    3    3  502    0 -0.11487010384E+04 -0.10703080484E+04  0.11153023061E+04  0.19258693175E+04  0.50400001928E-02 0. -1.
       -1    1    3    3    0  502  0.11487010384E+04  0.10703080484E+04 -0.12881374089E+04  0.20308548393E+04  0.50400001928E-02 0.  1.
</event>
<event>
 5   0  0.4301754E-07  0.3853233E+04  0.7818609E-02  0.8034827E-01
       -2   -1    0    0    0  501  0.00000000000E+00  0.00000000000E+00  0.18283418546E+04  0.18283418546E+04  0.25500000920E-02 0. -1.
        2   -1    0    0  501    0  0.00000000000E+00  0.00000000000E+00 -0.20301737496E+04  0.20301737496E+04  0.25500000920E-02 0.  1.
    10030    2    1    2    0    0  0.00000000000E+00  0.00000000000E+00 -0.20183189494E+03  0.38585156042E+04  0.38532332597E+04 0.  0.
        1    1    3    3  502    0 -0.62235946881E+01  0.53341033306E+02  0.18275922208E+04  0.18283810666E+04  0.50400001928E-02 0. -1.
       -1    1    3    3    0  502  0.62235946881E+01 -0.53341033306E+02 -0.20294241158E+04  0.20301345376E+04  0.50400001928E-02 0.  1.
</event>
<event>
 5   0  0.1351000E-07  0.3982488E+04  0.7818609E-02  0.8008089E-01
       -1   -1    0    0    0  501  0.00000000000E+00  0.00000000000E+00  0.20631982985E+04  0.20631982985E+04  0.50400001928E-02 0.  1.
        1   -1    0    0  501    0  0.00000000000E+00  0.00000000000E+00 -0.19217986494E+04  0.19217986494E+04  0.50400001928E-02 0. -1.
    10030    2    1    2    0    0  0.00000000000E+00  0.00000000000E+00  0.14139964908E+03  0.39849969479E+04  0.39824875159E+04 0.  0.
        3    1    3    3  502    0 -0.13560771716E+04  0.13786836553E+04 -0.40429685382E+03  0.19756441665E+04  0.10100000352E+00 0. -1.
       -3    1    3    3    0  502  0.13560771716E+04 -0.13786836553E+04  0.54569650290E+03  0.20093527814E+04  0.10100000352E+00 0.  1.
</event>
<event>
 5   0  0.4079777E-07  0.3556507E+04  0.7818609E-02  0.8100528E-01
        2   -1    0    0  501    0  0.00000000000E+00  0.00000000000E+00  0.23386104257E+04  0.23386104257E+04  0.25500000920E-02 0. -1.
       -2   -1    0    0    0  501  0.00000000000E+00  0.00000000000E+00 -0.13521639499E+04  0.13521639499E+04  0.25500000920E-02 0.  1.
    10030    2    1    2    0    0  0.00000000000E+00  0.00000000000E+00  0.98644647574E+03  0.36907743756E+04  0.35565065503E+04 0.  0.
        4    1    3    3  502    0 -0.48934407955E+03 -0.99956744718E+03 -0.94607297594E+03  0.14607013378E+04  0.12699999809E+01 0.  1.
       -4    1    3    3    0  502  0.48934407955E+03  0.99956744718E+03  0.19325194517E+04  0.22300730377E+04  0.12699999809E+01 0. -1.
</event>
<event>
 5   0  0.1421304E-07  0.3998418E+04  0.7818609E-02  0.8004866E-01
       -1   -1    0    0    0  501  0.00000000000E+00  0.00000000000E+00  0.26432163598E+04  0.26432163598E+04  0.50400001928E-02 0. -1.
        1   -1    0    0  501    0  0.00000000000E+00  0.00000000000E+00 -0.15121110336E+04  0.15121110336E+04  0.50400001928E-02 0.  1.
    10030    2    1    2    0    0  0.00000000000E+00  0.00000000000E+00  0.11311053262E+04  0.41553273934E+04  0.39984179981E+04 0.  0.
        2    1    3    3  502    0  0.53342611704E+03  0.15274018345E+04  0.17860932354E+04  0.24099022453E+04  0.25500000920E-02 0. -1.
       -2    1    3    3    0  502 -0.53342611704E+03 -0.15274018345E+04 -0.65498790917E+03  0.17454251481E+04  0.25500000920E-02 0.  1.
</event>
<event>
 5   0  0.4149487E-07  0.4034013E+04  0.7818609E-02  0.7997720E-01
       -2   -1    0    0    0  501  0.00000000000E+00  0.00000000000E+00  0.20414687695E+04  0.20414687695E+04  0.25500000920E-02 0. -1.
        2   -1    0    0  501    0  0.00000000000E+00  0.00000000000E+00 -0.19928373845E+04  0.19928373845E+04  0.25500000920E-02 0.  1.
    10030    2    1    2    0    0  0.00000000000E+00  0.00000000000E+00  0.48631384978E+02  0.40343061540E+04  0.40340130308E+04 0.  0.
        2    1    3    3  502    0 -0.73698817734E+03 -0.31371814164E+03 -0.18269656610E+04  0.19948368787E+04  0.25500000920E-02 0.  1.
       -2    1    3    3    0  502  0.73698817734E+03  0.31371814164E+03  0.18755970460E+04  0.20394692753E+04  0.25500000920E-02 0. -1.
</event>
<event>
 5   0  0.1372952E-07  0.3971698E+04  0.7818609E-02  0.8010280E-01
        1   -1    0    0  501    0  0.00000000000E+00  0.00000000000E+00  0.14810344056E+04  0.14810344056E+04  0.50400001928E-02 0.  1.
       -1   -1    0    0    0  501  0.00000000000E+00  0.00000000000E+00 -0.26627312654E+04  0.26627312654E+04  0.50400001928E-02 0. -1.
    10030    2    1    2    0    0  0.00000000000E+00  0.00000000000E+00 -0.11816968598E+04  0.41437656709E+04  0.39716981843E+04 0.  0.
        1    1    3    3  502    0  0.16858902700E+04 -0.58597679667E+03 -0.14992002079E+04  0.23309217216E+04  0.50400001928E-02 0. -1.
       -1    1    3    3    0  502 -0.16858902700E+04  0.58597679667E+03  0.31750334815E+03  0.18128439493E+04  0.50400001928E-02 0.  1.
</event>
<event>
 5   0  0.4149487E-07  0.3725200E+04  0.7818609E-02  0.8062400E-01
       -2   -1    0    0    0  501  0.00000000000E+00  0.00000000000E+00  0.13224166274E+04  0.13224166274E+04  0.25500000920E-02 0. -1.
        2   -1    0    0  501    0  0.00000000000E+00  0.00000000000E+00 -0.26234381597E+04  0.26234381597E+04  0.25500000920E-02 0.  1.
    10030    2    1    2    0    0  0.00000000000E+00  0.00000000000E+00 -0.13010215323E+04  0.39458547871E+04  0.37251997226E+04 0.  0.
        2    1    3    3  502    0 -0.29829629632E+03  0.89934770900E+03  0.10480550286E+04  0.14128787369E+04  0.25500000920E-02 0. -1.
       -2    1    3    3    0  502  0.29829629632E+03 -0.89934770900E+03 -0.23490765609E+04  0.25329760502E+04  0.25500000920E-02 0.  1.
</event>
<event>
 5   0  0.4047916E-07  0.4056004E+04  0.7818609E-02  0.7993343E-01
       -2   -1    0    0    0  501  0.00000000000E+00  0.00000000000E+00  0.14404512635E+04  0.14404512635E+04  0.25500000920E-02 0.  1.
        2   -1    0    0  501    0  0.00000000000E+00  0.00000000000E+00 -0.28552109935E+04  0.28552109935E+04  0.25500000920E-02 0. -1.
    10030    2    1    2    0    0  0.00000000000E+00  0.00000000000E+00 -0.14147597299E+04  0.42956622570E+04  0.40560040844E+04 0.  0.
        5    1    3    3  502    0 -0.12007841124E+04  0.10516102452E+04 -0.20322991295E+04  0.25841881577E+04  0.46999998093E+01 0. -1.
       -5    1    3    3    0  502  0.12007841124E+04 -0.10516102452E+04  0.61753939959E+03  0.17114740993E+04  0.46999998093E+01 0.  1.
</event>
<event>
 5   0  0.4047916E-07  0.3484634E+04  0.7818609E-02  0.8117441E-01
        2   -1    0    0  501    0  0.00000000000E+00  0.00000000000E+00  0.22167044750E+04  0.22167044750E+04  0.25500000920E-02 0.  1.
       -2   -1    0    0    0  501  0.00000000000E+00  0.00000000000E+00 -0.13694511527E+04  0.13694511527E+04  0.25500000920E-02 0. -1.
    10030    2    1    2    0    0  0.00000000000E+00  0.00000000000E+00  0.84725332235E+03  0.35861556277E+04  0.34846339828E+04 0.  0.
        5    1    3    3  502    0 -0.95345579272E+02  0.15225206664E+04  0.12898656739E+04  0.19977325912E+04  0.46999998093E+01 0.  1.
       -5    1    3    3    0  502  0.95345579272E+02 -0.15225206664E+04 -0.44261235154E+03  0.15884230365E+04  0.46999998093E+01 0. -1.
</event>
<event>
 5   0  0.4047916E-07  0.3504950E+04  0.7818609E-02  0.8112618E-01
        2   -1    0    0  501    0  0.00000000000E+00  0.00000000000E+00  0.19966622756E+04  0.19966622756E+04  0.25500000920E-02 0.  1.
       -2   -1    0    0    0  501  0.00000000000E+00  0.00000000000E+00 -0.15381516437E+04  0.15381516437E+04  0.25500000920E-02 0. -1.
    10030    2    1    2    0    0  0.00000000000E+00  0.00000000000E+00  0.45851063191E+03  0.35348139194E+04  0.35049504198E+04 0.  0.
        5    1    3    3  502    0 -0.81465934189E+03 -0.69530773983E+03 -0.11696553614E+04  0.15859503305E+04  0.46999998093E+01 0. -1.
       -5    1    3    3    0  502  0.81465934189E+03  0.69530773983E+03  0.16281659933E+04  0.19488635889E+04  0.46999998093E+01 0.  1.
</event>
<event>
 5   0  0.1372952E-07  0.4079959E+04  0.7818609E-02  0.7988608E-01
        1   -1    0    0  501    0  0.00000000000E+00  0.00000000000E+00  0.15785909563E+04  0.15785909563E+04  0.50400001928E-02 0.  1.
       -1   -1    0    0    0  501  0.00000000000E+00  0.00000000000E+00 -0.26362226572E+04  0.26362226572E+04  0.50400001928E-02 0. -1.
    10030    2    1    2    0    0  0.00000000000E+00  0.00000000000E+00 -0.10576317009E+04  0.42148136134E+04  0.40799594338E+04 0.  0.
        1    1    3    3  502    0  0.38257585764E+02  0.19945087895E+04 -0.96951706998E+03  0.22179928547E+04  0.50400001928E-02 0. -1.
       -1    1    3    3    0  502 -0.38257585764E+02 -0.19945087895E+04 -0.88114630898E+02  0.19968207588E+04  0.50400001928E-02 0.  1.
</event>
<event>
 5   0  0.1351000E-07  0.3828057E+04  0.7818609E-02  0.8040161E-01
        1   -1    0    0  501    0  0.00000000000E+00  0.00000000000E+00  0.19718178865E+04  0.19718178865E+04  0.50400001928E-02 0. -1.
       -1   -1    0    0    0  501  0.00000000000E+00  0.00000000000E+00 -0.18579326923E+04  0.18579326923E+04  0.50400001928E-02 0.  1.
    10030    2    1    2    0    0  0.00000000000E+00  0.00000000000E+00  0.11388519418E+03  0.38297505788E+04  0.38280569037E+04 0.  0.
        3    1    3    3  502    0  0.26203287650E+03  0.56328450041E+03  0.18681452675E+04  0.19687349765E+04  0.10100000352E+00 0. -1.
       -3    1    3    3    0  502 -0.26203287650E+03 -0.56328450041E+03 -0.17542600734E+04  0.18610156023E+04  0.10100000352E+00 0.  1.
</event>
<event>
 5   0  0.1351000E-07  0.4098704E+04  0.7818609E-02  0.7984926E-01
       -1   -1    0    0    0  501  0.00000000000E+00  0.00000000000E+00  0.22832652072E+04  0.22832652072E+04  0.50400001928E-02 0.  1.
        1   -1    0    0  501    0  0.00000000000E+00  0.00000000000E+00 -0.18394025935E+04  0.18394025935E+04  0.50400001928E-02 0. -1.
    10030    2    1    2    0    0  0.00000000000E+00  0.00000000000E+00  0.44386261368E+03  0.41226678007E+04  0.40987041580E+04 0.  0.
        3    1    3    3  502    0  0.65904328019E+03 -0.23044450162E+03 -0.17160930118E+04  0.18526785876E+04  0.10100000352E+00 0. -1.
       -3    1    3    3    0  502 -0.65904328019E+03  0.23044450162E+03  0.21599556255E+04  0.22699892131E+04  0.10100000352E+00 0.  1.
</event>
<event>
 5   0  0.4301754E-07  0.3946066E+04  0.7818609E-02  0.8015516E-01
        2   -1    0    0  501    0  0.00000000000E+00  0.00000000000E+00  0.11661470941E+04  0.11661470941E+04  0.25500000920E-02 0. -1.
       -2   -1    0    0    0  501  0.00000000000E+00  0.00000000000E+00 -0.33382229644E+04  0.33382229644E+04  0.25500000920E-02 0.  1.
    10030    2    1    2    0    0  0.00000000000E+00  0.00000000000E+00 -0.21720758702E+04  0.45043700585E+04  0.39460658937E+04 0.  0.
        1    1    3    3  502    0 -0.18908757222E+04  0.35244382277E+03 -0.15878123811E+04  0.24941483121E+04  0.50400001928E-02 0.  1.
       -1    1    3    3    0  502  0.18908757222E+04 -0.35244382277E+03 -0.58426348911E+03  0.20102217464E+04  0.50400001928E-02 0. -1.
</event>
<event>
 5   0  0.1368865E-07  0.3998239E+04  0.7818609E-02  0.8004902E-01
       -1   -1    0    0    0  501  0.00000000000E+00  0.00000000000E+00  0.13723162397E+04  0.13723162397E+04  0.50400001928E-02 0.  1.
        1   -1    0    0  501    0  0.00000000000E+00  0.00000000000E+00 -0.29122148045E+04  0.29122148045E+04  0.50400001928E-02 0. -1.
    10030    2    1    2    0    0  0.00000000000E+00  0.00000000000E+00 -0.15398985648E+04  0.42845310443E+04  0.39982394475E+04 0.  0.
        5    1    3    3  502    0  0.74835642549E+03  0.67488011622E+03 -0.26201223509E+04  0.28072341788E+04  0.46999998093E+01 0. -1.
       -5    1    3    3    0  502 -0.74835642549E+03 -0.67488011622E+03  0.10802237861E+04  0.14772968655E+04  0.46999998093E+01 0.  1.
</event>
<event>
 5   0  0.4301754E-07  0.3022182E+04  0.7818609E-02  0.8237425E-01
        2   -1    0    0  501    0  0.00000000000E+00  0.00000000000E+00  0.16462124579E+04  0.16462124579E+04  0.25500000920E-02 0.  1.
       -2   -1    0    0    0  501  0.00000000000E+00  0.00000000000E+00 -0.13870605763E+04  0.13870605763E+04  0.25500000920E-02 0. -1.
    10030    2    1    2    0    0  0.00000000000E+00  0.00000000000E+00  0.25915188163E+03  0.30332730342E+04  0.30221822583E+04 0.  0.
        1    1    3    3  502    0  0.51141255797E+03 -0.43899792298E+03 -0.12278422460E+04  0.14006636148E+04  0.50400001928E-02 0. -1.
       -1    1    3    3    0  502 -0.51141255797E+03  0.43899792298E+03  0.14869941276E+04  0.16326094194E+04  0.50400001928E-02 0.  1.
</event>
<event>
 5   0  0.4077370E-07  0.3987043E+04  0.7818609E-02  0.8007166E-01
       -2   -1    0    0    0  501  0.00000000000E+00  0.00000000000E+00  0.19478536945E+04  0.19478536945E+04  0.25500000920E-02 0. -1.
        2   -1    0    0  501    0  0.00000000000E+00  0.00000000000E+00 -0.20402599392E+04  0.20402599392E+04  0.25500000920E-02 0.  1.
    10030    2    1    2    0    0  0.00000000000E+00  0.00000000000E+00 -0.92406244780E+02  0.39881136337E+04  0.39870429445E+04 0.  0.
        3    1    3    3  502    0  0.72105716641E+03  0.11669041990E+04  0.14007464359E+04  0.19605303963E+04  0.10100000352E+00 0. -1.
       -3    1    3    3    0  502 -0.72105716641E+03 -0.11669041990E+04 -0.14931526807E+04  0.20275832375E+04  0.10100000352E+00 0.  1.
</event>
<event>
 5   0  0.4149487E-07  0.3435142E+04  0.7818609E-02  0.8129335E-01
       -2   -1    0    0    0  501  0.00000000000E+00  0.00000000000E+00  0.13566403148E+04  0.13566403148E+04  0.25500000920E-02 0. -1.
        2   -1    0    0  501    0  0.00000000000E+00  0.00000000000E+00 -0.21745264485E+04  0.21745264485E+04  0.25500000920E-02 0.  1.
    10030    2    1    2    0    0  0.00000000000E+00  0.00000000000E+00 -0.81788613373E+03  0.35311667632E+04  0.34351420614E+04 0.  0.
        2    1    3    3  502    0 -0.28314544655E+03  0.86405707784E+03  0.10889389158E+04  0.14186451072E+04  0.25500000920E-02 0. -1.
       -2    1    3    3    0  502  0.28314544655E+03 -0.86405707784E+03 -0.19068250496E+04  0.21125216561E+04  0.25500000920E-02 0.  1.
</event>
<event>
 5   0  0.1421304E-07  0.3788350E+04  0.7818609E-02  0.8048660E-01
       -1   -1    0    0    0  501  0.00000000000E+00  0.00000000000E+00  0.14362422463E+04  0.14362422463E+04  0.50400001928E-02 0.  1.
        1   -1    0    0  501    0  0.00000000000E+00  0.00000000000E+00 -0.24981148921E+04  0.24981148921E+04  0.50400001928E-02 0. -1.
    10030    2    1    2    0    0  0.00000000000E+00  0.00000000000E+00 -0.10618726458E+04  0.39343571383E+04  0.37883495847E+04 0.  0.
        2    1    3    3  502    0 -0.62704306083E+03  0.65374315380E+03  0.11967090536E+04  0.15008916251E+04  0.25500000920E-02 0.  1.
       -2    1    3    3    0  502  0.62704306083E+03 -0.65374315380E+03 -0.22585816994E+04  0.24334655133E+04  0.25500000920E-02 0. -1.
</event>
<event>
 5   0  0.4047916E-07  0.3984149E+04  0.7818609E-02  0.8007752E-01
       -2   -1    0    0    0  501  0.00000000000E+00  0.00000000000E+00  0.12188545364E+04  0.12188545364E+04  0.25500000920E-02 0.  1.
        2   -1    0    0  501    0  0.00000000000E+00  0.00000000000E+00 -0.32558122192E+04  0.32558122192E+04  0.25500000920E-02 0. -1.
    10030    2    1    2    0    0  0.00000000000E+00  0.00000000000E+00 -0.20369576828E+04  0.44746667556E+04  0.39841493411E+04 0.  0.
        5    1    3    3  502    0  0.17456095513E+04  0.48188885147E+03 -0.86244298277E+02  0.18129615936E+04  0.46999998093E+01 0.  1.
       -5    1    3    3    0  502 -0.17456095513E+04 -0.48188885147E+03 -0.19507133845E+04  0.26617051620E+04  0.46999998093E+01 0. -1.
</event>
<event>
 5   0  0.4047916E-07  0.4004505E+04  0.7818609E-02  0.8003638E-01
       -2   -1    0    0    0  501  0.00000000000E+00  0.00000000000E+00  0.17951100916E+04  0.17951100916E+04  0.25500000920E-02 0.  1.
        2   -1    0    0  501    0  0.00000000000E+00  0.00000000000E+00 -0.22332981060E+04  0.22332981060E+04  0.25500000920E-02 0. -1.
    10030    2    1    2    0    0  0.00000000000E+00  0.00000000000E+00 -0.43818801442E+03  0.40284081975E+04  0.40045054464E+04 0.  0.
        5    1    3    3  502    0  0.38021846169E+02  0.10052602095E+04 -0.19606119893E+04  0.22036368149E+04  0.46999998093E+01 0. -1.
       -5    1    3    3    0  502 -0.38021846169E+02 -0.10052602095E+04  0.15224239749E+04  0.18247713826E+04  0.46999998093E+01 0.  1.
</event>
<event>
 5   0  0.4301754E-07  0.3034207E+04  0.7818609E-02  0.8234030E-01
       -2   -1    0    0    0  501  0.00000000000E+00  0.00000000000E+00  0.13253490668E+04  0.13253490668E+04  0.25500000920E-02 0.  1.
        2   -1    0    0  501    0  0.00000000000E+00  0.00000000000E+00 -0.17366018770E+04  0.17366018770E+04  0.25500000920E-02 0. -1.
    10030    2    1    2    0    0  0.00000000000E+00  0.00000000000E+00 -0.41125281021E+03  0.30619509438E+04  0.30342074268E+04 0.  0.
        1    1    3    3  502    0  0.12210527745E+04 -0.78997901680E+02 -0.11107067590E+04  0.16525374583E+04  0.50400001928E-02 0. -1.
       -1    1    3    3    0  502 -0.12210527745E+04  0.78997901680E+02  0.69945394880E+03  0.14094134855E+04  0.50400001928E-02 0.  1.
</event>
<event>
 5   0  0.4079777E-07  0.4029066E+04  0.7818609E-02  0.7998709E-01
       -2   -1    0    0    0  501  0.00000000000E+00  0.00000000000E+00  0.15142411910E+04  0.15142411910E+04  0.25500000920E-02 0. -1.
        2   -1    0    0  501    0  0.00000000000E+00  0.00000000000E+00 -0.26801162122E+04  0.26801162122E+04  0.25500000920E-02 0.  1.
    10030    2    1    2    0    0  0.00000000000E+00  0.00000000000E+00 -0.11658750212E+04  0.41943574032E+04  0.40290655816E+04 0.  0.
        4    1    3    3  502    0  0.52224655022E+03  0.90884521426E+03  0.12079882473E+04  0.15993680943E+04  0.12699999809E+01 0. -1.
       -4    1    3    3    0  502 -0.52224655022E+03 -0.90884521426E+03 -0.23738632685E+04  0.25949893089E+04  0.12699999809E+01 0.  1.
</event>
<event>
 5   0  0.1421304E-07  0.3897252E+04  0.7818609E-02  0.8025601E-01
       -1   -1    0    0    0  501  0.00000000000E+00  0.00000000000E+00  0.15070103634E+04  0.15070103635E+04  0.50400001928E-02 0.  1.
        1   -1    0    0  501    0  0.00000000000E+00  0.00000000000E+00 -0.25196532602E+04  0.25196532602E+04  0.50400001928E-02 0. -1.
    10030    2    1    2    0    0  0.00000000000E+00  0.00000000000E+00 -0.10126428968E+04  0.40266636237E+04  0.38972521476E+04 0.  0.
        2    1    3    3  502    0 -0.17641160797E+04 -0.12130405131E+03  0.33959802649E+03  0.18005962999E+04  0.25500000920E-02 0.  1.
       -2    1    3    3    0  502  0.17641160797E+04  0.12130405131E+03 -0.13522409233E+04  0.22260673238E+04  0.25500000920E-02 0. -1.
</event>
<event>
 5   0  0.1421304E-07  0.3961636E+04  0.7818609E-02  0.8012331E-01
       -1   -1    0    0    0  501  0.00000000000E+00  0.00000000000E+00  0.17554062164E+04  0.17554062164E+04  0.50400001928E-02 0. -1.
        1   -1    0    0  501    0  0.00000000000E+00  0.00000000000E+00 -0.22351753692E+04  0.22351753692E+04  0.50400001928E-02 0.  1.
    10030    2    1    2    0    0  0.00000000000E+00  0.00000000000E+00 -0.47976915284E+03  0.39905815856E+04  0.39616363982E+04 0.  0.
        2    1    3    3  502    0  0.13378785548E+04 -0.12754218592E+04 -0.95714103159E+03  0.20815232164E+04  0.25500000920E-02 0. -1.
       -2    1    3    3    0  502 -0.13378785548E+04  0.12754218592E+04  0.47737187875E+03  0.19090583692E+04  0.25500000920E-02 0.  1.
</event>
<event>
 5   0  0.4047916E-07  0.4022366E+04  0.7818609E-02  0.8000050E-01
       -2   -1    0    0    0  501  0.00000000000E+00  0.00000000000E+00  0.21247489425E+04  0.21247489425E+04  0.25500000920E-02 0.  1.
        2   -1    0    0  501    0  0.00000000000E+00  0.00000000000E+00 -0.19036866419E+04  0.19036866419E+04  0.25500000920E-02 0. -1.
    10030    2    1    2    0    0  0.00000000000E+00  0.00000000000E+00  0.22106230065E+03  0.40284355844E+04  0.40223655624E+04 0.  0.
        5    1    3    3  502    0  0.55410760056E+03  0.16918831561E+04 -0.82647157165E+03  0.19627993264E+04  0.46999998093E+01 0. -1.
       -5    1    3    3    0  502 -0.55410760056E+03 -0.16918831561E+04  0.10475338723E+04  0.20656362581E+04  0.46999998093E+01 0.  1.
</event>
<event>
 5   0  0.4077370E-07  0.3874354E+04  0.7818609E-02  0.8030384E-01
        2   -1    0    0  501    0  0.00000000000E+00  0.00000000000E+00  0.22321176286E+04  0.22321176286E+04  0.25500000920E-02 0.  1.
       -2   -1    0    0    0  501  0.00000000000E+00  0.00000000000E+00 -0.16812085821E+04  0.16812085821E+04  0.25500000920E-02 0. -1.
    10030    2    1    2    0    0  0.00000000000E+00  0.00000000000E+00  0.55090904647E+03  0.39133262107E+04  0.38743543015E+04 0.  0.
        3    1    3    3  502    0  0.19906883736E+03  0.88059633942E+03  0.20066310186E+04  0.22003741432E+04  0.10100000352E+00 0.  1.
       -3    1    3    3    0  502 -0.19906883736E+03 -0.88059633942E+03 -0.14557219722E+04  0.17129520675E+04  0.10100000352E+00 0. -1.
</event>
<event>
 5   0  0.1421304E-07  0.2832042E+04  0.7818609E-02  0.8293389E-01
        1   -1    0    0  501    0  0.00000000000E+00  0.00000000000E+00  0.13341254520E+04  0.13341254520E+04  0.50400001928E-02 0.  1.
       -1   -1    0    0    0  501  0.00000000000E+00  0.00000000000E+00 -0.15029436999E+04  0.15029436999E+04  0.50400001928E-02 0. -1.
    10030    2    1    2    0    0  0.00000000000E+00  0.00000000000E+00 -0.16881824789E+03  0.28370691520E+04  0.28320419793E+04 0.  0.
        2    1    3    3  502    0  0.75339898298E+03  0.11794822366E+04  0.13121018363E+03  0.14057042670E+04  0.25500000920E-02 0.  1.
       -2    1    3    3    0  502 -0.75339898298E+03 -0.11794822366E+04 -0.30002843152E+03  0.14313648849E+04  0.25500000920E-02 0. -1.
</event>
<event>
 5   0  0.4149487E-07  0.4000669E+04  0.7818609E-02  0.8004412E-01
       -2   -1    0    0    0  501  0.00000000000E+00  0.00000000000E+00  0.23475275564E+04  0.23475275564E+04  0.25500000920E-02 0.  1.
        2   -1    0    0  501    0  0.00000000000E+00  0.00000000000E+00 -0.17044901792E+04  0.17044901792E+04  0.25500000920E-02 0. -1.
    10030    2    1    2    0    0  0.00000000000E+00  0.00000000000E+00  0.64303737718E+03  0.40520177356E+04  0.40006687767E+04 0.  0.
        2    1    3    3  502    0 -0.14967796485E+04  0.80523038056E+02 -0.10200594427E+04  0.18131063241E+04  0.25500000920E-02 0. -1.
       -2    1    3    3    0  502  0.14967796485E+04 -0.80523038056E+02  0.16630968199E+04  0.22389114114E+04  0.25500000920E-02 0.  1.
</event>
<event>
 5   0  0.1351000E-07  0.3381058E+04  0.7818609E-02  0.8142571E-01
        1   -1    0    0  501    0  0.00000000000E+00  0.00000000000E+00  0.18358519463E+04  0.18358519464E+04  0.50400001928E-02 0. -1.
       -1   -1    0    0    0  501  0.00000000000E+00  0.00000000000E+00 -0.15567094257E+04  0.15567094257E+04  0.50400001928E-02 0.  1.
    10030    2    1    2    0    0  0.00000000000E+00  0.00000000000E+00  0.27914252069E+03  0.33925613720E+04  0.33810578398E+04 0.  0.
        4    1    3    3  502    0  0.45944597728E+01 -0.14415423347E+04 -0.74650801088E+03  0.16233734121E+04  0.12699999809E+01 0.  1.
       -4    1    3    3    0  502 -0.45944597728E+01  0.14415423347E+04  0.10256505316E+04  0.17691879599E+04  0.12699999809E+01 0. -1.
</event>
<event>
 5   0  0.1351000E-07  0.3962811E+04  0.7818609E-02  0.8012091E-01
        1   -1    0    0  501    0  0.00000000000E+00  0.00000000000E+00  0.24525306042E+04  0.24525306042E+04  0.50400001928E-02 0.  1.
       -1   -1    0    0    0  501  0.00000000000E+00  0.00000000000E+00 -0.16007821598E+04  0.16007821599E+04  0.50400001928E-02 0. -1.
    10030    2    1    2    0    0  0.00000000000E+00  0.00000000000E+00  0.85174844435E+03  0.40533127640E+04  0.39628107387E+04 0.  0.
        3    1    3    3  502    0 -0.13709750419E+04  0.92344307439E+03 -0.69161885317E+03  0.17918304399E+04  0.10100000352E+00 0. -1.
       -3    1    3    3    0  502  0.13709750419E+04 -0.92344307439E+03  0.15433672975E+04  0.22614823241E+04  0.10100000352E+00 0.  1.
</event>
<event>
 5   0  0.4301754E-07  0.3999034E+04  0.7818609E-02  0.8004742E-01
       -2   -1    0    0    0  501  0.00000000000E+00  0.00000000000E+00  0.20953635377E+04  0.20953635377E+04  0.25500000920E-02 0.  1.
        2   -1    0    0  501    0  0.00000000000E+00  0.00000000000E+00 -0.19080542520E+04  0.19080542520E+04  0.25500000920E-02 0. -1.
    10030    2    1    2    0    0  0.00000000000E+00  0.00000000000E+00  0.18730928567E+03  0.40034177897E+04  0.39990335371E+04 0.  0.
        1    1    3    3  502    0  0.77207070691E+03  0.18355630123E+04 -0.87326737512E+02  0.19932412567E+04  0.50400001928E-02 0.  1.
       -1    1    3    3    0  502 -0.77207070691E+03 -0.18355630123E+04  0.27463602318E+03  0.20101765330E+04  0.50400001928E-02 0. -1.
</event>
<event>
 5   0  0.1421304E-07  0.4034271E+04  0.7818609E-02  0.7997668E-01
        1   -1    0    0  501    0  0.00000000000E+00  0.00000000000E+00  0.20232165177E+04  0.20232165177E+04  0.50400001928E-02 0. -1.
       -1   -1    0    0    0  501  0.00000000000E+00  0.00000000000E+00 -0.20110727058E+04  0.20110727058E+04  0.50400001928E-02 0.  1.
    10030    2    1    2    0    0  0.00000000000E+00  0.00000000000E+00  0.12143811911E+02  0.40342892235E+04  0.40342709462E+04 0.  0.
        2    1    3    3  502    0  0.14615773340E+04 -0.90538579442E+03 -0.10488754201E+04  0.20139690631E+04  0.25500000920E-02 0.  1.
       -2    1    3    3    0  502 -0.14615773340E+04  0.90538579442E+03  0.10610192320E+04  0.20203201605E+04  0.25500000920E-02 0. -1.
</event>
<event>
 5   0  0.4301754E-07  0.4267572E+04  0.7818609E-02  0.7952642E-01
        2   -1    0    0  501    0  0.00000000000E+00  0.00000000000E+00  0.14955386943E+04  0.14955386943E+04  0.25500000920E-02 0.  1.
       -2   -1    0    0    0  501  0.00000000000E+00  0.00000000000E+00 -0.30444159994E+04  0.30444159994E+04  0.25500000920E-02 0. -1.
    10030    2    1    2    0    0  0.00000000000E+00  0.00000000000E+00 -0.15488773051E+04  0.45399546937E+04  0.42675716414E+04 0.  0.
        1    1    3    3  502    0 -0.79666988919E+03 -0.18571935480E+04 -0.15031333348E+04  0.25185830559E+04  0.50400001928E-02 0. -1.
       -1    1    3    3    0  502  0.79666988919E+03  0.18571935480E+04 -0.45743970311E+02  0.20213716378E+04  0.50400001928E-02 0.  1.
</event>
<event>
 5   0  0.4077370E-07  0.3947302E+04  0.7818609E-02  0.8015263E-01
       -2   -1    0    0    0  501  0.00000000000E+00  0.00000000000E+00  0.16080331844E+04  0.16080331844E+04  0.25500000920E-02 0.  1.
        2   -1    0    0  501    0  0.00000000000E+00  0.00000000000E+00 -0.24223988739E+04  0.24223988739E+04  0.25500000920E-02 0. -1.
    10030    2    1    2    0    0  0.00000000000E+00  0.00000000000E+00 -0.81436568950E+03  0.40304320583E+04  0.39473017493E+04 0.  0.
        3    1    3    3  502    0  0.60363106918E+03 -0.15508699075E+04  0.67616609873E+03  0.17963208346E+04  0.10100000352E+00 0.  1.
       -3    1    3    3    0  502 -0.60363106918E+03  0.15508699075E+04 -0.14905317882E+04  0.22341112236E+04  0.10100000352E+00 0. -1.
</event>
<event>
 5   0  0.1372952E-07  0.3588694E+04  0.7818609E-02  0.8093086E-01
       -1   -1    0    0    0  501  0.00000000000E+00  0.00000000000E+00  0.11711602466E+04  0.11711602466E+04  0.50400001928E-02 0.  1.
        1   -1    0    0  501    0  0.00000000000E+00  0.00000000000E+00 -0.27491383759E+04  0.27491383759E+04  0.50400001928E-02 0. -1.
    10030    2    1    2    0    0  0.00000000000E+00  0.00000000000E+00 -0.15779781293E+04  0.39202986226E+04  0.35886942352E+04 0.  0.
        1    1    3    3  502    0 -0.98632600837E+03  0.10400135386E+04  0.39020590750E+03  0.14855059090E+04  0.50400001928E-02 0.  1.
       -1    1    3    3    0  502  0.98632600837E+03 -0.10400135386E+04 -0.19681840368E+04  0.24347927136E+04  0.50400001928E-02 0. -1.
</event>
<event>
 5   0  0.1372952E-07  0.3830408E+04  0.7818609E-02  0.8039661E-01
       -1   -1    0    0    0  501  0.00000000000E+00  0.00000000000E+00  0.32111837485E+04  0.32111837485E+04  0.50400001928E-02 0. -1.
        1   -1    0    0  501    0  0.00000000000E+00  0.00000000000E+00 -0.11422601482E+04  0.11422601482E+04  0.50400001928E-02 0.  1.
    10030    2    1    2    0    0  0.00000000000E+00  0.00000000000E+00  0.20689236003E+04  0.43534438967E+04  0.38304084505E+04 0.  0.
        1    1    3    3  502    0 -0.59145545187E+02 -0.13840892291E+04 -0.46853718317E+03  0.14624391549E+04  0.50400001928E-02 0.  1.
       -1    1    3    3    0  502  0.59145545187E+02  0.13840892291E+04  0.25374607835E+04  0.28910047418E+04  0.50400001928E-02 0. -1.
</event>
<event>
 5   0  0.4301754E-07  0.4064801E+04  0.7818609E-02  0.7991600E-01
       -2   -1    0    0    0  501  0.00000000000E+00  0.00000000000E+00  0.14084449317E+04  0.14084449317E+04  0.25500000920E-02 0.  1.
        2   -1    0    0  501    0  0.00000000000E+00  0.00000000000E+00 -0.29327749043E+04  0.29327749043E+04  0.25500000920E-02 0. -1.
    10030    2    1    2    0    0  0.00000000000E+00  0.00000000000E+00 -0.15243299726E+04  0.43412198360E+04  0.40648010775E+04 0.  0.
        1    1    3    3  502    0  0.36011062263E+03  0.10950820395E+04  0.10255098927E+04  0.15429046872E+04  0.50400001928E-02 0.  1.
       -1    1    3    3    0  502 -0.36011062263E+03 -0.10950820395E+04 -0.25498398652E+04  0.27983151488E+04  0.50400001928E-02 0. -1.
</event>
<event>
 5   0  0.1421304E-07  0.3947776E+04  0.7818609E-02  0.8015165E-01
       -1   -1    0    0    0  501  0.00000000000E+00  0.00000000000E+00  0.16469358003E+04  0.16469358003E+04  0.50400001928E-02 0.  1.
        1   -1    0    0  501    0  0.00000000000E+00  0.00000000000E+00 -0.23657475886E+04  0.23657475886E+04  0.50400001928E-02 0. -1.
    10030    2    1    2    0    0  0.00000000000E+00  0.00000000000E+00 -0.71881178829E+03  0.40126833889E+04  0.39477762845E+04 0.  0.
        2    1    3    3  502    0 -0.17744793193E+04 -0.78029676135E+03  0.18997802553E+02  0.19385563719E+04  0.25500000920E-02 0.  1.
       -2    1    3    3    0  502  0.17744793193E+04  0.78029676135E+03 -0.73780959084E+03  0.20741270170E+04  0.25500000920E-02 0. -1.
</event>
<event>
 5   0  0.1372952E-07  0.4059122E+04  0.7818609E-02  0.7992725E-01
       -1   -1    0    0    0  501  0.00000000000E+00  0.00000000000E+00  0.13085738880E+04  0.13085738880E+04  0.50400001928E-02 0. -1.
        1   -1    0    0  501    0  0.00000000000E+00  0.00000000000E+00 -0.31477915499E+04  0.31477915499E+04  0.50400001928E-02 0.  1.
    10030    2    1    2    0    0  0.00000000000E+00  0.00000000000E+00 -0.18392176619E+04  0.44563654379E+04  0.40591219874E+04 0.  0.
        1    1    3    3  502    0  0.19606286721E+04  0.49504357682E+02 -0.14928184853E+04  0.24647560734E+04  0.50400001928E-02 0.  1.
       -1    1    3    3    0  502 -0.19606286721E+04 -0.49504357682E+02 -0.34639917665E+03  0.19916093645E+04  0.50400001928E-02 0. -1.
</event>
<event>
 5   0  0.4077370E-07  0.4025302E+04  0.7818609E-02  0.7999462E-01
       -2   -1    0    0    0  501  0.00000000000E+00  0.00000000000E+00  0.21109224995E+04  0.21109224995E+04  0.25500000920E-02 0. -1.
        2   -1    0    0  501    0  0.00000000000E+00  0.00000000000E+00 -0.19189541336E+04  0.19189541336E+04  0.25500000920E-02 0.  1.
    10030    2    1    2    0    0  0.00000000000E+00  0.00000000000E+00  0.19196836594E+03  0.40298766331E+04  0.40253017060E+04 0.  0.
        3    1    3    3  502    0 -0.47173495199E+03  0.29024415885E+03  0.20331220586E+04  0.21072163753E+04  0.10100000352E+00 0. -1.
       -3    1    3    3    0  502  0.47173495199E+03 -0.29024415885E+03 -0.18411536927E+04  0.19226602578E+04  0.10100000352E+00 0.  1.
</event>
<event>
 5   0  0.1351000E-07  0.3997087E+04  0.7818609E-02  0.8005135E-01
       -1   -1    0    0    0  501  0.00000000000E+00  0.00000000000E+00  0.13937123125E+04  0.13937123125E+04  0.50400001928E-02 0. -1.
        1   -1    0    0  501    0  0.00000000000E+00  0.00000000000E+00 -0.28658534259E+04  0.28658534259E+04  0.50400001928E-02 0.  1.
    10030    2    1    2    0    0  0.00000000000E+00  0.00000000000E+00 -0.14721411134E+04  0.42595657384E+04  0.39970865417E+04 0.  0.
        4    1    3    3  502    0 -0.31874500043E+03  0.72475573452E+03  0.12194525815E+04  0.14539379153E+04  0.12699999809E+01 0. -1.
       -4    1    3    3    0  502  0.31874500043E+03 -0.72475573452E+03 -0.26915936950E+04  0.28056278231E+04  0.12699999809E+01 0.  1.
</event>
<event>
 5   0  0.1372952E-07  0.3809363E+04  0.7818609E-02  0.8044149E-01
       -1   -1    0    0    0  501  0.00000000000E+00  0.00000000000E+00  0.13573671937E+04  0.13573671937E+04  0.50400001928E-02 0. -1.
        1   -1    0    0  501    0  0.00000000000E+00  0.00000000000E+00 -0.26726821413E+04  0.26726821413E+04  0.50400001928E-02 0.  1.
    10030    2    1    2    0    0  0.00000000000E+00  0.00000000000E+00 -0.13153149477E+04  0.40300493350E+04  0.38093627067E+04 0.  0.
        1    1    3    3  502    0  0.15894526319E+04 -0.10422249765E+04 -0.52714747811E+03  0.19724292217E+04  0.50400001928E-02 0. -1.
       -1    1    3    3    0  502 -0.15894526319E+04  0.10422249765E+04 -0.78816746955E+03  0.20576201133E+04  0.50400001928E-02 0.  1.
</event>
<event>
 5   0  0.1351000E-07  0.3992392E+04  0.7818609E-02  0.8006083E-01
       -1   -1    0    0    0  501  0.00000000000E+00  0.00000000000E+00  0.15879480919E+04  0.15879480919E+04  0.50400001928E-02 0. -1.
        1   -1    0    0  501    0  0.00000000000E+00  0.00000000000E+00 -0.25094010431E+04  0.25094010431E+04  0.50400001928E-02 0.  1.
    10030    2    1    2    0    0  0.00000000000E+00  0.00000000000E+00 -0.92145295122E+03  0.40973491350E+04  0.39923920641E+04 0.  0.
        4    1    3    3  502    0  0.14967864647E+04  0.12748078193E+04 -0.81519360887E+03  0.21283906901E+04  0.12699999809E+01 0. -1.
       -4    1    3    3    0  502 -0.14967864647E+04 -0.12748078193E+04 -0.10625934235E+03  0.19689584449E+04  0.12699999809E+01 0.  1.
</event>
<event>
 5   0  0.4149487E-07  0.3963483E+04  0.7818609E-02  0.8011954E-01
        2   -1    0    0  501    0  0.00000000000E+00  0.00000000000E+00  0.15488285247E+04  0.15488285247E+04  0.25500000920E-02 0.  1.
       -2   -1    0    0    0  501  0.00000000000E+00  0.00000000000E+00 -0.25356578509E+04  0.25356578509E+04  0.25500000920E-02 0. -1.
    10030    2    1    2    0    0  0.00000000000E+00  0.00000000000E+00 -0.98682932621E+03  0.40844863756E+04  0.39634829170E+04 0.  0.
        2    1    3    3  502    0  0.16356148236E+04 -0.96309183558E+03 -0.10804706267E+04  0.21840784121E+04  0.25500000920E-02 0. -1.
       -2    1    3    3    0  502 -0.16356148236E+04  0.96309183558E+03  0.93641300517E+02  0.19004079636E+04  0.25500000920E-02 0.  1.
</event>
<event>
 5   0  0.4079777E-07  0.3926239E+04  0.7818609E-02  0.8019594E-01
       -2   -1    0    0    0  501  0.00000000000E+00  0.00000000000E+00  0.22533134260E+04  0.22533134260E+04  0.25500000920E-02 0. -1.
        2   -1    0    0  501    0  0.00000000000E+00  0.00000000000E+00 -0.17102983506E+04  0.17102983506E+04  0.25500000920E-02 0.  1.
    10030    2    1    2    0    0  0.00000000000E+00  0.00000000000E+00  0.54301507542E+03  0.39636117766E+04  0.39262390329E+04 0.  0.
        4    1    3    3  502    0 -0.28814609354E+02  0.11752099271E+04 -0.13156819034E+04  0.17643608299E+04  0.12699999809E+01 0.  1.
       -4    1    3    3    0  502  0.28814609354E+02 -0.11752099271E+04  0.18586969788E+04  0.21992509467E+04  0.12699999809E+01 0. -1.
</event>
<event>
 5   0  0.4077370E-07  0.3976890E+04  0.7818609E-02  0.8009225E-01
       -2   -1    0    0    0  501  0.00000000000E+00  0.00000000000E+00  0.16459507804E+04  0.16459507804E+04  0.25500000920E-02 0.  1.
        2   -1    0    0  501    0  0.00000000000E+00  0.00000000000E+00 -0.24022058427E+04  0.24022058427E+04  0.25500000920E-02 0. -1.
    10030    2    1    2    0    0  0.00000000000E+00  0.00000000000E+00 -0.75625506233E+03  0.40481566230E+04  0.39768895289E+04 0.  0.
        3    1    3    3  502    0  0.40625609964E+03 -0.68333609874E+03  0.14771478683E+04  0.16774856415E+04  0.10100000352E+00 0.  1.
       -3    1    3    3    0  502 -0.40625609964E+03  0.68333609874E+03 -0.22334029306E+04  0.23706709816E+04  0.10100000352E+00 0. -1.
</event>
<event>
 5   0  0.1351000E-07  0.3682752E+04  0.7818609E-02  0.8071795E-01
        1   -1    0    0  501    0  0.00000000000E+00  0.00000000000E+00  0.12070766733E+04  0.12070766733E+04  0.50400001928E-02 0.  1.
       -1   -1    0    0    0  501  0.00000000000E+00  0.00000000000E+00 -0.28089894174E+04  0.28089894174E+04  0.50400001928E-02 0. -1.
    10030    2    1    2    0    0  0.00000000000E+00  0.00000000000E+00 -0.16019127441E+04  0.40160660907E+04  0.36827520151E+04 0.  0.
        3    1    3    3  502    0  0.41735485378E+03  0.38834128539E+03 -0.27103311793E+04  0.27696370050E+04  0.10100000352E+00 0. -1.
       -3    1    3    3    0  502 -0.41735485378E+03 -0.38834128539E+03  0.11084184352E+04  0.12464290856E+04  0.10100000352E+00 0.  1.
</event>
<event>
 5   0  0.4077370E-07  0.3980495E+04  0.7818609E-02  0.8008493E-01
        2   -1    0    0  501    0  0.00000000000E+00  0.00000000000E+00  0.25799948876E+04  0.25799948876E+04  0.25500000920E-02 0. -1.
       -2   -1    0    0    0  501  0.00000000000E+00  0.00000000000E+00 -0.15353075952E+04  0.15353075952E+04  0.25500000920E-02 0.  1.
    10030    2    1    2    0    0  0.00000000000E+00  0.00000000000E+00  0.10446872924E+04  0.41153024829E+04  0.39804953192E+04 0.  0.
        3    1    3    3  502    0 -0.51430472513E+03 -0.93117383752E+03  0.22614208190E+04  0.24991234857E+04  0.10100000352E+00 0. -1.
       -3    1    3    3    0  502  0.51430472513E+03  0.93117383752E+03 -0.12167335266E+04  0.16161789972E+04  0.10100000352E+00 0.  1.
</event>
<event>
 5   0  0.4149487E-07  0.4031289E+04  0.7818609E-02  0.7998264E-01
       -2   -1    0    0    0  501  0.00000000000E+00  0.00000000000E+00  0.17413613710E+04  0.17413613710E+04  0.25500000920E-02 0.  1.
        2   -1    0    0  501    0  0.00000000000E+00  0.00000000000E+00 -0.23331305760E+04  0.23331305760E+04  0.25500000920E-02 0. -1.
    10030    2    1    2    0    0  0.00000000000E+00  0.00000000000E+00 -0.59176920496E+03  0.40744919470E+04  0.40312893513E+04 0.  0.
        2    1    3    3  502    0  0.19417194958E+04 -0.12137127531E+03 -0.82861758103E+03  0.21146188031E+04  0.25500000920E-02 0.  1.
       -2    1    3    3    0  502 -0.19417194958E+04  0.12137127531E+03  0.23684837607E+03  0.19598731439E+04  0.25500000920E-02 0. -1.
</event>
<event>
 5   0  0.1351000E-07  0.3425053E+04  0.7818609E-02  0.8131785E-01
       -1   -1    0    0    0  501  0.00000000000E+00  0.00000000000E+00  0.10530841475E+04  0.10530841475E+04  0.50400001928E-02 0. -1.
        1   -1    0    0  501    0  0.00000000000E+00  0.00000000000E+00 -0.27849122093E+04  0.27849122093E+04  0.50400001928E-02 0.  1.
    10030    2    1    2    0    0  0.00000000000E+00  0.00000000000E+00 -0.17318280618E+04  0.38379963567E+04  0.34250529337E+04 0.  0.
        3    1    3    3  502    0 -0.15300988454E+04  0.47862926079E+03 -0.19128289544E+03  0.16145827952E+04  0.10100000352E+00 0. -1.
       -3    1    3    3    0  502  0.15300988454E+04 -0.47862926079E+03 -0.15405451664E+04  0.22234135616E+04  0.10100000352E+00 0.  1.
</event>
<event>
 5   0  0.4047916E-07  0.3521816E+04  0.7818609E-02  0.8108639E-01
       -2   -1    0    0    0  501  0.00000000000E+00  0.00000000000E+00  0.17573480993E+04  0.17573480993E+04  0.25500000920E-02 0. -1.
        2   -1    0    0  501    0  0.00000000000E+00  0.00000000000E+00 -0.17644754592E+04  0.17644754592E+04  0.25500000920E-02 0.  1.
    10030    2    1    2    0    0  0.00000000000E+00  0.00000000000E+00 -0.71273599120E+01  0.35218235586E+04  0.35218163465E+04 0.  0.
        5    1    3    3  502    0 -0.15942288391E+03  0.76674894192E+03  0.15736066014E+04  0.17577199498E+04  0.46999998093E+01 0. -1.
       -5    1    3    3    0  502  0.15942288391E+03 -0.76674894192E+03 -0.15807339614E+04  0.17641036088E+04  0.46999998093E+01 0.  1.
</event>
<event>
 5   0  0.1351000E-07  0.2860810E+04  0.7818609E-02  0.8284634E-01
        3   -1    0    0  501    0  0.00000000000E+00  0.00000000000E+00  0.11212080615E+04  0.11212080661E+04  0.10100000352E+00 0.  1.
       -3   -1    0    0    0  501  0.00000000000E+00  0.00000000000E+00 -0.18248695375E+04  0.18248695403E+04  0.10100000352E+00 0. -1.
    10030    2    1    2    0    0  0.00000000000E+00  0.00000000000E+00 -0.70366147598E+03  0.29460776064E+04  0.28608099884E+04 0.  0.
        4    1    3    3  502    0 -0.63161494683E+03  0.69869709421E+03 -0.14604590779E+04  0.17378312351E+04  0.12699999809E+01 0. -1.
       -4    1    3    3    0  502  0.63161494683E+03 -0.69869709421E+03  0.75679760191E+03  0.12082463713E+04  0.12699999809E+01 0.  1.
</event>
<event>
 5   0  0.4047916E-07  0.3162433E+04  0.7818609E-02  0.8198810E-01
       -2   -1    0    0    0  501  0.00000000000E+00  0.00000000000E+00  0.14331410657E+04  0.14331410657E+04  0.25500000920E-02 0. -1.
        2   -1    0    0  501    0  0.00000000000E+00  0.00000000000E+00 -0.17445913969E+04  0.17445913969E+04  0.25500000920E-02 0.  1.
    10030    2    1    2    0    0  0.00000000000E+00  0.00000000000E+00 -0.31145033119E+03  0.31777324626E+04  0.31624329708E+04 0.  0.
        5    1    3    3  502    0 -0.61623795156E+03 -0.69115319225E+03  0.11321859984E+04  0.14626377450E+04  0.46999998093E+01 0. -1.
       -5    1    3    3    0  502  0.61623795156E+03  0.69115319225E+03 -0.14436363296E+04  0.17150947176E+04  0.46999998093E+01 0.  1.
</event>
<event>
 5   0  0.4301754E-07  0.4105205E+04  0.7818609E-02  0.7983653E-01
        2   -1    0    0  501    0  0.00000000000E+00  0.00000000000E+00  0.14554090016E+04  0.14554090016E+04  0.25500000920E-02 0. -1.
       -2   -1    0    0    0  501  0.00000000000E+00  0.00000000000E+00 -0.28948411786E+04  0.28948411786E+04  0.25500000920E-02 0.  1.
    10030    2    1    2    0    0  0.00000000000E+00  0.00000000000E+00 -0.14394321770E+04  0.43502501801E+04  0.41052054318E+04 0.  0.
        1    1    3    3  502    0 -0.42317121595E+03 -0.84715381844E+02  0.14067880649E+04  0.14714969363E+04  0.50400001928E-02 0. -1.
       -1    1    3    3    0  502  0.42317121595E+03  0.84715381844E+02 -0.28462202419E+04  0.28787532439E+04  0.50400001928E-02 0.  1.
</event>
<event>
 5   0  0.4079777E-07  0.4013465E+04  0.7818609E-02  0.8001836E-01
        2   -1    0    0  501    0  0.00000000000E+00  0.00000000000E+00  0.25100838999E+04  0.25100838999E+04  0.25500000920E-02 0. -1.
       -2   -1    0    0    0  501  0.00000000000E+00  0.00000000000E+00 -0.16043186268E+04  0.16043186268E+04  0.25500000920E-02 0.  1.
    10030    2    1    2    0    0  0.00000000000E+00  0.00000000000E+00  0.90576527314E+03  0.41144025267E+04  0.40134645160E+04 0.  0.
        4    1    3    3  502    0  0.34741071189E+02 -0.11100345665E+04  0.21663214921E+04  0.24344063139E+04  0.12699999809E+01 0. -1.
       -4    1    3    3    0  502 -0.34741071189E+02  0.11100345665E+04 -0.12605562190E+04  0.16799962128E+04  0.12699999809E+01 0.  1.
</event>
<event>
 5   0  0.1351000E-07  0.4192285E+04  0.7818609E-02  0.7966841E-01
        1   -1    0    0  501    0  0.00000000000E+00  0.00000000000E+00  0.16100525691E+04  0.16100525691E+04  0.50400001928E-02 0. -1.
       -1   -1    0    0    0  501  0.00000000000E+00  0.00000000000E+00 -0.27289876888E+04  0.27289876888E+04  0.50400001928E-02 0.  1.
    10030    2    1    2    0    0  0.00000000000E+00  0.00000000000E+00 -0.11189351198E+04  0.43390402579E+04  0.41922851236E+04 0.  0.
        3    1    3    3  502    0 -0.84030160244E+03 -0.73884299468E+03 -0.23940336876E+04  0.26426110310E+04  0.10100000352E+00 0.  1.
       -3    1    3    3    0  502  0.84030160244E+03  0.73884299468E+03  0.12750985678E+04  0.16964292269E+04  0.10100000352E+00 0. -1.
</event>
<event>
 5   0  0.1351000E-07  0.4060085E+04  0.7818609E-02  0.7992534E-01
        1   -1    0    0  501    0  0.00000000000E+00  0.00000000000E+00  0.27136894737E+04  0.27136894737E+04  0.50400001928E-02 0.  1.
       -1   -1    0    0    0  501  0.00000000000E+00  0.00000000000E+00 -0.15186232364E+04  0.15186232364E+04  0.50400001928E-02 0. -1.
    10030    2    1    2    0    0  0.00000000000E+00  0.00000000000E+00  0.11950662373E+04  0.42323127102E+04  0.40600846746E+04 0.  0.
        4    1    3    3  502    0  0.12817043672E+04 -0.89838035075E+03  0.19451271291E+04  0.24966726859E+04  0.12699999809E+01 0.  1.
       -4    1    3    3    0  502 -0.12817043672E+04  0.89838035075E+03 -0.75006089174E+03  0.17356400243E+04  0.12699999809E+01 0. -1.
</event>
<event>
 5   0  0.4301754E-07  0.4096203E+04  0.7818609E-02  0.7985416E-01
        2   -1    0    0  501    0  0.00000000000E+00  0.00000000000E+00  0.24037724275E+04  0.24037724275E+04  0.25500000920E-02 0.  1.
       -2   -1    0    0    0  501  0.00000000000E+00  0.00000000000E+00 -0.17450568612E+04  0.17450568612E+04  0.25500000920E-02 0. -1.
    10030    2    1    2    0    0  0.00000000000E+00  0.00000000000E+00  0.65871556630E+03  0.41488292888E+04  0.40962029088E+04 0.  0.
        1    1    3    3  502    0 -0.18220840613E+04  0.20892293839E+03 -0.59399069143E+03  0.19278132851E+04  0.50400001928E-02 0.  1.
       -1    1    3    3    0  502  0.18220840613E+04 -0.20892293839E+03  0.12527062577E+04  0.22210160037E+04  0.50400001928E-02 0. -1.
</event>
<event>
 5   0  0.1372952E-07  0.3116239E+04  0.7818609E-02  0.8211295E-01
       -1   -1    0    0    0  501  0.00000000000E+00  0.00000000000E+00  0.93071270043E+03  0.93071270044E+03  0.50400001928E-02 0.  1.
        1   -1    0    0  501    0  0.00000000000E+00  0.00000000000E+00 -0.26084702738E+04  0.26084702738E+04  0.50400001928E-02 0. -1.
    10030    2    1    2    0    0  0.00000000000E+00  0.00000000000E+00 -0.16777575733E+04  0.35391829742E+04  0.31162390233E+04 0.  0.
        1    1    3    3  502    0  0.34003104605E+03 -0.12168239402E+02 -0.25657624927E+04  0.25882245550E+04  0.50400001928E-02 0. -1.
       -1    1    3    3    0  502 -0.34003104605E+03  0.12168239402E+02  0.88800491932E+03  0.95095841922E+03  0.50400001928E-02 0.  1.
</event>
<event>
 5   0  0.4079777E-07  0.4033216E+04  0.7818609E-02  0.7997879E-01
       -2   -1    0    0    0  501  0.00000000000E+00  0.00000000000E+00  0.15654828073E+04  0.15654828073E+04  0.25500000920E-02 0.  1.
        2   -1    0    0  501    0  0.00000000000E+00  0.00000000000E+00 -0.25977345868E+04  0.25977345868E+04  0.25500000920E-02 0. -1.
    10030    2    1    2    0    0  0.00000000000E+00  0.00000000000E+00 -0.10322517795E+04  0.41632173941E+04  0.40332164998E+04 0.  0.
        4    1    3    3  502    0 -0.13551089618E+04  0.11091259069E+04 -0.15484754188E+04  0.23375753060E+04  0.12699999809E+01 0. -1.
       -4    1    3    3    0  502  0.13551089618E+04 -0.11091259069E+04  0.51622363926E+03  0.18256420882E+04  0.12699999809E+01 0.  1.
</event>
<event>
 5   0  0.4077370E-07  0.3976758E+04  0.7818609E-02  0.8009252E-01
        2   -1    0    0  501    0  0.00000000000E+00  0.00000000000E+00  0.27004174166E+04  0.27004174166E+04  0.25500000920E-02 0.  1.
       -2   -1    0    0    0  501  0.00000000000E+00  0.00000000000E+00 -0.14640890714E+04  0.14640890714E+04  0.25500000920E-02 0. -1.
    10030    2    1    2    0    0  0.00000000000E+00  0.00000000000E+00  0.12363283452E+04  0.41645064880E+04  0.39767582918E+04 0.  0.
        3    1    3    3  502    0 -0.13427626117E+04  0.14297009562E+04  0.96006763792E+03  0.21837550538E+04  0.10100000352E+00 0.  1.
       -3    1    3    3    0  502  0.13427626117E+04 -0.14297009562E+04  0.27626070724E+03  0.19807514342E+04  0.10100000352E+00 0. -1.
</event>
<event>
 5   0  0.4047916E-07  0.4049171E+04  0.7818609E-02  0.7994700E-01
        2   -1    0    0  501    0  0.00000000000E+00  0.00000000000E+00  0.17058262444E+04  0.17058262444E+04  0.25500000920E-02 0.  1.
       -2   -1    0    0    0  501  0.00000000000E+00  0.00000000000E+00 -0.24029097015E+04  0.24029097015E+04  0.25500000920E-02 0. -1.
    10030    2    1    2    0    0  0.00000000000E+00  0.00000000000E+00 -0.69708345710E+03  0.41087359459E+04  0.40491709926E+04 0.  0.
        5    1    3    3  502    0 -0.44476153662E+03 -0.12403726990E+04  0.12111401540E+04  0.17897541226E+04  0.46999998093E+01 0.  1.
       -5    1    3    3    0  502  0.44476153662E+03  0.12403726990E+04 -0.19082236111E+04  0.23189818233E+04  0.46999998093E+01 0. -1.
</event>
<event>
 5   0  0.1351000E-07  0.3992346E+04  0.7818609E-02  0.8006092E-01
       -1   -1    0    0    0  501  0.00000000000E+00  0.00000000000E+00  0.14117434546E+04  0.14117434546E+04  0.50400001928E-02 0.  1.
        1   -1    0    0  501    0  0.00000000000E+00  0.00000000000E+00 -0.28225430091E+04  0.28225430091E+04  0.50400001928E-02 0. -1.
    10030    2    1    2    0    0  0.00000000000E+00  0.00000000000E+00 -0.14107995545E+04  0.42342864638E+04  0.39923459863E+04 0.  0.
        4    1    3    3  502    0 -0.57166594190E+03 -0.16244582353E+04 -0.17760493811E+04  0.24738673216E+04  0.12699999809E+01 0. -1.
       -4    1    3    3    0  502  0.57166594190E+03  0.16244582353E+04  0.36524982660E+03  0.17604191422E+04  0.12699999809E+01 0.  1.
</event>
<event>
 5   0  0.1351000E-07  0.4010091E+04  0.7818609E-02  0.8002514E-01
        1   -1    0    0  501    0  0.00000000000E+00  0.00000000000E+00  0.12176731645E+04  0.12176731646E+04  0.50400001928E-02 0.  1.
       -1   -1    0    0    0  501  0.00000000000E+00  0.00000000000E+00 -0.33015495603E+04  0.33015495603E+04  0.50400001928E-02 0. -1.
    10030    2    1    2    0    0  0.00000000000E+00  0.00000000000E+00 -0.20838763958E+04  0.45192227249E+04  0.40100914209E+04 0.  0.
        4    1    3    3  502    0  0.12704979849E+04  0.13381949358E+04 -0.15795417776E+03  0.18519940473E+04  0.12699999809E+01 0. -1.
       -4    1    3    3    0  502 -0.12704979849E+04 -0.13381949358E+04 -0.19259222180E+04  0.26672286776E+04  0.12699999809E+01 0.  1.
</event>
<event>
 5   0  0.1372952E-07  0.4022330E+04  0.7818609E-02  0.8000057E-01
       -1   -1    0    0    0  501  0.00000000000E+00  0.00000000000E+00  0.16148768555E+04  0.16148768555E+04  0.50400001928E-02 0.  1.
        1   -1    0    0  501    0  0.00000000000E+00  0.00000000000E+00 -0.25047010030E+04  0.25047010030E+04  0.50400001928E-02 0. -1.
    10030    2    1    2    0    0  0.00000000000E+00  0.00000000000E+00 -0.88982414757E+03  0.41195778585E+04  0.40223295140E+04 0.  0.
        1    1    3    3  502    0  0.85301227272E+03  0.62340276936E+03 -0.21975789106E+04  0.24383629792E+04  0.50400001928E-02 0. -1.
       -1    1    3    3    0  502 -0.85301227272E+03 -0.62340276936E+03  0.13077547630E+04  0.16812148793E+04  0.50400001928E-02 0.  1.
</event>
<event>
 5   0  0.4047916E-07  0.3923277E+04  0.7818609E-02  0.8020205E-01
       -2   -1    0    0    0  501  0.00000000000E+00  0.00000000000E+00  0.17708883843E+04  0.17708883843E+04  0.25500000920E-02 0.  1.
        2   -1    0    0  501    0  0.00000000000E+00  0.00000000000E+00 -0.21729349120E+04  0.21729349120E+04  0.25500000920E-02 0. -1.
    10030    2    1    2    0    0  0.00000000000E+00  0.00000000000E+00 -0.40204652771E+03  0.39438232962E+04  0.39232767914E+04 0.  0.
        5    1    3    3  502    0 -0.14729363796E+04  0.12871497705E+04 -0.52918729390E+02  0.19568133769E+04  0.46999998093E+01 0. -1.
       -5    1    3    3    0  502  0.14729363796E+04 -0.12871497705E+04 -0.34912779832E+03  0.19870099194E+04  0.46999998093E+01 0.  1.
</event>
<event>
 5   0  0.4079777E-07  0.4035275E+04  0.7818609E-02  0.7997468E-01
        2   -1    0    0  501    0  0.00000000000E+00  0.00000000000E+00  0.23835149535E+04  0.23835149535E+04  0.25500000920E-02 0. -1.
       -2   -1    0    0    0  501  0.00000000000E+00  0.00000000000E+00 -0.17079238597E+04  0.17079238597E+04  0.25500000920E-02 0.  1.
    10030    2    1    2    0    0  0.00000000000E+00  0.00000000000E+00  0.67559109379E+03  0.40914388132E+04  0.40352754845E+04 0.  0.
        4    1    3    3  502    0  0.12509287093E+04 -0.26204514122E+02 -0.12670645281E+04  0.17807199228E+04  0.12699999809E+01 0.  1.
       -4    1    3    3    0  502 -0.12509287093E+04  0.26204514122E+02  0.19426556219E+04  0.23107188904E+04  0.12699999809E+01 0. -1.
</event>
<event>
 5   0  0.4301754E-07  0.4018206E+04  0.7818609E-02  0.8000884E-01
       -2   -1    0    0    0  501  0.00000000000E+00  0.00000000000E+00  0.34329801748E+04  0.34329801748E+04  0.25500000920E-02 0. -1.
        2   -1    0    0  501    0  0.00000000000E+00  0.00000000000E+00 -0.11757988945E+04  0.11757988945E+04  0.25500000920E-02 0.  1.
    10030    2    1    2    0    0  0.00000000000E+00  0.00000000000E+00  0.22571812803E+04  0.46087790693E+04  0.40182057161E+04 0.  0.
        1    1    3    3  502    0  0.15586113290E+04  0.12364969839E+04  0.14495390561E+04  0.24615762310E+04  0.50400001928E-02 0.  1.
       -1    1    3    3    0  502 -0.15586113290E+04 -0.12364969839E+04  0.80764222418E+03  0.21472028382E+04  0.50400001928E-02 0. -1.
</event>
<event>
 5   0  0.4301754E-07  0.3901136E+04  0.7818609E-02  0.8024793E-01
       -2   -1    0    0    0  501  0.00000000000E+00  0.00000000000E+00  0.26233323299E+04  0.26233323299E+04  0.25500000920E-02 0.  1.
        2   -1    0    0  501    0  0.00000000000E+00  0.00000000000E+00 -0.14503367339E+04  0.14503367339E+04  0.25500000920E-02 0. -1.
    10030    2    1    2    0    0  0.00000000000E+00  0.00000000000E+00  0.11729955960E+04  0.40736690637E+04  0.39011358567E+04 0.  0.
        1    1    3    3  502    0  0.65862628992E+03 -0.82760841605E+03  0.22978797342E+04  0.25296196459E+04  0.50400001928E-02 0.  1.
       -1    1    3    3    0  502 -0.65862628992E+03  0.82760841605E+03 -0.11248841382E+04  0.15440494178E+04  0.50400001928E-02 0. -1.
</event>
<event>
 5   0  0.1421304E-07  0.4088275E+04  0.7818609E-02  0.7986972E-01
       -1   -1    0    0    0  501  0.00000000000E+00  0.00000000000E+00  0.15596635143E+04  0.15596635144E+04  0.50400001928E-02 0.  1.
        1   -1    0    0  501    0  0.00000000000E+00  0.00000000000E+00 -0.26791025745E+04  0.26791025745E+04  0.50400001928E-02 0. -1.
    10030    2    1    2    0    0  0.00000000000E+00  0.00000000000E+00 -0.11194390601E+04  0.42387660889E+04  0.40882752044E+04 0.  0.
        2    1    3    3  502    0 -0.12068794045E+02  0.40545051896E+02  0.15592096237E+04  0.15597833848E+04  0.25500000920E-02 0.  1.
       -2    1    3    3    0  502  0.12068794045E+02 -0.40545051896E+02 -0.26786486838E+04  0.26789827040E+04  0.25500000920E-02 0. -1.
</event>
<event>
 5   0  0.1368865E-07  0.4000796E+04  0.7818609E-02  0.8004386E-01
        1   -1    0    0  501    0  0.00000000000E+00  0.00000000000E+00  0.19462535202E+04  0.19462535202E+04  0.50400001928E-02 0. -1.
       -1   -1    0    0    0  501  0.00000000000E+00  0.00000000000E+00 -0.20560485137E+04  0.20560485137E+04  0.50400001928E-02 0.  1.
    10030    2    1    2    0    0  0.00000000000E+00  0.00000000000E+00 -0.10979499352E+03  0.40023020340E+04  0.40007957497E+04 0.  0.
        5    1    3    3  502    0  0.14960371021E+04  0.31977922602E+03  0.12344569531E+04  0.19657802073E+04  0.46999998093E+01 0. -1.
       -5    1    3    3    0  502 -0.14960371021E+04 -0.31977922602E+03 -0.13442519467E+04  0.20365218267E+04  0.46999998093E+01 0.  1.
</event>
<event>
 5   0  0.4047916E-07  0.4077554E+04  0.7818609E-02  0.7989082E-01
        2   -1    0    0  501    0  0.00000000000E+00  0.00000000000E+00  0.16852332334E+04  0.16852332334E+04  0.25500000920E-02 0. -1.
       -2   -1    0    0    0  501  0.00000000000E+00  0.00000000000E+00 -0.24664907305E+04  0.24664907305E+04  0.25500000920E-02 0.  1.
    10030    2    1    2    0    0  0.00000000000E+00  0.00000000000E+00 -0.78125749712E+03  0.41517239639E+04  0.40775542419E+04 0.  0.
        5    1    3    3  502    0  0.13577077677E+03 -0.24809884139E+03  0.16651574720E+04  0.16890110229E+04  0.46999998093E+01 0. -1.
       -5    1    3    3    0  502 -0.13577077677E+03  0.24809884139E+03 -0.24464149691E+04  0.24627129410E+04  0.46999998093E+01 0.  1.
</event>
<event>
 5   0  0.1351000E-07  0.3892504E+04  0.7818609E-02  0.8026590E-01
       -1   -1    0    0    0  501  0.00000000000E+00  0.00000000000E+00  0.23188040704E+04  0.23188040704E+04  0.50400001928E-02 0. -1.
        1   -1    0    0  501    0  0.00000000000E+00  0.00000000000E+00 -0.16335564412E+04  0.16335564412E+04  0.50400001928E-02 0.  1.
    10030    2    1    2    0    0  0.00000000000E+00  0.00000000000E+00  0.68524762926E+03  0.39523605116E+04  0.38925042454E+04 0.  0.
        4    1    3    3  502    0 -0.42893795520E+03 -0.14401526079E+04  0.15985221795E+04  0.21939238990E+04  0.12699999809E+01 0. -1.
       -4    1    3    3    0  502  0.42893795520E+03  0.14401526079E+04 -0.91327455027E+03  0.17584366126E+04  0.12699999809E+01 0.  1.
</event>
<event>
 5   0  0.4149487E-07  0.3967324E+04  0.7818609E-02  0.8011171E-01
        2   -1    0    0  501    0  0.00000000000E+00  0.00000000000E+00  0.16186198117E+04  0.16186198117E+04  0.25500000920E-02 0. -1.
       -2   -1    0    0    0  501  0.00000000000E+00  0.00000000000E+00 -0.24310303861E+04  0.24310303861E+04  0.25500000920E-02 0.  1.
    10030    2    1    2    0    0  0.00000000000E+00  0.00000000000E+00 -0.81241057434E+03  0.40496501978E+04  0.39673235037E+04 0.  0.
        2    1    3    3  502    0 -0.33732298555E+03  0.10664508107E+04 -0.20784343406E+04  0.23602952011E+04  0.25500000920E-02 0.  1.
       -2    1    3    3    0  502  0.33732298555E+03 -0.10664508107E+04  0.12660237662E+04  0.16893549967E+04  0.25500000920E-02 0. -1.
</event>
<event>
 5   0  0.1372952E-07  0.3629094E+04  0.7818609E-02  0.8083860E-01
        1   -1    0    0  501    0  0.00000000000E+00  0.00000000000E+00  0.17932608614E+04  0.17932608614E+04  0.50400001928E-02 0. -1.
       -1   -1    0    0    0  501  0.00000000000E+00  0.00000000000E+00 -0.18360857438E+04  0.18360857438E+04  0.50400001928E-02 0.  1.
    10030    2    1    2    0    0  0.00000000000E+00  0.00000000000E+00 -0.42824882342E+02  0.36293466052E+04  0.36290939379E+04 0.  0.
        1    1    3    3  502    0  0.45156119398E+03  0.15788348687E+04  0.75062164791E+03  0.18055635998E+04  0.50400001928E-02 0. -1.
       -1    1    3    3    0  502 -0.45156119398E+03 -0.15788348687E+04 -0.79344653025E+03  0.18237830054E+04  0.50400001928E-02 0.  1.
</event>
<event>
 5   0  0.4077370E-07  0.3993067E+04  0.7818609E-02  0.8005947E-01
       -2   -1    0    0    0  501  0.00000000000E+00  0.00000000000E+00  0.17234531114E+04  0.17234531114E+04  0.25500000920E-02 0.  1.
        2   -1    0    0  501    0  0.00000000000E+00  0.00000000000E+00 -0.23128833453E+04  0.23128833453E+04  0.25500000920E-02 0. -1.
    10030    2    1    2    0    0  0.00000000000E+00  0.00000000000E+00 -0.58943023383E+03  0.40363364567E+04  0.39930669906E+04 0.  0.
        3    1    3    3  502    0  0.19359768949E+04  0.99452972329E+02  0.18821554893E+03  0.19476453821E+04  0.10100000352E+00 0.  1.
       -3    1    3    3    0  502 -0.19359768949E+04 -0.99452972329E+02 -0.77764578277E+03  0.20886910746E+04  0.10100000352E+00 0. -1.
</event>
<event>
 5   0  0.4047916E-07  0.3279244E+04  0.7818609E-02  0.8168197E-01
        2   -1    0    0  501    0  0.00000000000E+00  0.00000000000E+00  0.27794654342E+04  0.27794654342E+04  0.25500000920E-02 0.  1.
       -2   -1    0    0    0  501  0.00000000000E+00  0.00000000000E+00 -0.96722227877E+03  0.96722227877E+03  0.25500000920E-02 0. -1.
    10030    2    1    2    0    0  0.00000000000E+00  0.00000000000E+00  0.18122431554E+04  0.37466877129E+04  0.32792443587E+04 0.  0.
        5    1    3    3  502    0 -0.11120190347E+04  0.10887275488E+04  0.14958621864E+04  0.21585967154E+04  0.46999998093E+01 0.  1.
       -5    1    3    3    0  502  0.11120190347E+04 -0.10887275488E+04  0.31638096898E+03  0.15880909975E+04  0.46999998093E+01 0. -1.
</event>
<event>
 5   0  0.1372952E-07  0.4197575E+04  0.7818609E-02  0.7965834E-01
       -1   -1    0    0    0  501  0.00000000000E+00  0.00000000000E+00  0.24344507901E+04  0.24344507901E+04  0.50400001928E-02 0. -1.
        1   -1    0    0  501    0  0.00000000000E+00  0.00000000000E+00 -0.18094057771E+04  0.18094057771E+04  0.50400001928E-02 0.  1.
    10030    2    1    2    0    0  0.00000000000E+00  0.00000000000E+00  0.62504501308E+03  0.42438565672E+04  0.41975751684E+04 0.  0.
        1    1    3    3  502    0  0.87716664577E+03 -0.10025063731E+04  0.19522769139E+04  0.23634351062E+04  0.50400001928E-02 0. -1.
       -1    1    3    3    0  502 -0.87716664577E+03  0.10025063731E+04 -0.13272319008E+04  0.18804214610E+04  0.50400001928E-02 0.  1.
</event>
<event>
 5   0  0.1351000E-07  0.4196301E+04  0.7818609E-02  0.7966076E-01
       -1   -1    0    0    0  501  0.00000000000E+00  0.00000000000E+00  0.17987289221E+04  0.17987289221E+04  0.50400001928E-02 0.  1.
        1   -1    0    0  501    0  0.00000000000E+00  0.00000000000E+00 -0.24474142277E+04  0.24474142277E+04  0.50400001928E-02 0. -1.
    10030    2    1    2    0    0  0.00000000000E+00  0.00000000000E+00 -0.64868530557E+03  0.42461431498E+04  0.41963006354E+04 0.  0.
        4    1    3    3  502    0  0.18624477902E+04  0.58813218579E+03  0.45132740003E+03  0.20045720925E+04  0.12699999809E+01 0.  1.
       -4    1    3    3    0  502 -0.18624477902E+04 -0.58813218579E+03 -0.11000127056E+04  0.22415710572E+04  0.12699999809E+01 0. -1.
</event>
<event>
 5   0  0.1351000E-07  0.4019970E+04  0.7818609E-02  0.8000530E-01
        3   -1    0    0  501    0  0.00000000000E+00  0.00000000000E+00  0.24247395465E+04  0.24247395486E+04  0.10100000352E+00 0. -1.
       -3   -1    0    0    0  501  0.00000000000E+00  0.00000000000E+00 -0.16661749711E+04  0.16661749742E+04  0.10100000352E+00 0.  1.
    10030    2    1    2    0    0  0.00000000000E+00  0.00000000000E+00  0.75856457540E+03  0.40909145228E+04  0.40199703255E+04 0.  0.
        4    1    3    3  502    0 -0.17068078203E+04 -0.10417561338E+04  0.17174705839E+03  0.20069746991E+04  0.12699999809E+01 0. -1.
       -4    1    3    3    0  502  0.17068078203E+04  0.10417561338E+04  0.58681751701E+03  0.20839398237E+04  0.12699999809E+01 0.  1.
</event>
<event>
 5   0  0.1368865E-07  0.2749362E+04  0.7818609E-02  0.8319164E-01
       -1   -1    0    0    0  501  0.00000000000E+00  0.00000000000E+00  0.95437038370E+03  0.95437038371E+03  0.50400001928E-02 0. -1.
        1   -1    0    0  501    0  0.00000000000E+00  0.00000000000E+00 -0.19800987022E+04  0.19800987023E+04  0.50400001928E-02 0.  1.
    10030    2    1    2    0    0  0.00000000000E+00  0.00000000000E+00 -0.10257283185E+04  0.29344690860E+04  0.27493617865E+04 0.  0.
        5    1    3    3  502    0 -0.73159767526E+03 -0.32906609170E+03  0.67863168967E+03  0.10507534018E+04  0.46999998093E+01 0. -1.
       -5    1    3    3    0  502  0.73159767526E+03  0.32906609170E+03 -0.17043600082E+04  0.18837156842E+04  0.46999998093E+01 0.  1.
</event>
<event>
 5   0  0.4047916E-07  0.4258423E+04  0.7818609E-02  0.7954351E-01
       -2   -1    0    0    0  501  0.00000000000E+00  0.00000000000E+00  0.19821459756E+04  0.19821459756E+04  0.25500000920E-02 0. -1.
        2   -1    0    0  501    0  0.00000000000E+00  0.00000000000E+00 -0.22871881161E+04  0.22871881161E+04  0.25500000920E-02 0.  1.
    10030    2    1    2    0    0  0.00000000000E+00  0.00000000000E+00 -0.30504214049E+03  0.42693340918E+04  0.42584225811E+04 0.  0.
        5    1    3    3  502    0  0.11551164432E+04  0.16633151134E+04  0.50689327448E+03  0.20875521659E+04  0.46999998093E+01 0. -1.
       -5    1    3    3    0  502 -0.11551164432E+04 -0.16633151134E+04 -0.81193541497E+03  0.21817819258E+04  0.46999998093E+01 0.  1.
</event>
<event>
 5   0  0.4047916E-07  0.3871359E+04  0.7818609E-02  0.8031012E-01
        2   -1    0    0  501    0  0.00000000000E+00  0.00000000000E+00  0.15410133207E+04  0.15410133207E+04  0.25500000920E-02 0.  1.
       -2   -1    0    0    0  501  0.00000000000E+00  0.00000000000E+00 -0.24314229312E+04  0.24314229312E+04  0.25500000920E-02 0. -1.
    10030    2    1    2    0    0  0.00000000000E+00  0.00000000000E+00 -0.89040961043E+03  0.39724362519E+04  0.38713589993E+04 0.  0.
        5    1    3    3  502    0  0.13172709094E+03 -0.12256477967E+03 -0.24228176218E+04  0.24294940770E+04  0.46999998093E+01 0. -1.
       -5    1    3    3    0  502 -0.13172709094E+03  0.12256477967E+03  0.15324080114E+04  0.15429421749E+04  0.46999998093E+01 0.  1.
</event>
<event>
 5   0  0.4077370E-07  0.2508832E+04  0.7818609E-02  0.8399846E-01
       -2   -1    0    0    0  501  0.00000000000E+00  0.00000000000E+00  0.66077120303E+03  0.66077120304E+03  0.25500000920E-02 0. -1.
        2   -1    0    0  501    0  0.00000000000E+00  0.00000000000E+00 -0.23813990476E+04  0.23813990476E+04  0.25500000920E-02 0.  1.
    10030    2    1    2    0    0  0.00000000000E+00  0.00000000000E+00 -0.17206278446E+04  0.30421702506E+04  0.25088323289E+04 0.  0.
        3    1    3    3  502    0 -0.56208374592E+03  0.51357739488E+03  0.34854185162E+03  0.83736569699E+03  0.10100000352E+00 0. -1.
       -3    1    3    3    0  502  0.56208374592E+03 -0.51357739488E+03 -0.20691696962E+04  0.22048045537E+04  0.10100000352E+00 0.  1.
</event>
<event>
 5   0  0.4047916E-07  0.3956745E+04  0.7818609E-02  0.8013330E-01
        2   -1    0    0  501    0  0.00000000000E+00  0.00000000000E+00  0.28842486557E+04  0.28842486557E+04  0.25500000920E-02 0.  1.
       -2   -1    0    0    0  501  0.00000000000E+00  0.00000000000E+00 -0.13570113492E+04  0.13570113492E+04  0.25500000920E-02 0. -1.
    10030    2    1    2    0    0  0.00000000000E+00  0.00000000000E+00  0.15272373065E+04  0.42412600049E+04  0.39567452077E+04 0.  0.
        5    1    3    3  502    0 -0.75862212299E+03  0.17006434245E+04  0.47572035802E+02  0.18627884398E+04  0.46999998093E+01 0. -1.
       -5    1    3    3    0  502  0.75862212299E+03 -0.17006434245E+04  0.14796652707E+04  0.23784715651E+04  0.46999998093E+01 0.  1.
</event>
<event>
 5   0  0.1421304E-07  0.2797004E+04  0.7818609E-02  0.8304199E-01
       -1   -1    0    0    0  501  0.00000000000E+00  0.00000000000E+00  0.11671367638E+04  0.11671367638E+04  0.50400001928E-02 0. -1.
        1   -1    0    0  501    0  0.00000000000E+00  0.00000000000E+00 -0.16757314890E+04  0.16757314890E+04  0.50400001928E-02 0.  1.
    10030    2    1    2    0    0  0.00000000000E+00  0.00000000000E+00 -0.50859472522E+03  0.28428682528E+04  0.27970039878E+04 0.  0.
        2    1    3    3  502    0 -0.33134547884E+03 -0.28355688660E+03 -0.16048498514E+04  0.16630506245E+04  0.25500000920E-02 0.  1.
       -2    1    3    3    0  502  0.33134547884E+03  0.28355688660E+03  0.10962551261E+04  0.11798176282E+04  0.25500000920E-02 0. -1.
</event>
<event>
 5   0  0.4077370E-07  0.4045500E+04  0.7818609E-02  0.7995430E-01
        2   -1    0    0  501    0  0.00000000000E+00  0.00000000000E+00  0.18230851494E+04  0.18230851494E+04  0.25500000920E-02 0. -1.
       -2   -1    0    0    0  501  0.00000000000E+00  0.00000000000E+00 -0.22442826016E+04  0.22442826016E+04  0.25500000920E-02 0.  1.
    10030    2    1    2    0    0  0.00000000000E+00  0.00000000000E+00 -0.42119745217E+03  0.40673677510E+04  0.40455003557E+04 0.  0.
        3    1    3    3  502    0 -0.14586516092E+04 -0.11004782571E+04  0.66173245176E+03  0.19433493663E+04  0.10100000352E+00 0. -1.
       -3    1    3    3    0  502  0.14586516092E+04  0.11004782571E+04 -0.10829299039E+04  0.21240183847E+04  0.10100000352E+00 0.  1.
</event>
<event>
 5   0  0.4149487E-07  0.3975488E+04  0.7818609E-02  0.8009510E-01
       -2   -1    0    0    0  501  0.00000000000E+00  0.00000000000E+00  0.15254964522E+04  0.15254964522E+04  0.25500000920E-02 0. -1.
        2   -1    0    0  501    0  0.00000000000E+00  0.00000000000E+00 -0.25900597999E+04  0.25900597999E+04  0.25500000920E-02 0.  1.
    10030    2    1    2    0    0  0.00000000000E+00  0.00000000000E+00 -0.10645633477E+04  0.41155562520E+04  0.39754884156E+04 0.  0.
        2    1    3    3  502    0  0.83769423311E+03  0.17680910178E+03  0.13248389296E+04  0.15774001636E+04  0.25500000920E-02 0. -1.
       -2    1    3    3    0  502 -0.83769423311E+03 -0.17680910178E+03 -0.23894022773E+04  0.25381560885E+04  0.25500000920E-02 0.  1.
</event>
<event>
 5   0  0.4077370E-07  0.4166809E+04  0.7818609E-02  0.7971716E-01
       -2   -1    0    0    0  501  0.00000000000E+00  0.00000000000E+00  0.16581721111E+04  0.16581721111E+04  0.25500000920E-02 0.  1.
        2   -1    0    0  501    0  0.00000000000E+00  0.00000000000E+00 -0.26176857300E+04  0.26176857300E+04  0.25500000920E-02 0. -1.
    10030    2    1    2    0    0  0.00000000000E+00  0.00000000000E+00 -0.95951361885E+03  0.42758578411E+04  0.41668085980E+04 0.  0.
        3    1    3    3  502    0 -0.88267082008E+03 -0.63938489701E+03 -0.23017962244E+04  0.25467993034E+04  0.10100000352E+00 0. -1.
       -3    1    3    3    0  502  0.88267082008E+03  0.63938489701E+03  0.13422826055E+04  0.17290585376E+04  0.10100000352E+00 0.  1.
</event>
<event>
 5   0  0.1421304E-07  0.3971730E+04  0.7818609E-02  0.8010274E-01
        1   -1    0    0  501    0  0.00000000000E+00  0.00000000000E+00  0.17488725852E+04  0.17488725852E+04  0.50400001928E-02 0.  1.
       -1   -1    0    0    0  501  0.00000000000E+00  0.00000000000E+00 -0.22549727893E+04  0.22549727894E+04  0.50400001928E-02 0. -1.
    10030    2    1    2    0    0  0.00000000000E+00  0.00000000000E+00 -0.50610020415E+03  0.40038453746E+04  0.39717301478E+04 0.  0.
        2    1    3    3  502    0  0.97627341861E+02 -0.13607051744E+04 -0.17078443736E+04  0.21858138242E+04  0.25500000920E-02 0. -1.
       -2    1    3    3    0  502 -0.97627341861E+02  0.13607051744E+04  0.12017441695E+04  0.18180315504E+04  0.25500000920E-02 0.  1.
</event>
<event>
 5   0  0.4149487E-07  0.4031288E+04  0.7818609E-02  0.7998264E-01
        2   -1    0    0  501    0  0.00000000000E+00  0.00000000000E+00  0.13659387957E+04  0.13659387957E+04  0.25500000920E-02 0.  1.
       -2   -1    0    0    0  501  0.00000000000E+00  0.00000000000E+00 -0.29743797998E+04  0.29743797998E+04  0.25500000920E-02 0. -1.
    10030    2    1    2    0    0  0.00000000000E+00  0.00000000000E+00 -0.16084410041E+04  0.43403185956E+04  0.40312880135E+04 0.  0.
        2    1    3    3  502    0  0.11718377733E+04 -0.90786051308E+02 -0.25672377096E+04  0.28235005457E+04  0.25500000920E-02 0. -1.
       -2    1    3    3    0  502 -0.11718377733E+04  0.90786051308E+02  0.95879670548E+03  0.15168180499E+04  0.25500000920E-02 0.  1.
</event>
<event>
 5   0  0.1351000E-07  0.3967756E+04  0.7818609E-02  0.8011083E-01
       -1   -1    0    0    0  501  0.00000000000E+00  0.00000000000E+00  0.24836349840E+04  0.24836349840E+04  0.50400001928E-02 0. -1.
        1   -1    0    0  501    0  0.00000000000E+00  0.00000000000E+00 -0.15846821314E+04  0.15846821314E+04  0.50400001928E-02 0.  1.
    10030    2    1    2    0    0  0.00000000000E+00  0.00000000000E+00  0.89895285266E+03  0.40683171154E+04  0.39677560308E+04 0.  0.
        4    1    3    3  502    0 -0.19745091643E+04  0.14056826142E+02  0.25255064464E+03  0.19906449897E+04  0.12699999809E+01 0. -1.
       -4    1    3    3    0  502  0.19745091643E+04 -0.14056826142E+02  0.64640220802E+03  0.20776721256E+04  0.12699999809E+01 0.  1.
</event>
<event>
 5   0  0.1351000E-07  0.3805600E+04  0.7818609E-02  0.8044954E-01
       -1   -1    0    0    0  501  0.00000000000E+00  0.00000000000E+00  0.23339819350E+04  0.23339819350E+04  0.50400001928E-02 0. -1.
        1   -1    0    0  501    0  0.00000000000E+00  0.00000000000E+00 -0.15512752798E+04  0.15512752799E+04  0.50400001928E-02 0.  1.
    10030    2    1    2    0    0  0.00000000000E+00  0.00000000000E+00  0.78270665520E+03  0.38852572149E+04  0.38056003361E+04 0.  0.
        4    1    3    3  502    0 -0.74026359475E+01  0.16388375722E+04 -0.59573668774E+03  0.17437738389E+04  0.12699999809E+01 0.  1.
       -4    1    3    3    0  502  0.74026359475E+01 -0.16388375722E+04  0.13784433429E+04  0.21414833760E+04  0.12699999809E+01 0. -1.
</event>
<event>
 5   0  0.4079777E-07  0.4013980E+04  0.7818609E-02  0.8001732E-01
       -2   -1    0    0    0  501  0.00000000000E+00  0.00000000000E+00  0.17796379558E+04  0.17796379558E+04  0.25500000920E-02 0. -1.
        2   -1    0    0  501    0  0.00000000000E+00  0.00000000000E+00 -0.22633870220E+04  0.22633870220E+04  0.25500000920E-02 0.  1.
    10030    2    1    2    0    0  0.00000000000E+00  0.00000000000E+00 -0.48374906618E+03  0.40430249778E+04  0.40139802954E+04 0.  0.
        4    1    3    3  502    0  0.62404792790E+03  0.17996997516E+04  0.39488086194E+03  0.19453245283E+04  0.12699999809E+01 0.  1.
       -4    1    3    3    0  502 -0.62404792790E+03 -0.17996997516E+04 -0.87862992811E+03  0.20977004495E+04  0.12699999809E+01 0. -1.
</event>
<event>
 5   0  0.1351000E-07  0.4007145E+04  0.7818609E-02  0.8003107E-01
        1   -1    0    0  501    0  0.00000000000E+00  0.00000000000E+00  0.27123044132E+04  0.27123044132E+04  0.50400001928E-02 0. -1.
       -1   -1    0    0    0  501  0.00000000000E+00  0.00000000000E+00 -0.14800338771E+04  0.14800338771E+04  0.50400001928E-02 0.  1.
    10030    2    1    2    0    0  0.00000000000E+00  0.00000000000E+00  0.12322705361E+04  0.41923382903E+04  0.40071448272E+04 0.  0.
        3    1    3    3  502    0 -0.68944954857E+03  0.84171289928E+02  0.25823188304E+04  0.26740972379E+04  0.10100000352E+00 0. -1.
       -3    1    3    3    0  502  0.68944954857E+03 -0.84171289928E+02 -0.13500482942E+04  0.15182410524E+04  0.10100000352E+00 0.  1.
</event>
<event>
 5   0  0.4047916E-07  0.3614677E+04  0.7818609E-02  0.8087138E-01
        2   -1    0    0  501    0  0.00000000000E+00  0.00000000000E+00  0.29791613966E+04  0.29791613966E+04  0.25500000920E-02 0. -1.
       -2   -1    0    0    0  501  0.00000000000E+00  0.00000000000E+00 -0.10964403903E+04  0.10964403903E+04  0.25500000920E-02 0.  1.
    10030    2    1    2    0    0  0.00000000000E+00  0.00000000000E+00  0.18827210063E+04  0.40756017869E+04  0.36146772385E+04 0.  0.
        5    1    3    3  502    0 -0.17003756268E+03  0.28130898565E+03 -0.10624470550E+04  0.11121435846E+04  0.46999998093E+01 0.  1.
       -5    1    3    3    0  502  0.17003756268E+03 -0.28130898565E+03  0.29451680612E+04  0.29634582024E+04  0.46999998093E+01 0. -1.
</event>
<event>
 5   0  0.4301754E-07  0.3958436E+04  0.7818609E-02  0.8012984E-01
       -2   -1    0    0    0  501  0.00000000000E+00  0.00000000000E+00  0.22419323881E+04  0.22419323881E+04  0.25500000920E-02 0. -1.
        2   -1    0    0  501    0  0.00000000000E+00  0.00000000000E+00 -0.17472889338E+04  0.17472889338E+04  0.25500000920E-02 0.  1.
    10030    2    1    2    0    0  0.00000000000E+00  0.00000000000E+00  0.49464345427E+03  0.39892213219E+04  0.39584358790E+04 0.  0.
        1    1    3    3  502    0  0.13837479705E+04 -0.23152618446E+03 -0.11595802648E+04  0.18201618638E+04  0.50400001928E-02 0.  1.
       -1    1    3    3    0  502 -0.13837479705E+04  0.23152618446E+03  0.16542237190E+04  0.21690594581E+04  0.50400001928E-02 0. -1.
</event>
<event>
 5   0  0.4077370E-07  0.3929217E+04  0.7818609E-02  0.8018980E-01
       -2   -1    0    0    0  501  0.00000000000E+00  0.00000000000E+00  0.31379060828E+04  0.31379060828E+04  0.25500000920E-02 0. -1.
        2   -1    0    0  501    0  0.00000000000E+00  0.00000000000E+00 -0.12300197038E+04  0.12300197039E+04  0.25500000920E-02 0.  1.
    10030    2    1    2    0    0  0.00000000000E+00  0.00000000000E+00  0.19078863790E+04  0.43679257867E+04  0.39292168740E+04 0.  0.
        3    1    3    3  502    0  0.66872607292E+03 -0.32615463466E+03 -0.10673449212E+04  0.13010751698E+04  0.10100000352E+00 0.  1.
       -3    1    3    3    0  502 -0.66872607292E+03  0.32615463466E+03  0.29752313002E+04  0.30668506169E+04  0.10100000352E+00 0. -1.
</event>
<event>
 5   0  0.4149487E-07  0.4128685E+04  0.7818609E-02  0.7979078E-01
       -2   -1    0    0    0  501  0.00000000000E+00  0.00000000000E+00  0.26285671786E+04  0.26285671786E+04  0.25500000920E-02 0.  1.
        2   -1    0    0  501    0  0.00000000000E+00  0.00000000000E+00 -0.16212291997E+04  0.16212291997E+04  0.25500000920E-02 0. -1.
    10030    2    1    2    0    0  0.00000000000E+00  0.00000000000E+00  0.10073379789E+04  0.42497963783E+04  0.41286849545E+04 0.  0.
        2    1    3    3  502    0  0.15775282385E+04 -0.40909653617E+03  0.18079432073E+04  0.24340529904E+04  0.25500000920E-02 0.  1.
       -2    1    3    3    0  502 -0.15775282385E+04  0.40909653617E+03 -0.80060522839E+03  0.18157433879E+04  0.25500000920E-02 0. -1.
</event>
<event>
 5   0  0.1372952E-07  0.3913220E+04  0.7818609E-02  0.8022285E-01
        1   -1    0    0  501    0  0.00000000000E+00  0.00000000000E+00  0.13698286478E+04  0.13698286478E+04  0.50400001928E-02 0.  1.
       -1   -1    0    0    0  501  0.00000000000E+00  0.00000000000E+00 -0.27947461918E+04  0.27947461918E+04  0.50400001928E-02 0. -1.
    10030    2    1    2    0    0  0.00000000000E+00  0.00000000000E+00 -0.14249175440E+04  0.41645748396E+04  0.39132203602E+04 0.  0.
        1    1    3    3  502    0 -0.15336594395E+04 -0.71634177935E+03 -0.17568531414E+04  0.24396290254E+04  0.50400001928E-02 0. -1.
       -1    1    3    3    0  502  0.15336594395E+04  0.71634177935E+03  0.33193559741E+03  0.17249458142E+04  0.50400001928E-02 0.  1.
</event>
<event>
 5   0  0.4079777E-07  0.3816874E+04  0.7818609E-02  0.8042543E-01
       -2   -1    0    0    0  501  0.00000000000E+00  0.00000000000E+00  0.30342995132E+04  0.30342995132E+04  0.25500000920E-02 0.  1.
        2   -1    0    0  501    0  0.00000000000E+00  0.00000000000E+00 -0.12003205343E+04  0.12003205343E+04  0.25500000920E-02 0. -1.
    10030    2    1    2    0    0  0.00000000000E+00  0.00000000000E+00  0.18339789789E+04  0.42346200475E+04  0.38168741205E+04 0.  0.
        4    1    3    3  502    0 -0.72747685057E+02 -0.19014715675E+04  0.10786951762E+04  0.21873434216E+04  0.12699999809E+01 0. -1.
       -4    1    3    3    0  502  0.72747685057E+02  0.19014715675E+04  0.75528380267E+03  0.20472766260E+04  0.12699999809E+01 0.  1.
</event>
<event>
 5   0  0.1351000E-07  0.3949038E+04  0.7818609E-02  0.8014907E-01
        1   -1    0    0  501    0  0.00000000000E+00  0.00000000000E+00  0.14918475487E+04  0.14918475487E+04  0.50400001928E-02 0. -1.
       -1   -1    0    0    0  501  0.00000000000E+00  0.00000000000E+00 -0.26133534234E+04  0.26133534234E+04  0.50400001928E-02 0.  1.
    10030    2    1    2    0    0  0.00000000000E+00  0.00000000000E+00 -0.11215058747E+04  0.41052009721E+04  0.39490378062E+04 0.  0.
        3    1    3    3  502    0 -0.61122469788E+03  0.41926784019E+03 -0.24632456058E+04  0.25723452486E+04  0.10100000352E+00 0.  1.
       -3    1    3    3    0  502  0.61122469788E+03 -0.41926784019E+03  0.13417397311E+04  0.15328557236E+04  0.10100000352E+00 0. -1.
</event>
<event>
 5   0  0.4077370E-07  0.3988743E+04  0.7818609E-02  0.8006821E-01
        2   -1    0    0  501    0  0.00000000000E+00  0.00000000000E+00  0.24730175148E+04  0.24730175148E+04  0.25500000920E-02 0.  1.
       -2   -1    0    0    0  501  0.00000000000E+00  0.00000000000E+00 -0.16083659018E+04  0.16083659018E+04  0.25500000920E-02 0. -1.
    10030    2    1    2    0    0  0.00000000000E+00  0.00000000000E+00  0.86465161293E+03  0.40813834166E+04  0.39887426818E+04 0.  0.
        3    1    3    3  502    0 -0.18926115030E+04  0.61116572472E+03  0.28050454285E+03  0.20085279817E+04  0.10100000352E+00 0. -1.
       -3    1    3    3    0  502  0.18926115030E+04 -0.61116572472E+03  0.58414707008E+03  0.20728554349E+04  0.10100000352E+00 0.  1.
</event>
<event>
 5   0  0.4077370E-07  0.4093844E+04  0.7818609E-02  0.7985878E-01
        2   -1    0    0  501    0  0.00000000000E+00  0.00000000000E+00  0.28735856595E+04  0.28735856595E+04  0.25500000920E-02 0.  1.
       -2   -1    0    0    0  501  0.00000000000E+00  0.00000000000E+00 -0.14580701202E+04  0.14580701202E+04  0.25500000920E-02 0. -1.
    10030    2    1    2    0    0  0.00000000000E+00  0.00000000000E+00  0.14155155393E+04  0.43316557796E+04  0.40938438601E+04 0.  0.
        3    1    3    3  502    0  0.10226674903E+04  0.85898233117E+03 -0.93354089458E+03  0.16294778468E+04  0.10100000352E+00 0. -1.
       -3    1    3    3    0  502 -0.10226674903E+04 -0.85898233117E+03  0.23490564339E+04  0.27021779329E+04  0.10100000352E+00 0.  1.
</event>
<event>
 5   0  0.1351000E-07  0.4037642E+04  0.7818609E-02  0.7996996E-01
        1   -1    0    0  501    0  0.00000000000E+00  0.00000000000E+00  0.18613149481E+04  0.18613149481E+04  0.50400001928E-02 0. -1.
       -1   -1    0    0    0  501  0.00000000000E+00  0.00000000000E+00 -0.21896550047E+04  0.21896550047E+04  0.50400001928E-02 0.  1.
    10030    2    1    2    0    0  0.00000000000E+00  0.00000000000E+00 -0.32834005664E+03  0.40509699528E+04  0.40376416837E+04 0.  0.
        4    1    3    3  502    0  0.14931284603E+04  0.13414585779E+04  0.52627191446E+02  0.20079130832E+04  0.12699999809E+01 0. -1.
       -4    1    3    3    0  502 -0.14931284603E+04 -0.13414585779E+04 -0.38096724808E+03  0.20430568696E+04  0.12699999809E+01 0.  1.
</event>
<event>
 5   0  0.1372952E-07  0.3924636E+04  0.7818609E-02  0.8019925E-01
        1   -1    0    0  501    0  0.00000000000E+00  0.00000000000E+00  0.23353874816E+04  0.23353874816E+04  0.50400001928E-02 0. -1.
       -1   -1    0    0    0  501  0.00000000000E+00  0.00000000000E+00 -0.16488453065E+04  0.16488453065E+04  0.50400001928E-02 0.  1.
    10030    2    1    2    0    0  0.00000000000E+00  0.00000000000E+00  0.68654217512E+03  0.39842327881E+04  0.39246363846E+04 0.  0.
        1    1    3    3  502    0  0.71951047686E+03 -0.43505078857E+03 -0.14567092992E+04  0.16819531793E+04  0.50400001928E-02 0.  1.
       -1    1    3    3    0  502 -0.71951047686E+03  0.43505078857E+03  0.21432514743E+04  0.23022796088E+04  0.50400001928E-02 0. -1.
</event>
<event>
 5   0  0.4301754E-07  0.4010206E+04  0.7818609E-02  0.8002491E-01
        2   -1    0    0  501    0  0.00000000000E+00  0.00000000000E+00  0.32662735009E+04  0.32662735010E+04  0.25500000920E-02 0.  1.
       -2   -1    0    0    0  501  0.00000000000E+00  0.00000000000E+00 -0.12308947359E+04  0.12308947359E+04  0.25500000920E-02 0. -1.
    10030    2    1    2    0    0  0.00000000000E+00  0.00000000000E+00  0.20353787650E+04  0.44971682369E+04  0.40102064078E+04 0.  0.
        1    1    3    3  502    0 -0.47200250238E+03 -0.14386026749E+04 -0.45650136646E+03  0.15813783596E+04  0.50400001928E-02 0. -1.
       -1    1    3    3    0  502  0.47200250238E+03  0.14386026749E+04  0.24918801315E+04  0.29157898773E+04  0.50400001928E-02 0.  1.
</event>
<event>
 5   0  0.1351000E-07  0.2686097E+04  0.7818609E-02  0.8339530E-01
        1   -1    0    0  501    0  0.00000000000E+00  0.00000000000E+00  0.12131398556E+04  0.12131398557E+04  0.50400001928E-02 0. -1.
       -1   -1    0    0    0  501  0.00000000000E+00  0.00000000000E+00 -0.14868686220E+04  0.14868686220E+04  0.50400001928E-02 0.  1.
    10030    2    1    2    0    0  0.00000000000E+00  0.00000000000E+00 -0.27372876637E+03  0.27000084777E+04  0.26860972324E+04 0.  0.
        4    1    3    3  502    0 -0.58064661381E+03 -0.55909202903E+03 -0.12166921832E+04  0.14594779438E+04  0.12699999809E+01 0.  1.
       -4    1    3    3    0  502  0.58064661381E+03  0.55909202903E+03  0.94296341681E+03  0.12405305338E+04  0.12699999809E+01 0. -1.
</event>
<event>
 5   0  0.4047916E-07  0.3977582E+04  0.7818609E-02  0.8009084E-01
        2   -1    0    0  501    0  0.00000000000E+00  0.00000000000E+00  0.21025447566E+04  0.21025447566E+04  0.25500000920E-02 0.  1.
       -2   -1    0    0    0  501  0.00000000000E+00  0.00000000000E+00 -0.18811912628E+04  0.18811912628E+04  0.25500000920E-02 0. -1.
    10030    2    1    2    0    0  0.00000000000E+00  0.00000000000E+00  0.22135349387E+03  0.39837360194E+04  0.39775815897E+04 0.  0.
        5    1    3    3  502    0  0.92256279485E+02  0.49670651395E+03  0.20372013371E+04  0.20989139954E+04  0.46999998093E+01 0.  1.
       -5    1    3    3    0  502 -0.92256279485E+02 -0.49670651395E+03 -0.18158478433E+04  0.18848220240E+04  0.46999998093E+01 0. -1.
</event>
<event>
 5   0  0.1421304E-07  0.2471426E+04  0.7818609E-02  0.8413236E-01
        1   -1    0    0  501    0  0.00000000000E+00  0.00000000000E+00  0.93454313098E+03  0.93454313100E+03  0.50400001928E-02 0.  1.
       -1   -1    0    0    0  501  0.00000000000E+00  0.00000000000E+00 -0.16339396360E+04  0.16339396361E+04  0.50400001928E-02 0. -1.
    10030    2    1    2    0    0  0.00000000000E+00  0.00000000000E+00 -0.69939650507E+03  0.25684827671E+04  0.24714263601E+04 0.  0.
        2    1    3    3  502    0 -0.11876176849E+04 -0.21927074620E+03 -0.77751210299E+02  0.12101903471E+04  0.25500000920E-02 0.  1.
       -2    1    3    3    0  502  0.11876176849E+04  0.21927074620E+03 -0.62164529477E+03  0.13582924199E+04  0.25500000920E-02 0. -1.
</event>
<event>
 5   0  0.1368865E-07  0.2643997E+04  0.7818609E-02  0.8353408E-01
       -1   -1    0    0    0  501  0.00000000000E+00  0.00000000000E+00  0.22391978912E+04  0.22391978912E+04  0.50400001928E-02 0. -1.
        1   -1    0    0  501    0  0.00000000000E+00  0.00000000000E+00 -0.78049364677E+03  0.78049364679E+03  0.50400001928E-02 0.  1.
    10030    2    1    2    0    0  0.00000000000E+00  0.00000000000E+00  0.14587042444E+04  0.30196915380E+04  0.26439967685E+04 0.  0.
        5    1    3    3  502    0 -0.47097103368E+03 -0.96215504381E+03 -0.15538459771E+03  0.10824613185E+04  0.46999998093E+01 0.  1.
       -5    1    3    3    0  502  0.47097103368E+03  0.96215504381E+03  0.16140888421E+04  0.19372302195E+04  0.46999998093E+01 0. -1.
</event>
<event>
 5   0  0.1372952E-07  0.3944984E+04  0.7818609E-02  0.8015738E-01
       -1   -1    0    0    0  501  0.00000000000E+00  0.00000000000E+00  0.16253968377E+04  0.16253968377E+04  0.50400001928E-02 0.  1.
        1   -1    0    0  501    0  0.00000000000E+00  0.00000000000E+00 -0.23937078194E+04  0.23937078194E+04  0.50400001928E-02 0. -1.
    10030    2    1    2    0    0  0.00000000000E+00  0.00000000000E+00 -0.76831098166E+03  0.40191046571E+04  0.39449842180E+04 0.  0.
        1    1    3    3  502    0  0.15371358734E+03  0.12262481651E+04 -0.19503793185E+04  0.23089590545E+04  0.50400001928E-02 0. -1.
       -1    1    3    3    0  502 -0.15371358734E+03 -0.12262481651E+04  0.11820683368E+04  0.17101456026E+04  0.50400001928E-02 0.  1.
</event>
<event>
 5   0  0.4047916E-07  0.3009158E+04  0.7818609E-02  0.8241121E-01
        2   -1    0    0  501    0  0.00000000000E+00  0.00000000000E+00  0.16220986734E+04  0.16220986734E+04  0.25500000920E-02 0.  1.
       -2   -1    0    0    0  501  0.00000000000E+00  0.00000000000E+00 -0.13955735401E+04  0.13955735401E+04  0.25500000920E-02 0. -1.
    10030    2    1    2    0    0  0.00000000000E+00  0.00000000000E+00  0.22652513336E+03  0.30176722135E+04  0.30091580138E+04 0.  0.
        5    1    3    3  502    0  0.15581438248E+03  0.14898061821E+04  0.25485453988E+03  0.15194648757E+04  0.46999998093E+01 0.  1.
       -5    1    3    3    0  502 -0.15581438248E+03 -0.14898061821E+04 -0.28329406515E+02  0.14982073378E+04  0.46999998093E+01 0. -1.
</event>
<event>
 5   0  0.1421304E-07  0.3905470E+04  0.7818609E-02  0.8023892E-01
       -1   -1    0    0    0  501  0.00000000000E+00  0.00000000000E+00  0.17351383291E+04  0.17351383291E+04  0.50400001928E-02 0.  1.
        1   -1    0    0  501    0  0.00000000000E+00  0.00000000000E+00 -0.21976196897E+04  0.21976196897E+04  0.50400001928E-02 0. -1.
    10030    2    1    2    0    0  0.00000000000E+00  0.00000000000E+00 -0.46248136060E+03  0.39327580188E+04  0.39054700902E+04 0.  0.
        2    1    3    3  502    0 -0.23086602465E+03  0.78027304571E+03 -0.20187630609E+04  0.21765866496E+04  0.25500000920E-02 0. -1.
       -2    1    3    3    0  502  0.23086602465E+03 -0.78027304571E+03  0.15562817003E+04  0.17561713692E+04  0.25500000920E-02 0.  1.
</event>
<event>
 5   0  0.1351000E-07  0.3212287E+04  0.7818609E-02  0.8185580E-01
        1   -1    0    0  501    0  0.00000000000E+00  0.00000000000E+00  0.22185653704E+04  0.22185653704E+04  0.50400001928E-02 0. -1.
       -1   -1    0    0    0  501  0.00000000000E+00  0.00000000000E+00 -0.11627769789E+04  0.11627769789E+04  0.50400001928E-02 0.  1.
    10030    2    1    2    0    0  0.00000000000E+00  0.00000000000E+00  0.10557883915E+04  0.33813423493E+04  0.32122868732E+04 0.  0.
        3    1    3    3  502    0  0.12906548519E+04 -0.92378016967E+03  0.78688550815E+03  0.17715384731E+04  0.10100000352E+00 0.  1.
       -3    1    3    3    0  502 -0.12906548519E+04  0.92378016967E+03  0.26890288331E+03  0.16098038761E+04  0.10100000352E+00 0. -1.
</event>
<event>
 5   0  0.4077370E-07  0.3996912E+04  0.7818609E-02  0.8005170E-01
        2   -1    0    0  501    0  0.00000000000E+00  0.00000000000E+00  0.17686195225E+04  0.17686195225E+04  0.25500000920E-02 0. -1.
       -2   -1    0    0    0  501  0.00000000000E+00  0.00000000000E+00 -0.22581605521E+04  0.22581605521E+04  0.25500000920E-02 0.  1.
    10030    2    1    2    0    0  0.00000000000E+00  0.00000000000E+00 -0.48954102964E+03  0.40267800746E+04  0.39969122269E+04 0.  0.
        3    1    3    3  502    0  0.10669218932E+04  0.16894306025E+04 -0.28149479689E+03  0.20178546573E+04  0.10100000352E+00 0.  1.
       -3    1    3    3    0  502 -0.10669218932E+04 -0.16894306025E+04 -0.20804623275E+03  0.20089254173E+04  0.10100000352E+00 0. -1.
</event>
<event>
 5   0  0.4047916E-07  0.2467608E+04  0.7818609E-02  0.8414617E-01
       -2   -1    0    0    0  501  0.00000000000E+00  0.00000000000E+00  0.12093833727E+04  0.12093833727E+04  0.25500000920E-02 0. -1.
        2   -1    0    0  501    0  0.00000000000E+00  0.00000000000E+00 -0.12587172487E+04  0.12587172487E+04  0.25500000920E-02 0.  1.
    10030    2    1    2    0    0  0.00000000000E+00  0.00000000000E+00 -0.49333876020E+02  0.24681006213E+04  0.24676075145E+04 0.  0.
        5    1    3    3  502    0 -0.92541944753E+03  0.90624623020E+02  0.78644249034E+03  0.12178373688E+04  0.46999998093E+01 0. -1.
       -5    1    3    3    0  502  0.92541944753E+03 -0.90624623020E+02 -0.83577636636E+03  0.12502632526E+04  0.46999998093E+01 0.  1.
</event>
<event>
 5   0  0.4301754E-07  0.2956174E+04  0.7818609E-02  0.8256358E-01
        2   -1    0    0  501    0  0.00000000000E+00  0.00000000000E+00  0.17657358540E+04  0.17657358540E+04  0.25500000920E-02 0.  1.
       -2   -1    0    0    0  501  0.00000000000E+00  0.00000000000E+00 -0.12372977258E+04  0.12372977258E+04  0.25500000920E-02 0. -1.
    10030    2    1    2    0    0  0.00000000000E+00  0.00000000000E+00  0.52843812822E+03  0.30030335797E+04  0.29561738490E+04 0.  0.
        1    1    3    3  502    0  0.45499361195E+03 -0.13948574980E+04  0.82230385134E+02  0.14694925869E+04  0.50400001928E-02 0. -1.
       -1    1    3    3    0  502 -0.45499361195E+03  0.13948574980E+04  0.44620774308E+03  0.15335409928E+04  0.50400001928E-02 0.  1.
</event>
<event>
 5   0  0.1351000E-07  0.3975007E+04  0.7818609E-02  0.8009607E-01
       -1   -1    0    0    0  501  0.00000000000E+00  0.00000000000E+00  0.19374637399E+04  0.19374637399E+04  0.50400001928E-02 0.  1.
        1   -1    0    0  501    0  0.00000000000E+00  0.00000000000E+00 -0.20388355866E+04  0.20388355866E+04  0.50400001928E-02 0. -1.
    10030    2    1    2    0    0  0.00000000000E+00  0.00000000000E+00 -0.10137184670E+03  0.39762993265E+04  0.39750069286E+04 0.  0.
        4    1    3    3  502    0  0.91424453502E+03  0.10879768923E+04 -0.14406093889E+04  0.20235843971E+04  0.12699999809E+01 0. -1.
       -4    1    3    3    0  502 -0.91424453502E+03 -0.10879768923E+04  0.13392375422E+04  0.19527149294E+04  0.12699999809E+01 0.  1.
</event>
<event>
 5   0  0.1351000E-07  0.4009133E+04  0.7818609E-02  0.8002707E-01
        1   -1    0    0  501    0  0.00000000000E+00  0.00000000000E+00  0.14249169121E+04  0.14249169121E+04  0.50400001928E-02 0. -1.
       -1   -1    0    0    0  501  0.00000000000E+00  0.00000000000E+00 -0.28200148797E+04  0.28200148797E+04  0.50400001928E-02 0.  1.
    10030    2    1    2    0    0  0.00000000000E+00  0.00000000000E+00 -0.13950979676E+04  0.42449317919E+04  0.40091330208E+04 0.  0.
        3    1    3    3  502    0  0.92766603775E+03  0.17273937744E+04 -0.25609361167E+03  0.19773814699E+04  0.10100000352E+00 0. -1.
       -3    1    3    3    0  502 -0.92766603775E+03 -0.17273937744E+04 -0.11390043559E+04  0.22675503219E+04  0.10100000352E+00 0.  1.
</event>
<event>
 5   0  0.1578743E-07  0.2552233E+04  0.7818609E-02  0.8384610E-01
        1   -1    0    0  501    0  0.00000000000E+00  0.00000000000E+00  0.18582032315E+04  0.18582032315E+04  0.50400001928E-02 0.  1.
       -1   -1    0    0    0  501  0.00000000000E+00  0.00000000000E+00 -0.87636993491E+03  0.87636993492E+03  0.50400001928E-02 0. -1.
    10030    2    1    2    0    0  0.00000000000E+00  0.00000000000E+00  0.98183329655E+03  0.27345731664E+04  0.25522330967E+04 0.  0.
        1    1    3    3  502    0 -0.54125266081E+03 -0.62270059965E+03 -0.55216685950E+03  0.99277324722E+03  0.50400001928E-02 0. -1.
       -1    1    3    3    0  502  0.54125266081E+03  0.62270059965E+03  0.15340001560E+04  0.17417999192E+04  0.50400001928E-02 0.  1.
</event>
<event>
 5   0  0.4149487E-07  0.2471496E+04  0.7818609E-02  0.8413211E-01
        2   -1    0    0  501    0  0.00000000000E+00  0.00000000000E+00  0.12580069898E+04  0.12580069898E+04  0.25500000920E-02 0. -1.
       -2   -1    0    0    0  501  0.00000000000E+00  0.00000000000E+00 -0.12138829322E+04  0.12138829322E+04  0.25500000920E-02 0.  1.
    10030    2    1    2    0    0  0.00000000000E+00  0.00000000000E+00  0.44124057622E+02  0.24718899220E+04  0.24714960761E+04 0.  0.
        2    1    3    3  502    0 -0.75580951731E+03  0.59369772605E+03 -0.75481666568E+03  0.12220774178E+04  0.25500000920E-02 0.  1.
       -2    1    3    3    0  502  0.75580951731E+03 -0.59369772605E+03  0.79894072330E+03  0.12498125042E+04  0.25500000920E-02 0. -1.
</event>
<event>
 5   0  0.1372952E-07  0.4014502E+04  0.7818609E-02  0.8001627E-01
        1   -1    0    0  501    0  0.00000000000E+00  0.00000000000E+00  0.12129495505E+04  0.12129495505E+04  0.50400001928E-02 0. -1.
       -1   -1    0    0    0  501  0.00000000000E+00  0.00000000000E+00 -0.33217010866E+04  0.33217010866E+04  0.50400001928E-02 0.  1.
    10030    2    1    2    0    0  0.00000000000E+00  0.00000000000E+00 -0.21087515360E+04  0.45346506371E+04  0.40145016328E+04 0.  0.
        1    1    3    3  502    0 -0.19393008463E+04 -0.43342178105E+03 -0.73426018587E+03  0.21184617611E+04  0.50400001928E-02 0.  1.
       -1    1    3    3    0  502  0.19393008463E+04  0.43342178105E+03 -0.13744913502E+04  0.24161888760E+04  0.50400001928E-02 0. -1.
</event>
<event>
 5   0  0.4047916E-07  0.3949761E+04  0.7818609E-02  0.8014759E-01
        2   -1    0    0  501    0  0.00000000000E+00  0.00000000000E+00  0.24477371392E+04  0.24477371392E+04  0.25500000920E-02 0. -1.
       -2   -1    0    0    0  501  0.00000000000E+00  0.00000000000E+00 -0.15933711156E+04  0.15933711156E+04  0.25500000920E-02 0.  1.
    10030    2    1    2    0    0  0.00000000000E+00  0.00000000000E+00  0.85436602361E+03  0.40411082547E+04  0.39497613376E+04 0.  0.
        5    1    3    3  502    0  0.13379651218E+03  0.15488698461E+04 -0.81886337882E+03  0.17571165670E+04  0.46999998093E+01 0.  1.
       -5    1    3    3    0  502 -0.13379651218E+03 -0.15488698461E+04  0.16732294024E+04  0.22839916878E+04  0.46999998093E+01 0. -1.
</event>
<event>
 5   0  0.1351000E-07  0.3303682E+04  0.7818609E-02  0.8161959E-01
        1   -1    0    0  501    0  0.00000000000E+00  0.00000000000E+00  0.17252495290E+04  0.17252495290E+04  0.50400001928E-02 0. -1.
       -1   -1    0    0    0  501  0.00000000000E+00  0.00000000000E+00 -0.15815557159E+04  0.15815557159E+04  0.50400001928E-02 0.  1.
    10030    2    1    2    0    0  0.00000000000E+00  0.00000000000E+00  0.14369381310E+03  0.33068052449E+04  0.33036817365E+04 0.  0.
        4    1    3    3  502    0  0.24830291616E+03 -0.24698684343E+03  0.16876593129E+04  0.17236160849E+04  0.12699999809E+01 0. -1.
       -4    1    3    3    0  502 -0.24830291616E+03  0.24698684343E+03 -0.15439654998E+04  0.15831891600E+04  0.12699999809E+01 0.  1.
</event>
<event>
 5   0  0.4301754E-07  0.3945304E+04  0.7818609E-02  0.8015672E-01
       -2   -1    0    0    0  501  0.00000000000E+00  0.00000000000E+00  0.12127970020E+04  0.12127970020E+04  0.25500000920E-02 0.  1.
        2   -1    0    0  501    0  0.00000000000E+00  0.00000000000E+00 -0.32085793868E+04  0.32085793868E+04  0.25500000920E-02 0. -1.
    10030    2    1    2    0    0  0.00000000000E+00  0.00000000000E+00 -0.19957823847E+04  0.44213763888E+04  0.39453037708E+04 0.  0.
        1    1    3    3  502    0  0.60075463887E+01  0.78105400261E+02 -0.32068356064E+04  0.32077922549E+04  0.50400001928E-02 0. -1.
       -1    1    3    3    0  502 -0.60075463887E+01 -0.78105400261E+02  0.12110532217E+04  0.12135841339E+04  0.50400001928E-02 0.  1.
</event>
<event>
 5   0  0.4077370E-07  0.3902782E+04  0.7818609E-02  0.8024451E-01
       -2   -1    0    0    0  501  0.00000000000E+00  0.00000000000E+00  0.13197808067E+04  0.13197808067E+04  0.25500000920E-02 0. -1.
        2   -1    0    0  501    0  0.00000000000E+00  0.00000000000E+00 -0.28852726034E+04  0.28852726034E+04  0.25500000920E-02 0.  1.
    10030    2    1    2    0    0  0.00000000000E+00  0.00000000000E+00 -0.15654917966E+04  0.42050534101E+04  0.39027822917E+04 0.  0.
        3    1    3    3  502    0  0.14671917581E+04 -0.12428307094E+04 -0.11411459999E+04  0.22359548364E+04  0.10100000352E+00 0.  1.
       -3    1    3    3    0  502 -0.14671917581E+04  0.12428307094E+04 -0.42434579673E+03  0.19690985736E+04  0.10100000352E+00 0. -1.
</event>
<event>
 5   0  0.1421304E-07  0.4069350E+04  0.7818609E-02  0.7990701E-01
        1   -1    0    0  501    0  0.00000000000E+00  0.00000000000E+00  0.12879086013E+04  0.12879086013E+04  0.50400001928E-02 0. -1.
       -1   -1    0    0    0  501  0.00000000000E+00  0.00000000000E+00 -0.32144376747E+04  0.32144376747E+04  0.50400001928E-02 0.  1.
    10030    2    1    2    0    0  0.00000000000E+00  0.00000000000E+00 -0.19265290735E+04  0.45023462760E+04  0.40693497906E+04 0.  0.
        2    1    3    3  502    0  0.14518077416E+04 -0.87047469800E+03  0.28576257761E+03  0.17167213429E+04  0.25500000920E-02 0. -1.
       -2    1    3    3    0  502 -0.14518077416E+04  0.87047469800E+03 -0.22122916511E+04  0.27856249331E+04  0.25500000920E-02 0.  1.
</event>
<event>
 5   0  0.1368865E-07  0.2867371E+04  0.7818609E-02  0.8282652E-01
       -1   -1    0    0    0  501  0.00000000000E+00  0.00000000000E+00  0.19855475134E+04  0.19855475134E+04  0.50400001928E-02 0. -1.
        1   -1    0    0  501    0  0.00000000000E+00  0.00000000000E+00 -0.10352075354E+04  0.10352075354E+04  0.50400001928E-02 0.  1.
    10030    2    1    2    0    0  0.00000000000E+00  0.00000000000E+00  0.95033997803E+03  0.30207550488E+04  0.28673707453E+04 0.  0.
        5    1    3    3  502    0 -0.71598281222E+03 -0.25589641858E+03 -0.80529748417E+03  0.11075380321E+04  0.46999998093E+01 0.  1.
       -5    1    3    3    0  502  0.71598281222E+03  0.25589641858E+03  0.17556374622E+04  0.19132170167E+04  0.46999998093E+01 0. -1.
</event>
<event>
 5   0  0.4047916E-07  0.2889970E+04  0.7818609E-02  0.8275868E-01
        2   -1    0    0  501    0  0.00000000000E+00  0.00000000000E+00  0.18231321808E+04  0.18231321808E+04  0.25500000920E-02 0. -1.
       -2   -1    0    0    0  501  0.00000000000E+00  0.00000000000E+00 -0.11452719015E+04  0.11452719015E+04  0.25500000920E-02 0.  1.
    10030    2    1    2    0    0  0.00000000000E+00  0.00000000000E+00  0.67786027930E+03  0.29684040822E+04  0.28899702831E+04 0.  0.
        5    1    3    3  502    0  0.33948186551E+03 -0.28386218677E+03  0.17518112584E+04  0.18068454425E+04  0.46999998093E+01 0. -1.
       -5    1    3    3    0  502 -0.33948186551E+03  0.28386218677E+03 -0.10739509791E+04  0.11615586397E+04  0.46999998093E+01 0.  1.
</event>
<event>
 5   0  0.4301754E-07  0.4003526E+04  0.7818609E-02  0.8003836E-01
        2   -1    0    0  501    0  0.00000000000E+00  0.00000000000E+00  0.21312166755E+04  0.21312166755E+04  0.25500000920E-02 0.  1.
       -2   -1    0    0    0  501  0.00000000000E+00  0.00000000000E+00 -0.18801730080E+04  0.18801730081E+04  0.25500000920E-02 0. -1.
    10030    2    1    2    0    0  0.00000000000E+00  0.00000000000E+00  0.25104366748E+03  0.40113896836E+04  0.40035264793E+04 0.  0.
        1    1    3    3  502    0 -0.17655604967E+04 -0.85425110947E+03  0.52644175475E+03  0.20307855000E+04  0.50400001928E-02 0. -1.
       -1    1    3    3    0  502  0.17655604967E+04  0.85425110947E+03 -0.27539808727E+03  0.19806041836E+04  0.50400001928E-02 0.  1.
</event>
<event>
 5   0  0.1351000E-07  0.3442016E+04  0.7818609E-02  0.8127671E-01
       -3   -1    0    0    0  501  0.00000000000E+00  0.00000000000E+00  0.10731470206E+04  0.10731470254E+04  0.10100000352E+00 0.  1.
        3   -1    0    0  501    0  0.00000000000E+00  0.00000000000E+00 -0.27599835398E+04  0.27599835417E+04  0.10100000352E+00 0. -1.
    10030    2    1    2    0    0  0.00000000000E+00  0.00000000000E+00 -0.16868365192E+04  0.38331305671E+04  0.34420157614E+04 0.  0.
        4    1    3    3  502    0 -0.94172166824E+03 -0.13298575630E+04 -0.14599564986E+04  0.21878837787E+04  0.12699999809E+01 0. -1.
       -4    1    3    3    0  502  0.94172166824E+03  0.13298575630E+04 -0.22688002060E+03  0.16452467884E+04  0.12699999809E+01 0.  1.
</event>
<event>
 5   0  0.1351000E-07  0.3910909E+04  0.7818609E-02  0.8022764E-01
        1   -1    0    0  501    0  0.00000000000E+00  0.00000000000E+00  0.34074138832E+04  0.34074138832E+04  0.50400001928E-02 0.  1.
       -1   -1    0    0    0  501  0.00000000000E+00  0.00000000000E+00 -0.11222007306E+04  0.11222007306E+04  0.50400001928E-02 0. -1.
    10030    2    1    2    0    0  0.00000000000E+00  0.00000000000E+00  0.22852131527E+04  0.45296146139E+04  0.39109090244E+04 0.  0.
        4    1    3    3  502    0 -0.14600687070E+04 -0.95076602407E+02 -0.35991427342E+03  0.15067780482E+04  0.12699999809E+01 0. -1.
       -4    1    3    3    0  502  0.14600687070E+04  0.95076602407E+02  0.26451274261E+04  0.30228365656E+04  0.12699999809E+01 0.  1.
</event>
<event>
 5   0  0.4079777E-07  0.4084532E+04  0.7818609E-02  0.7987708E-01
        2   -1    0    0  501    0  0.00000000000E+00  0.00000000000E+00  0.22343851600E+04  0.22343851600E+04  0.25500000920E-02 0.  1.
       -2   -1    0    0    0  501  0.00000000000E+00  0.00000000000E+00 -0.18666654804E+04  0.18666654804E+04  0.25500000920E-02 0. -1.
    10030    2    1    2    0    0  0.00000000000E+00  0.00000000000E+00  0.36771967959E+03  0.41010506404E+04  0.40845316246E+04 0.  0.
        4    1    3    3  502    0  0.12639613748E+04 -0.70219250087E+03 -0.12642544664E+04  0.19206805132E+04  0.12699999809E+01 0. -1.
       -4    1    3    3    0  502 -0.12639613748E+04  0.70219250087E+03  0.16319741460E+04  0.21803701271E+04  0.12699999809E+01 0.  1.
</event>
<event>
 5   0  0.4301754E-07  0.3152498E+04  0.7818609E-02  0.8201476E-01
       -2   -1    0    0    0  501  0.00000000000E+00  0.00000000000E+00  0.13710120841E+04  0.13710120841E+04  0.25500000920E-02 0. -1.
        2   -1    0    0  501    0  0.00000000000E+00  0.00000000000E+00 -0.18122092268E+04  0.18122092268E+04  0.25500000920E-02 0.  1.
    10030    2    1    2    0    0  0.00000000000E+00  0.00000000000E+00 -0.44119714277E+03  0.31832213109E+04  0.31524978978E+04 0.  0.
        1    1    3    3  502    0  0.82433888761E+02  0.22411168527E+03  0.13526421089E+04  0.13735581780E+04  0.50400001928E-02 0. -1.
       -1    1    3    3    0  502 -0.82433888761E+02 -0.22411168527E+03 -0.17938392517E+04  0.18096631329E+04  0.50400001928E-02 0.  1.
</event>
<event>
 5   0  0.4047916E-07  0.2708386E+04  0.7818609E-02  0.8332289E-01
        2   -1    0    0  501    0  0.00000000000E+00  0.00000000000E+00  0.16346231204E+04  0.16346231204E+04  0.25500000920E-02 0.  1.
       -2   -1    0    0    0  501  0.00000000000E+00  0.00000000000E+00 -0.11218727989E+04  0.11218727989E+04  0.25500000920E-02 0. -1.
    10030    2    1    2    0    0  0.00000000000E+00  0.00000000000E+00  0.51275032148E+03  0.27564959193E+04  0.27083863943E+04 0.  0.
        5    1    3    3  502    0 -0.39480330888E+03 -0.12609920016E+04  0.55802932073E+03  0.14343602385E+04  0.46999998093E+01 0.  1.
       -5    1    3    3    0  502  0.39480330888E+03  0.12609920016E+04 -0.45278999253E+02  0.13221356809E+04  0.46999998093E+01 0. -1.
</event>
<event>
 5   0  0.4047916E-07  0.2678863E+04  0.7818609E-02  0.8341896E-01
       -2   -1    0    0    0  501  0.00000000000E+00  0.00000000000E+00  0.13685500885E+04  0.13685500885E+04  0.25500000920E-02 0.  1.
        2   -1    0    0  501    0  0.00000000000E+00  0.00000000000E+00 -0.13109326729E+04  0.13109326729E+04  0.25500000920E-02 0. -1.
    10030    2    1    2    0    0  0.00000000000E+00  0.00000000000E+00  0.57617415682E+02  0.26794827614E+04  0.26788632108E+04 0.  0.
        5    1    3    3  502    0 -0.13585839105E+03 -0.61238768021E+03 -0.11549254985E+04  0.13142873241E+04  0.46999998093E+01 0. -1.
       -5    1    3    3    0  502  0.13585839105E+03  0.61238768021E+03  0.12125429142E+04  0.13651954373E+04  0.46999998093E+01 0.  1.
</event>
<event>
 5   0  0.4047916E-07  0.3749637E+04  0.7818609E-02  0.8057050E-01
       -2   -1    0    0    0  501  0.00000000000E+00  0.00000000000E+00  0.34398691455E+04  0.34398691455E+04  0.25500000920E-02 0.  1.
        2   -1    0    0  501    0  0.00000000000E+00  0.00000000000E+00 -0.10218249528E+04  0.10218249528E+04  0.25500000920E-02 0. -1.
    10030    2    1    2    0    0  0.00000000000E+00  0.00000000000E+00  0.24180441928E+04  0.44616940983E+04  0.37496368503E+04 0.  0.
        5    1    3    3  502    0 -0.16059457122E+04 -0.81033678057E+03  0.58026959072E+03  0.18900905312E+04  0.46999998093E+01 0. -1.
       -5    1    3    3    0  502  0.16059457122E+04  0.81033678057E+03  0.18377746020E+04  0.25716035671E+04  0.46999998093E+01 0.  1.
</event>
<event>
 5   0  0.1368865E-07  0.3442332E+04  0.7818609E-02  0.8127594E-01
       -1   -1    0    0    0  501  0.00000000000E+00  0.00000000000E+00  0.24221165817E+04  0.24221165817E+04  0.50400001928E-02 0. -1.
        1   -1    0    0  501    0  0.00000000000E+00  0.00000000000E+00 -0.12230674937E+04  0.12230674937E+04  0.50400001928E-02 0.  1.
    10030    2    1    2    0    0  0.00000000000E+00  0.00000000000E+00  0.11990490879E+04  0.36451840754E+04  0.34423318010E+04 0.  0.
        5    1    3    3  502    0  0.16285663771E+04  0.23619402149E+03  0.11336004861E+04  0.19982713060E+04  0.46999998093E+01 0. -1.
       -5    1    3    3    0  502 -0.16285663771E+04 -0.23619402149E+03  0.65448601820E+02  0.16469127694E+04  0.46999998093E+01 0.  1.
</event>
<event>
 5   0  0.4301754E-07  0.3957201E+04  0.7818609E-02  0.8013237E-01
        2   -1    0    0  501    0  0.00000000000E+00  0.00000000000E+00  0.32156399009E+04  0.32156399009E+04  0.25500000920E-02 0.  1.
       -2   -1    0    0    0  501  0.00000000000E+00  0.00000000000E+00 -0.12174435531E+04  0.12174435531E+04  0.25500000920E-02 0. -1.
    10030    2    1    2    0    0  0.00000000000E+00  0.00000000000E+00  0.19981963478E+04  0.44330834541E+04  0.39572010647E+04 0.  0.
        1    1    3    3  502    0 -0.89595439916E+03 -0.10715777082E+04 -0.57080046982E+03  0.15089155863E+04  0.50400001928E-02 0. -1.
       -1    1    3    3    0  502  0.89595439916E+03  0.10715777082E+04  0.25689968176E+04  0.29241678678E+04  0.50400001928E-02 0.  1.
</event>
<event>
 5   0  0.1421304E-07  0.3966139E+04  0.7818609E-02  0.8011412E-01
        1   -1    0    0  501    0  0.00000000000E+00  0.00000000000E+00  0.22964589165E+04  0.22964589165E+04  0.50400001928E-02 0. -1.
       -1   -1    0    0    0  501  0.00000000000E+00  0.00000000000E+00 -0.17124475677E+04  0.17124475677E+04  0.50400001928E-02 0.  1.
    10030    2    1    2    0    0  0.00000000000E+00  0.00000000000E+00  0.58401134885E+03  0.40089064842E+04  0.39661394257E+04 0.  0.
        2    1    3    3  502    0  0.18140131295E+04  0.40279535033E+03 -0.40805025549E+03  0.19024701678E+04  0.25500000920E-02 0.  1.
       -2    1    3    3    0  502 -0.18140131295E+04 -0.40279535033E+03  0.99206160434E+03  0.21064363164E+04  0.25500000920E-02 0. -1.
</event>
<event>
 5   0  0.1421304E-07  0.3386717E+04  0.7818609E-02  0.8141174E-01
       -1   -1    0    0    0  501  0.00000000000E+00  0.00000000000E+00  0.11972657561E+04  0.11972657561E+04  0.50400001928E-02 0.  1.
        1   -1    0    0  501    0  0.00000000000E+00  0.00000000000E+00 -0.23950095320E+04  0.23950095320E+04  0.50400001928E-02 0. -1.
    10030    2    1    2    0    0  0.00000000000E+00  0.00000000000E+00 -0.11977437759E+04  0.35922752881E+04  0.33867169342E+04 0.  0.
        2    1    3    3  502    0  0.39794745520E+03 -0.52252025472E+03  0.10566536621E+04  0.12441489281E+04  0.25500000920E-02 0.  1.
       -2    1    3    3    0  502 -0.39794745520E+03  0.52252025472E+03 -0.22543974380E+04  0.23481263600E+04  0.25500000920E-02 0. -1.
</event>
<event>
 5   0  0.1351000E-07  0.3793300E+04  0.7818609E-02  0.8047594E-01
        1   -1    0    0  501    0  0.00000000000E+00  0.00000000000E+00  0.16244772649E+04  0.16244772649E+04  0.50400001928E-02 0. -1.
       -1   -1    0    0    0  501  0.00000000000E+00  0.00000000000E+00 -0.22144236247E+04  0.22144236247E+04  0.50400001928E-02 0.  1.
    10030    2    1    2    0    0  0.00000000000E+00  0.00000000000E+00 -0.58994635982E+03  0.38389008896E+04  0.37932997947E+04 0.  0.
        3    1    3    3  502    0 -0.67865859225E+03 -0.76701024588E+02  0.14957101981E+04  0.16442656534E+04  0.10100000352E+00 0. -1.
       -3    1    3    3    0  502  0.67865859225E+03  0.76701024588E+02 -0.20856565579E+04  0.21946352362E+04  0.10100000352E+00 0.  1.
</event>
<event>
 5   0  0.4301754E-07  0.4061586E+04  0.7818609E-02  0.7992237E-01
        2   -1    0    0  501    0  0.00000000000E+00  0.00000000000E+00  0.30490223242E+04  0.30490223242E+04  0.25500000920E-02 0.  1.
       -2   -1    0    0    0  501  0.00000000000E+00  0.00000000000E+00 -0.13526043529E+04  0.13526043529E+04  0.25500000920E-02 0. -1.
    10030    2    1    2    0    0  0.00000000000E+00  0.00000000000E+00  0.16964179713E+04  0.44016266770E+04  0.40615863244E+04 0.  0.
        1    1    3    3  502    0 -0.10799018382E+03 -0.61777131790E+03 -0.12450334224E+04  0.13940629483E+04  0.50400001928E-02 0. -1.
       -1    1    3    3    0  502  0.10799018382E+03  0.61777131790E+03  0.29414513937E+04  0.30075637287E+04  0.50400001928E-02 0.  1.
</event>
<event>
 5   0  0.1351000E-07  0.3999781E+04  0.7818609E-02  0.8004591E-01
       -1   -1    0    0    0  501  0.00000000000E+00  0.00000000000E+00  0.15193647403E+04  0.15193647403E+04  0.50400001928E-02 0.  1.
        1   -1    0    0  501    0  0.00000000000E+00  0.00000000000E+00 -0.26323906664E+04  0.26323906664E+04  0.50400001928E-02 0. -1.
    10030    2    1    2    0    0  0.00000000000E+00  0.00000000000E+00 -0.11130259261E+04  0.41517554066E+04  0.39997807745E+04 0.  0.
        4    1    3    3  502    0  0.14619678179E+04 -0.13193755126E+04 -0.19476243121E+03  0.19788975874E+04  0.12699999809E+01 0.  1.
       -4    1    3    3    0  502 -0.14619678179E+04  0.13193755126E+04 -0.91826349490E+03  0.21728578193E+04  0.12699999809E+01 0. -1.
</event>
<event>
 5   0  0.1351000E-07  0.3296634E+04  0.7818609E-02  0.8163752E-01
        1   -1    0    0  501    0  0.00000000000E+00  0.00000000000E+00  0.16311644282E+04  0.16311644282E+04  0.50400001928E-02 0.  1.
       -1   -1    0    0    0  501  0.00000000000E+00  0.00000000000E+00 -0.16656500854E+04  0.16656500854E+04  0.50400001928E-02 0. -1.
    10030    2    1    2    0    0  0.00000000000E+00  0.00000000000E+00 -0.34485657238E+02  0.32968145136E+04  0.32966341436E+04 0.  0.
        4    1    3    3  502    0  0.92470575409E+03 -0.13238490377E+03 -0.13753823236E+04  0.16626137986E+04  0.12699999809E+01 0. -1.
       -4    1    3    3    0  502 -0.92470575409E+03  0.13238490377E+03  0.13408966663E+04  0.16342007150E+04  0.12699999809E+01 0.  1.
</event>
<event>
 5   0  0.1368865E-07  0.2609144E+04  0.7818609E-02  0.8365102E-01
        1   -1    0    0  501    0  0.00000000000E+00  0.00000000000E+00  0.10167191111E+04  0.10167191111E+04  0.50400001928E-02 0. -1.
       -1   -1    0    0    0  501  0.00000000000E+00  0.00000000000E+00 -0.16739221240E+04  0.16739221240E+04  0.50400001928E-02 0.  1.
    10030    2    1    2    0    0  0.00000000000E+00  0.00000000000E+00 -0.65720301294E+03  0.26906412351E+04  0.26091443915E+04 0.  0.
        5    1    3    3  502    0  0.87268569690E+03 -0.40263133919E+03 -0.12383087974E+04  0.15675213200E+04  0.46999998093E+01 0.  1.
       -5    1    3    3    0  502 -0.87268569690E+03  0.40263133919E+03  0.58110578448E+03  0.11231199151E+04  0.46999998093E+01 0. -1.
</event>
<event>
 5   0  0.4149487E-07  0.4067254E+04  0.7818609E-02  0.7991115E-01
        2   -1    0    0  501    0  0.00000000000E+00  0.00000000000E+00  0.20491361758E+04  0.20491361758E+04  0.25500000920E-02 0.  1.
       -2   -1    0    0    0  501  0.00000000000E+00  0.00000000000E+00 -0.20182355384E+04  0.20182355384E+04  0.25500000920E-02 0. -1.
    10030    2    1    2    0    0  0.00000000000E+00  0.00000000000E+00  0.30900637378E+02  0.40673717142E+04  0.40672543334E+04 0.  0.
        2    1    3    3  502    0  0.10387700766E+04 -0.55391707160E+03  0.16737418425E+04  0.20462842299E+04  0.25500000920E-02 0.  1.
       -2    1    3    3    0  502 -0.10387700766E+04  0.55391707160E+03 -0.16428412051E+04  0.20210874843E+04  0.25500000920E-02 0. -1.
</event>
<event>
 5   0  0.4079777E-07  0.3931336E+04  0.7818609E-02  0.8018543E-01
        2   -1    0    0  501    0  0.00000000000E+00  0.00000000000E+00  0.21610896470E+04  0.21610896470E+04  0.25500000920E-02 0.  1.
       -2   -1    0    0    0  501  0.00000000000E+00  0.00000000000E+00 -0.17879174143E+04  0.17879174143E+04  0.25500000920E-02 0. -1.
    10030    2    1    2    0    0  0.00000000000E+00  0.00000000000E+00  0.37317223269E+03  0.39490070613E+04  0.39313355562E+04 0.  0.
        4    1    3    3  502    0  0.11960366614E+04 -0.14472909435E+04 -0.39800361477E+03  0.19192611237E+04  0.12699999809E+01 0.  1.
       -4    1    3    3    0  502 -0.11960366614E+04  0.14472909435E+04  0.77117584745E+03  0.20297459376E+04  0.12699999809E+01 0. -1.
</event>
<event>
 5   0  0.4047916E-07  0.2955402E+04  0.7818609E-02  0.8256582E-01
        2   -1    0    0  501    0  0.00000000000E+00  0.00000000000E+00  0.25999957271E+04  0.25999957271E+04  0.25500000920E-02 0. -1.
       -2   -1    0    0    0  501  0.00000000000E+00  0.00000000000E+00 -0.83984735665E+03  0.83984735665E+03  0.25500000920E-02 0.  1.
    10030    2    1    2    0    0  0.00000000000E+00  0.00000000000E+00  0.17601483705E+04  0.34398430838E+04  0.29554015218E+04 0.  0.
        5    1    3    3  502    0 -0.48797260042E+03 -0.13930314550E+04  0.96174399552E+03  0.17617115247E+04  0.46999998093E+01 0.  1.
       -5    1    3    3    0  502  0.48797260042E+03  0.13930314550E+04  0.79840437495E+03  0.16781315590E+04  0.46999998093E+01 0. -1.
</event>
<event>
 5   0  0.4077370E-07  0.4004530E+04  0.7818609E-02  0.8003633E-01
        2   -1    0    0  501    0  0.00000000000E+00  0.00000000000E+00  0.24069165281E+04  0.24069165281E+04  0.25500000920E-02 0.  1.
       -2   -1    0    0    0  501  0.00000000000E+00  0.00000000000E+00 -0.16656436712E+04  0.16656436712E+04  0.25500000920E-02 0. -1.
    10030    2    1    2    0    0  0.00000000000E+00  0.00000000000E+00  0.74127285693E+03  0.40725601993E+04  0.40045300758E+04 0.  0.
        3    1    3    3  502    0 -0.18483747839E+04 -0.25647186030E+01 -0.41222617153E+03  0.18937862462E+04  0.10100000352E+00 0. -1.
       -3    1    3    3    0  502  0.18483747839E+04  0.25647186030E+01  0.11534990285E+04  0.21787739531E+04  0.10100000352E+00 0.  1.
</event>
<event>
 5   0  0.4047916E-07  0.3819085E+04  0.7818609E-02  0.8042072E-01
        2   -1    0    0  501    0  0.00000000000E+00  0.00000000000E+00  0.19292780218E+04  0.19292780218E+04  0.25500000920E-02 0.  1.
       -2   -1    0    0    0  501  0.00000000000E+00  0.00000000000E+00 -0.18900088829E+04  0.18900088829E+04  0.25500000920E-02 0. -1.
    10030    2    1    2    0    0  0.00000000000E+00  0.00000000000E+00  0.39269138830E+02  0.38192869047E+04  0.38190850207E+04 0.  0.
        5    1    3    3  502    0  0.43584192744E+03 -0.35449173591E+03 -0.18054846257E+04  0.18908779443E+04  0.46999998093E+01 0. -1.
       -5    1    3    3    0  502 -0.43584192744E+03  0.35449173591E+03  0.18447537646E+04  0.19284089604E+04  0.46999998093E+01 0.  1.
</event>
<event>
 5   0  0.4149487E-07  0.3079716E+04  0.7818609E-02  0.8221327E-01
       -2   -1    0    0    0  501  0.00000000000E+00  0.00000000000E+00  0.16302088304E+04  0.16302088304E+04  0.25500000920E-02 0. -1.
        2   -1    0    0  501    0  0.00000000000E+00  0.00000000000E+00 -0.14545147838E+04  0.14545147838E+04  0.25500000920E-02 0.  1.
    10030    2    1    2    0    0  0.00000000000E+00  0.00000000000E+00  0.17569404657E+03  0.30847236142E+04  0.30797161197E+04 0.  0.
        2    1    3    3  502    0  0.18435597694E+03  0.88546813659E+02  0.16165445568E+04  0.16294305657E+04  0.25500000920E-02 0. -1.
       -2    1    3    3    0  502 -0.18435597694E+03 -0.88546813659E+02 -0.14408505102E+04  0.14552930485E+04  0.25500000920E-02 0.  1.
</event>
<event>
 5   0  0.1372952E-07  0.3644383E+04  0.7818609E-02  0.8080400E-01
       -1   -1    0    0    0  501  0.00000000000E+00  0.00000000000E+00  0.13851951059E+04  0.13851951060E+04  0.50400001928E-02 0. -1.
        1   -1    0    0  501    0  0.00000000000E+00  0.00000000000E+00 -0.23970503210E+04  0.23970503210E+04  0.50400001928E-02 0.  1.
    10030    2    1    2    0    0  0.00000000000E+00  0.00000000000E+00 -0.10118552151E+04  0.37822454270E+04  0.36443832803E+04 0.  0.
        1    1    3    3  502    0  0.17576342744E+04  0.46414286747E+03 -0.63586578531E+03  0.19258847683E+04  0.50400001928E-02 0.  1.
       -1    1    3    3    0  502 -0.17576342744E+04 -0.46414286747E+03 -0.37598942978E+03  0.18563606587E+04  0.50400001928E-02 0. -1.
</event>
<event>
 5   0  0.1351000E-07  0.2520268E+04  0.7818609E-02  0.8395800E-01
        1   -1    0    0  501    0  0.00000000000E+00  0.00000000000E+00  0.94077649279E+03  0.94077649281E+03  0.50400001928E-02 0. -1.
       -1   -1    0    0    0  501  0.00000000000E+00  0.00000000000E+00 -0.16879010875E+04  0.16879010876E+04  0.50400001928E-02 0.  1.
    10030    2    1    2    0    0  0.00000000000E+00  0.00000000000E+00 -0.74712459475E+03  0.26286775804E+04  0.25202679741E+04 0.  0.
        4    1    3    3  502    0  0.69776053085E+03 -0.10442772338E+04 -0.48070057942E+03  0.13447897082E+04  0.12699999809E+01 0. -1.
       -4    1    3    3    0  502 -0.69776053085E+03  0.10442772338E+04 -0.26642401533E+03  0.12838878721E+04  0.12699999809E+01 0.  1.
</event>
<event>
 5   0  0.4079777E-07  0.3286266E+04  0.7818609E-02  0.8166399E-01
        2   -1    0    0  501    0  0.00000000000E+00  0.00000000000E+00  0.14328213879E+04  0.14328213879E+04  0.25500000920E-02 0.  1.
       -2   -1    0    0    0  501  0.00000000000E+00  0.00000000000E+00 -0.18843144766E+04  0.18843144766E+04  0.25500000920E-02 0. -1.
    10030    2    1    2    0    0  0.00000000000E+00  0.00000000000E+00 -0.45149308871E+03  0.33171358646E+04  0.32862660171E+04 0.  0.
        4    1    3    3  502    0  0.58282393277E+03 -0.36445203755E+03 -0.17322053420E+04  0.18636110066E+04  0.12699999809E+01 0. -1.
       -4    1    3    3    0  502 -0.58282393277E+03  0.36445203755E+03  0.12807122532E+04  0.14535248580E+04  0.12699999809E+01 0.  1.
</event>
<event>
 5   0  0.4079777E-07  0.4355017E+04  0.7818609E-02  0.7936522E-01
        2   -1    0    0  501    0  0.00000000000E+00  0.00000000000E+00  0.18112714308E+04  0.18112714309E+04  0.25500000920E-02 0.  1.
       -2   -1    0    0    0  501  0.00000000000E+00  0.00000000000E+00 -0.26177985621E+04  0.26177985621E+04  0.25500000920E-02 0. -1.
    10030    2    1    2    0    0  0.00000000000E+00  0.00000000000E+00 -0.80652713130E+03  0.44290699930E+04  0.43550172203E+04 0.  0.
        4    1    3    3  502    0  0.35517125583E+02  0.61142735335E+03  0.17218702359E+04  0.18275512570E+04  0.12699999809E+01 0.  1.
       -4    1    3    3    0  502 -0.35517125583E+02 -0.61142735335E+03 -0.25283973672E+04  0.26015187360E+04  0.12699999809E+01 0. -1.
</event>
<event>
 5   0  0.1421304E-07  0.3915636E+04  0.7818609E-02  0.8021785E-01
       -1   -1    0    0    0  501  0.00000000000E+00  0.00000000000E+00  0.23677281616E+04  0.23677281616E+04  0.50400001928E-02 0.  1.
        1   -1    0    0  501    0  0.00000000000E+00  0.00000000000E+00 -0.16188731697E+04  0.16188731697E+04  0.50400001928E-02 0. -1.
    10030    2    1    2    0    0  0.00000000000E+00  0.00000000000E+00  0.74885499194E+03  0.39866013313E+04  0.39156361393E+04 0.  0.
        2    1    3    3  502    0 -0.55761098399E+03  0.12667389213E+04  0.17842599259E+04  0.22581277615E+04  0.25500000920E-02 0.  1.
       -2    1    3    3    0  502  0.55761098399E+03 -0.12667389213E+04 -0.10354049339E+04  0.17284735698E+04  0.25500000920E-02 0. -1.
</event>
<event>
 5   0  0.1421304E-07  0.2558800E+04  0.7818609E-02  0.8382332E-01
       -1   -1    0    0    0  501  0.00000000000E+00  0.00000000000E+00  0.16050577973E+04  0.16050577974E+04  0.50400001928E-02 0.  1.
        1   -1    0    0  501    0  0.00000000000E+00  0.00000000000E+00 -0.10198160980E+04  0.10198160980E+04  0.50400001928E-02 0. -1.
    10030    2    1    2    0    0  0.00000000000E+00  0.00000000000E+00  0.58524169931E+03  0.26248738954E+04  0.25587995467E+04 0.  0.
        2    1    3    3  502    0 -0.37575743587E+02 -0.12641394650E+04  0.49101409722E+03  0.13566706922E+04  0.25500000920E-02 0.  1.
       -2    1    3    3    0  502  0.37575743587E+02  0.12641394650E+04  0.94227602087E+02  0.12682032032E+04  0.25500000920E-02 0. -1.
</event>
<event>
 5   0  0.4149487E-07  0.3947735E+04  0.7818609E-02  0.8015174E-01
        2   -1    0    0  501    0  0.00000000000E+00  0.00000000000E+00  0.20507383209E+04  0.20507383209E+04  0.25500000920E-02 0.  1.
       -2   -1    0    0    0  501  0.00000000000E+00  0.00000000000E+00 -0.18998785249E+04  0.18998785249E+04  0.25500000920E-02 0. -1.
    10030    2    1    2    0    0  0.00000000000E+00  0.00000000000E+00  0.15085979603E+03  0.39506168458E+04  0.39477353995E+04 0.  0.
        2    1    3    3  502    0  0.15692205254E+04 -0.83875230727E+03 -0.77970841345E+03  0.19426537777E+04  0.25500000920E-02 0. -1.
       -2    1    3    3    0  502 -0.15692205254E+04  0.83875230727E+03  0.93056820948E+03  0.20079630680E+04  0.25500000920E-02 0.  1.
</event>
<event>
 5   0  0.4077370E-07  0.2968614E+04  0.7818609E-02  0.8252750E-01
        2   -1    0    0  501    0  0.00000000000E+00  0.00000000000E+00  0.23892055794E+04  0.23892055794E+04  0.25500000920E-02 0. -1.
       -2   -1    0    0    0  501  0.00000000000E+00  0.00000000000E+00 -0.92213395865E+03  0.92213395866E+03  0.25500000920E-02 0.  1.
    10030    2    1    2    0    0  0.00000000000E+00  0.00000000000E+00  0.14670716208E+04  0.33113395381E+04  0.29686142215E+04 0.  0.
        3    1    3    3  502    0  0.10373326065E+04 -0.10611570422E+04  0.69731573384E+03  0.16396226540E+04  0.10100000352E+00 0. -1.
       -3    1    3    3    0  502 -0.10373326065E+04  0.10611570422E+04  0.76975588694E+03  0.16717168841E+04  0.10100000352E+00 0.  1.
</event>
<event>
 5   0  0.4149487E-07  0.4135560E+04  0.7818609E-02  0.7977744E-01
        2   -1    0    0  501    0  0.00000000000E+00  0.00000000000E+00  0.19840515548E+04  0.19840515548E+04  0.25500000920E-02 0.  1.
       -2   -1    0    0    0  501  0.00000000000E+00  0.00000000000E+00 -0.21550421225E+04  0.21550421225E+04  0.25500000920E-02 0. -1.
    10030    2    1    2    0    0  0.00000000000E+00  0.00000000000E+00 -0.17099056771E+03  0.41390936773E+04  0.41355602638E+04 0.  0.
        2    1    3    3  502    0  0.11461903656E+01  0.46013015412E+03 -0.21031526141E+04  0.21528985092E+04  0.25500000920E-02 0. -1.
       -2    1    3    3    0  502 -0.11461903656E+01 -0.46013015412E+03  0.19321620464E+04  0.19861951682E+04  0.25500000920E-02 0.  1.
</event>
<event>
 5   0  0.4301754E-07  0.3913966E+04  0.7818609E-02  0.8022131E-01
       -2   -1    0    0    0  501  0.00000000000E+00  0.00000000000E+00  0.14991390105E+04  0.14991390105E+04  0.25500000920E-02 0. -1.
        2   -1    0    0  501    0  0.00000000000E+00  0.00000000000E+00 -0.25546553012E+04  0.25546553012E+04  0.25500000920E-02 0.  1.
    10030    2    1    2    0    0  0.00000000000E+00  0.00000000000E+00 -0.10555162907E+04  0.40537943118E+04  0.39139664897E+04 0.  0.
        1    1    3    3  502    0  0.61665073453E+03 -0.43171387388E+03 -0.23987117577E+04  0.25140511319E+04  0.50400001928E-02 0.  1.
       -1    1    3    3    0  502 -0.61665073453E+03  0.43171387388E+03  0.13431954670E+04  0.15397431799E+04  0.50400001928E-02 0. -1.
</event>
<event>
 5   0  0.1368865E-07  0.4110852E+04  0.7818609E-02  0.7982550E-01
       -1   -1    0    0    0  501  0.00000000000E+00  0.00000000000E+00  0.13882207636E+04  0.13882207636E+04  0.50400001928E-02 0. -1.
        1   -1    0    0  501    0  0.00000000000E+00  0.00000000000E+00 -0.30433025184E+04  0.30433025184E+04  0.50400001928E-02 0.  1.
    10030    2    1    2    0    0  0.00000000000E+00  0.00000000000E+00 -0.16550817548E+04  0.44315232820E+04  0.41108518562E+04 0.  0.
        5    1    3    3  502    0  0.84938025677E+03 -0.34590343537E+02 -0.28449134954E+04  0.29692083455E+04  0.46999998093E+01 0.  1.
       -5    1    3    3    0  502 -0.84938025677E+03  0.34590343537E+02  0.11898317407E+04  0.14623149365E+04  0.46999998093E+01 0. -1.
</event>
<event>
 5   0  0.4047916E-07  0.2449067E+04  0.7818609E-02  0.8421359E-01
       -2   -1    0    0    0  501  0.00000000000E+00  0.00000000000E+00  0.69158381123E+03  0.69158381124E+03  0.25500000920E-02 0.  1.
        2   -1    0    0  501    0  0.00000000000E+00  0.00000000000E+00 -0.21681857669E+04  0.21681857669E+04  0.25500000920E-02 0. -1.
    10030    2    1    2    0    0  0.00000000000E+00  0.00000000000E+00 -0.14766019557E+04  0.28597695781E+04  0.24490669049E+04 0.  0.
        5    1    3    3  502    0 -0.10213727807E+04 -0.53851187753E+03 -0.26216851873E+03  0.11840404645E+04  0.46999998093E+01 0.  1.
       -5    1    3    3    0  502  0.10213727807E+04  0.53851187753E+03 -0.12144334369E+04  0.16757291136E+04  0.46999998093E+01 0. -1.
</event>
<event>
 5   0  0.4079777E-07  0.4022190E+04  0.7818609E-02  0.8000085E-01
        2   -1    0    0  501    0  0.00000000000E+00  0.00000000000E+00  0.19454205345E+04  0.19454205345E+04  0.25500000920E-02 0. -1.
       -2   -1    0    0    0  501  0.00000000000E+00  0.00000000000E+00 -0.20789868790E+04  0.20789868790E+04  0.25500000920E-02 0.  1.
    10030    2    1    2    0    0  0.00000000000E+00  0.00000000000E+00 -0.13356634449E+03  0.40244074135E+04  0.40221903314E+04 0.  0.
        4    1    3    3  502    0 -0.14135173550E+04 -0.13040949105E+04  0.52159479802E+03  0.19926759884E+04  0.12699999809E+01 0. -1.
       -4    1    3    3    0  502  0.14135173550E+04  0.13040949105E+04 -0.65516114251E+03  0.20317314252E+04  0.12699999809E+01 0.  1.
</event>
<event>
 5   0  0.4149487E-07  0.4021183E+04  0.7818609E-02  0.8000287E-01
       -2   -1    0    0    0  501  0.00000000000E+00  0.00000000000E+00  0.20994310003E+04  0.20994310003E+04  0.25500000920E-02 0.  1.
        2   -1    0    0  501    0  0.00000000000E+00  0.00000000000E+00 -0.19255110060E+04  0.19255110060E+04  0.25500000920E-02 0. -1.
    10030    2    1    2    0    0  0.00000000000E+00  0.00000000000E+00  0.17391999428E+03  0.40249420063E+04  0.40211826606E+04 0.  0.
        2    1    3    3  502    0  0.15759509447E+04 -0.33039141537E+03  0.12921195301E+04  0.20645466203E+04  0.25500000920E-02 0.  1.
       -2    1    3    3    0  502 -0.15759509447E+04  0.33039141537E+03 -0.11181995358E+04  0.19603953860E+04  0.25500000920E-02 0. -1.
</event>
<event>
 5   0  0.1351000E-07  0.3821981E+04  0.7818609E-02  0.8041454E-01
       -1   -1    0    0    0  501  0.00000000000E+00  0.00000000000E+00  0.32038049953E+04  0.32038049953E+04  0.50400001928E-02 0.  1.
        1   -1    0    0  501    0  0.00000000000E+00  0.00000000000E+00 -0.11398587337E+04  0.11398587337E+04  0.50400001928E-02 0. -1.
    10030    2    1    2    0    0  0.00000000000E+00  0.00000000000E+00  0.20639462616E+04  0.43436637290E+04  0.38219812166E+04 0.  0.
        3    1    3    3  502    0 -0.70891864350E+03 -0.10711202711E+04 -0.57608573359E+03  0.14077425407E+04  0.10100000352E+00 0. -1.
       -3    1    3    3    0  502  0.70891864350E+03  0.10711202711E+04  0.26400319951E+04  0.29359211883E+04  0.10100000352E+00 0.  1.
</event>
<event>
 5   0  0.1368865E-07  0.4078743E+04  0.7818609E-02  0.7988847E-01
       -1   -1    0    0    0  501  0.00000000000E+00  0.00000000000E+00  0.18401526169E+04  0.18401526169E+04  0.50400001928E-02 0.  1.
        1   -1    0    0  501    0  0.00000000000E+00  0.00000000000E+00 -0.22601577812E+04  0.22601577812E+04  0.50400001928E-02 0. -1.
    10030    2    1    2    0    0  0.00000000000E+00  0.00000000000E+00 -0.42000516426E+03  0.41003103981E+04  0.40787425787E+04 0.  0.
        5    1    3    3  502    0 -0.22013179590E+03 -0.16574853508E+04  0.96377484226E+03  0.19299222089E+04  0.46999998093E+01 0. -1.
       -5    1    3    3    0  502  0.22013179590E+03  0.16574853508E+04 -0.13837800065E+04  0.21703881893E+04  0.46999998093E+01 0.  1.
</event>
<event>
 5   0  0.4301754E-07  0.4109707E+04  0.7818609E-02  0.7982774E-01
       -2   -1    0    0    0  501  0.00000000000E+00  0.00000000000E+00  0.31401004660E+04  0.31401004660E+04  0.25500000920E-02 0.  1.
        2   -1    0    0  501    0  0.00000000000E+00  0.00000000000E+00 -0.13446776293E+04  0.13446776293E+04  0.25500000920E-02 0. -1.
    10030    2    1    2    0    0  0.00000000000E+00  0.00000000000E+00  0.17954228367E+04  0.44847780953E+04  0.41097069727E+04 0.  0.
        1    1    3    3  502    0 -0.12854160771E+03 -0.31416363227E+02 -0.13400233261E+04  0.13465409193E+04  0.50400001928E-02 0. -1.
       -1    1    3    3    0  502  0.12854160771E+03  0.31416363227E+02  0.31354461629E+04  0.31382371760E+04  0.50400001928E-02 0.  1.
</event>
<event>
 5   0  0.4047916E-07  0.2960267E+04  0.7818609E-02  0.8255169E-01
        2   -1    0    0  501    0  0.00000000000E+00  0.00000000000E+00  0.14507949401E+04  0.14507949401E+04  0.25500000920E-02 0. -1.
       -2   -1    0    0    0  501  0.00000000000E+00  0.00000000000E+00 -0.15100651519E+04  0.15100651519E+04  0.25500000920E-02 0.  1.
    10030    2    1    2    0    0  0.00000000000E+00  0.00000000000E+00 -0.59270211780E+02  0.29608600920E+04  0.29602667999E+04 0.  0.
        5    1    3    3  502    0 -0.18494927467E+03 -0.53516449034E+02 -0.14974790748E+04  0.15098132050E+04  0.46999998093E+01 0.  1.
       -5    1    3    3    0  502  0.18494927467E+03  0.53516449034E+02  0.14382088631E+04  0.14510468870E+04  0.46999998093E+01 0. -1.
</event>
<event>
 5   0  0.4047916E-07  0.3986455E+04  0.7818609E-02  0.8007285E-01
        2   -1    0    0  501    0  0.00000000000E+00  0.00000000000E+00  0.18302782292E+04  0.18302782292E+04  0.25500000920E-02 0.  1.
       -2   -1    0    0    0  501  0.00000000000E+00  0.00000000000E+00 -0.21706837702E+04  0.21706837702E+04  0.25500000920E-02 0. -1.
    10030    2    1    2    0    0  0.00000000000E+00  0.00000000000E+00 -0.34040554104E+03  0.40009619995E+04  0.39864546892E+04 0.  0.
        5    1    3    3  502    0  0.72813866858E+03  0.18303464632E+04 -0.47557812226E+03  0.20264626166E+04  0.46999998093E+01 0. -1.
       -5    1    3    3    0  502 -0.72813866858E+03 -0.18303464632E+04  0.13517258123E+03  0.19744993828E+04  0.46999998093E+01 0.  1.
</event>
<event>
 5   0  0.1351000E-07  0.3949441E+04  0.7818609E-02  0.8014824E-01
       -1   -1    0    0    0  501  0.00000000000E+00  0.00000000000E+00  0.13788805568E+04  0.13788805568E+04  0.50400001928E-02 0. -1.
        1   -1    0    0  501    0  0.00000000000E+00  0.00000000000E+00 -0.28280336310E+04  0.28280336310E+04  0.50400001928E-02 0.  1.
    10030    2    1    2    0    0  0.00000000000E+00  0.00000000000E+00 -0.14491530742E+04  0.42069141878E+04  0.39494407643E+04 0.  0.
        4    1    3    3  502    0 -0.37961743362E+02 -0.67761402175E+03  0.12507500239E+04  0.14230176006E+04  0.12699999809E+01 0. -1.
       -4    1    3    3    0  502  0.37961743362E+02  0.67761402175E+03 -0.26999030980E+04  0.27838965872E+04  0.12699999809E+01 0.  1.
</event>
<event>
 5   0  0.1351000E-07  0.2579036E+04  0.7818609E-02  0.8375357E-01
        1   -1    0    0  501    0  0.00000000000E+00  0.00000000000E+00  0.19459382645E+04  0.19459382645E+04  0.50400001928E-02 0.  1.
       -1   -1    0    0    0  501  0.00000000000E+00  0.00000000000E+00 -0.85452677687E+03  0.85452677689E+03  0.50400001928E-02 0. -1.
    10030    2    1    2    0    0  0.00000000000E+00  0.00000000000E+00  0.10914114876E+04  0.28004650414E+04  0.25790357525E+04 0.  0.
        4    1    3    3  502    0  0.35561922031E+03 -0.55789773545E+03  0.17475982355E+04  0.18686401791E+04  0.12699999809E+01 0.  1.
       -4    1    3    3    0  502 -0.35561922031E+03  0.55789773545E+03 -0.65618674789E+03  0.93182486234E+03  0.12699999809E+01 0. -1.
</event>
<event>
 5   0  0.1421304E-07  0.3977991E+04  0.7818609E-02  0.8009001E-01
        1   -1    0    0  501    0  0.00000000000E+00  0.00000000000E+00  0.27836810065E+04  0.27836810065E+04  0.50400001928E-02 0.  1.
       -1   -1    0    0    0  501  0.00000000000E+00  0.00000000000E+00 -0.14211766177E+04  0.14211766177E+04  0.50400001928E-02 0. -1.
    10030    2    1    2    0    0  0.00000000000E+00  0.00000000000E+00  0.13625043888E+04  0.42048576242E+04  0.39779906272E+04 0.  0.
        2    1    3    3  502    0  0.61517134633E+03 -0.46516810577E+03 -0.12566873364E+04  0.14744762506E+04  0.25500000920E-02 0. -1.
       -2    1    3    3    0  502 -0.61517134633E+03  0.46516810577E+03  0.26191917252E+04  0.27303813736E+04  0.25500000920E-02 0.  1.
</event>
<event>
 5   0  0.4301754E-07  0.3675680E+04  0.7818609E-02  0.8073373E-01
        2   -1    0    0  501    0  0.00000000000E+00  0.00000000000E+00  0.11896496343E+04  0.11896496343E+04  0.25500000920E-02 0.  1.
       -2   -1    0    0    0  501  0.00000000000E+00  0.00000000000E+00 -0.28392026622E+04  0.28392026622E+04  0.25500000920E-02 0. -1.
    10030    2    1    2    0    0  0.00000000000E+00  0.00000000000E+00 -0.16495530279E+04  0.40288522966E+04  0.36756802956E+04 0.  0.
        1    1    3    3  502    0 -0.29903381654E+03  0.92994255767E+03 -0.25310943601E+04  0.27130523481E+04  0.50400001928E-02 0. -1.
       -1    1    3    3    0  502  0.29903381654E+03 -0.92994255767E+03  0.88154133218E+03  0.13157999485E+04  0.50400001928E-02 0.  1.
</event>
<event>
 5   0  0.4047916E-07  0.2942550E+04  0.7818609E-02  0.8260329E-01
        2   -1    0    0  501    0  0.00000000000E+00  0.00000000000E+00  0.15555504307E+04  0.15555504307E+04  0.25500000920E-02 0. -1.
       -2   -1    0    0    0  501  0.00000000000E+00  0.00000000000E+00 -0.13915652936E+04  0.13915652936E+04  0.25500000920E-02 0.  1.
    10030    2    1    2    0    0  0.00000000000E+00  0.00000000000E+00  0.16398513711E+03  0.29471157244E+04  0.29425499091E+04 0.  0.
        5    1    3    3  502    0 -0.96119473649E+02 -0.12195135392E+04  0.90068105516E+03  0.15191118059E+04  0.46999998093E+01 0. -1.
       -5    1    3    3    0  502  0.96119473649E+02  0.12195135392E+04 -0.73669591805E+03  0.14280039185E+04  0.46999998093E+01 0.  1.
</event>
<event>
 5   0  0.4077370E-07  0.3946355E+04  0.7818609E-02  0.8015457E-01
        2   -1    0    0  501    0  0.00000000000E+00  0.00000000000E+00  0.20379736952E+04  0.20379736952E+04  0.25500000920E-02 0. -1.
       -2   -1    0    0    0  501  0.00000000000E+00  0.00000000000E+00 -0.19104417575E+04  0.19104417575E+04  0.25500000920E-02 0.  1.
    10030    2    1    2    0    0  0.00000000000E+00  0.00000000000E+00  0.12753193768E+03  0.39484154527E+04  0.39463553048E+04 0.  0.
        3    1    3    3  502    0 -0.57616831765E+03 -0.72277445822E+03 -0.16804332817E+04  0.19178709217E+04  0.10100000352E+00 0.  1.
       -3    1    3    3    0  502  0.57616831765E+03  0.72277445822E+03  0.18079652194E+04  0.20305445310E+04  0.10100000352E+00 0. -1.
</event>
<event>
 5   0  0.1351000E-07  0.4009857E+04  0.7818609E-02  0.8002561E-01
        1   -1    0    0  501    0  0.00000000000E+00  0.00000000000E+00  0.13638685576E+04  0.13638685576E+04  0.50400001928E-02 0.  1.
       -1   -1    0    0    0  501  0.00000000000E+00  0.00000000000E+00 -0.29473062064E+04  0.29473062064E+04  0.50400001928E-02 0. -1.
    10030    2    1    2    0    0  0.00000000000E+00  0.00000000000E+00 -0.15834376488E+04  0.43111747640E+04  0.40098569872E+04 0.  0.
        4    1    3    3  502    0 -0.14508775185E+04 -0.97546054733E+03 -0.18468773734E+04  0.25431332050E+04  0.12699999809E+01 0. -1.
       -4    1    3    3    0  502  0.14508775185E+04  0.97546054733E+03  0.26343972456E+03  0.17680415590E+04  0.12699999809E+01 0.  1.
</event>
<event>
 5   0  0.4301754E-07  0.4061817E+04  0.7818609E-02  0.7992191E-01
        2   -1    0    0  501    0  0.00000000000E+00  0.00000000000E+00  0.24114866441E+04  0.24114866441E+04  0.25500000920E-02 0. -1.
       -2   -1    0    0    0  501  0.00000000000E+00  0.00000000000E+00 -0.17103930488E+04  0.17103930488E+04  0.25500000920E-02 0.  1.
    10030    2    1    2    0    0  0.00000000000E+00  0.00000000000E+00  0.70109359529E+03  0.41218796929E+04  0.40618173240E+04 0.  0.
        1    1    3    3  502    0  0.42158622786E+03  0.40293352029E+03 -0.16235986984E+04  0.17251559647E+04  0.50400001928E-02 0.  1.
       -1    1    3    3    0  502 -0.42158622786E+03 -0.40293352029E+03  0.23246922936E+04  0.23967237282E+04  0.50400001928E-02 0. -1.
</event>
<event>
 5   0  0.1351000E-07  0.3984930E+04  0.7818609E-02  0.8007594E-01
       -1   -1    0    0    0  501  0.00000000000E+00  0.00000000000E+00  0.30835063876E+04  0.30835063876E+04  0.50400001928E-02 0.  1.
        1   -1    0    0  501    0  0.00000000000E+00  0.00000000000E+00 -0.12874684158E+04  0.12874684159E+04  0.50400001928E-02 0. -1.
    10030    2    1    2    0    0  0.00000000000E+00  0.00000000000E+00  0.17960379718E+04  0.43709748035E+04  0.39849301545E+04 0.  0.
        4    1    3    3  502    0 -0.69005686806E+03 -0.11419489529E+04  0.25211323928E+04  0.28524263438E+04  0.12699999809E+01 0.  1.
       -4    1    3    3    0  502  0.69005686806E+03  0.11419489529E+04 -0.72509442100E+03  0.15185484597E+04  0.12699999809E+01 0. -1.
</event>
<event>
 5   0  0.4077370E-07  0.3992022E+04  0.7818609E-02  0.8006158E-01
        2   -1    0    0  501    0  0.00000000000E+00  0.00000000000E+00  0.17256883689E+04  0.17256883689E+04  0.25500000920E-02 0.  1.
       -2   -1    0    0    0  501  0.00000000000E+00  0.00000000000E+00 -0.23086783139E+04  0.23086783139E+04  0.25500000920E-02 0. -1.
    10030    2    1    2    0    0  0.00000000000E+00  0.00000000000E+00 -0.58298994502E+03  0.40343666828E+04  0.39920217003E+04 0.  0.
        3    1    3    3  502    0 -0.10501223214E+04  0.52992833757E+02 -0.20061041839E+04  0.22649545552E+04  0.10100000352E+00 0. -1.
       -3    1    3    3    0  502  0.10501223214E+04 -0.52992833757E+02  0.14231142389E+04  0.17694121276E+04  0.10100000352E+00 0.  1.
</event>
<event>
 5   0  0.4079777E-07  0.3321870E+04  0.7818609E-02  0.8157353E-01
        2   -1    0    0  501    0  0.00000000000E+00  0.00000000000E+00  0.12714807864E+04  0.12714807864E+04  0.25500000920E-02 0. -1.
       -2   -1    0    0    0  501  0.00000000000E+00  0.00000000000E+00 -0.21696787721E+04  0.21696787721E+04  0.25500000920E-02 0.  1.
    10030    2    1    2    0    0  0.00000000000E+00  0.00000000000E+00 -0.89819798565E+03  0.34411595585E+04  0.33218698778E+04 0.  0.
        4    1    3    3  502    0  0.13798116749E+04 -0.63546015010E+03 -0.11447908425E+04  0.19021665401E+04  0.12699999809E+01 0.  1.
       -4    1    3    3    0  502 -0.13798116749E+04  0.63546015010E+03  0.24659285686E+03  0.15389930183E+04  0.12699999809E+01 0. -1.
</event>
<event>
 5   0  0.1372952E-07  0.3306258E+04  0.7818609E-02  0.8161305E-01
        1   -1    0    0  501    0  0.00000000000E+00  0.00000000000E+00  0.13487379767E+04  0.13487379768E+04  0.50400001928E-02 0. -1.
       -1   -1    0    0    0  501  0.00000000000E+00  0.00000000000E+00 -0.20262171938E+04  0.20262171939E+04  0.50400001928E-02 0.  1.
    10030    2    1    2    0    0  0.00000000000E+00  0.00000000000E+00 -0.67747921711E+03  0.33749551706E+04  0.33062583556E+04 0.  0.
        1    1    3    3  502    0  0.62168838748E+03 -0.64227186955E+03  0.10807753459E+04  0.14025280582E+04  0.50400001928E-02 0. -1.
       -1    1    3    3    0  502 -0.62168838748E+03  0.64227186955E+03 -0.17582545630E+04  0.19724271125E+04  0.50400001928E-02 0.  1.
</event>
<event>
 5   0  0.4301754E-07  0.2842912E+04  0.7818609E-02  0.8290068E-01
       -2   -1    0    0    0  501  0.00000000000E+00  0.00000000000E+00  0.13687566770E+04  0.13687566770E+04  0.25500000920E-02 0.  1.
        2   -1    0    0  501    0  0.00000000000E+00  0.00000000000E+00 -0.14761843040E+04  0.14761843040E+04  0.25500000920E-02 0. -1.
    10030    2    1    2    0    0  0.00000000000E+00  0.00000000000E+00 -0.10742762700E+03  0.28449409810E+04  0.28429119737E+04 0.  0.
        1    1    3    3  502    0  0.59746339274E+03 -0.10742973607E+04  0.66056013080E+03  0.13954988396E+04  0.50400001928E-02 0.  1.
       -1    1    3    3    0  502 -0.59746339274E+03  0.10742973607E+04 -0.76798775780E+03  0.14494421414E+04  0.50400001928E-02 0. -1.
</event>
<event>
 5   0  0.1368865E-07  0.4066548E+04  0.7818609E-02  0.7991255E-01
       -1   -1    0    0    0  501  0.00000000000E+00  0.00000000000E+00  0.31297756314E+04  0.31297756314E+04  0.50400001928E-02 0. -1.
        1   -1    0    0  501    0  0.00000000000E+00  0.00000000000E+00 -0.13209263856E+04  0.13209263856E+04  0.50400001928E-02 0.  1.
    10030    2    1    2    0    0  0.00000000000E+00  0.00000000000E+00  0.18088492459E+04  0.44507020170E+04  0.40665480263E+04 0.  0.
        5    1    3    3  502    0 -0.50767026663E+03  0.96117108659E+03  0.27850620706E+04  0.29896775386E+04  0.46999998093E+01 0. -1.
       -5    1    3    3    0  502  0.50767026663E+03 -0.96117108659E+03 -0.97621282478E+03  0.14610244784E+04  0.46999998093E+01 0.  1.
</event>
<event>
 5   0  0.1368865E-07  0.2659290E+04  0.7818609E-02  0.8348336E-01
        1   -1    0    0  501    0  0.00000000000E+00  0.00000000000E+00  0.17827249614E+04  0.17827249614E+04  0.50400001928E-02 0. -1.
       -1   -1    0    0    0  501  0.00000000000E+00  0.00000000000E+00 -0.99171568027E+03  0.99171568029E+03  0.50400001928E-02 0.  1.
    10030    2    1    2    0    0  0.00000000000E+00  0.00000000000E+00  0.79100928114E+03  0.27744406417E+04  0.26592903549E+04 0.  0.
        5    1    3    3  502    0  0.92702314603E+03 -0.18380796212E+03 -0.58028979947E+03  0.11090156093E+04  0.46999998093E+01 0.  1.
       -5    1    3    3    0  502 -0.92702314603E+03  0.18380796212E+03  0.13712990806E+04  0.16654250324E+04  0.46999998093E+01 0. -1.
</event>
<event>
 5   0  0.1508106E-07  0.2479879E+04  0.7818609E-02  0.8410189E-01
        1   -1    0    0  501    0  0.00000000000E+00  0.00000000000E+00  0.11846538447E+04  0.11846538447E+04  0.50400001928E-02 0.  1.
       -1   -1    0    0    0  501  0.00000000000E+00  0.00000000000E+00 -0.12978054713E+04  0.12978054713E+04  0.50400001928E-02 0. -1.
    10030    2    1    2    0    0  0.00000000000E+00  0.00000000000E+00 -0.11315162665E+03  0.24824593160E+04  0.24798792239E+04 0.  0.
        4    1    3    3  502    0 -0.89585988094E+03  0.61458561550E+03 -0.65483312670E+03  0.12684984989E+04  0.12699999809E+01 0. -1.
       -4    1    3    3    0  502  0.89585988094E+03 -0.61458561550E+03  0.54168150005E+03  0.12139608171E+04  0.12699999809E+01 0.  1.
</event>
<event>
 5   0  0.1351000E-07  0.3992570E+04  0.7818609E-02  0.8006047E-01
        1   -1    0    0  501    0  0.00000000000E+00  0.00000000000E+00  0.15414066905E+04  0.15414066905E+04  0.50400001928E-02 0.  1.
       -1   -1    0    0    0  501  0.00000000000E+00  0.00000000000E+00 -0.25854004161E+04  0.25854004161E+04  0.50400001928E-02 0. -1.
    10030    2    1    2    0    0  0.00000000000E+00  0.00000000000E+00 -0.10439937256E+04  0.41268071066E+04  0.39925698486E+04 0.  0.
        3    1    3    3  502    0  0.88011625534E+03 -0.13997938784E+04  0.63414776487E+03  0.17709237485E+04  0.10100000352E+00 0.  1.
       -3    1    3    3    0  502 -0.88011625534E+03  0.13997938784E+04 -0.16781414905E+04  0.23558833582E+04  0.10100000352E+00 0. -1.
</event>
<event>
 5   0  0.1351000E-07  0.4047063E+04  0.7818609E-02  0.7995119E-01
        1   -1    0    0  501    0  0.00000000000E+00  0.00000000000E+00  0.15660624870E+04  0.15660624870E+04  0.50400001928E-02 0.  1.
       -1   -1    0    0    0  501  0.00000000000E+00  0.00000000000E+00 -0.26146335792E+04  0.26146335792E+04  0.50400001928E-02 0. -1.
    10030    2    1    2    0    0  0.00000000000E+00  0.00000000000E+00 -0.10485710922E+04  0.41806960661E+04  0.40470629180E+04 0.  0.
        3    1    3    3  502    0  0.33957259564E+03 -0.14245457367E+04 -0.19668337635E+04  0.24521572476E+04  0.10100000352E+00 0. -1.
       -3    1    3    3    0  502 -0.33957259564E+03  0.14245457367E+04  0.91826267129E+03  0.17285388185E+04  0.10100000352E+00 0.  1.
</event>
<event>
 5   0  0.1351000E-07  0.2915197E+04  0.7818609E-02  0.8268370E-01
        1   -1    0    0  501    0  0.00000000000E+00  0.00000000000E+00  0.14396757561E+04  0.14396757561E+04  0.50400001928E-02 0. -1.
       -1   -1    0    0    0  501  0.00000000000E+00  0.00000000000E+00 -0.14757448622E+04  0.14757448622E+04  0.50400001928E-02 0.  1.
    10030    2    1    2    0    0  0.00000000000E+00  0.00000000000E+00 -0.36069106107E+02  0.29154206183E+04  0.29151974893E+04 0.  0.
        4    1    3    3  502    0 -0.56121796974E+03 -0.71529826322E+03  0.11213398253E+04  0.14436141561E+04  0.12699999809E+01 0. -1.
       -4    1    3    3    0  502  0.56121796974E+03  0.71529826322E+03 -0.11574089314E+04  0.14718064623E+04  0.12699999809E+01 0.  1.
</event>
<event>
 5   0  0.1351000E-07  0.4109882E+04  0.7818609E-02  0.7982739E-01
        1   -1    0    0  501    0  0.00000000000E+00  0.00000000000E+00  0.16591107030E+04  0.16591107030E+04  0.50400001928E-02 0. -1.
       -1   -1    0    0    0  501  0.00000000000E+00  0.00000000000E+00 -0.25452083237E+04  0.25452083237E+04  0.50400001928E-02 0.  1.
    10030    2    1    2    0    0  0.00000000000E+00  0.00000000000E+00 -0.88609762065E+03  0.42043190267E+04  0.41098819308E+04 0.  0.
        3    1    3    3  502    0  0.12480845504E+04 -0.47272996158E+03 -0.20415133833E+04  0.24390501360E+04  0.10100000352E+00 0.  1.
       -3    1    3    3    0  502 -0.12480845504E+04  0.47272996158E+03  0.11554157627E+04  0.17652688907E+04  0.10100000352E+00 0. -1.
</event>
<event>
 5   0  0.1372952E-07  0.3696265E+04  0.7818609E-02  0.8068790E-01
        1   -1    0    0  501    0  0.00000000000E+00  0.00000000000E+00  0.21300566919E+04  0.21300566920E+04  0.50400001928E-02 0. -1.
       -1   -1    0    0    0  501  0.00000000000E+00  0.00000000000E+00 -0.16035221305E+04  0.16035221305E+04  0.50400001928E-02 0.  1.
    10030    2    1    2    0    0  0.00000000000E+00  0.00000000000E+00  0.52653456145E+03  0.37335788225E+04  0.36962646251E+04 0.  0.
        1    1    3    3  502    0 -0.11075952617E+04  0.14423181257E+04  0.59605369653E+03  0.19137212045E+04  0.50400001928E-02 0.  1.
       -1    1    3    3    0  502  0.11075952617E+04 -0.14423181257E+04 -0.69519135081E+02  0.18198576179E+04  0.50400001928E-02 0. -1.
</event>
<event>
 5   0  0.1368865E-07  0.3939587E+04  0.7818609E-02  0.8016846E-01
        1   -1    0    0  501    0  0.00000000000E+00  0.00000000000E+00  0.16848542066E+04  0.16848542066E+04  0.50400001928E-02 0. -1.
       -1   -1    0    0    0  501  0.00000000000E+00  0.00000000000E+00 -0.23029211290E+04  0.23029211290E+04  0.50400001928E-02 0.  1.
    10030    2    1    2    0    0  0.00000000000E+00  0.00000000000E+00 -0.61806692248E+03  0.39877753356E+04  0.39395869589E+04 0.  0.
        5    1    3    3  502    0  0.15359542161E+04 -0.32302941077E+03  0.89571843355E+03  0.18071626812E+04  0.46999998093E+01 0. -1.
       -5    1    3    3    0  502 -0.15359542161E+04  0.32302941077E+03 -0.15137853560E+04  0.21806126544E+04  0.46999998093E+01 0.  1.
</event>
<event>
 5   0  0.4077370E-07  0.4003191E+04  0.7818609E-02  0.8003903E-01
        2   -1    0    0  501    0  0.00000000000E+00  0.00000000000E+00  0.24380834589E+04  0.24380834589E+04  0.25500000920E-02 0. -1.
       -2   -1    0    0    0  501  0.00000000000E+00  0.00000000000E+00 -0.16432512021E+04  0.16432512021E+04  0.25500000920E-02 0.  1.
    10030    2    1    2    0    0  0.00000000000E+00  0.00000000000E+00  0.79483225683E+03  0.40813346609E+04  0.40031905148E+04 0.  0.
        3    1    3    3  502    0 -0.80935185634E+03  0.87315319275E+03  0.20378421863E+04  0.23601372230E+04  0.10100000352E+00 0. -1.
       -3    1    3    3    0  502  0.80935185634E+03 -0.87315319275E+03 -0.12430099294E+04  0.17211974379E+04  0.10100000352E+00 0.  1.
</event>
<event>
 5   0  0.4149487E-07  0.4008923E+04  0.7818609E-02  0.8002749E-01
       -2   -1    0    0    0  501  0.00000000000E+00  0.00000000000E+00  0.16502068155E+04  0.16502068155E+04  0.25500000920E-02 0.  1.
        2   -1    0    0  501    0  0.00000000000E+00  0.00000000000E+00 -0.24347645756E+04  0.24347645756E+04  0.25500000920E-02 0. -1.
    10030    2    1    2    0    0  0.00000000000E+00  0.00000000000E+00 -0.78455776012E+03  0.40849713911E+04  0.40089225968E+04 0.  0.
        2    1    3    3  502    0 -0.92834465116E+03  0.11554317921E+04 -0.17673290642E+04  0.23065772128E+04  0.25500000920E-02 0. -1.
       -2    1    3    3    0  502  0.92834465116E+03 -0.11554317921E+04  0.98277130406E+03  0.17783941783E+04  0.25500000920E-02 0.  1.
</event>
<event>
 5   0  0.1368865E-07  0.3716043E+04  0.7818609E-02  0.8064416E-01
       -1   -1    0    0    0  501  0.00000000000E+00  0.00000000000E+00  0.16004266352E+04  0.16004266352E+04  0.50400001928E-02 0.  1.
        1   -1    0    0  501    0  0.00000000000E+00  0.00000000000E+00 -0.21570777118E+04  0.21570777118E+04  0.50400001928E-02 0. -1.
    10030    2    1    2    0    0  0.00000000000E+00  0.00000000000E+00 -0.55665107664E+03  0.37575043470E+04  0.37160433927E+04 0.  0.
        5    1    3    3  502    0  0.17893686394E+04 -0.26285055726E+03  0.15220902682E+03  0.18149711350E+04  0.46999998093E+01 0.  1.
       -5    1    3    3    0  502 -0.17893686394E+04  0.26285055726E+03 -0.70886010346E+03  0.19425332119E+04  0.46999998093E+01 0. -1.
</event>
<event>
 5   0  0.4077370E-07  0.3899731E+04  0.7818609E-02  0.8025085E-01
       -2   -1    0    0    0  501  0.00000000000E+00  0.00000000000E+00  0.16246260858E+04  0.16246260858E+04  0.25500000920E-02 0.  1.
        2   -1    0    0  501    0  0.00000000000E+00  0.00000000000E+00 -0.23402160000E+04  0.23402160000E+04  0.25500000920E-02 0. -1.
    10030    2    1    2    0    0  0.00000000000E+00  0.00000000000E+00 -0.71558991422E+03  0.39648420858E+04  0.38997312523E+04 0.  0.
        3    1    3    3  502    0  0.82831719045E+03 -0.71224379222E+03 -0.19998696570E+04  0.22787889860E+04  0.10100000352E+00 0. -1.
       -3    1    3    3    0  502 -0.82831719045E+03  0.71224379222E+03  0.12842797427E+04  0.16860530998E+04  0.10100000352E+00 0.  1.
</event>
<event>
 5   0  0.4301754E-07  0.3440497E+04  0.7818609E-02  0.8128038E-01
        2   -1    0    0  501    0  0.00000000000E+00  0.00000000000E+00  0.23138678785E+04  0.23138678785E+04  0.25500000920E-02 0. -1.
       -2   -1    0    0    0  501  0.00000000000E+00  0.00000000000E+00 -0.12789213638E+04  0.12789213638E+04  0.25500000920E-02 0.  1.
    10030    2    1    2    0    0  0.00000000000E+00  0.00000000000E+00  0.10349465147E+04  0.35927892423E+04  0.34404970936E+04 0.  0.
        1    1    3    3  502    0 -0.83369698746E+03  0.10865869752E+04 -0.56953200350E+03  0.14832695725E+04  0.50400001928E-02 0.  1.
       -1    1    3    3    0  502  0.83369698746E+03 -0.10865869752E+04  0.16044785182E+04  0.21095196698E+04  0.50400001928E-02 0. -1.
</event>
<event>
 5   0  0.4079777E-07  0.3880127E+04  0.7818609E-02  0.8029175E-01
       -2   -1    0    0    0  501  0.00000000000E+00  0.00000000000E+00  0.20685870426E+04  0.20685870426E+04  0.25500000920E-02 0.  1.
        2   -1    0    0  501    0  0.00000000000E+00  0.00000000000E+00 -0.18195249734E+04  0.18195249734E+04  0.25500000920E-02 0. -1.
    10030    2    1    2    0    0  0.00000000000E+00  0.00000000000E+00  0.24906206919E+03  0.38881120160E+04  0.38801266905E+04 0.  0.
        4    1    3    3  502    0 -0.74289378420E+03 -0.14833211731E+04 -0.88337758983E+03  0.18794920740E+04  0.12699999809E+01 0. -1.
       -4    1    3    3    0  502  0.74289378420E+03  0.14833211731E+04  0.11324396590E+04  0.20086199420E+04  0.12699999809E+01 0.  1.
</event>
<event>
 5   0  0.4149487E-07  0.3961514E+04  0.7818609E-02  0.8012356E-01
       -2   -1    0    0    0  501  0.00000000000E+00  0.00000000000E+00  0.16985035750E+04  0.16985035750E+04  0.25500000920E-02 0. -1.
        2   -1    0    0  501    0  0.00000000000E+00  0.00000000000E+00 -0.23099143490E+04  0.23099143490E+04  0.25500000920E-02 0.  1.
    10030    2    1    2    0    0  0.00000000000E+00  0.00000000000E+00 -0.61141077400E+03  0.40084179240E+04  0.39615137408E+04 0.  0.
        2    1    3    3  502    0 -0.32517876661E+03 -0.13326685548E+03 -0.22781177332E+04  0.23050643574E+04  0.25500000920E-02 0.  1.
       -2    1    3    3    0  502  0.32517876661E+03  0.13326685548E+03  0.16667069592E+04  0.17033535666E+04  0.25500000920E-02 0. -1.
</event>
<event>
 5   0  0.1368865E-07  0.4053297E+04  0.7818609E-02  0.7993880E-01
       -1   -1    0    0    0  501  0.00000000000E+00  0.00000000000E+00  0.23333695085E+04  0.23333695085E+04  0.50400001928E-02 0. -1.
        1   -1    0    0  501    0  0.00000000000E+00  0.00000000000E+00 -0.17602455868E+04  0.17602455868E+04  0.50400001928E-02 0.  1.
    10030    2    1    2    0    0  0.00000000000E+00  0.00000000000E+00  0.57312392170E+03  0.40936150953E+04  0.40532966236E+04 0.  0.
        5    1    3    3  502    0 -0.11319725013E+04  0.41035435823E+03  0.19329705087E+04  0.22773119067E+04  0.46999998093E+01 0. -1.
       -5    1    3    3    0  502  0.11319725013E+04 -0.41035435823E+03 -0.13598465870E+04  0.18163031886E+04  0.46999998093E+01 0.  1.
</event>
<event>
 5   0  0.4149487E-07  0.3953409E+04  0.7818609E-02  0.8014012E-01
        2   -1    0    0  501    0  0.00000000000E+00  0.00000000000E+00  0.31043688221E+04  0.31043688221E+04  0.25500000920E-02 0.  1.
       -2   -1    0    0    0  501  0.00000000000E+00  0.00000000000E+00 -0.12586649870E+04  0.12586649870E+04  0.25500000920E-02 0. -1.
    10030    2    1    2    0    0  0.00000000000E+00  0.00000000000E+00  0.18457038351E+04  0.43630338092E+04  0.39534088295E+04 0.  0.
        2    1    3    3  502    0 -0.11364054927E+04 -0.14033294083E+04  0.18102896316E+04  0.25569316421E+04  0.25500000920E-02 0.  1.
       -2    1    3    3    0  502  0.11364054927E+04  0.14033294083E+04  0.35414203495E+02  0.18061021671E+04  0.25500000920E-02 0. -1.
</event>
<event>
 5   0  0.1368865E-07  0.4045545E+04  0.7818609E-02  0.7995421E-01
        1   -1    0    0  501    0  0.00000000000E+00  0.00000000000E+00  0.28684911241E+04  0.28684911241E+04  0.50400001928E-02 0. -1.
       -1   -1    0    0    0  501  0.00000000000E+00  0.00000000000E+00 -0.14263976480E+04  0.14263976481E+04  0.50400001928E-02 0.  1.
    10030    2    1    2    0    0  0.00000000000E+00  0.00000000000E+00  0.14420934761E+04  0.42948887722E+04  0.40455452008E+04 0.  0.
        5    1    3    3  502    0  0.79603793711E+03 -0.12386708385E+04 -0.75137702744E+03  0.16530491133E+04  0.46999998093E+01 0.  1.
       -5    1    3    3    0  502 -0.79603793711E+03  0.12386708385E+04  0.21934705035E+04  0.26418396589E+04  0.46999998093E+01 0. -1.
</event>
<event>
 5   0  0.1421304E-07  0.2936670E+04  0.7818609E-02  0.8262050E-01
        1   -1    0    0  501    0  0.00000000000E+00  0.00000000000E+00  0.24173878177E+04  0.24173878177E+04  0.50400001928E-02 0. -1.
       -1   -1    0    0    0  501  0.00000000000E+00  0.00000000000E+00 -0.89187520320E+03  0.89187520321E+03  0.50400001928E-02 0.  1.
    10030    2    1    2    0    0  0.00000000000E+00  0.00000000000E+00  0.15255126145E+04  0.33092630209E+04  0.29366703943E+04 0.  0.
        2    1    3    3  502    0  0.13190507504E+03 -0.12225695531E+03 -0.87941641744E+03  0.89761848645E+03  0.25500000920E-02 0.  1.
       -2    1    3    3    0  502 -0.13190507504E+03  0.12225695531E+03  0.24049290320E+04  0.24116445345E+04  0.25500000920E-02 0. -1.
</event>
<event>
 5   0  0.1421304E-07  0.3962084E+04  0.7818609E-02  0.8012239E-01
       -1   -1    0    0    0  501  0.00000000000E+00  0.00000000000E+00  0.22214510031E+04  0.22214510031E+04  0.50400001928E-02 0. -1.
        1   -1    0    0  501    0  0.00000000000E+00  0.00000000000E+00 -0.17666508320E+04  0.17666508320E+04  0.50400001928E-02 0.  1.
    10030    2    1    2    0    0  0.00000000000E+00  0.00000000000E+00  0.45480017112E+03  0.39881018351E+04  0.39620844327E+04 0.  0.
        2    1    3    3  502    0 -0.12003955238E+03 -0.18050745030E+04 -0.58525817761E+03  0.19013759728E+04  0.25500000920E-02 0.  1.
       -2    1    3    3    0  502  0.12003955238E+03  0.18050745030E+04  0.10400583487E+04  0.20867258623E+04  0.25500000920E-02 0. -1.
</event>
<event>
 5   0  0.1351000E-07  0.3983048E+04  0.7818609E-02  0.8007975E-01
       -1   -1    0    0    0  501  0.00000000000E+00  0.00000000000E+00  0.17868310606E+04  0.17868310607E+04  0.50400001928E-02 0.  1.
        1   -1    0    0  501    0  0.00000000000E+00  0.00000000000E+00 -0.22196660342E+04  0.22196660342E+04  0.50400001928E-02 0. -1.
    10030    2    1    2    0    0  0.00000000000E+00  0.00000000000E+00 -0.43283497356E+03  0.40064970949E+04  0.39830481866E+04 0.  0.
        4    1    3    3  502    0  0.86607673362E+03 -0.11010034095E+04  0.12074971528E+04  0.18494183959E+04  0.12699999809E+01 0.  1.
       -4    1    3    3    0  502 -0.86607673362E+03  0.11010034095E+04 -0.16403321263E+04  0.21570786990E+04  0.12699999809E+01 0. -1.
</event>
<event>
 5   0  0.4301754E-07  0.3719345E+04  0.7818609E-02  0.8063688E-01
       -2   -1    0    0    0  501  0.00000000000E+00  0.00000000000E+00  0.12186483392E+04  0.12186483392E+04  0.25500000920E-02 0. -1.
        2   -1    0    0  501    0  0.00000000000E+00  0.00000000000E+00 -0.28378834900E+04  0.28378834900E+04  0.25500000920E-02 0.  1.
    10030    2    1    2    0    0  0.00000000000E+00  0.00000000000E+00 -0.16192351507E+04  0.40565318292E+04  0.37193451047E+04 0.  0.
        1    1    3    3  502    0 -0.12851562629E+04  0.85866322342E+03 -0.19375140320E+04  0.24784853794E+04  0.50400001928E-02 0.  1.
       -1    1    3    3    0  502  0.12851562629E+04 -0.85866322342E+03  0.31827888130E+03  0.15780464498E+04  0.50400001928E-02 0. -1.
</event>
<event>
 5   0  0.4079777E-07  0.4003598E+04  0.7818609E-02  0.8003821E-01
        2   -1    0    0  501    0  0.00000000000E+00  0.00000000000E+00  0.23550819432E+04  0.23550819432E+04  0.25500000920E-02 0. -1.
       -2   -1    0    0    0  501  0.00000000000E+00  0.00000000000E+00 -0.17015119492E+04  0.17015119492E+04  0.25500000920E-02 0.  1.
    10030    2    1    2    0    0  0.00000000000E+00  0.00000000000E+00  0.65356999402E+03  0.40565938924E+04  0.40035984153E+04 0.  0.
        4    1    3    3  502    0 -0.89829834564E+03  0.19275214967E+03 -0.14752691577E+04  0.17379626031E+04  0.12699999809E+01 0.  1.
       -4    1    3    3    0  502  0.89829834564E+03 -0.19275214967E+03  0.21288391518E+04  0.23186312893E+04  0.12699999809E+01 0. -1.
</event>
<event>
 5   0  0.1351000E-07  0.3955067E+04  0.7818609E-02  0.8013673E-01
        1   -1    0    0  501    0  0.00000000000E+00  0.00000000000E+00  0.20354765969E+04  0.20354765969E+04  0.50400001928E-02 0.  1.
       -1   -1    0    0    0  501  0.00000000000E+00  0.00000000000E+00 -0.19212402661E+04  0.19212402661E+04  0.50400001928E-02 0. -1.
    10030    2    1    2    0    0  0.00000000000E+00  0.00000000000E+00  0.11423633082E+03  0.39567168631E+04  0.39550674325E+04 0.  0.
        3    1    3    3  502    0  0.70366828153E+03  0.10338679343E+04 -0.14753847906E+04  0.19341127802E+04  0.10100000352E+00 0. -1.
       -3    1    3    3    0  502 -0.70366828153E+03 -0.10338679343E+04  0.15896211214E+04  0.20226040829E+04  0.10100000352E+00 0.  1.
</event>
<event>
 5   0  0.4077370E-07  0.2946383E+04  0.7818609E-02  0.8259209E-01
       -2   -1    0    0    0  501  0.00000000000E+00  0.00000000000E+00  0.93780223091E+03  0.93780223091E+03  0.25500000920E-02 0. -1.
        2   -1    0    0  501    0  0.00000000000E+00  0.00000000000E+00 -0.23142329797E+04  0.23142329797E+04  0.25500000920E-02 0.  1.
    10030    2    1    2    0    0  0.00000000000E+00  0.00000000000E+00 -0.13764307488E+04  0.32520352106E+04  0.29463827662E+04 0.  0.
        3    1    3    3  502    0  0.10512322692E+04 -0.59215843778E+03 -0.16212182353E+04  0.20209130303E+04  0.10100000352E+00 0.  1.
       -3    1    3    3    0  502 -0.10512322692E+04  0.59215843778E+03  0.24478748653E+03  0.12311221803E+04  0.10100000352E+00 0. -1.
</event>
<event>
 5   0  0.1351000E-07  0.3782908E+04  0.7818609E-02  0.8049833E-01
        1   -1    0    0  501    0  0.00000000000E+00  0.00000000000E+00  0.11227988223E+04  0.11227988223E+04  0.50400001928E-02 0. -1.
       -1   -1    0    0    0  501  0.00000000000E+00  0.00000000000E+00 -0.31863217139E+04  0.31863217139E+04  0.50400001928E-02 0.  1.
    10030    2    1    2    0    0  0.00000000000E+00  0.00000000000E+00 -0.20635228916E+04  0.43091205363E+04  0.37829080179E+04 0.  0.
        3    1    3    3  502    0  0.15110913359E+04 -0.11374044478E+04 -0.10575453178E+04  0.21669074767E+04  0.10100000352E+00 0. -1.
       -3    1    3    3    0  502 -0.15110913359E+04  0.11374044478E+04 -0.10059775739E+04  0.21422130596E+04  0.10100000352E+00 0.  1.
</event>
<event>
 5   0  0.1421304E-07  0.3798174E+04  0.7818609E-02  0.8046547E-01
        1   -1    0    0  501    0  0.00000000000E+00  0.00000000000E+00  0.10428128499E+04  0.10428128499E+04  0.50400001928E-02 0.  1.
       -1   -1    0    0    0  501  0.00000000000E+00  0.00000000000E+00 -0.34584649732E+04  0.34584649732E+04  0.50400001928E-02 0. -1.
    10030    2    1    2    0    0  0.00000000000E+00  0.00000000000E+00 -0.24156521233E+04  0.45012778231E+04  0.37981741482E+04 0.  0.
        2    1    3    3  502    0 -0.88651940880E+03  0.13498447548E+03 -0.31917524841E+04  0.33153312641E+04  0.25500000920E-02 0. -1.
       -2    1    3    3    0  502  0.88651940880E+03 -0.13498447548E+03  0.77610036079E+03  0.11859465590E+04  0.25500000920E-02 0.  1.
</event>
<event>
 5   0  0.4149487E-07  0.3348638E+04  0.7818609E-02  0.8150628E-01
       -2   -1    0    0    0  501  0.00000000000E+00  0.00000000000E+00  0.15742660859E+04  0.15742660859E+04  0.25500000920E-02 0. -1.
        2   -1    0    0  501    0  0.00000000000E+00  0.00000000000E+00 -0.17807311546E+04  0.17807311546E+04  0.25500000920E-02 0.  1.
    10030    2    1    2    0    0  0.00000000000E+00  0.00000000000E+00 -0.20646506872E+03  0.33549972406E+04  0.33486383292E+04 0.  0.
        2    1    3    3  502    0 -0.87748275282E+01  0.39721850288E+03  0.15263508416E+04  0.15772147692E+04  0.25500000920E-02 0. -1.
       -2    1    3    3    0  502  0.87748275282E+01 -0.39721850288E+03 -0.17328159103E+04  0.17777824714E+04  0.25500000920E-02 0.  1.
</event>
<event>
 5   0  0.1351000E-07  0.3857571E+04  0.7818609E-02  0.8033912E-01
        3   -1    0    0  501    0  0.00000000000E+00  0.00000000000E+00  0.24159914789E+04  0.24159914810E+04  0.10100000352E+00 0.  1.
       -3   -1    0    0    0  501  0.00000000000E+00  0.00000000000E+00 -0.15398291272E+04  0.15398291306E+04  0.10100000352E+00 0. -1.
    10030    2    1    2    0    0  0.00000000000E+00  0.00000000000E+00  0.87616235162E+03  0.39558206115E+04  0.38575712883E+04 0.  0.
        2    1    3    3  502    0 -0.13027632260E+04  0.14756959274E+03  0.18887650578E+04  0.22992177477E+04  0.25500000920E-02 0.  1.
       -2    1    3    3    0  502  0.13027632260E+04 -0.14756959274E+03 -0.10126027062E+04  0.16566028638E+04  0.25500000920E-02 0. -1.
</event>
<event>
 5   0  0.1372952E-07  0.3815966E+04  0.7818609E-02  0.8042737E-01
        1   -1    0    0  501    0  0.00000000000E+00  0.00000000000E+00  0.27358739403E+04  0.27358739403E+04  0.50400001928E-02 0. -1.
       -1   -1    0    0    0  501  0.00000000000E+00  0.00000000000E+00 -0.13306163111E+04  0.13306163111E+04  0.50400001928E-02 0.  1.
    10030    2    1    2    0    0  0.00000000000E+00  0.00000000000E+00  0.14052576293E+04  0.40664902514E+04  0.38159656655E+04 0.  0.
        1    1    3    3  502    0  0.15132518219E+03  0.28585826920E+03  0.27064462645E+04  0.27257046141E+04  0.50400001928E-02 0. -1.
       -1    1    3    3    0  502 -0.15132518219E+03 -0.28585826920E+03 -0.13011886352E+04  0.13407856373E+04  0.50400001928E-02 0.  1.
</event>
<event>
 5   0  0.4079777E-07  0.2787690E+04  0.7818609E-02  0.8307100E-01
       -2   -1    0    0    0  501  0.00000000000E+00  0.00000000000E+00  0.13351737007E+04  0.13351737007E+04  0.25500000920E-02 0.  1.
        2   -1    0    0  501    0  0.00000000000E+00  0.00000000000E+00 -0.14550942122E+04  0.14550942122E+04  0.25500000920E-02 0. -1.
    10030    2    1    2    0    0  0.00000000000E+00  0.00000000000E+00 -0.11992051151E+03  0.27902679128E+04  0.27876897418E+04 0.  0.
        4    1    3    3  502    0 -0.22962457429E+03  0.37419416545E+02 -0.14355217111E+04  0.14542530226E+04  0.12699999809E+01 0. -1.
       -4    1    3    3    0  502  0.22962457429E+03 -0.37419416545E+02  0.13156011995E+04  0.13360148903E+04  0.12699999809E+01 0.  1.
</event>
<event>
 5   0  0.1372952E-07  0.4013968E+04  0.7818609E-02  0.8001735E-01
       -1   -1    0    0    0  501  0.00000000000E+00  0.00000000000E+00  0.18412863989E+04  0.18412863989E+04  0.50400001928E-02 0. -1.
        1   -1    0    0  501    0  0.00000000000E+00  0.00000000000E+00 -0.21875925459E+04  0.21875925459E+04  0.50400001928E-02 0.  1.
    10030    2    1    2    0    0  0.00000000000E+00  0.00000000000E+00 -0.34630614698E+03  0.40288789448E+04  0.40139678130E+04 0.  0.
        1    1    3    3  502    0 -0.16907051017E+04  0.27541917978E+03 -0.12228127307E+04  0.21046639732E+04  0.50400001928E-02 0.  1.
       -1    1    3    3    0  502  0.16907051017E+04 -0.27541917978E+03  0.87650658371E+03  0.19242149716E+04  0.50400001928E-02 0. -1.
</event>
<event>
 5   0  0.4079777E-07  0.4016159E+04  0.7818609E-02  0.8001295E-01
       -2   -1    0    0    0  501  0.00000000000E+00  0.00000000000E+00  0.31576619430E+04  0.31576619430E+04  0.25500000920E-02 0.  1.
        2   -1    0    0  501    0  0.00000000000E+00  0.00000000000E+00 -0.12770156060E+04  0.12770156060E+04  0.25500000920E-02 0. -1.
    10030    2    1    2    0    0  0.00000000000E+00  0.00000000000E+00  0.18806463371E+04  0.44346775490E+04  0.40161591501E+04 0.  0.
        4    1    3    3  502    0 -0.18378887174E+04  0.59907771106E+03  0.33992104037E+03  0.19627218265E+04  0.12699999809E+01 0. -1.
       -4    1    3    3    0  502  0.18378887174E+04 -0.59907771106E+03  0.15407252967E+04  0.24719557225E+04  0.12699999809E+01 0.  1.
</event>
<event>
 5   0  0.4047916E-07  0.3021350E+04  0.7818609E-02  0.8237660E-01
        2   -1    0    0  501    0  0.00000000000E+00  0.00000000000E+00  0.28929083366E+04  0.28929083366E+04  0.25500000920E-02 0.  1.
       -2   -1    0    0    0  501  0.00000000000E+00  0.00000000000E+00 -0.78887355562E+03  0.78887355562E+03  0.25500000920E-02 0. -1.
    10030    2    1    2    0    0  0.00000000000E+00  0.00000000000E+00  0.21040347810E+04  0.36817818922E+04  0.30213499536E+04 0.  0.
        5    1    3    3  502    0 -0.14479070635E+04 -0.33323433697E+03  0.13849325370E+04  0.20311425873E+04  0.46999998093E+01 0.  1.
       -5    1    3    3    0  502  0.14479070635E+04  0.33323433697E+03  0.71910224394E+03  0.16506393049E+04  0.46999998093E+01 0. -1.
</event>
<event>
 5   0  0.1351000E-07  0.3012073E+04  0.7818609E-02  0.8240292E-01
        1   -1    0    0  501    0  0.00000000000E+00  0.00000000000E+00  0.16332534244E+04  0.16332534244E+04  0.50400001928E-02 0. -1.
       -1   -1    0    0    0  501  0.00000000000E+00  0.00000000000E+00 -0.13887286626E+04  0.13887286626E+04  0.50400001928E-02 0.  1.
    10030    2    1    2    0    0  0.00000000000E+00  0.00000000000E+00  0.24452476187E+03  0.30219820870E+04  0.30120729366E+04 0.  0.
        4    1    3    3  502    0  0.13103466770E+04 -0.20750675162E+03 -0.59287761718E+03  0.14531252347E+04  0.12699999809E+01 0. -1.
       -4    1    3    3    0  502 -0.13103466770E+04  0.20750675162E+03  0.83740237905E+03  0.15688568523E+04  0.12699999809E+01 0.  1.
</event>
<event>
 5   0  0.4047916E-07  0.3899135E+04  0.7818609E-02  0.8025209E-01
        2   -1    0    0  501    0  0.00000000000E+00  0.00000000000E+00  0.16750027301E+04  0.16750027301E+04  0.25500000920E-02 0. -1.
       -2   -1    0    0    0  501  0.00000000000E+00  0.00000000000E+00 -0.22691389833E+04  0.22691389833E+04  0.25500000920E-02 0.  1.
    10030    2    1    2    0    0  0.00000000000E+00  0.00000000000E+00 -0.59413625320E+03  0.39441417133E+04  0.38991352846E+04 0.  0.
        5    1    3    3  502    0  0.89142656895E+03  0.11515421241E+04  0.10140805541E+04  0.17745624959E+04  0.46999998093E+01 0. -1.
       -5    1    3    3    0  502 -0.89142656895E+03 -0.11515421241E+04 -0.16082168073E+04  0.21695792175E+04  0.46999998093E+01 0.  1.
</event>
<event>
 5   0  0.4047916E-07  0.3191175E+04  0.7818609E-02  0.8191152E-01
       -2   -1    0    0    0  501  0.00000000000E+00  0.00000000000E+00  0.14860611120E+04  0.14860611120E+04  0.25500000920E-02 0. -1.
        2   -1    0    0  501    0  0.00000000000E+00  0.00000000000E+00 -0.17131864048E+04  0.17131864048E+04  0.25500000920E-02 0.  1.
    10030    2    1    2    0    0  0.00000000000E+00  0.00000000000E+00 -0.22712529278E+03  0.31992475168E+04  0.31911751402E+04 0.  0.
        5    1    3    3  502    0  0.69543506889E+03 -0.35637112593E+03 -0.15082133021E+04  0.16986346780E+04  0.46999998093E+01 0.  1.
       -5    1    3    3    0  502 -0.69543506889E+03  0.35637112593E+03  0.12810880094E+04  0.15006128389E+04  0.46999998093E+01 0. -1.
</event>
<event>
 5   0  0.4149487E-07  0.3866879E+04  0.7818609E-02  0.8031953E-01
       -2   -1    0    0    0  501  0.00000000000E+00  0.00000000000E+00  0.21949680187E+04  0.21949680187E+04  0.25500000920E-02 0.  1.
        2   -1    0    0  501    0  0.00000000000E+00  0.00000000000E+00 -0.17030715983E+04  0.17030715983E+04  0.25500000920E-02 0. -1.
    10030    2    1    2    0    0  0.00000000000E+00  0.00000000000E+00  0.49189642034E+03  0.38980396170E+04  0.38668786854E+04 0.  0.
        2    1    3    3  502    0  0.20751056501E+03  0.19222383559E+04  0.23459869513E+03  0.19475876051E+04  0.25500000920E-02 0.  1.
       -2    1    3    3    0  502 -0.20751056501E+03 -0.19222383559E+04  0.25729772521E+03  0.19504520120E+04  0.25500000920E-02 0. -1.
</event>
<event>
 5   0  0.1368865E-07  0.3999360E+04  0.7818609E-02  0.8004676E-01
        1   -1    0    0  501    0  0.00000000000E+00  0.00000000000E+00  0.30916108064E+04  0.30916108064E+04  0.50400001928E-02 0.  1.
       -1   -1    0    0    0  501  0.00000000000E+00  0.00000000000E+00 -0.12934100203E+04  0.12934100203E+04  0.50400001928E-02 0. -1.
    10030    2    1    2    0    0  0.00000000000E+00  0.00000000000E+00  0.17982007862E+04  0.43850208267E+04  0.39993601468E+04 0.  0.
        5    1    3    3  502    0  0.82776956694E+03 -0.15498148966E+04  0.19459301787E+04  0.26217923296E+04  0.46999998093E+01 0.  1.
       -5    1    3    3    0  502 -0.82776956694E+03  0.15498148966E+04 -0.14772939252E+03  0.17632284971E+04  0.46999998093E+01 0. -1.
</event>
</LesHouchesEvents>
